unknown system                          
   1.00000000000000     
     3.190316    0.000000    0.000000
    -1.595158    2.762894    0.000000
     0.000000    0.000000   14.879004
   Mo   S 
     2     4
Direct
  0.333333  0.666667  0.250000
  0.666667  0.333333  0.750000
  0.333333  0.666667  0.855174
  0.666667  0.333333  0.144826
  0.666666  0.333333  0.355174
  0.333334  0.666667  0.644826
 
   36   36  160
 0.38935     0.39236     0.40142     0.41663     0.43800     0.46543     0.49854     0.53672     0.57907     0.62450    
 0.67163     0.71891     0.76464     0.80706     0.84452     0.87546     0.89861     0.91293     0.91777     0.91291    
 0.89856     0.87540     0.84444     0.80697     0.76454     0.71881     0.67154     0.62441     0.57900     0.53665    
 0.49849     0.46539     0.43797     0.41660     0.40141     0.39236     0.39236     0.39236     0.39839     0.41053    
 0.42884     0.45329     0.48362     0.51935     0.55975     0.60381     0.65031     0.69778     0.74460     0.78901    
 0.82930     0.86383     0.89115     0.91009     0.91978     0.91977     0.91005     0.89109     0.86375     0.82922    
 0.78893     0.74451     0.69769     0.65022     0.60372     0.55967     0.51929     0.48357     0.45325     0.42882    
 0.41052     0.39838     0.40141     0.39839     0.40142     0.41053     0.42579     0.44722     0.47465     0.50775    
 0.54590     0.58828     0.63380     0.68113     0.72872     0.77487     0.81781     0.85582     0.88731     0.91091    
 0.92553     0.93048     0.92551     0.91086     0.88724     0.85574     0.81773     0.77479     0.72863     0.68104    
 0.63371     0.58820     0.54584     0.50769     0.47461     0.44718     0.42577     0.41052     0.41660     0.41052    
 0.41052     0.41661     0.42884     0.44722     0.47166     0.50194     0.53759     0.57793     0.62206     0.66881    
 0.71676     0.76427     0.80956     0.85083     0.88637     0.91461     0.93424     0.94432     0.94431     0.93423    
 0.91457     0.88631     0.85076     0.80947     0.76417     0.71667     0.66873     0.62199     0.57787     0.53753    
 0.50190     0.47163     0.44718     0.42882     0.43797     0.42882     0.42578     0.42883     0.43799     0.45328    
 0.47465     0.50194     0.53482     0.57277     0.61505     0.66070     0.70846     0.75681     0.80398     0.84815    
 0.88746     0.92019     0.94482     0.96013     0.96533     0.96013     0.94481     0.92016     0.88740     0.84806    
 0.80389     0.75671     0.70838     0.66063     0.61499     0.57271     0.53477     0.50190     0.47461     0.45325    
 0.46539     0.45326     0.44720     0.44720     0.45327     0.46541     0.48360     0.50774     0.53758     0.57277    
 0.61272     0.65668     0.70359     0.75209     0.80051     0.84700     0.88964     0.92654     0.95599     0.97654    
 0.98710     0.98710     0.97653     0.95597     0.92650     0.88958     0.84692     0.80042     0.75201     0.70353    
 0.65662     0.61266     0.57271     0.53754     0.50770     0.48357     0.49848     0.48358     0.47463     0.47164    
 0.47463     0.48359     0.49851     0.51932     0.54588     0.57792     0.61505     0.65668     0.70199     0.74982    
 0.79866     0.84670     0.89199     0.93253     0.96644     0.99205      1.0080      1.0134      1.0080     0.99203    
 0.96641     0.93249     0.89194     0.84664     0.79859     0.74975     0.70193     0.65662     0.61499     0.57787    
 0.54584     0.51929     0.53665     0.51930     0.50771     0.50192     0.50192     0.50772     0.51932     0.53668    
 0.55971     0.58824     0.62204     0.66069     0.70359     0.74982     0.79809     0.84671     0.89375     0.93717    
 0.97494      1.0052      1.0264      1.0373      1.0373      1.0263      1.0052     0.97491     0.93714     0.89371    
 0.84665     0.79802     0.74976     0.70353     0.66063     0.62198     0.58821     0.55968     0.57900     0.55968    
 0.54585     0.53756     0.53480     0.53756     0.54588     0.55972     0.57904     0.60376     0.63375     0.66877    
 0.70843     0.75207     0.79865     0.84671     0.89441     0.93970     0.98049      1.0148      1.0407      1.0569    
  1.0624      1.0569      1.0407      1.0147     0.98047     0.93967     0.89436     0.84664     0.79859     0.75202    
 0.70838     0.66872     0.63371     0.60373     0.62442     0.60373     0.58822     0.57789     0.57274     0.57274    
 0.57791     0.58825     0.60378     0.62446     0.65026     0.68108     0.71671     0.75675     0.80047     0.84668    
 0.89375     0.93970     0.98242      1.0198      1.0498      1.0709      1.0818      1.0818      1.0709      1.0498    
  1.0198     0.98240     0.93967     0.89370     0.84663     0.80043     0.75672     0.71667     0.68103     0.65022    
 0.67155     0.65023     0.63372     0.62201     0.61502     0.61270     0.61502     0.62203     0.63377     0.65027    
 0.67159     0.69774     0.72867     0.76421     0.80391     0.84695     0.89196     0.93716     0.98049      1.0198    
  1.0530      1.0782      1.0940      1.0993      1.0940      1.0782      1.0530      1.0198     0.98048     0.93713    
 0.89192     0.84692     0.80390     0.76418     0.72862     0.69769     0.71882     0.69770     0.68104     0.66874    
 0.66066     0.65666     0.65666     0.66067     0.66878     0.68109     0.69774     0.71887     0.74456     0.77483    
 0.80950     0.84808     0.88958     0.93250     0.97492      1.0148      1.0498      1.0782      1.0981      1.1084    
  1.1084      1.0981      1.0782      1.0498      1.0148     0.97492     0.93248     0.88956     0.84807     0.80948    
 0.77478     0.74450     0.76454     0.74452     0.72864     0.71668     0.70841     0.70357     0.70198     0.70357    
 0.70844     0.71673     0.72868     0.74455     0.76459     0.78897     0.81776     0.85077     0.88740     0.92649    
 0.96640      1.0052      1.0407      1.0709      1.0940      1.1085      1.1134      1.1085      1.0940      1.0709    
  1.0407      1.0052     0.96641     0.92649     0.88740     0.85077     0.81773     0.78891     0.80696     0.78893    
 0.77479     0.76418     0.75673     0.75205     0.74980     0.74981     0.75207     0.75679     0.76425     0.77484    
 0.78897     0.80701     0.82925     0.85576     0.88631     0.92014     0.95595     0.99200      1.0263      1.0569    
  1.0818      1.0994      1.1085      1.1085      1.0993      1.0818      1.0569      1.0264     0.99204     0.95596    
 0.92015     0.88632     0.85575     0.82920     0.84442     0.82921     0.81774     0.80949     0.80391     0.80046    
 0.79863     0.79807     0.79864     0.80050     0.80398     0.80955     0.81779     0.82926     0.84447     0.86376    
 0.88724     0.91455     0.94478     0.97650      1.0080      1.0372      1.0624      1.0818      1.0940      1.0982    
  1.0940      1.0818      1.0624      1.0372      1.0080     0.97653     0.94479     0.91457     0.88726     0.86375    
 0.87539     0.86375     0.85576     0.85078     0.84808     0.84695     0.84668     0.84670     0.84669     0.84669    
 0.84700     0.84815     0.85084     0.85581     0.86381     0.87543     0.89109     0.91084     0.93419     0.96009    
 0.98707      1.0134      1.0372      1.0569      1.0709      1.0782      1.0782      1.0709      1.0569      1.0372    
  1.0134     0.98711     0.96012     0.93421     0.91087     0.89110     0.89856     0.89109     0.88725     0.88633    
 0.88741     0.88959     0.89197     0.89375     0.89441     0.89375     0.89199     0.88964     0.88747     0.88639    
 0.88732     0.89115     0.89859     0.91004     0.92547     0.94426     0.96528     0.98707      1.0080      1.0264    
  1.0407      1.0498      1.0530      1.0498      1.0407      1.0264      1.0080     0.98712     0.96533     0.94430    
 0.92551     0.91006     0.91291     0.91005     0.91086     0.91458     0.92017     0.92651     0.93252     0.93718    
 0.93973     0.93973     0.93719     0.93255     0.92656     0.92022     0.91464     0.91093     0.91010     0.91292    
 0.91975     0.93044     0.94426     0.96007     0.97650     0.99202      1.0052      1.0148      1.0198      1.0198    
  1.0148      1.0052     0.99204     0.97655     0.96014     0.94431     0.93047     0.91978     0.91778     0.91977    
 0.92550     0.93423     0.94482     0.95600     0.96644     0.97496     0.98053     0.98246     0.98053     0.97499    
 0.96649     0.95604     0.94486     0.93428     0.92556     0.91980     0.91777     0.91976     0.92548     0.93418    
 0.94476     0.95594     0.96641     0.97493     0.98049     0.98243     0.98050     0.97494     0.96643     0.95599    
 0.94483     0.93424     0.92552     0.91978     0.91293     0.91979     0.93047     0.94431     0.96015     0.97657    
 0.99207      1.0052      1.0148      1.0198      1.0198      1.0148      1.0053     0.99211     0.97660     0.96019    
 0.94436     0.93052     0.91980     0.91292     0.91006     0.91086     0.91455     0.92013     0.92648     0.93249    
 0.93715     0.93970     0.93972     0.93718     0.93252     0.92653     0.92020     0.91462     0.91090     0.91009    
 0.89861     0.91009     0.92553     0.94431     0.96535     0.98715      1.0080      1.0264      1.0408      1.0499    
  1.0530      1.0499      1.0408      1.0264      1.0081     0.98718     0.96540     0.94437     0.92555     0.91009    
 0.89859     0.89111     0.88726     0.88631     0.88740     0.88958     0.89195     0.89373     0.89441     0.89377    
 0.89199     0.88963     0.88746     0.88638     0.88731     0.89114     0.87546     0.89115     0.91091     0.93425    
 0.96015     0.98715      1.0135      1.0373      1.0570      1.0710      1.0783      1.0782      1.0710      1.0570    
  1.0373      1.0135     0.98718     0.96021     0.93429     0.91092     0.89113     0.87543     0.86377     0.85576    
 0.85078     0.84810     0.84696     0.84667     0.84669     0.84671     0.84671     0.84699     0.84814     0.85084    
 0.85583     0.86382     0.84450     0.86382     0.88732     0.91462     0.94484     0.97658      1.0081      1.0373    
  1.0625      1.0818      1.0941      1.0982      1.0940      1.0818      1.0625      1.0373      1.0081     0.97661    
 0.94489     0.91464     0.88731     0.86380     0.84447     0.82924     0.81775     0.80950     0.80394     0.80048    
 0.79864     0.79808     0.79867     0.80051     0.80397     0.80956     0.81782     0.82930     0.80705     0.82929    
 0.85583     0.88639     0.92021     0.95602     0.99209      1.0264      1.0570      1.0818      1.0994      1.1085    
  1.1085      1.0994      1.0818      1.0570      1.0264     0.99209     0.95605     0.92024     0.88639     0.85581    
 0.82927     0.80701     0.78895     0.77481     0.76422     0.75676     0.75206     0.74981     0.74983     0.75210    
 0.75679     0.76426     0.77488     0.78902     0.76464     0.78901     0.81782     0.85085     0.88748     0.92656    
 0.96648      1.0053      1.0408      1.0710      1.0940      1.1085      1.1135      1.1085      1.0940      1.0710    
  1.0408      1.0052     0.96648     0.92657     0.88747     0.85083     0.81780     0.78899     0.76459     0.74454    
 0.72866     0.71672     0.70843     0.70358     0.70200     0.70361     0.70846     0.71675     0.72872     0.74461    
 0.71892     0.74460     0.77488     0.80958     0.84817     0.88965     0.93256     0.97500      1.0148      1.0499    
  1.0783      1.0982      1.1085      1.1085      1.0982      1.0783      1.0499      1.0148     0.97498     0.93256    
 0.88964     0.84813     0.80954     0.77486     0.74458     0.71887     0.69773     0.68108     0.66877     0.66067    
 0.65667     0.65669     0.66071     0.66880     0.68112     0.69779     0.67164     0.69779     0.72873     0.76428    
 0.80400     0.84702     0.89201     0.93722     0.98055      1.0199      1.0530      1.0783      1.0941      1.0994    
  1.0940      1.0783      1.0530      1.0198     0.98053     0.93720     0.89200     0.84699     0.80395     0.76424    
 0.72870     0.69775     0.67159     0.65027     0.63376     0.62203     0.61503     0.61272     0.61506     0.62206    
 0.63379     0.65031     0.62450     0.65032     0.68113     0.71677     0.75683     0.80054     0.84674     0.89380    
 0.93976     0.98248      1.0198      1.0499      1.0710      1.0819      1.0818      1.0710      1.0499      1.0198    
 0.98245     0.93973     0.89377     0.84671     0.80049     0.75677     0.71673     0.68109     0.65027     0.62446    
 0.60378     0.58826     0.57791     0.57276     0.57277     0.57794     0.58827     0.60380     0.57907     0.60382    
 0.63381     0.66882     0.70849     0.75213     0.79870     0.84675     0.89446     0.93976     0.98054      1.0148    
  1.0408      1.0570      1.0625      1.0570      1.0408      1.0148     0.98052     0.93971     0.89441     0.84671    
 0.79866     0.75207     0.70844     0.66878     0.63376     0.60376     0.57904     0.55972     0.54588     0.53758    
 0.53482     0.53760     0.54590     0.55974     0.53671     0.55975     0.58829     0.62208     0.66073     0.70364    
 0.74987     0.79813     0.84676     0.89381     0.93722     0.97498      1.0052      1.0264      1.0373      1.0373    
  1.0264      1.0052     0.97497     0.93717     0.89374     0.84669     0.79807     0.74981     0.70358     0.66069    
 0.62204     0.58824     0.55970     0.53668     0.51933     0.50773     0.50194     0.50195     0.50775     0.51935    
 0.49854     0.51936     0.54592     0.57796     0.61508     0.65672     0.70204     0.74987     0.79870     0.84674    
 0.89203     0.93257     0.96647     0.99208      1.0080      1.0135      1.0080     0.99208     0.96646     0.93253    
 0.89196     0.84667     0.79862     0.74979     0.70197     0.65667     0.61504     0.57791     0.54587     0.51932    
 0.49851     0.48360     0.47464     0.47167     0.47466     0.48362     0.46543     0.48362     0.50776     0.53761    
 0.57280     0.61276     0.65672     0.70363     0.75212     0.80053     0.84703     0.88966     0.92657     0.95603    
 0.97658     0.98714     0.98713     0.97656     0.95600     0.92652     0.88960     0.84695     0.80046     0.75204    
 0.70355     0.65665     0.61270     0.57275     0.53757     0.50773     0.48360     0.46541     0.45327     0.44721    
 0.44722     0.45329     0.43800     0.45329     0.47467     0.50196     0.53485     0.57280     0.61509     0.66074    
 0.70849     0.75682     0.80399     0.84816     0.88748     0.92022     0.94485     0.96016     0.96535     0.96014    
 0.94481     0.92016     0.88741     0.84809     0.80392     0.75674     0.70841     0.66065     0.61501     0.57274    
 0.53480     0.50192     0.47464     0.45327     0.43799     0.42884     0.42579     0.42885     0.41663     0.42885    
 0.44723     0.47168     0.50196     0.53761     0.57796     0.62209     0.66883     0.71678     0.76428     0.80957    
 0.85084     0.88638     0.91462     0.93426     0.94433     0.94431     0.93423     0.91457     0.88632     0.85077    
 0.80948     0.76420     0.71669     0.66875     0.62201     0.57789     0.53755     0.50191     0.47164     0.44720    
 0.42883     0.41661     0.41053     0.41053     0.40142     0.41054     0.42580     0.44723     0.47467     0.50776    
 0.54591     0.58829     0.63381     0.68114     0.72874     0.77489     0.81782     0.85582     0.88730     0.91090    
 0.92553     0.93048     0.92551     0.91087     0.88725     0.85575     0.81772     0.77478     0.72864     0.68105    
 0.63373     0.58822     0.54585     0.50771     0.47462     0.44719     0.42578     0.41052     0.40142     0.39839    
 0.39236     0.39840     0.41054     0.42885     0.45329     0.48363     0.51936     0.55975     0.60381     0.65031    
 0.69779     0.74461     0.78903     0.82930     0.86382     0.89114     0.91008     0.91978     0.91977     0.91006    
 0.89110     0.86375     0.82921     0.78892     0.74450     0.69769     0.65023     0.60374     0.55969     0.51930    
 0.48358     0.45325     0.42882     0.41052     0.39839     0.39236     0.39948     0.40269     0.41232     0.42845    
 0.45104     0.47994     0.51474     0.55482     0.59931     0.64710     0.69680     0.74680     0.79532     0.84048    
 0.88047     0.91360     0.93843     0.95381     0.95901     0.95379     0.93838     0.91354     0.88039     0.84039    
 0.79522     0.74670     0.69670     0.64701     0.59924     0.55476     0.51468     0.47989     0.45101     0.42843    
 0.41231     0.40268     0.40268     0.40268     0.40959     0.42341     0.44414     0.47164     0.50558     0.54542    
 0.59039     0.63947     0.69138     0.74455     0.79720     0.84737     0.89306     0.93237     0.96358     0.98525    
 0.99635     0.99634     0.98521     0.96352     0.93230     0.89298     0.84728     0.79711     0.74446     0.69129    
 0.63939     0.59032     0.54536     0.50553     0.47160     0.44412     0.42339     0.40958     0.41231     0.40862    
 0.41232     0.42341     0.44186     0.46754     0.50018     0.53932     0.58429     0.63418     0.68783     0.74378    
 0.80028     0.85532     0.90679     0.95255     0.99060      1.0192      1.0369      1.0429      1.0369      1.0191    
 0.99053     0.95247     0.90671     0.85524     0.80019     0.74369     0.68774     0.63410     0.58422     0.53927    
 0.50014     0.46751     0.44184     0.42340     0.42843     0.42056     0.42056     0.42844     0.44414     0.46754    
 0.49841     0.53634     0.58076     0.63089     0.68571     0.74389     0.80378     0.86337     0.92045     0.97271    
  1.0179      1.0539      1.0789      1.0918      1.0918      1.0789      1.0538      1.0178     0.97263     0.92036    
 0.86327     0.80368     0.74381     0.68564     0.63082     0.58070     0.53629     0.49837     0.46751     0.44412    
 0.45101     0.43859     0.43443     0.43859     0.45103     0.47163     0.50018     0.53633     0.57960     0.62933    
 0.68463     0.74434     0.80694     0.87051     0.93280     0.99135      1.0437      1.0873      1.1202      1.1407    
  1.1477      1.1407      1.1202      1.0873      1.0436     0.99127     0.93270     0.87042     0.80686     0.74427    
 0.68457     0.62927     0.57955     0.53629     0.50014     0.47160     0.47989     0.46265     0.45399     0.45399    
 0.46266     0.47991     0.50556     0.53931     0.58075     0.62933     0.68431     0.74469     0.80914     0.87586    
 0.94265      1.0070      1.0661      1.1174      1.1584      1.1871      1.2018      1.2018      1.1871      1.1584    
  1.1174      1.0661      1.0069     0.94256     0.87578     0.80907     0.74463     0.68425     0.62927     0.58070    
 0.53927     0.50553     0.51468     0.49253     0.47916     0.47468     0.47916     0.49255     0.51471     0.54539    
 0.58426     0.63087     0.68463     0.74469     0.80993     0.87873     0.94902      1.0182      1.0836      1.1422    
  1.1912      1.2283      1.2513      1.2592      1.2513      1.2282      1.1912      1.1421      1.0835      1.0182    
 0.94895     0.87867     0.80987     0.74463     0.68456     0.63083     0.58423     0.54536     0.55475     0.52777    
 0.50964     0.50053     0.50053     0.50964     0.52779     0.55478     0.59035     0.63414     0.68568     0.74433    
 0.80913     0.87873     0.95122      1.0242      1.0947      1.1598      1.2164      1.2618      1.2935      1.3098    
  1.3098      1.2935      1.2618      1.2164      1.1598      1.0947      1.0241     0.95116     0.87867     0.80907    
 0.74427     0.68563     0.63410     0.59032     0.59924     0.56765     0.54489     0.53117     0.52658     0.53117    
 0.54492     0.56768     0.59927     0.63942     0.68778     0.74385     0.80691     0.87584     0.94901      1.0242    
  1.0985      1.1690      1.2323      1.2855      1.3257      1.3507      1.3592      1.3507      1.3257      1.2855    
  1.2323      1.1690      1.0985      1.0241     0.94895     0.87579     0.80686     0.74380     0.68774     0.63939    
 0.64702     0.61122     0.58416     0.56604     0.55694     0.55694     0.56604     0.58420     0.61127     0.64706    
 0.69133     0.74373     0.80372     0.87045     0.94261      1.0182      1.0947      1.1690      1.2378      1.2978    
  1.3459      1.3795      1.3969      1.3969      1.3796      1.3459      1.2977      1.2378      1.1690      1.0946    
  1.0182     0.94258     0.87043     0.80368     0.74368     0.69129     0.69672     0.65729     0.62643     0.60431    
 0.59101     0.58657     0.59101     0.60433     0.62648     0.65734     0.69675     0.74451     0.80023     0.86330    
 0.93273      1.0069      1.0836      1.1598      1.2323      1.2978      1.3528      1.3944      1.4204      1.4293    
  1.4205      1.3944      1.3528      1.2977      1.2323      1.1598      1.0835      1.0069     0.93272     0.86327    
 0.80018     0.74446     0.74671     0.70443     0.67046     0.64495     0.62795     0.61945     0.61945     0.62796    
 0.64499     0.67051     0.70446     0.74675     0.79716     0.85527     0.92038     0.99127      1.0661      1.1421    
  1.2164      1.2855      1.3459      1.3944      1.4285      1.4460      1.4460      1.4285      1.3944      1.3459    
  1.2855      1.2164      1.1421      1.0660     0.99127     0.92037     0.85523     0.79710     0.79522     0.75100    
 0.71479     0.68668     0.66669     0.65474     0.65076     0.65474     0.66672     0.68674     0.71483     0.75103    
 0.79526     0.84732     0.90673     0.97264      1.0436      1.1174      1.1912      1.2617      1.3257      1.3796    
  1.4205      1.4460      1.4547      1.4460      1.4204      1.3795      1.3257      1.2618      1.1912      1.1174    
  1.0436     0.97265     0.90671     0.84727     0.84038     0.79526     0.75781     0.72805     0.70593     0.69133    
 0.68407     0.68407     0.69135     0.70599     0.72811     0.75785     0.79530     0.84043     0.89301     0.95248    
  1.0178      1.0873      1.1584      1.2282      1.2934      1.3507      1.3969      1.4293      1.4460      1.4460    
  1.4293      1.3969      1.3507      1.2935      1.2283      1.1584      1.0873      1.0178     0.95248     0.89297    
 0.88038     0.83548     0.79786     0.76749     0.74425     0.72792     0.71826     0.71506     0.71826     0.72796    
 0.74432     0.76755     0.79791     0.83553     0.88042     0.93231     0.99053      1.0538      1.1202      1.1870    
  1.2513      1.3098      1.3592      1.3969      1.4204      1.4285      1.4205      1.3969      1.3592      1.3098    
  1.2513      1.1871      1.1202      1.0538     0.99055     0.93230     0.91353     0.87002     0.83334     0.80343    
 0.78011     0.76309     0.75201     0.74656     0.74656     0.75202     0.76314     0.78018     0.80349     0.83339    
 0.87008     0.91356     0.96351      1.0191      1.0789      1.1407      1.2017      1.2591      1.3098      1.3507    
  1.3795      1.3944      1.3944      1.3795      1.3507      1.3098      1.2592      1.2018      1.1407      1.0789    
  1.0192     0.96353     0.93838     0.89741     0.86275     0.83438     0.81204     0.79536     0.78390     0.77724    
 0.77505     0.77723     0.78392     0.79541     0.81210     0.83443     0.86281     0.89747     0.93840     0.98519    
  1.0369      1.0918      1.1476      1.2017      1.2513      1.2935      1.3257      1.3459      1.3528      1.3459    
  1.3257      1.2935      1.2513      1.2018      1.1477      1.0918      1.0369     0.98522     0.95379     0.91643    
 0.88481     0.85897     0.83863     0.82332     0.81252     0.80569     0.80240     0.80240     0.80570     0.81255    
 0.82337     0.83868     0.85902     0.88487     0.91647     0.95379     0.99631      1.0429      1.0918      1.1406    
  1.1870      1.2282      1.2618      1.2855      1.2977      1.2978      1.2855      1.2618      1.2283      1.1871    
  1.1407      1.0918      1.0429     0.99635     0.95902     0.92618     0.89849     0.87608     0.85866     0.84567    
 0.83651     0.83056     0.82724     0.82618     0.82724     0.83058     0.83655     0.84571     0.85869     0.87613    
 0.89855     0.92620     0.95901     0.99632      1.0369      1.0789      1.1202      1.1584      1.1912      1.2164    
  1.2323      1.2378      1.2323      1.2164      1.1912      1.1584      1.1202      1.0789      1.0369     0.99635    
 0.95381     0.92619     0.90314     0.88487     0.87112     0.86129     0.85469     0.85057     0.84827     0.84726    
 0.84725     0.84827     0.85060     0.85472     0.86133     0.87115     0.88492     0.90318     0.92620     0.95379    
 0.98521      1.0191      1.0538      1.0872      1.1174      1.1421      1.1598      1.1690      1.1690      1.1598    
  1.1422      1.1174      1.0873      1.0539      1.0192     0.98524     0.93843     0.91647     0.89852     0.88487    
 0.87534     0.86933     0.86604     0.86463     0.86430     0.86440     0.86447     0.86438     0.86430     0.86465    
 0.86607     0.86936     0.87539     0.88492     0.89853     0.91645     0.93840     0.96353     0.99054      1.0178    
  1.0436      1.0661      1.0836      1.0947      1.0985      1.0947      1.0836      1.0661      1.0437      1.0179    
 0.99060     0.96357     0.91359     0.89747     0.88485     0.87610     0.87112     0.86933     0.86990     0.87188    
 0.87436     0.87653     0.87776     0.87774     0.87650     0.87435     0.87189     0.86992     0.86937     0.87117    
 0.87614     0.88485     0.89745     0.91356     0.93231     0.95249     0.97265     0.99129      1.0069      1.0182    
  1.0241      1.0242      1.0182      1.0070     0.99134     0.97272     0.95256     0.93236     0.88046     0.87010    
 0.86281     0.85901     0.85867     0.86130     0.86605     0.87188     0.87778     0.88280     0.88616     0.88732    
 0.88613     0.88278     0.87778     0.87189     0.86605     0.86133     0.85872     0.85903     0.86279     0.87007    
 0.88042     0.89299     0.90672     0.92039     0.93275     0.94261     0.94899     0.95122     0.94902     0.94265    
 0.93279     0.92045     0.90680     0.89306     0.84047     0.83557     0.83341     0.83444     0.83867     0.84570    
 0.85471     0.86463     0.87435     0.88279     0.88902     0.89233     0.89231     0.88901     0.88279     0.87435    
 0.86463     0.85471     0.84572     0.83869     0.83443     0.83339     0.83554     0.84043     0.84730     0.85525    
 0.86331     0.87047     0.87584     0.87873     0.87874     0.87587     0.87050     0.86336     0.85533     0.84738    
 0.79532     0.79534     0.79794     0.80351     0.81210     0.82336     0.83655     0.85060     0.86430     0.87651    
 0.88614     0.89232     0.89444     0.89231     0.88615     0.87652     0.86430     0.85058     0.83654     0.82337    
 0.81210     0.80349     0.79792     0.79532     0.79526     0.79713     0.80021     0.80372     0.80691     0.80912    
 0.80993     0.80915     0.80694     0.80376     0.80028     0.79721     0.74681     0.75108     0.75789     0.76758    
 0.78020     0.79542     0.81256     0.83059     0.84829     0.86440     0.87775     0.88732     0.89232     0.89231    
 0.88732     0.87776     0.86440     0.84827     0.83057     0.81255     0.79541     0.78016     0.76755     0.75787    
 0.75105     0.74675     0.74450     0.74373     0.74385     0.74431     0.74468     0.74470     0.74435     0.74388    
 0.74377     0.74456     0.69681     0.70452     0.71488     0.72815     0.74435     0.76316     0.78395     0.80573    
 0.82727     0.84727     0.86449     0.87776     0.88615     0.88901     0.88614     0.87775     0.86448     0.84726    
 0.82724     0.80571     0.78394     0.76313     0.74429     0.72810     0.71484     0.70447     0.69675     0.69134    
 0.68779     0.68568     0.68461     0.68430     0.68464     0.68571     0.68782     0.69138     0.64710     0.65738    
 0.67055     0.68678     0.70603     0.72801     0.75207     0.77728     0.80243     0.82620     0.84727     0.86440    
 0.87653     0.88281     0.88280     0.87651     0.86440     0.84726     0.82617     0.80240     0.77725     0.75204    
 0.72795     0.70597     0.68673     0.67051     0.65733     0.64706     0.63944     0.63415     0.63087     0.62932    
 0.62933     0.63089     0.63417     0.63946     0.59931     0.61131     0.62652     0.64503     0.66677     0.69141    
 0.71833     0.74662     0.77510     0.80244     0.82726     0.84827     0.86430     0.87437     0.87779     0.87436    
 0.86430     0.84827     0.82723     0.80239     0.77505     0.74657     0.71828     0.69135     0.66672     0.64499    
 0.62647     0.61125     0.59927     0.59036     0.58427     0.58074     0.57960     0.58076     0.58429     0.59038    
 0.55482     0.56772     0.58424     0.60438     0.62802     0.65480     0.68414     0.71513     0.74662     0.77729    
 0.80573     0.83058     0.85058     0.86463     0.87189     0.87189     0.86463     0.85058     0.83056     0.80568    
 0.77722     0.74655     0.71506     0.68408     0.65475     0.62797     0.60434     0.58419     0.56767     0.55478    
 0.54539     0.53931     0.53633     0.53634     0.53933     0.54541     0.51473     0.52783     0.54496     0.56610    
 0.59107     0.61951     0.65082     0.68413     0.71833     0.75208     0.78397     0.81257     0.83655     0.85470    
 0.86604     0.86990     0.86604     0.85469     0.83653     0.81252     0.78390     0.75200     0.71825     0.68406    
 0.65075     0.61946     0.59103     0.56605     0.54491     0.52779     0.51471     0.50556     0.50017     0.49841    
 0.50019     0.50558     0.47993     0.49258     0.50969     0.53122     0.55700     0.58663     0.61951     0.65480    
 0.69140     0.72800     0.76317     0.79543     0.82338     0.84571     0.86130     0.86933     0.86932     0.86128    
 0.84568     0.82333     0.79537     0.76309     0.72792     0.69132     0.65472     0.61944     0.58657     0.55695    