unknown system                          
   1.00000000000000     
     3.190316    0.000000    0.000000
    -1.595158    2.762894    0.000000
     0.000000    0.000000   14.879004
   Mo   S 
     2     4
Direct
  0.333333  0.666667  0.250000
  0.666667  0.333333  0.750000
  0.333333  0.666667  0.855174
  0.666667  0.333333  0.144826
  0.666666  0.333333  0.355174
  0.333334  0.666667  0.644826
 
   36   36  160
 0.38935435147E+00 0.39236205850E+00 0.40142268522E+00 0.41662549400E+00 0.43800471459E+00
 0.46543153417E+00 0.49854252864E+00 0.53671553984E+00 0.57907418570E+00 0.62449742132E+00
 0.67162982206E+00 0.71891004253E+00 0.76463612578E+00 0.80706440485E+00 0.84451587387E+00
 0.87546467523E+00 0.89860675748E+00 0.91292600612E+00 0.91776789828E+00 0.91290506885E+00
 0.89856468767E+00 0.87540214774E+00 0.84443567228E+00 0.80697177166E+00 0.76453782420E+00
 0.71881265574E+00 0.67153828318E+00 0.62441449677E+00 0.57900094110E+00 0.53665225013E+00
 0.49848938591E+00 0.46538880688E+00 0.43797244780E+00 0.41660313680E+00 0.40140904396E+00
 0.39235571808E+00 0.39235605149E+00 0.39235903070E+00 0.39839415401E+00 0.41053296242E+00
 0.42884383093E+00 0.45328573009E+00 0.48361780866E+00 0.51935222608E+00 0.55974598510E+00
 0.60380812378E+00 0.65030629202E+00 0.69778177954E+00 0.74459519105E+00 0.78901000940E+00
 0.82929577398E+00 0.86382505643E+00 0.89115375167E+00 0.91009285944E+00 0.91978316345E+00
 0.91976965877E+00 0.91005308076E+00 0.89109182205E+00 0.86374964497E+00 0.82921550748E+00
 0.78892792572E+00 0.74450965761E+00 0.69769214823E+00 0.65021593423E+00 0.60372285456E+00
 0.55967136247E+00 0.51929163772E+00 0.48357127525E+00 0.45325062864E+00 0.42881770498E+00
 0.41051515000E+00 0.39838437222E+00 0.40141000741E+00 0.39838797828E+00 0.40141635414E+00
 0.41053027250E+00 0.42579450862E+00 0.44721629476E+00 0.47465266095E+00 0.50774664575E+00
 0.54590199114E+00 0.58828034993E+00 0.63379911893E+00 0.68112991315E+00 0.72872207116E+00
 0.77486941625E+00 0.81780824876E+00 0.85581819520E+00 0.88731057688E+00 0.91090906981E+00
 0.92553259255E+00 0.93048116615E+00 0.92550986731E+00 0.91086276000E+00 0.88724486570E+00
 0.85574214478E+00 0.81772806182E+00 0.77478516792E+00 0.72863322347E+00 0.68103991808E+00
 0.63371335563E+00 0.58820316957E+00 0.54583673350E+00 0.50769498833E+00 0.47461286113E+00
 0.44718499823E+00 0.42577083291E+00 0.41051548333E+00 0.41660421498E+00 0.41051976057E+00
 0.41052245138E+00 0.41661486169E+00 0.42883863159E+00 0.44721501046E+00 0.47166489820E+00
 0.50194085885E+00 0.53758832361E+00 0.57793126281E+00 0.62206042604E+00 0.66881286224E+00
 0.71676486645E+00 0.76427231055E+00 0.80956091300E+00 0.85083406357E+00 0.88637006839E+00
 0.91460918887E+00 0.93424380887E+00 0.94431590302E+00 0.94431119631E+00 0.93422512730E+00
 0.91456942492E+00 0.88630853608E+00 0.85075519238E+00 0.80946944647E+00 0.76417494968E+00
 0.71667181703E+00 0.66873158405E+00 0.62199045427E+00 0.57786915009E+00 0.53753401349E+00
 0.50189550193E+00 0.47162708452E+00 0.44718391996E+00 0.42881696005E+00 0.43797244781E+00
 0.42882325993E+00 0.42577937670E+00 0.42882845489E+00 0.43798864469E+00 0.45327676838E+00
 0.47464887313E+00 0.50194000272E+00 0.53481930263E+00 0.57276547065E+00 0.61504869482E+00
 0.66069779100E+00 0.70846107512E+00 0.75680548530E+00 0.80398392866E+00 0.84814787691E+00
 0.88746024855E+00 0.92019270892E+00 0.94482141099E+00 0.96013229023E+00 0.96532999159E+00
 0.96013075406E+00 0.94480705521E+00 0.92015570601E+00 0.88739868375E+00 0.84806445345E+00
 0.80388628078E+00 0.75670886573E+00 0.70838000129E+00 0.66063322323E+00 0.61499101253E+00
 0.57270955919E+00 0.53476846364E+00 0.50189666748E+00 0.47461189767E+00 0.45324805149E+00
 0.46538652185E+00 0.45325659655E+00 0.44719638895E+00 0.44719771059E+00 0.45326562647E+00
 0.46540904113E+00 0.48360132330E+00 0.50773580937E+00 0.53758480879E+00 0.57276715448E+00
 0.61272362474E+00 0.65668064226E+00 0.70359098982E+00 0.75208802626E+00 0.80050986454E+00
 0.84700006161E+00 0.88963548865E+00 0.92654107755E+00 0.95599492687E+00 0.97654007300E+00
 0.98710255059E+00 0.98710253725E+00 0.97653352420E+00 0.95597177807E+00 0.92649913718E+00
 0.88957637471E+00 0.84692432016E+00 0.80042447039E+00 0.75200831396E+00 0.70352533562E+00
 0.65662177215E+00 0.61266325104E+00 0.57270951790E+00 0.53753737687E+00 0.50769727342E+00
 0.48356865679E+00 0.49848480317E+00 0.48357688111E+00 0.47462774633E+00 0.47164494900E+00
 0.47463144265E+00 0.48359324525E+00 0.49851361827E+00 0.51932430721E+00 0.54587899729E+00
 0.57792103070E+00 0.61505012612E+00 0.65668396079E+00 0.70199319898E+00 0.74982180805E+00
 0.79865757988E+00 0.84669886260E+00 0.89198538159E+00 0.93253154215E+00 0.96644473633E+00
 0.99204567549E+00 0.10079947806E+01 0.10134137222E+01 0.10079889309E+01 0.99202545338E+00
 0.96640999022E+00 0.93249030237E+00 0.89193753496E+00 0.84663776703E+00 0.79858728247E+00
 0.74975466323E+00 0.70193099774E+00 0.65661948702E+00 0.61498642981E+00 0.57787022838E+00
 0.54584227967E+00 0.51929197101E+00 0.53664777851E+00 0.51929663905E+00 0.50771232191E+00
 0.50191842831E+00 0.50191922513E+00 0.50772306669E+00 0.51932455224E+00 0.53668167224E+00
 0.55970585971E+00 0.58824309530E+00 0.62203754070E+00 0.66068855275E+00 0.70358762545E+00
 0.74982075761E+00 0.79808606439E+00 0.84670723714E+00 0.89374974851E+00 0.93716904427E+00
 0.97494287773E+00 0.10052000757E+01 0.10263578038E+01 0.10372521114E+01 0.10372523493E+01
 0.10263495547E+01 0.10051744512E+01 0.97490905809E+00 0.93713615844E+00 0.89370862618E+00
 0.84664859328E+00 0.79801972079E+00 0.74975913472E+00 0.70352752195E+00 0.66062650788E+00
 0.62198490453E+00 0.58820764109E+00 0.55967616725E+00 0.57900094102E+00 0.55967682093E+00
 0.54585361528E+00 0.53756055828E+00 0.53479533820E+00 0.53756428888E+00 0.54587673206E+00
 0.55971686838E+00 0.57903754615E+00 0.60376070564E+00 0.63375126775E+00 0.66877242338E+00
 0.70842829958E+00 0.75206588165E+00 0.79865048809E+00 0.84670925249E+00 0.89440686579E+00
 0.93970067729E+00 0.98049071424E+00 0.10147553285E+01 0.10406985781E+01 0.10568954818E+01
 0.10624119917E+01 0.10569066799E+01 0.10406980105E+01 0.10147358256E+01 0.98046569603E+00
 0.93967088689E+00 0.89435802727E+00 0.84664469155E+00 0.79859186525E+00 0.75201897230E+00
 0.70838000121E+00 0.66872213251E+00 0.63371239223E+00 0.60373089447E+00 0.62442194479E+00
 0.60373054858E+00 0.58821616691E+00 0.57789472973E+00 0.57274081826E+00 0.57273922533E+00
 0.57790506582E+00 0.58825334600E+00 0.60377789060E+00 0.62445980209E+00 0.65025991241E+00
 0.68107902542E+00 0.71670784783E+00 0.75674702839E+00 0.80046815547E+00 0.84668467992E+00
 0.89375177434E+00 0.93970323830E+00 0.98242235445E+00 0.10197890046E+01 0.10498317589E+01
 0.10708919305E+01 0.10817591672E+01 0.10817733882E+01 0.10709138236E+01 0.10498334184E+01
 0.10197744913E+01 0.98240370844E+00 0.93966996159E+00 0.89369670663E+00 0.84663031909E+00
 0.80043420357E+00 0.75671855748E+00 0.71666544720E+00 0.68103247011E+00 0.65022304895E+00
 0.67155080162E+00 0.65022621836E+00 0.63372074791E+00 0.62200950137E+00 0.61502409139E+00
 0.61269829180E+00 0.61502244045E+00 0.62203226585E+00 0.63376869482E+00 0.65027265890E+00
 0.67159024272E+00 0.69774195950E+00 0.72867476845E+00 0.76420672849E+00 0.80391164780E+00
 0.84694810994E+00 0.89196229103E+00 0.93716122442E+00 0.98048875999E+00 0.10197928120E+01
 0.10529792245E+01 0.10781878830E+01 0.10939573886E+01 0.10993376770E+01 0.10939777653E+01
 0.10781971335E+01 0.10529686545E+01 0.10197819394E+01 0.98047821443E+00 0.93713168680E+00
 0.89192043376E+00 0.84692203515E+00 0.80389879924E+00 0.76417602783E+00 0.72862166844E+00
 0.69769248164E+00 0.71882257367E+00 0.69770243991E+00 0.68104326607E+00 0.66874203937E+00
 0.66066395297E+00 0.65666298625E+00 0.65665954787E+00 0.66067306697E+00 0.66878260450E+00
 0.68109425788E+00 0.69774192249E+00 0.71886600604E+00 0.74456037046E+00 0.77482546226E+00
 0.80949506838E+00 0.84807722356E+00 0.88958257785E+00 0.93249668624E+00 0.97491965799E+00
 0.10147506591E+01 0.10498484592E+01 0.10782059832E+01 0.10981409635E+01 0.11084396321E+01
 0.11084462994E+01 0.10981429889E+01 0.10781872156E+01 0.10498309486E+01 0.10147541169E+01
 0.97492344740E+00 0.93248038430E+00 0.88956417170E+00 0.84807212764E+00 0.80947828604E+00
 0.77477524987E+00 0.74450007306E+00 0.76453782430E+00 0.74451588337E+00 0.72863669915E+00
 0.71667783410E+00 0.70840573373E+00 0.70356985997E+00 0.70197702910E+00 0.70357329459E+00
 0.70843862916E+00 0.71673496278E+00 0.72868403747E+00 0.74455066972E+00 0.76458696267E+00
 0.78897159324E+00 0.81775986465E+00 0.85077124658E+00 0.88740025817E+00 0.92649201525E+00
 0.96640137698E+00 0.10051698846E+01 0.10406997271E+01 0.10709205790E+01 0.10939858445E+01
 0.11084515317E+01 0.11133865641E+01 0.11084512010E+01 0.10939652467E+01 0.10708915561E+01
 0.10406980107E+01 0.10051937423E+01 0.96641457280E+00 0.92648660263E+00 0.88739868384E+00
 0.85076893371E+00 0.81772709821E+00 0.78891277273E+00 0.80696130206E+00 0.78892803296E+00
 0.77479264067E+00 0.76418405833E+00 0.75673025191E+00 0.75205020411E+00 0.74980424513E+00
 0.74980543395E+00 0.75207255594E+00 0.75678873971E+00 0.76424967953E+00 0.77483695847E+00
 0.78896698451E+00 0.80701296467E+00 0.82924558119E+00 0.85575874199E+00 0.88631044880E+00
 0.92014452243E+00 0.95595225899E+00 0.99200413834E+00 0.10263329060E+01 0.10568997559E+01
 0.10817784311E+01 0.10993521929E+01 0.11084558817E+01 0.11084600198E+01 0.10993481465E+01
 0.10817554702E+01 0.10568878370E+01 0.10263555531E+01 0.99203592304E+00 0.95596359334E+00
 0.92014748015E+00 0.88632008414E+00 0.85575261440E+00 0.82920470429E+00 0.84442159354E+00
 0.82921135687E+00 0.81774001797E+00 0.80948597601E+00 0.80390552537E+00 0.80045784604E+00
 0.79863393029E+00 0.79806677918E+00 0.79864120850E+00 0.80049955868E+00 0.80397755182E+00
 0.80955170312E+00 0.81778863172E+00 0.82926175211E+00 0.84446862635E+00 0.86376420752E+00
 0.88724246618E+00 0.91455269307E+00 0.94478049766E+00 0.97650365564E+00 0.10079628815E+01
 0.10372360497E+01 0.10624087276E+01 0.10817679614E+01 0.10939717659E+01 0.10981508817E+01
 0.10939839858E+01 0.10817666150E+01 0.10623979129E+01 0.10372478779E+01 0.10079984269E+01
 0.97653123896E+00 0.94479297649E+00 0.91457050327E+00 0.88725990783E+00 0.86374997815E+00
 0.87539302451E+00 0.86374522154E+00 0.85575504903E+00 0.85077637303E+00 0.84808243112E+00
 0.84694697472E+00 0.84667574580E+00 0.84669533708E+00 0.84669321320E+00 0.84668966487E+00
 0.84699862550E+00 0.84815281059E+00 0.85083894242E+00 0.85581428188E+00 0.86380590468E+00
 0.87542880278E+00 0.89109260781E+00 0.91084131270E+00 0.93418893087E+00 0.96009005404E+00
 0.98706785872E+00 0.10133922708E+01 0.10372451727E+01 0.10568984091E+01 0.10708966363E+01
 0.10781869424E+01 0.10781970062E+01 0.10709085015E+01 0.10568947320E+01 0.10372474599E+01
 0.10134228453E+01 0.98710937506E+00 0.96011938711E+00 0.93421492604E+00 0.91087188308E+00
 0.89110127831E+00 0.89856468754E+00 0.89108992522E+00 0.88725362751E+00 0.88632716541E+00
 0.88741476083E+00 0.88959157315E+00 0.89196709374E+00 0.89375498604E+00 0.89440968095E+00
 0.89375258136E+00 0.89198993513E+00 0.88964459332E+00 0.88747486904E+00 0.88638663160E+00
 0.88732160223E+00 0.89115131874E+00 0.89858593259E+00 0.91004299604E+00 0.92547336647E+00
 0.94425994221E+00 0.96527911297E+00 0.98706533118E+00 0.10079769603E+01 0.10263550263E+01
 0.10406997269E+01 0.10498268905E+01 0.10529667061E+01 0.10498359616E+01 0.10406985781E+01
 0.10263506246E+01 0.10079993634E+01 0.98711648632E+00 0.96532999146E+00 0.94429846735E+00
 0.92550890390E+00 0.91006439805E+00 0.91291264059E+00 0.91005397866E+00 0.91086428304E+00
 0.91457994334E+00 0.92017009073E+00 0.92651441517E+00 0.93251817750E+00 0.93718443800E+00
 0.93972843714E+00 0.93972589696E+00 0.93719243328E+00 0.93255344828E+00 0.92656390048E+00
 0.92021842627E+00 0.91463642873E+00 0.91093223742E+00 0.91010427694E+00 0.91291944824E+00
 0.91975170627E+00 0.93043599502E+00 0.94425586326E+00 0.96007335927E+00 0.97649608405E+00
 0.99202217997E+00 0.10051922760E+01 0.10147530051E+01 0.10197852402E+01 0.10197891283E+01
 0.10147545269E+01 0.10051880324E+01 0.99203810379E+00 0.97654992991E+00 0.96014210572E+00
 0.94430940944E+00 0.93047359440E+00 0.91977689721E+00 0.91777825713E+00 0.91977217375E+00
 0.92550495914E+00 0.93422703761E+00 0.94482176256E+00 0.95599505222E+00 0.96644460819E+00
 0.97496193881E+00 0.98052931263E+00 0.98246212710E+00 0.98053156196E+00 0.97498553441E+00
 0.96648819462E+00 0.95603773835E+00 0.94486258765E+00 0.93428183612E+00 0.92556413977E+00
 0.91980358810E+00 0.91777305254E+00 0.91975927804E+00 0.92548372527E+00 0.93417980769E+00
 0.94475606006E+00 0.95594178940E+00 0.96641173599E+00 0.97492957594E+00 0.98049091956E+00
 0.98242980246E+00 0.98050107305E+00 0.97493840611E+00 0.96642979469E+00 0.95599264181E+00
 0.94483176986E+00 0.93424488703E+00 0.92552319708E+00 0.91978349681E+00 0.91293357780E+00
 0.91978585687E+00 0.93047385490E+00 0.94430799372E+00 0.96014742473E+00 0.97656841324E+00
 0.99207129792E+00 0.10052320438E+01 0.10148026788E+01 0.10198366003E+01 0.10198328089E+01
 0.10148072676E+01 0.10052619329E+01 0.99211249936E+00 0.97660471927E+00 0.96018966813E+00
 0.94436374488E+00 0.93051859796E+00 0.91979601638E+00 0.91291944836E+00 0.91006221849E+00
 0.91085800736E+00 0.91454512116E+00 0.92012648090E+00 0.92648476741E+00 0.93249434006E+00
 0.93715365272E+00 0.93970311467E+00 0.93971662232E+00 0.93718108740E+00 0.93252397030E+00
 0.92653122070E+00 0.92019803687E+00 0.91461568226E+00 0.91090149798E+00 0.91008562105E+00
 0.89860675752E+00 0.91009411509E+00 0.92552791374E+00 0.94431259949E+00 0.96534770209E+00
 0.98714582928E+00 0.10080444491E+01 0.10264094631E+01 0.10407640509E+01 0.10498999778E+01
 0.10530253418E+01 0.10498832767E+01 0.10407626540E+01 0.10264339288E+01 0.10080761800E+01
 0.98718079519E+00 0.96539887137E+00 0.94436782372E+00 0.92555378079E+00 0.91008505461E+00
 0.89858593276E+00 0.89111338155E+00 0.88725654480E+00 0.88630926782E+00 0.88740025812E+00
 0.88958431044E+00 0.89194977246E+00 0.89373267575E+00 0.89440686592E+00 0.89376587064E+00
 0.89198996420E+00 0.88962612309E+00 0.88746024859E+00 0.88638064072E+00 0.88730961330E+00
 0.89114176767E+00 0.87545555232E+00 0.89115213049E+00 0.91091073466E+00 0.93424547987E+00
 0.96014873548E+00 0.98714590699E+00 0.10134729723E+01 0.10373124833E+01 0.10569698227E+01
 0.10709850278E+01 0.10782674083E+01 0.10782494066E+01 0.10709565885E+01 0.10569657213E+01
 0.10373286504E+01 0.10134945522E+01 0.98718332287E+00 0.96020636291E+00 0.93429095901E+00
 0.91091554252E+00 0.89113054514E+00 0.87542880291E+00 0.86377333059E+00 0.85576008872E+00
 0.85077694325E+00 0.84809626450E+00 0.84695723277E+00 0.84666810873E+00 0.84669175627E+00
 0.84671188875E+00 0.84670798555E+00 0.84699322361E+00 0.84814099774E+00 0.85084426490E+00
 0.85582731812E+00 0.86381559996E+00 0.84450179512E+00 0.86382086075E+00 0.88731925805E+00
 0.91461943231E+00 0.94483596546E+00 0.97657516874E+00 0.10080503763E+01 0.10373121431E+01
 0.10624736604E+01 0.10818478713E+01 0.10940626035E+01 0.10982211609E+01 0.10940340196E+01
 0.10818287185E+01 0.10624773163E+01 0.10373195273E+01 0.10080621014E+01 0.97661229118E+00
 0.94488702526E+00 0.91464400032E+00 0.88730752343E+00 0.86379678168E+00 0.84446862636E+00
 0.82923511142E+00 0.81774578606E+00 0.80950498652E+00 0.80393824497E+00 0.80047560329E+00
 0.79863640929E+00 0.79808159296E+00 0.79866707584E+00 0.80050757929E+00 0.80396984992E+00
 0.80956199135E+00 0.81782329089E+00 0.82929610716E+00 0.80705393487E+00 0.82929200978E+00
 0.85583103378E+00 0.88638840901E+00 0.92020715028E+00 0.95601853559E+00 0.99209167527E+00
 0.10264174524E+01 0.10569586731E+01 0.10818338220E+01 0.10994287473E+01 0.11085364600E+01
 0.11085243247E+01 0.10994138532E+01 0.10818391883E+01 0.10569670679E+01 0.10264118083E+01
 0.99209445798E+00 0.95604820829E+00 0.92023646777E+00 0.88638781240E+00 0.85581293516E+00
 0.82927222186E+00 0.80701296453E+00 0.78894630374E+00 0.77480507471E+00 0.76421719845E+00
 0.75676494614E+00 0.75206378502E+00 0.74981475936E+00 0.74983227787E+00 0.75209621080E+00
 0.75679277159E+00 0.76426076257E+00 0.77487988609E+00 0.78902081239E+00 0.76463612563E+00
 0.78901060673E+00 0.81782034674E+00 0.85085492521E+00 0.88747639031E+00 0.92655670602E+00
 0.96647950206E+00 0.10052573496E+01 0.10407644424E+01 0.10709634358E+01 0.10940421338E+01
 0.11085295452E+01 0.11134615690E+01 0.11085199749E+01 0.10940480985E+01 0.10709805312E+01
 0.10407626538E+01 0.10052395414E+01 0.96647783587E+00 0.92657114851E+00 0.88747486900E+00
 0.85083324582E+00 0.81780271057E+00 0.78899227390E+00 0.76458696241E+00 0.74453563271E+00
 0.72866225010E+00 0.71671521960E+00 0.70842829950E+00 0.70357727723E+00 0.70199778181E+00
 0.70360809462E+00 0.70846107496E+00 0.71674896843E+00 0.72872110781E+00 0.74460967741E+00
 0.71891996055E+00 0.74460165301E+00 0.77487705359E+00 0.80957716480E+00 0.84816576112E+00
 0.88965090068E+00 0.93255940533E+00 0.97499546582E+00 0.10148218245E+01 0.10498984541E+01
 0.10782582380E+01 0.10982187582E+01 0.11085246434E+01 0.11085160722E+01 0.10982112431E+01
 0.10782684478E+01 0.10499048453E+01 0.10148049212E+01 0.97497561639E+00 0.93255579462E+00
 0.88964286064E+00 0.84813376951E+00 0.80954178529E+00 0.77485734644E+00 0.74457540731E+00
 0.71886600577E+00 0.69773204142E+00 0.68108149547E+00 0.66877396808E+00 0.66067416314E+00
 0.65667404284E+00 0.65669284550E+00 0.66070995276E+00 0.66880402235E+00 0.68111999516E+00
 0.69779136431E+00 0.67164234069E+00 0.69779185431E+00 0.72872547299E+00 0.76428132463E+00
 0.80400308184E+00 0.84702274219E+00 0.89201471642E+00 0.93721711412E+00 0.98055427139E+00
 0.10198511740E+01 0.10530361657E+01 0.10782681561E+01 0.10940546523E+01 0.10994182774E+01
 0.10940360062E+01 0.10782582855E+01 0.10530378605E+01 0.10198403806E+01 0.98052940221E+00
 0.93720000510E+00 0.89200245371E+00 0.84698950229E+00 0.80395095447E+00 0.76423920999E+00
 0.72869655626E+00 0.69775184041E+00 0.67159024253E+00 0.65026736046E+00 0.63376378633E+00
 0.62203306906E+00 0.61503302473E+00 0.61272133973E+00 0.61506121346E+00 0.62206150418E+00
 0.63378756371E+00 0.65030662543E+00 0.62450486944E+00 0.65031615784E+00 0.68113305389E+00
 0.71677101724E+00 0.75682699074E+00 0.80054317627E+00 0.84673655055E+00 0.89379601094E+00
 0.93975870408E+00 0.98248104891E+00 0.10198437259E+01 0.10499009242E+01 0.10709857037E+01
 0.10818517398E+01 0.10818404230E+01 0.10709684566E+01 0.10498957755E+01 0.10198364767E+01
 0.98245467895E+00 0.93972602068E+00 0.89377168026E+00 0.84670623596E+00 0.80049211035E+00
 0.75677082179E+00 0.71672759138E+00 0.68109178813E+00 0.65026521078E+00 0.62445980206E+00
 0.60377652712E+00 0.58825501486E+00 0.57791358243E+00 0.57275742124E+00 0.57277067504E+00
 0.57793763263E+00 0.58827290169E+00 0.60380100899E+00 0.57907418575E+00 0.60381559213E+00
 0.63380649766E+00 0.66882355385E+00 0.70848701198E+00 0.75212988575E+00 0.79870407777E+00
 0.84675396445E+00 0.89445909081E+00 0.93975962934E+00 0.98054175267E+00 0.10148035331E+01
 0.10407644426E+01 0.10569775165E+01 0.10624877390E+01 0.10569705722E+01 0.10407640509E+01
 0.10148034805E+01 0.98051895369E+00 0.93971249197E+00 0.89440968112E+00 0.84671070981E+00
 0.79865528716E+00 0.75207465213E+00 0.70843862911E+00 0.66878105996E+00 0.63375617630E+00
 0.60376206917E+00 0.57903754628E+00 0.55971870471E+00 0.54588357995E+00 0.53757872041E+00
 0.53481930267E+00 0.53759561881E+00 0.54590102761E+00 0.55973727828E+00 0.53671106828E+00
 0.55975147984E+00 0.58829356660E+00 0.62207965236E+00 0.66072851260E+00 0.70363552215E+00
 0.74987143781E+00 0.79813309451E+00 0.84675786631E+00 0.89380793074E+00 0.93722158565E+00
 0.97498107601E+00 0.10052380583E+01 0.10264114544E+01 0.10373166149E+01 0.10373171347E+01
 0.10264166421E+01 0.10052440872E+01 0.97496641038E+00 0.93717239453E+00 0.89373886378E+00
 0.84669068582E+00 0.79807125094E+00 0.74981143212E+00 0.70358364261E+00 0.66068745652E+00
 0.62203673738E+00 0.58824142625E+00 0.55970402351E+00 0.53668167246E+00 0.51932877886E+00
 0.50773362280E+00 0.50193777490E+00 0.50194640879E+00 0.50775111736E+00 0.51934742105E+00
 0.49853794569E+00 0.51935727735E+00 0.54591901319E+00 0.57795693116E+00 0.61508154872E+00
 0.65672180361E+00 0.70203935443E+00 0.74986696616E+00 0.79869949490E+00 0.84674399881E+00
 0.89203181803E+00 0.93256932328E+00 0.96647491901E+00 0.99208120545E+00 0.10080408805E+01
 0.10134638493E+01 0.10080398663E+01 0.99207886976E+00 0.96645955005E+00 0.93252574920E+00
 0.89196251074E+00 0.84666662274E+00 0.79862443454E+00 0.74979377547E+00 0.70197244631E+00
 0.65666946595E+00 0.61503954187E+00 0.57791251375E+00 0.54587214906E+00 0.51932008074E+00
 0.49851361849E+00 0.48359903816E+00 0.47464429020E+00 0.47166597649E+00 0.47465820734E+00
 0.48361814195E+00 0.46542924881E+00 0.48362330831E+00 0.50776385698E+00 0.53761493554E+00
 0.57279659718E+00 0.61275849258E+00 0.65672408885E+00 0.70363333572E+00 0.75211922701E+00
 0.80053344294E+00 0.84702502759E+00 0.88966310408E+00 0.92656924050E+00 0.95602672005E+00
 0.97657745391E+00 0.98713906916E+00 0.98713189341E+00 0.97655855633E+00 0.95599733759E+00
 0.92652427226E+00 0.88960093857E+00 0.84695381248E+00 0.80046013122E+00 0.75204201955E+00
 0.70355275509E+00 0.65665078317E+00 0.61270057719E+00 0.57274895866E+00 0.53757037687E+00
 0.50772525291E+00 0.48359553049E+00 0.46540904125E+00 0.45327223929E+00 0.44721164695E+00
 0.44721858003E+00 0.45328834866E+00 0.43800471458E+00 0.45329154064E+00 0.47466737018E+00
 0.50196386502E+00 0.53484629191E+00 0.57279663845E+00 0.61508613168E+00 0.66073522824E+00
 0.70848701191E+00 0.75681729853E+00 0.80399056321E+00 0.84815808719E+00 0.88747639046E+00
 0.92021537616E+00 0.94485004422E+00 0.96016010247E+00 0.96534770202E+00 0.96013760896E+00
 0.94481140372E+00 0.92016476307E+00 0.88741476094E+00 0.84808931025E+00 0.80391960412E+00
 0.75674296560E+00 0.70840573362E+00 0.66065179095E+00 0.61501157295E+00 0.57273561432E+00
 0.53479533826E+00 0.50192145266E+00 0.47463602539E+00 0.45327015558E+00 0.43798864467E+00
 0.42883530931E+00 0.42579354517E+00 0.42884574160E+00 0.41662657247E+00 0.42884935221E+00
 0.44722771840E+00 0.47168281512E+00 0.50196269940E+00 0.53761157190E+00 0.57795585281E+00
 0.62208520245E+00 0.66883300574E+00 0.71677738696E+00 0.76428024615E+00 0.80956832509E+00
 0.85084118390E+00 0.88637686096E+00 0.91461835407E+00 0.93425568140E+00 0.94432532854E+00
 0.94431448704E+00 0.93422595918E+00 0.91457344997E+00 0.88631659318E+00 0.85076617170E+00
 0.80948489777E+00 0.76419560659E+00 0.71669373215E+00 0.66875087886E+00 0.62200842290E+00
 0.57788836007E+00 0.53755326343E+00 0.50191287846E+00 0.47164387065E+00 0.44720107412E+00
 0.42883177710E+00 0.41661486155E+00 0.41052919410E+00 0.41053370748E+00 0.40142364884E+00
 0.41053767474E+00 0.42580323417E+00 0.44722879680E+00 0.47466833380E+00 0.50776157171E+00
 0.54591346663E+00 0.58828909499E+00 0.63380746136E+00 0.68114050213E+00 0.72873702804E+00
 0.77488697158E+00 0.81782131026E+00 0.85582056394E+00 0.88730421574E+00 0.91090161174E+00
 0.92552887749E+00 0.93048142673E+00 0.92551435445E+00 0.91087185478E+00 0.88725459109E+00
 0.85574592596E+00 0.81772497567E+00 0.77478217105E+00 0.72863766293E+00 0.68105318412E+00
 0.63373230277E+00 0.58822361488E+00 0.54585457886E+00 0.50770785039E+00 0.47462219999E+00
 0.44719410386E+00 0.42578034034E+00 0.41052352965E+00 0.40141635397E+00 0.39839448734E+00
 0.39236239187E+00 0.39839788119E+00 0.41053734130E+00 0.42885009716E+00 0.45329411810E+00
 0.48362592701E+00 0.51935694388E+00 0.55974667472E+00 0.60380755212E+00 0.65030904320E+00
 0.69779152099E+00 0.74461123772E+00 0.78902575994E+00 0.82930281294E+00 0.86382052722E+00
 0.89114267398E+00 0.91008279795E+00 0.91977861867E+00 0.91977184041E+00 0.91006121706E+00
 0.89110190937E+00 0.86375467799E+00 0.82921102334E+00 0.78891722971E+00 0.74450139722E+00
 0.69769285552E+00 0.65022588504E+00 0.60373766322E+00 0.55968552765E+00 0.51930144398E+00
 0.48357654764E+00 0.45325397799E+00 0.42882134957E+00 0.41051901576E+00 0.39838764483E+00
 0.39235903058E+00 0.39947999350E+00 0.40268523718E+00 0.41232417449E+00 0.42844799170E+00
 0.45104231889E+00 0.47993520570E+00 0.51473738021E+00 0.55482057031E+00 0.59931382558E+00
 0.64709758269E+00 0.69679741046E+00 0.74680068391E+00 0.79531752795E+00 0.84048267905E+00
 0.88047132353E+00 0.91360253310E+00 0.93842607002E+00 0.95380640038E+00 0.95901095623E+00
 0.95378528428E+00 0.93838382635E+00 0.91354011163E+00 0.88039150291E+00 0.84039018462E+00
 0.79521857685E+00 0.74670199921E+00 0.69670464018E+00 0.64701394255E+00 0.59924018300E+00
 0.55475683982E+00 0.51468371130E+00 0.47989201742E+00 0.45100972253E+00 0.42842543483E+00
 0.41231046984E+00 0.40267891544E+00 0.40267920141E+00 0.40268218115E+00 0.40958677633E+00
 0.42341278713E+00 0.44414181832E+00 0.47163703930E+00 0.50557679538E+00 0.54541953076E+00
 0.59039091521E+00 0.63947158147E+00 0.69137751839E+00 0.74455211349E+00 0.79719911508E+00
 0.84736633706E+00 0.89306152450E+00 0.93237264132E+00 0.96357810850E+00 0.98524938122E+00
 0.99635192340E+00 0.99633829242E+00 0.98520930735E+00 0.96351590909E+00 0.93229710062E+00
 0.89298111823E+00 0.84728380956E+00 0.79711278971E+00 0.74446168256E+00 0.69128671194E+00
 0.63938621256E+00 0.59031628613E+00 0.54535887668E+00 0.50553017743E+00 0.47160189074E+00
 0.44411566686E+00 0.42339495239E+00 0.40957698427E+00 0.41231140698E+00 0.40861746007E+00
 0.41231763412E+00 0.42340990183E+00 0.44185942939E+00 0.46754142565E+00 0.50018268015E+00
 0.53932151874E+00 0.58428647633E+00 0.63417657291E+00 0.68782832855E+00 0.74378137178E+00
 0.80027817971E+00 0.85532289181E+00 0.90678942746E+00 0.95254940916E+00 0.99059991240E+00
 0.10191879614E+01 0.10369333013E+01 0.10429443975E+01 0.10369104760E+01 0.10191413702E+01
 0.99053359092E+00 0.95247240403E+00 0.90670825746E+00 0.85523808869E+00 0.80018935086E+00
 0.74369169123E+00 0.68774285722E+00 0.63409963279E+00 0.58422154312E+00 0.53927028827E+00
 0.50014329221E+00 0.46751044733E+00 0.44183599787E+00 0.42339530876E+00 0.42842652488E+00
 0.42056175550E+00 0.42056436619E+00 0.42843685685E+00 0.44413607998E+00 0.46753978860E+00
 0.49840539333E+00 0.53633574766E+00 0.58075526638E+00 0.63088610517E+00 0.68570664030E+00
 0.74389256951E+00 0.80377628571E+00 0.86336873861E+00 0.92045203614E+00 0.97271212898E+00
 0.10178803697E+01 0.10538756263E+01 0.10789486153E+01 0.10918230399E+01 0.10918184936E+01
 0.10789301932E+01 0.10538357231E+01 0.10178180297E+01 0.97263219782E+00 0.92036006464E+00
 0.86327172788E+00 0.80368391725E+00 0.74381169651E+00 0.68563682079E+00 0.63082427746E+00
 0.58070150291E+00 0.53629105774E+00 0.49836829057E+00 0.46750942769E+00 0.44411500360E+00
 0.45100972254E+00 0.43858526162E+00 0.43443371126E+00 0.43859032801E+00 0.45102537170E+00
 0.47162712995E+00 0.50017824119E+00 0.53633453174E+00 0.57960494410E+00 0.62932720565E+00
 0.68462549507E+00 0.74433850053E+00 0.80694045028E+00 0.87051210713E+00 0.93280034668E+00
 0.99134846454E+00 0.10436524356E+01 0.10873199940E+01 0.11202332124E+01 0.11407122770E+01
 0.11476664996E+01 0.11407111172E+01 0.11202194249E+01 0.10872834110E+01 0.10435909779E+01
 0.99126509869E+00 0.93270300467E+00 0.87041586302E+00 0.80685944924E+00 0.74427380077E+00
 0.68456795590E+00 0.62927190337E+00 0.57955496858E+00 0.53629217248E+00 0.50014235507E+00
 0.47159939998E+00 0.47988971958E+00 0.46265213034E+00 0.45399169398E+00 0.45399292543E+00
 0.46266076360E+00 0.47991139617E+00 0.50555908038E+00 0.53930971402E+00 0.58075074111E+00
 0.62932804273E+00 0.68430501040E+00 0.74469060478E+00 0.80913783179E+00 0.87586256682E+00
 0.94265025774E+00 0.10069650387E+01 0.10661152409E+01 0.11174306760E+01 0.11584428954E+01
 0.11870692783E+01 0.12017884580E+01 0.12017884920E+01 0.11870630886E+01 0.11584206667E+01
 0.11173899739E+01 0.10660571469E+01 0.10068898021E+01 0.94256489659E+00 0.87578261082E+00
 0.80907199529E+00 0.74463204927E+00 0.68424562930E+00 0.62927181032E+00 0.58070475000E+00
 0.53927251569E+00 0.50552759360E+00 0.51467911406E+00 0.49253377744E+00 0.47915719196E+00
 0.47468294605E+00 0.47916038664E+00 0.49254925674E+00 0.51470675794E+00 0.54539011942E+00
 0.58426206577E+00 0.63087417405E+00 0.68462513230E+00 0.74469268721E+00 0.80992766234E+00
 0.87873444514E+00 0.94901563319E+00 0.10182376121E+01 0.10835908177E+01 0.11421814553E+01
 0.11912276230E+01 0.12282620634E+01 0.12513307935E+01 0.12591670744E+01 0.12513248957E+01
 0.12282421214E+01 0.11911937437E+01 0.11421414011E+01 0.10835438696E+01 0.10181767982E+01
 0.94894529685E+00 0.87866756866E+00 0.80986643205E+00 0.74462982180E+00 0.68456335867E+00
 0.63082529712E+00 0.58422707749E+00 0.54535923301E+00 0.55475231295E+00 0.52776709392E+00
 0.50963503351E+00 0.50052534575E+00 0.50052567970E+00 0.50964468813E+00 0.52779368258E+00
 0.55478459949E+00 0.59034895657E+00 0.63413762480E+00 0.68568188665E+00 0.74432703938E+00
 0.80913226212E+00 0.87873203769E+00 0.95122129242E+00 0.10241582246E+01 0.10947006527E+01
 0.11598055669E+01 0.12164368119E+01 0.12617809838E+01 0.12934689235E+01 0.13097745548E+01
 0.13097748986E+01 0.12934608911E+01 0.12617556813E+01 0.12164036665E+01 0.11597736752E+01
 0.10946603705E+01 0.10241001470E+01 0.95115586566E+00 0.87867216590E+00 0.80907436503E+00
 0.74426706911E+00 0.68563120395E+00 0.63410423004E+00 0.59032123968E+00 0.59924018292E+00
 0.56764595180E+00 0.54489356877E+00 0.53116922250E+00 0.52657981885E+00 0.53117183665E+00
 0.54491524729E+00 0.56768436929E+00 0.59927446764E+00 0.63942172249E+00 0.68777861132E+00
 0.74385048074E+00 0.80690560206E+00 0.87583796788E+00 0.94900652330E+00 0.10241592734E+01
 0.10985190914E+01 0.11689813277E+01 0.12323328462E+01 0.12854737738E+01 0.13256562970E+01
 0.13507124818E+01 0.13592365879E+01 0.13507249281E+01 0.13256570688E+01 0.12854552496E+01
 0.12323090168E+01 0.11689530430E+01 0.10984715506E+01 0.10240959789E+01 0.94894989414E+00
 0.87579360361E+00 0.80685944916E+00 0.74380191149E+00 0.68774192014E+00 0.63939462155E+00
 0.64702176491E+00 0.61122020451E+00 0.58416267839E+00 0.56603546305E+00 0.55694219501E+00