   6   6   0   0
  0.2185851E+02  0.3190316E-09  0.3190316E-09  0.1487900E-08  0.5000000E-15
  1.000000000000000E-004
  CAR 
 unknown system                          
      8.08727376    -12.92847111  301      3.32808320      1.00000000
    -12.928  0.0000E+00  0.0000E+00
    -12.858  0.0000E+00  0.0000E+00
    -12.788  0.0000E+00  0.0000E+00
    -12.718  0.0000E+00  0.0000E+00
    -12.648  0.0000E+00  0.0000E+00
    -12.578  0.0000E+00  0.0000E+00
    -12.508  0.0000E+00  0.0000E+00
    -12.438  0.0000E+00  0.0000E+00
    -12.368  0.0000E+00  0.0000E+00
    -12.298  0.0000E+00  0.0000E+00
    -12.228  0.0000E+00  0.0000E+00
    -12.158  0.0000E+00  0.0000E+00
    -12.088  0.0000E+00  0.0000E+00
    -12.018  0.0000E+00  0.0000E+00
    -11.948  0.0000E+00  0.0000E+00
    -11.878  0.0000E+00  0.0000E+00
    -11.808  0.0000E+00  0.0000E+00
    -11.738  0.0000E+00  0.0000E+00
    -11.668  0.0000E+00  0.0000E+00
    -11.597  0.0000E+00  0.0000E+00
    -11.527  0.0000E+00  0.0000E+00
    -11.457  0.0000E+00  0.0000E+00
    -11.387  0.0000E+00  0.0000E+00
    -11.317  0.0000E+00  0.0000E+00
    -11.247  0.0000E+00  0.0000E+00
    -11.177  0.0000E+00  0.0000E+00
    -11.107  0.0000E+00  0.0000E+00
    -11.037  0.0000E+00  0.0000E+00
    -10.967  0.0000E+00  0.0000E+00
    -10.897  0.5381E-01  0.7022E-03
    -10.827  0.2254E+00  0.1048E-01
    -10.757  0.3970E+00  0.3228E-01
    -10.687  0.5686E+00  0.6610E-01
    -10.617  0.7402E+00  0.1119E+00
    -10.547  0.9117E+00  0.1698E+00
    -10.477  0.1083E+01  0.2397E+00
    -10.407  0.1255E+01  0.3216E+00
    -10.337  0.1426E+01  0.4155E+00
    -10.266  0.1598E+01  0.5214E+00
    -10.196  0.1770E+01  0.6394E+00
    -10.126  0.1557E+01  0.7655E+00
    -10.056  0.1661E+01  0.8782E+00
     -9.986  0.1766E+01  0.9983E+00
     -9.916  0.1870E+01  0.1126E+01
     -9.846  0.1974E+01  0.1260E+01
     -9.776  0.2079E+01  0.1402E+01
     -9.706  0.2307E+01  0.1553E+01
     -9.636  0.3114E+01  0.1741E+01
     -9.566  0.3980E+01  0.1990E+01
     -9.496  0.4847E+01  0.2299E+01
     -9.426  0.5713E+01  0.2669E+01
     -9.356  0.6579E+01  0.3099E+01
     -9.286  0.6403E+01  0.3538E+01
     -9.216  0.7021E+01  0.4008E+01
     -9.146  0.2632E+02  0.5369E+01
     -9.076  0.5135E+01  0.5855E+01
     -9.006  0.5649E+01  0.6232E+01
     -8.935  0.6163E+01  0.6646E+01
     -8.865  0.0000E+00  0.8000E+01
     -8.795  0.0000E+00  0.8000E+01
     -8.725  0.0000E+00  0.8000E+01
     -8.655  0.0000E+00  0.8000E+01
     -8.585  0.0000E+00  0.8000E+01
     -8.515  0.0000E+00  0.8000E+01
     -8.445  0.0000E+00  0.8000E+01
     -8.375  0.0000E+00  0.8000E+01
     -8.305  0.0000E+00  0.8000E+01
     -8.235  0.0000E+00  0.8000E+01
     -8.165  0.0000E+00  0.8000E+01
     -8.095  0.0000E+00  0.8000E+01
     -8.025  0.0000E+00  0.8000E+01
     -7.955  0.0000E+00  0.8000E+01
     -7.885  0.0000E+00  0.8000E+01
     -7.815  0.0000E+00  0.8000E+01
     -7.745  0.0000E+00  0.8000E+01
     -7.675  0.0000E+00  0.8000E+01
     -7.604  0.0000E+00  0.8000E+01
     -7.534  0.0000E+00  0.8000E+01
     -7.464  0.0000E+00  0.8000E+01
     -7.394  0.0000E+00  0.8000E+01
     -7.324  0.0000E+00  0.8000E+01
     -7.254  0.0000E+00  0.8000E+01
     -7.184  0.0000E+00  0.8000E+01
     -7.114  0.0000E+00  0.8000E+01
     -7.044  0.0000E+00  0.8000E+01
     -6.974  0.0000E+00  0.8000E+01
     -6.904  0.0000E+00  0.8000E+01
     -6.834  0.0000E+00  0.8000E+01
     -6.764  0.0000E+00  0.8000E+01
     -6.694  0.0000E+00  0.8000E+01
     -6.624  0.0000E+00  0.8000E+01
     -6.554  0.0000E+00  0.8000E+01
     -6.484  0.0000E+00  0.8000E+01
     -6.414  0.0000E+00  0.8000E+01
     -6.344  0.0000E+00  0.8000E+01
     -6.273  0.0000E+00  0.8000E+01
     -6.203  0.0000E+00  0.8000E+01
     -6.133  0.0000E+00  0.8000E+01
     -6.063  0.0000E+00  0.8000E+01
     -5.993  0.0000E+00  0.8000E+01
     -5.923  0.0000E+00  0.8000E+01
     -5.853  0.0000E+00  0.8000E+01
     -5.783  0.0000E+00  0.8000E+01
     -5.713  0.0000E+00  0.8000E+01
     -5.643  0.0000E+00  0.8000E+01
     -5.573  0.0000E+00  0.8000E+01
     -5.503  0.0000E+00  0.8000E+01
     -5.433  0.0000E+00  0.8000E+01
     -5.363  0.0000E+00  0.8000E+01
     -5.293  0.0000E+00  0.8000E+01
     -5.223  0.0000E+00  0.8000E+01
     -5.153  0.0000E+00  0.8000E+01
     -5.083  0.0000E+00  0.8000E+01
     -5.013  0.0000E+00  0.8000E+01
     -4.942  0.0000E+00  0.8000E+01
     -4.872  0.0000E+00  0.8000E+01
     -4.802  0.0000E+00  0.8000E+01
     -4.732  0.0000E+00  0.8000E+01
     -4.662  0.0000E+00  0.8000E+01
     -4.592  0.0000E+00  0.8000E+01
     -4.522  0.0000E+00  0.8000E+01
     -4.452  0.0000E+00  0.8000E+01
     -4.382  0.0000E+00  0.8000E+01
     -4.312  0.0000E+00  0.8000E+01
     -4.242  0.0000E+00  0.8000E+01
     -4.172  0.0000E+00  0.8000E+01
     -4.102  0.0000E+00  0.8000E+01
     -4.032  0.0000E+00  0.8000E+01
     -3.962  0.0000E+00  0.8000E+01
     -3.892  0.0000E+00  0.8000E+01
     -3.822  0.0000E+00  0.8000E+01
     -3.752  0.0000E+00  0.8000E+01
     -3.682  0.0000E+00  0.8000E+01
     -3.611  0.0000E+00  0.8000E+01
     -3.541  0.0000E+00  0.8000E+01
     -3.471  0.0000E+00  0.8000E+01
     -3.401  0.0000E+00  0.8000E+01
     -3.331  0.0000E+00  0.8000E+01
     -3.261  0.0000E+00  0.8000E+01
     -3.191  0.0000E+00  0.8000E+01
     -3.121  0.0000E+00  0.8000E+01
     -3.051  0.0000E+00  0.8000E+01
     -2.981  0.0000E+00  0.8000E+01
     -2.911  0.0000E+00  0.8000E+01
     -2.841  0.0000E+00  0.8000E+01
     -2.771  0.0000E+00  0.8000E+01
     -2.701  0.0000E+00  0.8000E+01
     -2.631  0.0000E+00  0.8000E+01
     -2.561  0.3486E+00  0.8007E+01
     -2.491  0.1080E+01  0.8056E+01
     -2.421  0.1885E+01  0.8160E+01
     -2.351  0.2708E+01  0.8320E+01
     -2.280  0.3667E+01  0.8544E+01
     -2.210  0.4625E+01  0.8834E+01
     -2.140  0.5584E+01  0.9192E+01
     -2.070  0.6542E+01  0.9616E+01
     -2.000  0.7501E+01  0.1011E+02
     -1.930  0.9215E+01  0.1092E+02
     -1.860  0.4246E+01  0.1156E+02
     -1.790  0.5624E+01  0.1191E+02
     -1.720  0.1174E+02  0.1255E+02
     -1.650  0.4089E+01  0.1310E+02
     -1.580  0.2832E+01  0.1332E+02
     -1.510  0.2721E+01  0.1351E+02
     -1.440  0.2611E+01  0.1370E+02
     -1.370  0.2501E+01  0.1388E+02
     -1.300  0.2390E+01  0.1405E+02
     -1.230  0.2280E+01  0.1422E+02
     -1.160  0.2170E+01  0.1437E+02
     -1.090  0.2060E+01  0.1452E+02
     -1.020  0.1949E+01  0.1466E+02
     -0.949  0.1997E+01  0.1479E+02
     -0.879  0.2663E+01  0.1495E+02
     -0.809  0.3965E+01  0.1519E+02
     -0.739  0.5267E+01  0.1551E+02
     -0.669  0.6486E+01  0.1592E+02
     -0.599  0.7774E+01  0.1642E+02
     -0.529  0.9112E+01  0.1701E+02
     -0.459  0.2840E+02  0.1820E+02
     -0.389  0.7384E+01  0.1865E+02
     -0.319  0.2363E+01  0.1900E+02
     -0.249  0.2167E+01  0.1916E+02
     -0.179  0.1971E+01  0.1931E+02
     -0.109  0.7111E+01  0.1973E+02
     -0.039  0.2100E+02  0.2044E+02
      0.031  0.5410E+01  0.2101E+02
      0.101  0.4988E+01  0.2138E+02
      0.171  0.4566E+01  0.2171E+02
      0.241  0.4901E+01  0.2216E+02
      0.311  0.5380E+01  0.2267E+02
      0.382  0.5126E+01  0.2304E+02
      0.452  0.4872E+01  0.2339E+02
      0.522  0.4619E+01  0.2372E+02
      0.592  0.4551E+01  0.2404E+02
      0.662  0.5236E+01  0.2436E+02
      0.732  0.4801E+01  0.2470E+02
      0.802  0.4646E+01  0.2503E+02
      0.872  0.4492E+01  0.2535E+02
      0.942  0.4337E+01  0.2566E+02
      1.012  0.4183E+01  0.2596E+02
      1.082  0.4028E+01  0.2625E+02
      1.152  0.4060E+01  0.2653E+02
      1.222  0.4173E+01  0.2682E+02
      1.292  0.3166E+01  0.2709E+02
      1.362  0.5148E+01  0.2731E+02
      1.432  0.3812E+01  0.2762E+02
      1.502  0.5403E+01  0.2814E+02
      1.572  0.6197E+01  0.2855E+02
      1.642  0.8635E+01  0.2902E+02
      1.712  0.6255E+01  0.2994E+02
      1.783  0.7257E+01  0.3042E+02
      1.853  0.8259E+01  0.3096E+02
      1.923  0.4016E+01  0.3152E+02
      1.993  0.2844E+01  0.3176E+02
      2.063  0.1671E+01  0.3192E+02
      2.133  0.4984E+00  0.3199E+02
      2.203  0.0000E+00  0.3200E+02
      2.273  0.0000E+00  0.3200E+02
      2.343  0.0000E+00  0.3200E+02
      2.413  0.6251E+01  0.3220E+02
      2.483  0.2026E+02  0.3320E+02
      2.553  0.1669E+02  0.3451E+02
      2.623  0.1412E+01  0.3566E+02
      2.693  0.1172E+01  0.3575E+02
      2.763  0.9312E+00  0.3582E+02
      2.833  0.6908E+00  0.3588E+02
      2.903  0.4504E+00  0.3592E+02
      2.973  0.3210E+00  0.3595E+02
      3.043  0.2531E+00  0.3597E+02
      3.114  0.1852E+00  0.3598E+02
      3.184  0.1173E+00  0.3599E+02
      3.254  0.4947E-01  0.3600E+02
      3.324  0.0000E+00  0.3600E+02
      3.394  0.0000E+00  0.3600E+02
      3.464  0.0000E+00  0.3600E+02
      3.534  0.0000E+00  0.3600E+02
      3.604  0.0000E+00  0.3600E+02
      3.674  0.0000E+00  0.3600E+02
      3.744  0.0000E+00  0.3600E+02
      3.814  0.0000E+00  0.3600E+02
      3.884  0.0000E+00  0.3600E+02
      3.954  0.0000E+00  0.3600E+02
      4.024  0.0000E+00  0.3600E+02
      4.094  0.0000E+00  0.3600E+02
      4.164  0.0000E+00  0.3600E+02
      4.234  0.0000E+00  0.3600E+02
      4.304  0.0000E+00  0.3600E+02
      4.374  0.0000E+00  0.3600E+02
      4.445  0.0000E+00  0.3600E+02
      4.515  0.0000E+00  0.3600E+02
      4.585  0.0000E+00  0.3600E+02
      4.655  0.0000E+00  0.3600E+02
      4.725  0.0000E+00  0.3600E+02
      4.795  0.0000E+00  0.3600E+02
      4.865  0.0000E+00  0.3600E+02
      4.935  0.0000E+00  0.3600E+02
      5.005  0.0000E+00  0.3600E+02
      5.075  0.0000E+00  0.3600E+02
      5.145  0.1109E+02  0.3625E+02
      5.215  0.1373E+02  0.3723E+02
      5.285  0.1673E+01  0.3777E+02
      5.355  0.9763E+01  0.3878E+02
      5.425  0.7408E+01  0.3938E+02
      5.495  0.7876E+01  0.3985E+02
      5.565  0.8006E+01  0.4040E+02
      5.635  0.8136E+01  0.4097E+02
      5.705  0.8266E+01  0.4154E+02
      5.776  0.8396E+01  0.4213E+02
      5.846  0.3998E+01  0.4307E+02
      5.916  0.3755E+01  0.4334E+02
      5.986  0.3797E+01  0.4361E+02
      6.056  0.5947E-01  0.4400E+02
      6.126  0.0000E+00  0.4400E+02
      6.196  0.0000E+00  0.4400E+02
      6.266  0.0000E+00  0.4400E+02
      6.336  0.0000E+00  0.4400E+02
      6.406  0.0000E+00  0.4400E+02
      6.476  0.0000E+00  0.4400E+02
      6.546  0.0000E+00  0.4400E+02
      6.616  0.0000E+00  0.4400E+02
      6.686  0.0000E+00  0.4400E+02
      6.756  0.0000E+00  0.4400E+02
      6.826  0.0000E+00  0.4400E+02
      6.896  0.0000E+00  0.4400E+02
      6.966  0.0000E+00  0.4400E+02
      7.036  0.0000E+00  0.4400E+02
      7.107  0.0000E+00  0.4400E+02
      7.177  0.0000E+00  0.4400E+02
      7.247  0.0000E+00  0.4400E+02
      7.317  0.0000E+00  0.4400E+02
      7.387  0.0000E+00  0.4400E+02
      7.457  0.0000E+00  0.4400E+02
      7.527  0.0000E+00  0.4400E+02
      7.597  0.0000E+00  0.4400E+02
      7.667  0.0000E+00  0.4400E+02
      7.737  0.0000E+00  0.4400E+02
      7.807  0.0000E+00  0.4400E+02
      7.877  0.0000E+00  0.4400E+02
      7.947  0.0000E+00  0.4400E+02
      8.017  0.0000E+00  0.4400E+02
      8.087  0.0000E+00  0.4400E+02
