       N       E                     dE             d eps       ncg     rms          rms(c)
DAV:   1     0.211355323871E+03    0.21136E+03   -0.14752E+04   176   0.126E+03
DAV:   2    -0.249422193343E+02   -0.23630E+03   -0.22998E+03   244   0.263E+02
DAV:   3    -0.462752045200E+02   -0.21333E+02   -0.21237E+02   230   0.767E+01
DAV:   4    -0.468778130218E+02   -0.60261E+00   -0.60088E+00   234   0.147E+01
DAV:   5    -0.468952610200E+02   -0.17448E-01   -0.17444E-01   242   0.245E+00    0.968E+00
RMM:   6    -0.445097609805E+02    0.23855E+01   -0.23401E+01   195   0.191E+01    0.332E+00
RMM:   7    -0.438006798978E+02    0.70908E+00   -0.18803E+00   193   0.542E+00    0.178E+00
RMM:   8    -0.437376627156E+02    0.63017E-01   -0.89969E-01   200   0.335E+00    0.830E-01
RMM:   9    -0.437262490589E+02    0.11414E-01   -0.28607E-01   209   0.220E+00    0.553E-01
RMM:  10    -0.437111186464E+02    0.15130E-01   -0.56745E-02   208   0.103E+00    0.585E-02
RMM:  11    -0.437113720420E+02   -0.25340E-03   -0.33244E-03   228   0.217E-01    0.332E-02
RMM:  12    -0.437114968345E+02   -0.12479E-03   -0.51144E-04   225   0.108E-01    0.117E-02
RMM:  13    -0.437115153791E+02   -0.18545E-04   -0.21020E-04   233   0.553E-02    0.208E-02
RMM:  14    -0.437114997211E+02    0.15658E-04   -0.87015E-05   181   0.404E-02    0.334E-03
RMM:  15    -0.437114999225E+02   -0.20146E-06   -0.89830E-06   136   0.142E-02
   1 F= -.45042787E+02 E0= -.45042787E+02  d E =0.000000E+00
