 vasp.5.4.4.18Apr17-6-g9f103f2a35 (build Jun 30 2017 11:15:00) complex          
  
 executed on    STALLO_VASP_5.4.4 date 2019.11.08  12:18:01
 running on    4 total cores
 distrk:  each k-point on    4 cores,    1 groups
 distr:  one band on NCORES_PER_BAND=   2 cores,    2 groups


--------------------------------------------------------------------------------------------------------


 INCAR:
 POTCAR:   PAW_PBE Mo 08Apr2002                   
 POTCAR:    PAW_PBE S 17Jan2003                   
 POTCAR:   PAW_PBE Mo 08Apr2002                   
   VRHFIN =Mo: 4p5s4d                                                           
   LEXCH  = PE                                                                  
   EATOM  =   217.5180 eV,   15.9871 Ry                                         
                                                                                
   TITEL  = PAW_PBE Mo 08Apr2002                                                
   LULTRA =        F    use ultrasoft PP ?                                      
   IUNSCR =        1    unscreen: 0-lin 1-nonlin 2-no                           
   RPACOR =    2.200    partial core radius                                     
   POMASS =   95.940; ZVAL   =    6.000    mass and valenz                      
   RCORE  =    2.750    outmost cutoff radius                                   
   RWIGS  =    2.750; RWIGS  =    1.455    wigner-seitz radius (au A)           
   ENMAX  =  224.584; ENMIN  =  168.438 eV                                      
   RCLOC  =    2.111    cutoff for local pot                                    
   LCOR   =        T    correct aug charges                                     
   LPAW   =        T    paw PP                                                  
   EAUG   =  345.278                                                            
   DEXC   =    -.088                                                            
   RMAX   =    3.077    core radius for proj-oper                               
   RAUG   =    1.300    factor for augmentation sphere                          
   RDEP   =    2.815    radius for radial grids                                 
   QCUT   =   -4.063; QGAM   =    8.126    optimization parameters              
                                                                                
   Description                                                                  
     l     E      TYP  RCUT    TYP  RCUT                                        
     2   .000     23  2.500                                                     
     2   .000     23  2.500                                                     
     0   .000     23  2.600                                                     
     0  1.000     23  2.600                                                     
     1   .400     23  2.750                                                     
     1  2.000     23  2.750                                                     
     3   .000      7   .000                                                     
  local pseudopotential read in
  partial core-charges read in
  atomic valenz-charges read in
  non local Contribution for L=           2  read in
    real space projection operators read in
  non local Contribution for L=           2  read in
    real space projection operators read in
  non local Contribution for L=           0  read in
    real space projection operators read in
  non local Contribution for L=           0  read in
    real space projection operators read in
  non local Contribution for L=           1  read in
    real space projection operators read in
  non local Contribution for L=           1  read in
    real space projection operators read in
    PAW grid and wavefunctions read in
 
   number of l-projection  operators is LMAX  =           6
   number of lm-projection operators is LMMAX =          18
 
 POTCAR:    PAW_PBE S 17Jan2003                   
   VRHFIN =S : s2p4                                                             
   LEXCH  = PE                                                                  
   EATOM  =   276.8230 eV,   20.3459 Ry                                         
                                                                                
   TITEL  = PAW_PBE S 17Jan2003                                                 
   LULTRA =        F    use ultrasoft PP ?                                      
   IUNSCR =        1    unscreen: 0-lin 1-nonlin 2-no                           
   RPACOR =    1.500    partial core radius                                     
   POMASS =   32.066; ZVAL   =    6.000    mass and valenz                      
   RCORE  =    1.900    outmost cutoff radius                                   
   RWIGS  =    2.200; RWIGS  =    1.164    wigner-seitz radius (au A)           
   ENMAX  =  280.000; ENMIN  =  194.016 eV                                      
   ICORE  =        2    local potential                                         
   LCOR   =        T    correct aug charges                                     
   LPAW   =        T    paw PP                                                  
   EAUG   =  335.092                                                            
   DEXC   =     .000                                                            
   RMAX   =    2.867    core radius for proj-oper                               
   RAUG   =    1.300    factor for augmentation sphere                          
   RDEP   =    1.954    radius for radial grids                                 
   QCUT   =   -4.360; QGAM   =    8.721    optimization parameters              
                                                                                
   Description                                                                  
     l     E      TYP  RCUT    TYP  RCUT                                        
     0   .000     23  1.900                                                     
     0   .000     23  1.900                                                     
     1   .000     23  1.900                                                     
     1   .000     23  1.900                                                     
     2   .000     23  1.900                                                     
  local pseudopotential read in
  partial core-charges read in
  atomic valenz-charges read in
  non local Contribution for L=           0  read in
    real space projection operators read in
  non local Contribution for L=           0  read in
    real space projection operators read in
  non local Contribution for L=           1  read in
    real space projection operators read in
  non local Contribution for L=           1  read in
    real space projection operators read in
    PAW grid and wavefunctions read in
 
   number of l-projection  operators is LMAX  =           4
   number of lm-projection operators is LMMAX =           8
 
 PAW_PBE Mo 08Apr2002                   :
 energy of atom  1       EATOM= -217.5180
 kinetic energy error for atom=    0.0023 (will be added to EATOM!!)
  PAW_PBE S 17Jan2003                   :
 energy of atom  2       EATOM= -276.8230
 kinetic energy error for atom=    0.0033 (will be added to EATOM!!)
 
 
 POSCAR: MoS2_mp-2815_computed                   
  positions in direct lattice
  No initial velocities read in
 exchange correlation table for  LEXCH =        8
   RHO(1)=    0.500       N(1)  =     2000
   RHO(2)=  100.500       N(2)  =     4000
 


--------------------------------------------------------------------------------------------------------


 ion  position               nearest neighbor table
   1  0.333  0.667  0.250-   5 2.42   4 2.42   4 2.42   5 2.42   5 2.42   4 2.42
   2  0.667  0.333  0.750-   6 2.42   3 2.42   3 2.42   6 2.42   6 2.42   3 2.42
   3  0.333  0.667  0.855-   2 2.42   2 2.42   2 2.42
   4  0.667  0.333  0.145-   1 2.42   1 2.42   1 2.42
   5  0.667  0.333  0.355-   1 2.42   1 2.42   1 2.42
   6  0.333  0.667  0.645-   2 2.42   2 2.42   2 2.42
 
  LATTYP: Found a hexagonal cell.
 ALAT       =     3.1903157300
 C/A-ratio  =     4.6638030713
  
  Lattice vectors:
  
 A1 = (   3.1903157300,   0.0000000000,   0.0000000000)
 A2 = (  -1.5951578650,   2.7628944683,   0.0000000000)
 A3 = (   0.0000000000,   0.0000000000,  14.8790043000)


Analysis of symmetry for initial positions (statically):
=====================================================================
 Subroutine PRICEL returns:
 Original cell was already a primitive cell.
 

 Routine SETGRP: Setting up the symmetry group for a 
 hexagonal supercell.


 Subroutine GETGRP returns: Found 24 space group operations
 (whereof 12 operations were pure point group operations)
 out of a pool of 24 trial point group operations.


The static configuration has the point symmetry D_3d.
 The point group associated with its full space group is D_6h.


Analysis of symmetry for dynamics (positions and initial velocities):
=====================================================================
 Subroutine PRICEL returns:
 Original cell was already a primitive cell.
 

 Routine SETGRP: Setting up the symmetry group for a 
 hexagonal supercell.


 Subroutine GETGRP returns: Found 24 space group operations
 (whereof 12 operations were pure point group operations)
 out of a pool of 24 trial point group operations.


The dynamic configuration has the point symmetry D_3d.
 The point group associated with its full space group is D_6h.


 Subroutine INISYM returns: Found 24 space group operations
 (whereof 12 operations are pure point group operations),
 and found     1 'primitive' translations

 
 
 KPOINTS: k-density: 2.0                          

Automatic generation of k-mesh.
Space group operators:
 irot       det(A)        alpha          n_x          n_y          n_z        tau_x        tau_y        tau_z
    1     1.000000     0.000001     1.000000     0.000000     0.000000     0.000000     0.000000     0.000000
    2    -1.000000     0.000001     1.000000     0.000000     0.000000     0.000000     0.000000     0.000000
    3     1.000000   120.000000     0.000000     0.000000    -1.000000     0.000000     0.000000     0.000000
    4    -1.000000   120.000000     0.000000     0.000000    -1.000000     0.000000     0.000000     0.000000
    5     1.000000   120.000000     0.000000     0.000000     1.000000     0.000000     0.000000     0.000000
    6    -1.000000   120.000000     0.000000     0.000000     1.000000     0.000000     0.000000     0.000000
    7     1.000000   179.999999     1.000000    -0.000000     0.000000     0.000000     0.000000     0.000000
    8    -1.000000   179.999999     1.000000    -0.000000     0.000000     0.000000     0.000000     0.000000
    9     1.000000   180.000000     0.500000    -0.866025     0.000000     0.000000     0.000000     0.000000
   10    -1.000000   180.000000     0.500000    -0.866025     0.000000     0.000000     0.000000     0.000000
   11     1.000000   180.000000    -0.500000    -0.866025     0.000000     0.000000     0.000000     0.000000
   12    -1.000000   180.000000    -0.500000    -0.866025     0.000000     0.000000     0.000000     0.000000
   13     1.000000    60.000000     0.000000     0.000000    -1.000000     0.000001     0.000000     0.500000
   14    -1.000000    60.000000     0.000000     0.000000    -1.000000     0.000001     0.000000     0.500000
   15     1.000000   180.000000     0.000000     0.000000     1.000000     0.000000     0.000000     0.500000
   16    -1.000000   180.000000     0.000000     0.000000     1.000000     0.000000     0.000000     0.500000
   17     1.000000    60.000000     0.000000     0.000000     1.000000     0.000000     0.000000     0.500000
   18    -1.000000    60.000000     0.000000     0.000000     1.000000     0.000000     0.000000     0.500000
   19     1.000000   179.999999     0.866025    -0.500000     0.000000     0.000000     0.000000     0.500000
   20    -1.000000   179.999999     0.866025    -0.500000     0.000000     0.000000     0.000000     0.500000
   21     1.000000   180.000000     0.000000     1.000000     0.000000     0.000001     0.000000     0.500000
   22    -1.000000   180.000000     0.000000     1.000000     0.000000     0.000001     0.000000     0.500000
   23     1.000000   179.999999     0.866025     0.500000     0.000000     0.000000     0.000000     0.500000
   24    -1.000000   179.999999     0.866025     0.500000     0.000000     0.000000     0.000000     0.500000
 
 Subroutine IBZKPT returns following result:
 ===========================================
 
 Found      4 irreducible k-points:
 
 Following reciprocal coordinates:
            Coordinates               Weight
  0.000000  0.000000  0.000000      1.000000
  0.250000 -0.000000  0.000000      6.000000
  0.500000 -0.000000  0.000000      3.000000
  0.250000  0.250000  0.000000      6.000000
 
 Following cartesian coordinates:
            Coordinates               Weight
  0.000000  0.000000  0.000000      1.000000
  0.078362  0.045242  0.000000      6.000000
  0.156724  0.090485  0.000000      3.000000
  0.078362  0.135727  0.000000      6.000000
 
 TETIRR: Found     10 inequivalent tetrahedra from       96


--------------------------------------------------------------------------------------------------------




 Dimension of arrays:
   k-points           NKPTS =      4   k-points in BZ     NKDIM =      4   number of bands    NBANDS=     22
   number of dos      NEDOS =    301   number of ions     NIONS =      6
   non local maximal  LDIM  =      6   non local SUM 2l+1 LMDIM =     18
   total plane-waves  NPLWV =  25920
   max r-space proj   IRMAX =      1   max aug-charges    IRDMAX=  12887
   dimension x,y,z NGX =    18 NGY =   18 NGZ =   80
   dimension x,y,z NGXF=    36 NGYF=   36 NGZF=  160
   support grid    NGXF=    36 NGYF=   36 NGZF=  160
   ions per type =               2   4
   NGX,Y,Z   is equivalent  to a cutoff of   9.38,  9.38,  8.94 a.u.
   NGXF,Y,Z  is equivalent  to a cutoff of  18.76, 18.76, 17.88 a.u.

 SYSTEM =  unknown system                          
 POSCAR =  MoS2_mp-2815_computed                   

 Startparameter for this run:
   NWRITE =      2    write-flag & timer
   PREC   = normal    normal or accurate (medium, high low for compatibility)
   ISTART =      0    job   : 0-new  1-cont  2-samecut
   ICHARG =      2    charge: 1-file 2-atom 10-const
   ISPIN  =      1    spin polarized calculation?
   LNONCOLLINEAR =      F non collinear calculations
   LSORBIT =      F    spin-orbit coupling
   INIWAV =      1    electr: 0-lowe 1-rand  2-diag
   LASPH  =      F    aspherical Exc in radial PAW
   METAGGA=      F    non-selfconsistent MetaGGA calc.

 Electronic Relaxation 1
   ENCUT  =  450.0 eV  33.07 Ry    5.75 a.u.   5.52  5.52 25.74*2*pi/ulx,y,z
   ENINI  =  450.0     initial cutoff
   ENAUG  =  345.3 eV  augmentation charge cutoff
   NELM   =     60;   NELMIN=  4; NELMDL=  0     # of ELM steps 
   EDIFF  = 0.1E-04   stopping-criterion for ELM
   LREAL  =      F    real-space projection
   NLSPLINE    = F    spline interpolate recip. space projectors
   LCOMPAT=      F    compatible to vasp.4.4
   GGA_COMPAT  = T    GGA compatible to vasp.4.4-vasp.4.6
   LMAXPAW     = -100 max onsite density
   LMAXMIX     =    2 max onsite mixed and CHGCAR
   VOSKOWN=      0    Vosko Wilk Nusair interpolation
   ROPT   =    0.00000   0.00000
 Ionic relaxation
   EDIFFG = 0.1E-03   stopping-criterion for IOM
   NSW    =      0    number of steps for IOM
   NBLOCK =      1;   KBLOCK =      1    inner block; outer block 
   IBRION =     -1    ionic relax: 0-MD 1-quasi-New 2-CG
   NFREE  =      0    steps in history (QN), initial steepest desc. (CG)
   ISIF   =      2    stress and relaxation
   IWAVPR =     10    prediction:  0-non 1-charg 2-wave 3-comb
   ISYM   =      2    0-nonsym 1-usesym 2-fastsym
   LCORR  =      T    Harris-Foulkes like correction to forces

   POTIM  = 0.5000    time-step for ionic-motion
   TEIN   =    0.0    initial temperature
   TEBEG  =    0.0;   TEEND  =   0.0 temperature during run
   SMASS  =  -3.00    Nose mass-parameter (am)
   estimated Nose-frequenzy (Omega)   =  0.10E-29 period in steps =****** mass=  -0.233E-27a.u.
   SCALEE = 1.0000    scale energy and forces
   NPACO  =    256;   APACO  = 16.0  distance and # of slots for P.C.
   PSTRESS=    0.0 pullay stress

  Mass of Ions in am
   POMASS =  95.94 32.07
  Ionic Valenz
   ZVAL   =   6.00  6.00
  Atomic Wigner-Seitz radii
   RWIGS  =  -1.00 -1.00
  virtual crystal weights 
   VCA    =   1.00  1.00
   NELECT =      36.0000    total number of electrons
   NUPDOWN=      -1.0000    fix difference up-down

 DOS related values:
   EMIN   =  10.00;   EMAX   =-10.00  energy-range for DOS
   EFERMI =   0.00
   ISMEAR =    -5;   SIGMA  =   0.20  broadening in eV -4-tet -1-fermi 0-gaus

 Electronic relaxation 2 (details)
   IALGO  =     68    algorithm
   LDIAG  =      T    sub-space diagonalisation (order eigenvalues)
   LSUBROT=      F    optimize rotation matrix (better conditioning)
   TURBO    =      0    0=normal 1=particle mesh
   IRESTART =      0    0=no restart 2=restart with 2 vectors
   NREBOOT  =      0    no. of reboots
   NMIN     =      0    reboot dimension
   EREF     =   0.00    reference energy to select bands
   IMIX   =      4    mixing-type and parameters
     AMIX     =   0.40;   BMIX     =  1.00
     AMIX_MAG =   1.60;   BMIX_MAG =  1.00
     AMIN     =   0.10
     WC   =   100.;   INIMIX=   1;  MIXPRE=   1;  MAXMIX= -45

 Intra band minimization:
   WEIMIN = 0.0000     energy-eigenvalue tresh-hold
   EBREAK =  0.11E-06  absolut break condition
   DEPER  =   0.30     relativ break condition  

   TIME   =   0.40     timestep for ELM

  volume/ion in A,a.u.               =      21.86       147.51
  Fermi-wavevector in a.u.,A,eV,Ry     =   1.063943  2.010561 15.401453  1.131975
  Thomas-Fermi vector in A             =   2.199445
 
 Write flags
   LWAVE        =      F    write WAVECAR
   LDOWNSAMPLE  =      F    k-point downsampling of WAVECAR
   LCHARG       =      T    write CHGCAR
   LVTOT        =      F    write LOCPOT, total local potential
   LVHAR        =      F    write LOCPOT, Hartree potential only
   LELF         =      F    write electronic localiz. function (ELF)
   LORBIT       =      0    0 simple, 1 ext, 2 COOP (PROOUT), +10 PAW based schemes


 Dipole corrections
   LMONO  =      F    monopole corrections only (constant potential shift)
   LDIPOL =      F    correct potential (dipole corrections)
   IDIPOL =      0    1-x, 2-y, 3-z, 4-all directions 
   EPSILON=  1.0000000 bulk dielectric constant

 Exchange correlation treatment:
   GGA     =    --    GGA type
   LEXCH   =     8    internal setting for exchange type
   VOSKOWN=      0    Vosko Wilk Nusair interpolation
   LHFCALC =     F    Hartree Fock is set to
   LHFONE  =     F    Hartree Fock one center treatment
   AEXX    =    0.0000 exact exchange contribution

 Linear response parameters
   LEPSILON=     F    determine dielectric tensor
   LRPA    =     F    only Hartree local field effects (RPA)
   LNABLA  =     F    use nabla operator in PAW spheres
   LVEL    =     F    velocity operator in full k-point grid
   LINTERFAST=   F  fast interpolation
   KINTER  =     0    interpolate to denser k-point grid
   CSHIFT  =0.1000    complex shift for real part using Kramers Kronig
   OMEGAMAX=  -1.0    maximum frequency
   DEG_THRESHOLD= 0.2000000E-02 threshold for treating states as degnerate
   RTIME   =   -0.100 relaxation time in fs
  (WPLASMAI=    0.000 imaginary part of plasma frequency in eV, 0.658/RTIME)
   DFIELD  = 0.0000000 0.0000000 0.0000000 field for delta impulse in time
 
 Orbital magnetization related:
   ORBITALMAG=     F  switch on orbital magnetization
   LCHIMAG   =     F  perturbation theory with respect to B field
   DQ        =  0.001000  dq finite difference perturbation B field
   LLRAUG    =     F  two centre corrections for induced B field



--------------------------------------------------------------------------------------------------------


 Static calculation
 charge density and potential will be updated during run
 non-spin polarized calculation
 RMM-DIIS sequential band-by-band and
  variant of blocked Davidson during initial phase
 perform sub-space diagonalisation
    before iterative eigenvector-optimisation
 modified Broyden-mixing scheme, WC =      100.0
 initial mixing is a Kerker type mixing with AMIX =  0.4000 and BMIX =      1.0000
 Hartree-type preconditioning will be used
 using additional bands            4
 reciprocal scheme for non local part
 use partial core corrections
 calculate Harris-corrections to forces 
   (improved forces if not selfconsistent)
 use gradient corrections 
 use of overlap-Matrix (Vanderbilt PP)
 Fermi weights with tetrahedron method with Bloechl corrections


--------------------------------------------------------------------------------------------------------


  energy-cutoff  :      450.00
  volume of cell :      131.15
      direct lattice vectors                 reciprocal lattice vectors
     3.190315730  0.000000000  0.000000000     0.313448600  0.180969634  0.000000000
    -1.595157865  2.762894468  0.000000000     0.000000000  0.361939267  0.000000000
     0.000000000  0.000000000 14.879004300     0.000000000  0.000000000  0.067208798

  length of vectors
     3.190315730  3.190315730 14.879004300     0.361939267  0.361939267  0.067208798


 
 k-points in units of 2pi/SCALE and weight: k-density: 2.0                          
   0.00000000  0.00000000  0.00000000       0.062
   0.07836215  0.04524241  0.00000000       0.375
   0.15672430  0.09048482  0.00000000       0.188
   0.07836215  0.13572723  0.00000000       0.375
 
 k-points in reciprocal lattice and weights: k-density: 2.0                          
   0.00000000  0.00000000  0.00000000       0.062
   0.25000000 -0.00000000  0.00000000       0.375
   0.50000000 -0.00000000  0.00000000       0.188
   0.25000000  0.25000000  0.00000000       0.375
 
 position of ions in fractional coordinates (direct lattice) 
   0.33333300  0.66666700  0.25000000
   0.66666700  0.33333300  0.75000000
   0.33333300  0.66666700  0.85517400
   0.66666700  0.33333300  0.14482600
   0.66666600  0.33333300  0.35517400
   0.33333400  0.66666700  0.64482600
 
 position of ions in cartesian coordinates  (Angst):
  -0.00000160  1.84193057  3.71975108
   1.59515946  0.92096390 11.15925323
  -0.00000160  1.84193057 12.72413762
   1.59515946  0.92096390  2.15486668
   1.59515627  0.92096390  5.28463547
   0.00000160  1.84193057  9.59436883
 


--------------------------------------------------------------------------------------------------------


 k-point  1 :   0.0000 0.0000 0.0000  plane waves:    2895
 k-point  2 :   0.2500-0.0000 0.0000  plane waves:    2848
 k-point  3 :   0.5000-0.0000 0.0000  plane waves:    2784
 k-point  4 :   0.2500 0.2500 0.0000  plane waves:    2838

 maximum and minimum number of plane-waves per node :      1453     1379

 maximum number of plane-waves:      2895
 maximum index in each direction: 
   IXMAX=    5   IYMAX=    5   IZMAX=   25
   IXMIN=   -6   IYMIN=   -5   IZMIN=  -25


 parallel 3D FFT for wavefunctions:
    minimum data exchange during FFTs selected (reduces bandwidth)
 parallel 3D FFT for charge:
    minimum data exchange during FFTs selected (reduces bandwidth)


 total amount of memory used by VASP MPI-rank0    38495. kBytes
=======================================================================

   base      :      30000. kBytes
   nonl-proj :       1799. kBytes
   fftplans  :       2162. kBytes
   grid      :       3449. kBytes
   one-center:         46. kBytes
   wavefun   :       1039. kBytes
 
     INWAV:  cpu time    0.0000: real time    0.0003
 Broyden mixing: mesh for mixing (old mesh)
   NGX = 11   NGY = 11   NGZ = 51
  (NGX  = 36   NGY  = 36   NGZ  =160)
  gives a total of   6171 points

 initial charge density was supplied:
 charge density of overlapping atoms calculated
 number of electron      36.0000000 magnetization 
 keeping initial charge density in first step


--------------------------------------------------------------------------------------------------------


 Maximum index for augmentation-charges         3021 (set IRDMAX)


--------------------------------------------------------------------------------------------------------


 First call to EWALD:  gamma=   0.349
 Maximum number of real-space cells 5x 5x 1
 Maximum number of reciprocal cells 2x 2x 7

    FEWALD:  cpu time    0.0020: real time    0.0015


--------------------------------------- Iteration      1(   1)  ---------------------------------------


    POTLOK:  cpu time    0.0310: real time    0.0621
    SETDIJ:  cpu time    0.0060: real time    0.0054
     EDDAV:  cpu time    0.0920: real time    0.0967
 BZINTS: Fermi energy: 14.933121; 36.000000 electrons
         Band energy: 178.112882;  BLOECHL correction: -0.307931
       DOS:  cpu time    0.0000: real time    0.0005
    --------------------------------------------
      LOOP:  cpu time    0.1290: real time    0.1647

 eigenvalue-minimisations  :   176
 total energy-change (2. order) : 0.2113553E+03  (-0.1475153E+04)
 number of electron      36.0000000 magnetization 
 augmentation part       36.0000000 magnetization 

 Free energy of the ion-electron system (eV)
  ---------------------------------------------------
  alpha Z        PSCENC =        90.42577596
  Ewald energy   TEWEN  =     -1146.88905665
  -Hartree energ DENC   =      -535.10238363
  -exchange      EXHF   =         0.00000000
  -V(xc)+E(xc)   XCENC  =       -72.59368150
  PAW double counting   =       813.77302396     -658.68146406
  entropy T*S    EENTRO =         0.00000000
  eigenvalues    EBANDS =       178.11288179
  atomic energy  EATOM  =      1542.31022798
  Solvation  Ediel_sol  =         0.00000000
  ---------------------------------------------------
  free energy    TOTEN  =       211.35532387 eV

  energy without entropy =      211.35532387  energy(sigma->0) =      211.35532387


--------------------------------------------------------------------------------------------------------




--------------------------------------- Iteration      1(   2)  ---------------------------------------


     EDDAV:  cpu time    0.1140: real time    0.1153
 BZINTS: Fermi energy:  5.089324; 36.000000 electrons
         Band energy: -58.184661;  BLOECHL correction:  0.000000
       DOS:  cpu time    0.0000: real time    0.0001
    --------------------------------------------
      LOOP:  cpu time    0.1140: real time    0.1154

 eigenvalue-minimisations  :   244
 total energy-change (2. order) :-0.2362975E+03  (-0.2299849E+03)
 number of electron      36.0000000 magnetization 
 augmentation part       36.0000000 magnetization 

 Free energy of the ion-electron system (eV)
  ---------------------------------------------------
  alpha Z        PSCENC =        90.42577596
  Ewald energy   TEWEN  =     -1146.88905665
  -Hartree energ DENC   =      -535.10238363
  -exchange      EXHF   =         0.00000000
  -V(xc)+E(xc)   XCENC  =       -72.59368150
  PAW double counting   =       813.77302396     -658.68146406
  entropy T*S    EENTRO =         0.00000000
  eigenvalues    EBANDS =       -58.18466141
  atomic energy  EATOM  =      1542.31022798
  Solvation  Ediel_sol  =         0.00000000
  ---------------------------------------------------
  free energy    TOTEN  =       -24.94221933 eV

  energy without entropy =      -24.94221933  energy(sigma->0) =      -24.94221933


--------------------------------------------------------------------------------------------------------




--------------------------------------- Iteration      1(   3)  ---------------------------------------


     EDDAV:  cpu time    0.1090: real time    0.1093
 BZINTS: Fermi energy:  3.937548; 36.000000 electrons
         Band energy: -79.517647;  BLOECHL correction:  0.000000
       DOS:  cpu time    0.0000: real time    0.0001
    --------------------------------------------
      LOOP:  cpu time    0.1090: real time    0.1094

 eigenvalue-minimisations  :   230
 total energy-change (2. order) :-0.2133299E+02  (-0.2123736E+02)
 number of electron      36.0000000 magnetization 
 augmentation part       36.0000000 magnetization 

 Free energy of the ion-electron system (eV)
  ---------------------------------------------------
  alpha Z        PSCENC =        90.42577596
  Ewald energy   TEWEN  =     -1146.88905665
  -Hartree energ DENC   =      -535.10238363
  -exchange      EXHF   =         0.00000000
  -V(xc)+E(xc)   XCENC  =       -72.59368150
  PAW double counting   =       813.77302396     -658.68146406
  entropy T*S    EENTRO =         0.00000000
  eigenvalues    EBANDS =       -79.51764660
  atomic energy  EATOM  =      1542.31022798
  Solvation  Ediel_sol  =         0.00000000
  ---------------------------------------------------
  free energy    TOTEN  =       -46.27520452 eV

  energy without entropy =      -46.27520452  energy(sigma->0) =      -46.27520452


--------------------------------------------------------------------------------------------------------




--------------------------------------- Iteration      1(   4)  ---------------------------------------


     EDDAV:  cpu time    0.1100: real time    0.1104
 BZINTS: Fermi energy:  3.863710; 36.000000 electrons
         Band energy: -80.120255;  BLOECHL correction:  0.000000
       DOS:  cpu time    0.0000: real time    0.0001
    --------------------------------------------
      LOOP:  cpu time    0.1100: real time    0.1105

 eigenvalue-minimisations  :   234
 total energy-change (2. order) :-0.6026085E+00  (-0.6008834E+00)
 number of electron      36.0000000 magnetization 
 augmentation part       36.0000000 magnetization 

 Free energy of the ion-electron system (eV)
  ---------------------------------------------------
  alpha Z        PSCENC =        90.42577596
  Ewald energy   TEWEN  =     -1146.88905665
  -Hartree energ DENC   =      -535.10238363
  -exchange      EXHF   =         0.00000000
  -V(xc)+E(xc)   XCENC  =       -72.59368150
  PAW double counting   =       813.77302396     -658.68146406
  entropy T*S    EENTRO =         0.00000000
  eigenvalues    EBANDS =       -80.12025510
  atomic energy  EATOM  =      1542.31022798
  Solvation  Ediel_sol  =         0.00000000
  ---------------------------------------------------
  free energy    TOTEN  =       -46.87781302 eV

  energy without entropy =      -46.87781302  energy(sigma->0) =      -46.87781302


--------------------------------------------------------------------------------------------------------




--------------------------------------- Iteration      1(   5)  ---------------------------------------


     EDDAV:  cpu time    0.1130: real time    0.1132
 BZINTS: Fermi energy:  3.897669; 36.000000 electrons
         Band energy: -80.137703;  BLOECHL correction:  0.000000
       DOS:  cpu time    0.0000: real time    0.0001
    CHARGE:  cpu time    0.0120: real time    0.0120
    MIXING:  cpu time    0.0010: real time    0.0012
    --------------------------------------------
      LOOP:  cpu time    0.1260: real time    0.1266

 eigenvalue-minimisations  :   242
 total energy-change (2. order) :-0.1744800E-01  (-0.1744401E-01)
 number of electron      36.0000009 magnetization 
 augmentation part       -1.8836734 magnetization 

 Broyden mixing:
  rms(total) = 0.96756E+00    rms(broyden)= 0.96754E+00
  rms(prec ) = 0.12098E+01
  weight for this iteration     100.00

 Free energy of the ion-electron system (eV)
  ---------------------------------------------------
  alpha Z        PSCENC =        90.42577596
  Ewald energy   TEWEN  =     -1146.88905665
  -Hartree energ DENC   =      -535.10238363
  -exchange      EXHF   =         0.00000000
  -V(xc)+E(xc)   XCENC  =       -72.59368150
  PAW double counting   =       813.77302396     -658.68146406
  entropy T*S    EENTRO =         0.00000000
  eigenvalues    EBANDS =       -80.13770310
  atomic energy  EATOM  =      1542.31022798
  Solvation  Ediel_sol  =         0.00000000
  ---------------------------------------------------
  free energy    TOTEN  =       -46.89526102 eV

  energy without entropy =      -46.89526102  energy(sigma->0) =      -46.89526102


--------------------------------------------------------------------------------------------------------




--------------------------------------- Iteration      1(   6)  ---------------------------------------


    POTLOK:  cpu time    0.0280: real time    0.0304
    SETDIJ:  cpu time    0.0040: real time    0.0044
    EDDIAG:  cpu time    0.0190: real time    0.0192
  RMM-DIIS:  cpu time    0.0730: real time    0.0731
    ORTHCH:  cpu time    0.0020: real time    0.0021
 BZINTS: Fermi energy:  2.895271; 36.000000 electrons
         Band energy: -79.116801;  BLOECHL correction:  0.000000
       DOS:  cpu time    0.0000: real time    0.0001
    CHARGE:  cpu time    0.0120: real time    0.0118
    MIXING:  cpu time    0.0010: real time    0.0009
    --------------------------------------------
      LOOP:  cpu time    0.1390: real time    0.1422

 eigenvalue-minimisations  :   195
 total energy-change (2. order) : 0.2385500E+01  (-0.2340129E+01)
 number of electron      36.0000006 magnetization 
 augmentation part       -0.8708696 magnetization 

 Broyden mixing:
  rms(total) = 0.33223E+00    rms(broyden)= 0.33222E+00
  rms(prec ) = 0.48482E+00
  weight for this iteration     100.00

 eigenvalues of (default mixing * dielectric matrix)
  average eigenvalue GAMMA=   0.8793
  0.8793

 Free energy of the ion-electron system (eV)
  ---------------------------------------------------
  alpha Z        PSCENC =        90.42577596
  Ewald energy   TEWEN  =     -1146.88905665
  -Hartree energ DENC   =      -533.72541437
  -exchange      EXHF   =         0.00000000
  -V(xc)+E(xc)   XCENC  =       -70.83870160
  PAW double counting   =       847.96031158     -694.63610265
  entropy T*S    EENTRO =         0.00000000
  eigenvalues    EBANDS =       -79.11680124
  atomic energy  EATOM  =      1542.31022798
  Solvation  Ediel_sol  =         0.00000000
  ---------------------------------------------------
  free energy    TOTEN  =       -44.50976098 eV

  energy without entropy =      -44.50976098  energy(sigma->0) =      -44.50976098


--------------------------------------------------------------------------------------------------------




--------------------------------------- Iteration      1(   7)  ---------------------------------------


    POTLOK:  cpu time    0.0270: real time    0.0275
    SETDIJ:  cpu time    0.0050: real time    0.0044
    EDDIAG:  cpu time    0.0180: real time    0.0187
  RMM-DIIS:  cpu time    0.0740: real time    0.0733
    ORTHCH:  cpu time    0.0020: real time    0.0021
 BZINTS: Fermi energy:  3.263858; 36.000000 electrons
         Band energy: -73.462683;  BLOECHL correction:  0.000000
       DOS:  cpu time    0.0000: real time    0.0001
    CHARGE:  cpu time    0.0110: real time    0.0116
    MIXING:  cpu time    0.0010: real time    0.0009
    --------------------------------------------
      LOOP:  cpu time    0.1380: real time    0.1388

 eigenvalue-minimisations  :   193
 total energy-change (2. order) : 0.7090811E+00  (-0.1880320E+00)
 number of electron      36.0000007 magnetization 
 augmentation part       -1.1132194 magnetization 

 Broyden mixing:
  rms(total) = 0.17771E+00    rms(broyden)= 0.17771E+00
  rms(prec ) = 0.21255E+00
  weight for this iteration     100.00

 eigenvalues of (default mixing * dielectric matrix)
  average eigenvalue GAMMA=   1.4123
  0.7634  2.0612

 Free energy of the ion-electron system (eV)
  ---------------------------------------------------
  alpha Z        PSCENC =        90.42577596
  Ewald energy   TEWEN  =     -1146.88905665
  -Hartree energ DENC   =      -537.98814356
  -exchange      EXHF   =         0.00000000
  -V(xc)+E(xc)   XCENC  =       -71.02183002
  PAW double counting   =       881.24974396     -728.42471479
  entropy T*S    EENTRO =         0.00000000
  eigenvalues    EBANDS =       -73.46268280
  atomic energy  EATOM  =      1542.31022798
  Solvation  Ediel_sol  =         0.00000000
  ---------------------------------------------------
  free energy    TOTEN  =       -43.80067990 eV

  energy without entropy =      -43.80067990  energy(sigma->0) =      -43.80067990


--------------------------------------------------------------------------------------------------------




--------------------------------------- Iteration      1(   8)  ---------------------------------------


    POTLOK:  cpu time    0.0280: real time    0.0275
    SETDIJ:  cpu time    0.0040: real time    0.0044
    EDDIAG:  cpu time    0.0190: real time    0.0187
  RMM-DIIS:  cpu time    0.0750: real time    0.0756
    ORTHCH:  cpu time    0.0030: real time    0.0021
 BZINTS: Fermi energy:  3.382415; 36.000000 electrons
         Band energy: -68.497818;  BLOECHL correction:  0.000000
       DOS:  cpu time    0.0000: real time    0.0001
    CHARGE:  cpu time    0.0110: real time    0.0117
    MIXING:  cpu time    0.0010: real time    0.0014
    --------------------------------------------
      LOOP:  cpu time    0.1410: real time    0.1415

 eigenvalue-minimisations  :   200
 total energy-change (2. order) : 0.6301718E-01  (-0.8996879E-01)
 number of electron      36.0000007 magnetization 
 augmentation part       -1.1709390 magnetization 

 Broyden mixing:
  rms(total) = 0.82995E-01    rms(broyden)= 0.82993E-01
  rms(prec ) = 0.11113E+00
  weight for this iteration     100.00

 eigenvalues of (default mixing * dielectric matrix)
  average eigenvalue GAMMA=   1.4686
  2.0973  1.4806  0.8279

 Free energy of the ion-electron system (eV)
  ---------------------------------------------------
  alpha Z        PSCENC =        90.42577596
  Ewald energy   TEWEN  =     -1146.88905665
  -Hartree energ DENC   =      -542.29178504
  -exchange      EXHF   =         0.00000000
  -V(xc)+E(xc)   XCENC  =       -70.64025635
  PAW double counting   =       931.70275612     -779.85750648
  entropy T*S    EENTRO =         0.00000000
  eigenvalues    EBANDS =       -68.49781827
  atomic energy  EATOM  =      1542.31022798
  Solvation  Ediel_sol  =         0.00000000
  ---------------------------------------------------
  free energy    TOTEN  =       -43.73766272 eV

  energy without entropy =      -43.73766272  energy(sigma->0) =      -43.73766272


--------------------------------------------------------------------------------------------------------




--------------------------------------- Iteration      1(   9)  ---------------------------------------


    POTLOK:  cpu time    0.0270: real time    0.0276
    SETDIJ:  cpu time    0.0050: real time    0.0044
    EDDIAG:  cpu time    0.0180: real time    0.0187
  RMM-DIIS:  cpu time    0.0810: real time    0.0807
    ORTHCH:  cpu time    0.0020: real time    0.0021
 BZINTS: Fermi energy:  3.282636; 36.000000 electrons
         Band energy: -68.983158;  BLOECHL correction:  0.000000
       DOS:  cpu time    0.0000: real time    0.0001
    CHARGE:  cpu time    0.0120: real time    0.0117
    MIXING:  cpu time    0.0010: real time    0.0010
    --------------------------------------------
      LOOP:  cpu time    0.1460: real time    0.1463

 eigenvalue-minimisations  :   209
 total energy-change (2. order) : 0.1141366E-01  (-0.2860665E-01)
 number of electron      36.0000007 magnetization 
 augmentation part       -1.0479529 magnetization 

 Broyden mixing:
  rms(total) = 0.55277E-01    rms(broyden)= 0.55276E-01
  rms(prec ) = 0.76900E-01
  weight for this iteration     100.00

 eigenvalues of (default mixing * dielectric matrix)
  average eigenvalue GAMMA=   1.5210
  2.1487  2.1487  0.8933  0.8933

 Free energy of the ion-electron system (eV)
  ---------------------------------------------------
  alpha Z        PSCENC =        90.42577596
  Ewald energy   TEWEN  =     -1146.88905665
  -Hartree energ DENC   =      -541.88320937
  -exchange      EXHF   =         0.00000000
  -V(xc)+E(xc)   XCENC  =       -70.39039964
  PAW double counting   =       937.84087181     -786.15730129
  entropy T*S    EENTRO =         0.00000000
  eigenvalues    EBANDS =       -68.98315787
  atomic energy  EATOM  =      1542.31022798
  Solvation  Ediel_sol  =         0.00000000
  ---------------------------------------------------
  free energy    TOTEN  =       -43.72624906 eV

  energy without entropy =      -43.72624906  energy(sigma->0) =      -43.72624906


--------------------------------------------------------------------------------------------------------




--------------------------------------- Iteration      1(  10)  ---------------------------------------


    POTLOK:  cpu time    0.0270: real time    0.0274
    SETDIJ:  cpu time    0.0050: real time    0.0044
    EDDIAG:  cpu time    0.0190: real time    0.0188
  RMM-DIIS:  cpu time    0.0800: real time    0.0799
    ORTHCH:  cpu time    0.0020: real time    0.0021
 BZINTS: Fermi energy:  3.309729; 36.000000 electrons
         Band energy: -68.116265;  BLOECHL correction:  0.000000
       DOS:  cpu time    0.0000: real time    0.0001
    CHARGE:  cpu time    0.0110: real time    0.0116
    MIXING:  cpu time    0.0010: real time    0.0011
    --------------------------------------------
      LOOP:  cpu time    0.1450: real time    0.1455

 eigenvalue-minimisations  :   208
 total energy-change (2. order) : 0.1513041E-01  (-0.5674543E-02)
 number of electron      36.0000007 magnetization 
 augmentation part       -1.1037377 magnetization 

 Broyden mixing:
  rms(total) = 0.58467E-02    rms(broyden)= 0.58462E-02
  rms(prec ) = 0.75870E-02
  weight for this iteration     100.00

 eigenvalues of (default mixing * dielectric matrix)
  average eigenvalue GAMMA=   1.4310
  2.4399  1.5902  0.8897  0.8897  1.3454

 Free energy of the ion-electron system (eV)
  ---------------------------------------------------
  alpha Z        PSCENC =        90.42577596
  Ewald energy   TEWEN  =     -1146.88905665
  -Hartree energ DENC   =      -542.64435823
  -exchange      EXHF   =         0.00000000
  -V(xc)+E(xc)   XCENC  =       -70.43560531
  PAW double counting   =       943.91492797     -792.27676559
  entropy T*S    EENTRO =         0.00000000
  eigenvalues    EBANDS =       -68.11626478
  atomic energy  EATOM  =      1542.31022798
  Solvation  Ediel_sol  =         0.00000000
  ---------------------------------------------------
  free energy    TOTEN  =       -43.71111865 eV

  energy without entropy =      -43.71111865  energy(sigma->0) =      -43.71111865


--------------------------------------------------------------------------------------------------------




--------------------------------------- Iteration      1(  11)  ---------------------------------------


    POTLOK:  cpu time    0.0280: real time    0.0276
    SETDIJ:  cpu time    0.0050: real time    0.0044
    EDDIAG:  cpu time    0.0180: real time    0.0187
  RMM-DIIS:  cpu time    0.0850: real time    0.0849
    ORTHCH:  cpu time    0.0020: real time    0.0021
 BZINTS: Fermi energy:  3.319607; 36.000000 electrons
         Band energy: -67.929782;  BLOECHL correction:  0.000000
       DOS:  cpu time    0.0000: real time    0.0001
    CHARGE:  cpu time    0.0120: real time    0.0116
    MIXING:  cpu time    0.0010: real time    0.0011
    --------------------------------------------
      LOOP:  cpu time    0.1510: real time    0.1505

 eigenvalue-minimisations  :   228
 total energy-change (2. order) :-0.2533956E-03  (-0.3324365E-03)
 number of electron      36.0000007 magnetization 
 augmentation part       -1.1002114 magnetization 

 Broyden mixing:
  rms(total) = 0.33162E-02    rms(broyden)= 0.33161E-02
  rms(prec ) = 0.41051E-02
  weight for this iteration     100.00

 eigenvalues of (default mixing * dielectric matrix)
  average eigenvalue GAMMA=   1.6717
  3.0155  2.4880  1.7956  0.8929  0.8929  0.9454

 Free energy of the ion-electron system (eV)
  ---------------------------------------------------
  alpha Z        PSCENC =        90.42577596
  Ewald energy   TEWEN  =     -1146.88905665
  -Hartree energ DENC   =      -542.84543674
  -exchange      EXHF   =         0.00000000
  -V(xc)+E(xc)   XCENC  =       -70.41133816
  PAW double counting   =       944.44910960     -792.82087177
  entropy T*S    EENTRO =         0.00000000
  eigenvalues    EBANDS =       -67.92978228
  atomic energy  EATOM  =      1542.31022798
  Solvation  Ediel_sol  =         0.00000000
  ---------------------------------------------------
  free energy    TOTEN  =       -43.71137204 eV

  energy without entropy =      -43.71137204  energy(sigma->0) =      -43.71137204


--------------------------------------------------------------------------------------------------------




--------------------------------------- Iteration      1(  12)  ---------------------------------------


    POTLOK:  cpu time    0.0270: real time    0.0276
    SETDIJ:  cpu time    0.0050: real time    0.0044
    EDDIAG:  cpu time    0.0180: real time    0.0187
  RMM-DIIS:  cpu time    0.0850: real time    0.0845
    ORTHCH:  cpu time    0.0020: real time    0.0021
 BZINTS: Fermi energy:  3.327364; 36.000000 electrons
         Band energy: -67.707615;  BLOECHL correction:  0.000000
       DOS:  cpu time    0.0000: real time    0.0001
    CHARGE:  cpu time    0.0110: real time    0.0116
    MIXING:  cpu time    0.0020: real time    0.0011
    --------------------------------------------
      LOOP:  cpu time    0.1500: real time    0.1502

 eigenvalue-minimisations  :   225
 total energy-change (2. order) :-0.1247925E-03  (-0.5114358E-04)
 number of electron      36.0000007 magnetization 
 augmentation part       -1.1007233 magnetization 

 Broyden mixing:
  rms(total) = 0.11747E-02    rms(broyden)= 0.11746E-02
  rms(prec ) = 0.14220E-02
  weight for this iteration     100.00

 eigenvalues of (default mixing * dielectric matrix)
  average eigenvalue GAMMA=   1.6081
  2.9254  2.3335  1.6460  1.6460  0.8901  0.8901  0.9260

 Free energy of the ion-electron system (eV)
  ---------------------------------------------------
  alpha Z        PSCENC =        90.42577596
  Ewald energy   TEWEN  =     -1146.88905665
  -Hartree energ DENC   =      -543.09193419
  -exchange      EXHF   =         0.00000000
  -V(xc)+E(xc)   XCENC  =       -70.40227636
  PAW double counting   =       944.24662476     -792.60324364
  entropy T*S    EENTRO =         0.00000000
  eigenvalues    EBANDS =       -67.70761470
  atomic energy  EATOM  =      1542.31022798
  Solvation  Ediel_sol  =         0.00000000
  ---------------------------------------------------
  free energy    TOTEN  =       -43.71149683 eV

  energy without entropy =      -43.71149683  energy(sigma->0) =      -43.71149683


--------------------------------------------------------------------------------------------------------




--------------------------------------- Iteration      1(  13)  ---------------------------------------


    POTLOK:  cpu time    0.0270: real time    0.0301
    SETDIJ:  cpu time    0.0050: real time    0.0044
    EDDIAG:  cpu time    0.0180: real time    0.0186
  RMM-DIIS:  cpu time    0.0870: real time    0.0868
    ORTHCH:  cpu time    0.0020: real time    0.0021
 BZINTS: Fermi energy:  3.327546; 36.000000 electrons
         Band energy: -67.733246;  BLOECHL correction:  0.000000
       DOS:  cpu time    0.0000: real time    0.0001
    CHARGE:  cpu time    0.0120: real time    0.0117
    MIXING:  cpu time    0.0010: real time    0.0012
    --------------------------------------------
      LOOP:  cpu time    0.1520: real time    0.1551

 eigenvalue-minimisations  :   233
 total energy-change (2. order) :-0.1854452E-04  (-0.2101985E-04)
 number of electron      36.0000007 magnetization 
 augmentation part       -1.1029201 magnetization 

 Broyden mixing:
  rms(total) = 0.20780E-02    rms(broyden)= 0.20780E-02
  rms(prec ) = 0.27617E-02
  weight for this iteration     100.00

 eigenvalues of (default mixing * dielectric matrix)
  average eigenvalue GAMMA=   1.7339
  3.2236  2.6553  2.6553  1.6376  1.0956  0.8747  0.8747  0.8545

 Free energy of the ion-electron system (eV)
  ---------------------------------------------------
  alpha Z        PSCENC =        90.42577596
  Ewald energy   TEWEN  =     -1146.88905665
  -Hartree energ DENC   =      -543.06192966
  -exchange      EXHF   =         0.00000000
  -V(xc)+E(xc)   XCENC  =       -70.40468706
  PAW double counting   =       944.33302170     -792.69162202
  entropy T*S    EENTRO =         0.00000000
  eigenvalues    EBANDS =       -67.73324564
  atomic energy  EATOM  =      1542.31022798
  Solvation  Ediel_sol  =         0.00000000
  ---------------------------------------------------
  free energy    TOTEN  =       -43.71151538 eV

  energy without entropy =      -43.71151538  energy(sigma->0) =      -43.71151538


--------------------------------------------------------------------------------------------------------




--------------------------------------- Iteration      1(  14)  ---------------------------------------


    POTLOK:  cpu time    0.0280: real time    0.0272
    SETDIJ:  cpu time    0.0040: real time    0.0044
    EDDIAG:  cpu time    0.0190: real time    0.0186
  RMM-DIIS:  cpu time    0.0700: real time    0.0698
    ORTHCH:  cpu time    0.0010: real time    0.0021
 BZINTS: Fermi energy:  3.327434; 36.000000 electrons
         Band energy: -67.751078;  BLOECHL correction:  0.000000
       DOS:  cpu time    0.0010: real time    0.0001
    CHARGE:  cpu time    0.0110: real time    0.0116
    MIXING:  cpu time    0.0020: real time    0.0013
    --------------------------------------------
      LOOP:  cpu time    0.1360: real time    0.1352

 eigenvalue-minimisations  :   181
 total energy-change (2. order) : 0.1565800E-04  (-0.8701456E-05)
 number of electron      36.0000007 magnetization 
 augmentation part       -1.1009378 magnetization 

 Broyden mixing:
  rms(total) = 0.33420E-03    rms(broyden)= 0.33417E-03
  rms(prec ) = 0.40309E-03
  weight for this iteration     100.00

 eigenvalues of (default mixing * dielectric matrix)
  average eigenvalue GAMMA=   1.6046
  3.0313  2.8262  2.4404  1.5800  1.1075  0.8572  0.8572  0.8710  0.8710

 Free energy of the ion-electron system (eV)
  ---------------------------------------------------
  alpha Z        PSCENC =        90.42577596
  Ewald energy   TEWEN  =     -1146.88905665
  -Hartree energ DENC   =      -543.04667222
  -exchange      EXHF   =         0.00000000
  -V(xc)+E(xc)   XCENC  =       -70.40180851
  PAW double counting   =       944.15042282     -792.50931089
  entropy T*S    EENTRO =         0.00000000
  eigenvalues    EBANDS =       -67.75107822
  atomic energy  EATOM  =      1542.31022798
  Solvation  Ediel_sol  =         0.00000000
  ---------------------------------------------------
  free energy    TOTEN  =       -43.71149972 eV

  energy without entropy =      -43.71149972  energy(sigma->0) =      -43.71149972


--------------------------------------------------------------------------------------------------------




--------------------------------------- Iteration      1(  15)  ---------------------------------------


    POTLOK:  cpu time    0.0270: real time    0.0272
    SETDIJ:  cpu time    0.0040: real time    0.0044
    EDDIAG:  cpu time    0.0190: real time    0.0187
  RMM-DIIS:  cpu time    0.0540: real time    0.0542
    ORTHCH:  cpu time    0.0020: real time    0.0021
 BZINTS: Fermi energy:  3.328083; 36.000000 electrons
         Band energy: -67.743998;  BLOECHL correction:  0.000000
       DOS:  cpu time    0.0000: real time    0.0001
    --------------------------------------------
      LOOP:  cpu time    0.1060: real time    0.1067

 eigenvalue-minimisations  :   136
 total energy-change (2. order) :-0.2014581E-06  (-0.8982991E-06)
 number of electron      36.0000007 magnetization 
 augmentation part       -1.1009378 magnetization 

 Free energy of the ion-electron system (eV)
  ---------------------------------------------------
  alpha Z        PSCENC =        90.42577596
  Ewald energy   TEWEN  =     -1146.88905665
  -Hartree energ DENC   =      -543.05474229
  -exchange      EXHF   =         0.00000000
  -V(xc)+E(xc)   XCENC  =       -70.40174162
  PAW double counting   =       944.11001731     -792.46798261
  entropy T*S    EENTRO =         0.00000000
  eigenvalues    EBANDS =       -67.74399801
  atomic energy  EATOM  =      1542.31022798
  Solvation  Ediel_sol  =         0.00000000
  ---------------------------------------------------
  free energy    TOTEN  =       -43.71149992 eV

  energy without entropy =      -43.71149992  energy(sigma->0) =      -43.71149992


--------------------------------------------------------------------------------------------------------




 average (electrostatic) potential at core
  the test charge radii are     1.2296  0.9698
  (the norm of the test charge is              1.0000)
       1 -40.3225       2 -40.3225       3 -88.1759       4 -88.1759       5 -88.1759
       6 -88.1759
 
 
 
 E-fermi :   3.3281     XC(G=0):  -9.3245     alpha+bet : -9.6368


 k-point     1 :       0.0000    0.0000    0.0000
  band No.  band energies     occupation 
      1     -10.9285      2.00000
      2     -10.9094      2.00000
      3      -9.7295      2.00000
      4      -9.6954      2.00000
      5      -2.5210      2.00000
      6      -2.3589      2.00000
      7       0.5248      2.00000
      8       0.5248      2.00000
      9       0.5254      2.00000
     10       0.5254      2.00000
     11       1.1031      2.00000
     12       1.6311      2.00000
     13       1.6312      2.00000
     14       1.6331      2.00000
     15       1.6331      2.00000
     16       1.6720      2.00000
     17       2.9284      2.00000
     18       3.3047      2.00000
     19       5.8795      0.00000
     20       5.9169      0.00000
     21       6.0221      0.00000
     22       6.0873      0.00000

 k-point     2 :       0.2500   -0.0000    0.0000
  band No.  band energies     occupation 
      1     -10.1448      2.00000
      2     -10.1280      2.00000
      3      -9.3532      2.00000
      4      -9.3288      2.00000
      5      -1.8851      2.00000
      6      -1.7737      2.00000
      7      -0.6879      2.00000
      8      -0.6444      2.00000
      9      -0.4581      2.00000
     10      -0.3562      2.00000
     11       0.6593      2.00000
     12       0.6627      2.00000
     13       1.3439      2.00000
     14       1.3474      2.00000
     15       1.7027      2.00000
     16       1.9115      2.00000
     17       2.3765      2.00000
     18       2.4249      2.00000
     19       5.1227      0.00000
     20       5.4422      0.00000
     21       5.4524      0.00000
     22       5.4568      0.00000

 k-point     3 :       0.5000   -0.0000    0.0000
  band No.  band energies     occupation 
      1      -9.1368      2.00000
      2      -9.1302      2.00000
      3      -8.8921      2.00000
      4      -8.8856      2.00000
      5      -2.6099      2.00000
      6      -2.5828      2.00000
      7      -1.6499      2.00000
      8      -1.6254      2.00000
      9      -0.9663      2.00000
     10      -0.8901      2.00000
     11      -0.0191      2.00000
     12      -0.0149      2.00000
     13       1.2458      2.00000
     14       1.2653      2.00000
     15       2.1552      2.00000
     16       2.1673      2.00000
     17       2.4824      2.00000
     18       2.4864      2.00000
     19       5.2904      0.00000
     20       5.2942      0.00000
     21       5.7870      0.00000
     22       5.8607      0.00000

 k-point     4 :       0.2500    0.2500    0.0000
  band No.  band energies     occupation 
      1      -9.1680      2.00000
      2      -9.1593      2.00000
      3      -8.8759      2.00000
      4      -8.8660      2.00000
      5      -1.9632      2.00000
      6      -1.9345      2.00000
      7      -1.7485      2.00000
      8      -1.7373      2.00000
      9      -0.4880      2.00000
     10      -0.4636      2.00000
     11      -0.1368      2.00000
     12      -0.0483      2.00000
     13       0.2189      2.00000
     14       0.2416      2.00000
     15       1.4759      2.00000
     16       1.4866      2.00000
     17       2.6071      2.00000
     18       2.6169      2.00000
     19       5.1930      0.00000
     20       5.3225      0.00000
     21       5.8388      0.00000
     22       6.0551      0.00000


--------------------------------------------------------------------------------------------------------


 soft charge-density along one line, spin component           1
         0         1         2         3         4         5         6         7         8         9
 total charge-density along one line
 
 pseudopotential strength for first ion, spin component:           1
 -8.238  -0.000   0.000   0.000   0.000  -0.074   0.000  -0.000
 -0.000  -8.236   0.000  -0.000  -0.000   0.000  -0.074  -0.000
  0.000   0.000  -8.214  -0.000  -0.000  -0.000  -0.000  -0.076
  0.000  -0.000  -0.000  -8.236  -0.000  -0.000   0.000   0.000
  0.000  -0.000  -0.000  -0.000  -8.238  -0.000   0.000   0.000
 -0.074   0.000  -0.000  -0.000  -0.000   0.112  -0.000   0.000
  0.000  -0.074  -0.000   0.000   0.000  -0.000   0.112   0.000
 -0.000  -0.000  -0.076   0.000   0.000   0.000   0.000   0.112
 -0.000   0.000   0.000  -0.074   0.000   0.000  -0.000  -0.000
 -0.000   0.000   0.000   0.000  -0.074   0.000  -0.000  -0.000
  0.000  -0.000  -0.006   0.000  -0.000  -0.000   0.000   0.000
 -0.000   0.000   0.001  -0.000   0.000   0.000  -0.000  -0.000
 -0.000   0.000  -0.000  -0.000  -0.007   0.000  -0.000   0.000
 -0.000   0.000   0.000  -0.000  -0.000  -0.000  -0.000  -0.000
 -0.007  -0.000   0.000   0.000  -0.000  -0.000  -0.000  -0.000
  0.000  -0.000   0.000   0.000   0.004  -0.000   0.000  -0.000
  0.000  -0.000  -0.000   0.000   0.000  -0.000   0.000   0.000
  0.004   0.000  -0.000  -0.000   0.000   0.000  -0.000   0.000
 total augmentation occupancy for first ion, spin component:           1
  0.961   0.000  -0.000  -0.000  -0.000   0.605   0.000  -0.000   0.000  -0.000  -0.000   0.000   0.000  -0.000  -0.066  -0.000
  0.000   0.910   0.000   0.000   0.000   0.000   0.839   0.000   0.000   0.000  -0.000  -0.000  -0.000   0.000  -0.000   0.000
 -0.000  -0.000   1.035   0.000   0.000  -0.000   0.000   0.503   0.000   0.000   0.103  -0.021  -0.000  -0.000   0.000   0.000
 -0.000   0.000   0.000   0.910   0.000  -0.000   0.000  -0.000   0.839  -0.000   0.000   0.000   0.000  -0.000   0.000   0.000
 -0.000   0.000   0.000   0.000   0.961  -0.000   0.000   0.000   0.000   0.605   0.000  -0.000  -0.066  -0.000  -0.000   0.007
  0.605  -0.000  -0.000  -0.000  -0.000   0.677   0.000  -0.000   0.000  -0.000   0.000  -0.000   0.000  -0.000  -0.136  -0.000
 -0.000   0.839   0.000   0.000   0.000   0.000   1.081   0.000   0.000  -0.000   0.000   0.000  -0.000   0.000   0.000   0.000
 -0.000  -0.000   0.503   0.000   0.000  -0.000   0.000   0.476   0.000   0.000   0.058  -0.022  -0.000  -0.000   0.000   0.000
 -0.000   0.000   0.000   0.839   0.000  -0.000   0.000   0.000   1.081   0.000   0.000  -0.000   0.000   0.000   0.000   0.000
 -0.000   0.000   0.000   0.000   0.605  -0.000   0.000   0.000   0.000   0.677   0.000  -0.000  -0.136  -0.000  -0.000   0.023
 -0.000   0.000   0.103   0.000   0.000   0.000  -0.000   0.058  -0.000   0.000   1.207  -0.186  -0.000   0.000   0.000   0.000
  0.000  -0.000  -0.021   0.000  -0.000  -0.000   0.000  -0.022  -0.000  -0.000  -0.186   0.042  -0.000  -0.000   0.000  -0.000
  0.000  -0.000  -0.000   0.000  -0.066   0.000   0.000  -0.000   0.000  -0.136  -0.000  -0.000   0.216  -0.000   0.000  -0.032
 -0.000  -0.000  -0.000  -0.000   0.000   0.000  -0.000  -0.000  -0.000   0.000   0.000  -0.000  -0.000   0.262   0.000   0.000
 -0.066  -0.000   0.000   0.000  -0.000  -0.136   0.000   0.000   0.000  -0.000   0.000   0.000   0.000   0.000   0.216  -0.000
 -0.000   0.000   0.000  -0.000   0.007  -0.000   0.000   0.000  -0.000   0.023  -0.000   0.000  -0.032   0.000  -0.000   0.005
 -0.000  -0.000  -0.000   0.000  -0.000   0.000   0.000  -0.000  -0.000  -0.000   0.000   0.000  -0.000  -0.038  -0.000  -0.000
  0.007   0.000  -0.000  -0.000   0.000   0.023  -0.000  -0.000  -0.000   0.000   0.000   0.000  -0.000   0.000  -0.032   0.000


------------------------ aborting loop because EDIFF is reached ----------------------------------------


    CHARGE:  cpu time    0.0110: real time    0.0118
    FORLOC:  cpu time    0.0030: real time    0.0031
    FORNL :  cpu time    0.0300: real time    0.0299
    STRESS:  cpu time    0.0930: real time    0.0939
    FORCOR:  cpu time    0.0310: real time    0.0310
    FORHAR:  cpu time    0.0070: real time    0.0067
    MIXING:  cpu time    0.0010: real time    0.0013
    OFIELD:  cpu time    0.0000: real time    0.0000

  DFT-D2 method for vdW energy calculation
  -------------------------------------------------------------------

  Parameters of vdW forcefield:
         C6(Jnm^6/mol)     R0(A)
   -----------------------------
   Mo      24.670          1.639
   S        5.570          1.683

  IVDW =   1
  VDW_RADIUS =    50.000 A
  VDW_S6 =     0.750
  VDW_SR =     1.000
  VDW_D =    20.000
  LVDW_EWALD = F

  Number of pair interactions contributing to vdW energy:   84128
  Edisp (eV):   -1.33129
    FORVDW:  cpu time    0.0230: real time    0.0263

  FORCE on cell =-STRESS in cart. coord.  units (eV):
  Direction    XX          YY          ZZ          XY          YZ          ZX
  --------------------------------------------------------------------------------------
  Alpha Z    90.42578    90.42578    90.42578
  Ewald     -12.90873   -12.90785 -1121.07429     0.00038     0.00000     0.00025
  Hartree   466.79911   466.79912  -390.51552     0.00003    -0.00000    -0.00001
  E(xc)    -140.58417  -140.58418  -141.81757    -0.00001    -0.00000    -0.00000
  Local   -1080.76484 -1080.76551   873.15430    -0.00042    -0.00000    -0.00011
  n-local   254.56404   251.17552   262.84255    -0.20842     0.00050     0.00013
  augment   -51.21611   -51.21596   -53.25217     0.00014     0.00000    -0.00001
  Kinetic   473.86988   475.18328   479.62682   -14.69197     0.00030    -0.00006
  Fock        0.00000     0.00000     0.00000     0.00000     0.00000     0.00000
  vdW         0.17103     0.17103    -0.86546     0.00000     0.00000    -0.00000
  -------------------------------------------------------------------------------------
  Total      -0.68140    -0.68140    -1.47556     0.00000    -0.00000     0.00000
  in kB      -8.32415    -8.32415   -18.02587     0.00000    -0.00000     0.00000
  external pressure =      -11.56 kB  Pullay stress =        0.00 kB


 VOLUME and BASIS-vectors are now :
 -----------------------------------------------------------------------------
  energy-cutoff  :      450.00
  volume of cell :      131.15
      direct lattice vectors                 reciprocal lattice vectors
     3.190315730  0.000000000  0.000000000     0.313448600  0.180969634  0.000000000
    -1.595157865  2.762894468  0.000000000     0.000000000  0.361939267  0.000000000
     0.000000000  0.000000000 14.879004300     0.000000000  0.000000000  0.067208798

  length of vectors
     3.190315730  3.190315730 14.879004300     0.361939267  0.361939267  0.067208798


 FORCES acting on ions
    electron-ion (+dipol)            ewald-force                    non-local-force                 convergence-correction
 -----------------------------------------------------------------------------------------------
   0.473E-04 -.345E-04 -.965E-05   0.928E-04 -.107E-03 0.288E-09   -.434E-17 -.867E-17 -.254E-20   -.296E-09 -.136E-08 -.796E-10
   0.659E-04 -.309E-04 -.965E-05   -.928E-04 0.107E-03 -.288E-09   -.434E-17 0.867E-17 -.254E-20   0.907E-08 -.370E-08 -.804E-10
   0.525E-03 -.304E-03 -.242E+03   0.865E-04 -.537E-04 0.247E+03   -.382E-16 0.694E-17 -.479E+01   0.505E-08 -.311E-08 0.990E-02
   -.117E-02 0.679E-03 0.242E+03   -.865E-04 0.537E-04 -.247E+03   0.139E-16 -.139E-16 0.479E+01   -.185E-07 0.109E-07 -.990E-02
   0.523E-03 0.689E-03 -.242E+03   -.638E-05 0.537E-04 0.247E+03   0.243E-16 -.243E-16 -.479E+01   0.915E-08 0.836E-08 0.990E-02
   -.121E-02 -.292E-03 0.242E+03   0.638E-05 -.537E-04 -.247E+03   -.139E-16 0.243E-16 0.479E+01   -.139E-07 -.561E-08 -.990E-02
 -----------------------------------------------------------------------------------------------
   -.122E-02 0.706E-03 -.122E-04   -.561E-14 0.109E-13 0.284E-13   -.226E-16 -.694E-17 -.888E-15   -.940E-08 0.542E-08 -.382E-09
 
 
 POSITION                                       TOTAL-FORCE (eV/Angst)
 -----------------------------------------------------------------------------------
     -0.00000      1.84193      3.71975        -0.000000     -0.000000      0.000000
      1.59516      0.92096     11.15925        -0.000000     -0.000000      0.000000
     -0.00000      1.84193     12.72414        -0.000000      0.000000     -0.110719
      1.59516      0.92096      2.15487         0.000000     -0.000000      0.110719
      1.59516      0.92096      5.28464         0.000000     -0.000000     -0.110719
      0.00000      1.84193      9.59437         0.000000      0.000000      0.110719
 -----------------------------------------------------------------------------------
    total drift:                               -0.001223      0.000706     -0.000012


--------------------------------------------------------------------------------------------------------



  FREE ENERGIE OF THE ION-ELECTRON SYSTEM (eV)
  ---------------------------------------------------
  free  energy   TOTEN  =       -45.04278694 eV

  energy  without entropy=      -45.04278694  energy(sigma->0) =      -45.04278694
 


--------------------------------------------------------------------------------------------------------


    POTLOK:  cpu time    0.0320: real time    0.0317


--------------------------------------------------------------------------------------------------------


     LOOP+:  cpu time    2.4426: real time    2.5556
    4ORBIT:  cpu time    0.0000: real time    0.0000
 BZINTS: Fermi energy:  3.328083; 36.000000 electrons
         Band energy: -67.743998;  BLOECHL correction:  0.000000

 total amount of memory used by VASP MPI-rank0    38495. kBytes
=======================================================================

   base      :      30000. kBytes
   nonl-proj :       1799. kBytes
   fftplans  :       2162. kBytes
   grid      :       3449. kBytes
   one-center:         46. kBytes
   wavefun   :       1039. kBytes
 
  
  
 General timing and accounting informations for this job:
 ========================================================
  
                  Total CPU time used (sec):        3.270
                            User time (sec):        3.188
                          System time (sec):        0.082
                         Elapsed time (sec):        3.813
  
                   Maximum memory used (kb):       31324.
                   Average memory used (kb):           0.
  
                          Minor page faults:         8073
                          Major page faults:          176
                 Voluntary context switches:         2545
