perl: warning: Setting locale failed.
perl: warning: Please check that your locale settings:
	LANGUAGE = (unset),
	LC_ALL = (unset),
	LC_CTYPE = "UTF-8",
	LANG = "en_US.iso885915"
    are supported and installed on your system.
perl: warning: Falling back to the standard locale ("C").
Starting job 28531307 ("jobname") on c14-5 at Fri Nov 8 09:47:28 CET 2019
 running on    4 total cores
 distrk:  each k-point on    4 cores,    1 groups
 distr:  one band on    2 cores,    2 groups
 using from now: INCAR     
 vasp.5.4.4.18Apr17-6-g9f103f2a35 (build Jun 30 2017 11:15:00) complex          
  
 POSCAR found type information on POSCAR  Mo S 
 POSCAR found :  2 types and       6 ions
 scaLAPACK will be used
 LDA part: xc-table for Pade appr. of Perdew
 POSCAR, INCAR and KPOINTS ok, starting setup
 FFT: planning ...
 WAVECAR not read
 entering main loop
       N       E                     dE             d eps       ncg     rms          rms(c)
DAV:   1     0.247106649982E+03    0.24711E+03   -0.17871E+04   176   0.169E+03
DAV:   2    -0.243587291521E+02   -0.27147E+03   -0.26445E+03   244   0.295E+02
DAV:   3    -0.461653754314E+02   -0.21807E+02   -0.21681E+02   240   0.832E+01
DAV:   4    -0.468840378239E+02   -0.71866E+00   -0.71796E+00   242   0.166E+01
DAV:   5    -0.468993038766E+02   -0.15266E-01   -0.15260E-01   240   0.256E+00    0.967E+00
RMM:   6    -0.445247120079E+02    0.23746E+01   -0.23448E+01   198   0.194E+01    0.336E+00
RMM:   7    -0.438055238890E+02    0.71919E+00   -0.20085E+00   193   0.563E+00    0.179E+00
RMM:   8    -0.437436650425E+02    0.61859E-01   -0.92410E-01   202   0.341E+00    0.840E-01
RMM:   9    -0.437322774802E+02    0.11388E-01   -0.30118E-01   214   0.226E+00    0.567E-01
RMM:  10    -0.437162572060E+02    0.16020E-01   -0.61102E-02   214   0.106E+00    0.611E-02
RMM:  11    -0.437164712464E+02   -0.21404E-03   -0.30050E-03   225   0.219E-01    0.368E-02
RMM:  12    -0.437165984865E+02   -0.12724E-03   -0.68650E-04   224   0.127E-01    0.143E-02
RMM:  13    -0.437166054024E+02   -0.69159E-05   -0.15042E-04   210   0.442E-02    0.160E-02
RMM:  14    -0.437165976324E+02    0.77700E-05   -0.67051E-05   179   0.350E-02
 Error reading item 'IVDW' from file INCAR
   1 F= -.43716598E+02 E0= -.43716598E+02  d E =0.000000E+00

Currently Loaded Modulefiles:
  1) Anaconda3/5.1.0       3) vesta/3.3.8           5) intel/2016.1
  2) gnuplot/5.0.4         4) imagemagick/6.7.9-0   6) vasp/5.4.1.Feb16

Job script resource usage:
       JobID  MaxVMSize     MaxRSS 
------------ ---------- ---------- 
28531307.ba+    216888K      2350K 

Job step resource usage:
       JobID    JobName  AllocCPUS  MaxVMSize     MaxRSS    Elapsed ExitCode 
------------ ---------- ---------- ---------- ---------- ---------- -------- 
28531307        jobname          4                         00:00:07      0:0 
28531307.0    pmi_proxy          1    279832K       516K   00:00:06      0:0 

Job 28531307 ("jobname") completed on c14-5 at Fri Nov 8 09:47:34 CET 2019
