<?xml version="1.0" encoding="ISO-8859-1"?>
<modeling>
 <generator>
  <i name="program" type="string">vasp </i>
  <i name="version" type="string">5.4.4.18Apr17-6-g9f103f2a35  </i>
  <i name="subversion" type="string">(build Jun 30 2017 11:15:00) complex            parallel </i>
  <i name="platform" type="string">STALLO_VASP_5.4.4 </i>
  <i name="date" type="string">2019 11 08 </i>
  <i name="time" type="string">12:18:01 </i>
 </generator>
 <incar>
  <i type="string" name="PREC">normal    ! low/normal/accurate</i>
  <i type="string" name="ALGO"> Fast      ! Algorithm for electronic re</i>
  <i type="int" name="ISPIN">     1</i>
  <i type="int" name="NELMIN">     4</i>
  <i name="EDIFF">      0.00001000</i>
  <i type="int" name="NSW">     0</i>
  <i name="ENCUT">    450.00000000</i>
  <i type="logical" name="LREAL"> F  </i>
  <i type="int" name="ISMEAR">    -5</i>
  <i name="SIGMA">      0.20000000</i>
  <i type="logical" name="LWAVE"> F  </i>
  <v type="int" name="KPOINT_BSE">    -1     0     0     0</v>
 </incar>
 <structure name="primitive_cell" >
  <crystal>
   <varray name="basis" >
    <v>       3.19031573       0.00000000       0.00000000 </v>
    <v>      -1.59515786       2.76289447       0.00000000 </v>
    <v>       0.00000000       0.00000000      14.87900430 </v>
   </varray>
   <i name="volume">    131.15106795 </i>
   <varray name="rec_basis" >
    <v>       0.31344860       0.18096963       0.00000000 </v>
    <v>       0.00000000       0.36193927       0.00000000 </v>
    <v>       0.00000000       0.00000000       0.06720880 </v>
   </varray>
  </crystal>
  <varray name="positions" >
   <v>       0.33333300      -0.33333300       0.25000000 </v>
   <v>      -0.33333400       0.33333300       0.35517400 </v>
   <v>      -0.33333300       0.33333300       0.14482600 </v>
   <v>       0.33333300      -0.33333300      -0.14482600 </v>
   <v>       0.33333400      -0.33333300      -0.35517400 </v>
   <v>      -0.33333300       0.33333300      -0.25000000 </v>
  </varray>
 </structure>
 <varray name="primitive_index" >
  <v type="int" >        1 </v>
  <v type="int" >        5 </v>
  <v type="int" >        4 </v>
  <v type="int" >        3 </v>
  <v type="int" >        6 </v>
  <v type="int" >        2 </v>
 </varray>
 <kpoints>
  <generation param="Gamma">
   <v type="int" name="divisions">       4        4        1 </v>
   <v name="usershift">      0.00000000       0.00000000       0.00000000 </v>
   <v name="genvec1">      0.25000000       0.00000000       0.00000000 </v>
   <v name="genvec2">      0.00000000       0.25000000       0.00000000 </v>
   <v name="genvec3">      0.00000000       0.00000000       1.00000000 </v>
   <v name="shift">      0.00000000       0.00000000       0.00000000 </v>
  </generation>
  <varray name="kpointlist" >
   <v>       0.00000000       0.00000000       0.00000000 </v>
   <v>       0.25000000      -0.00000000       0.00000000 </v>
   <v>       0.50000000      -0.00000000       0.00000000 </v>
   <v>       0.25000000       0.25000000       0.00000000 </v>
  </varray>
  <varray name="weights" >
   <v>       0.06250000 </v>
   <v>       0.37500000 </v>
   <v>       0.18750000 </v>
   <v>       0.37500000 </v>
  </varray>
  <varray name="tetrahedronlist"  type="int" >
   <v type="int" >       12        2        2        2        4 </v>
   <v type="int" >       12        1        2        2        2 </v>
   <v type="int" >        6        1        1        2        2 </v>
   <v type="int" >        6        2        2        4        4 </v>
   <v type="int" >       12        3        4        4        4 </v>
   <v type="int" >       12        2        3        4        4 </v>
   <v type="int" >       12        2        2        3        4 </v>
   <v type="int" >        6        3        3        4        4 </v>
   <v type="int" >       12        2        3        3        4 </v>
   <v type="int" >        6        4        4        4        4 </v>
  </varray>
  <i name="volumeweight">      0.01041667 </i>
 </kpoints>
 <parameters>
  <separator name="general" >
   <i type="string" name="SYSTEM">unknown system</i>
   <i type="logical" name="LCOMPAT"> F  </i>
  </separator>
  <separator name="electronic" >
   <i type="string" name="PREC">normal</i>
   <i name="ENMAX">    450.00000000</i>
   <i name="ENAUG">    345.27800000</i>
   <i name="EDIFF">      0.00001000</i>
   <i type="int" name="IALGO">    68</i>
   <i type="int" name="IWAVPR">    10</i>
   <i type="int" name="NBANDS">    22</i>
   <i name="NELECT">     36.00000000</i>
   <i type="int" name="TURBO">     0</i>
   <i type="int" name="IRESTART">     0</i>
   <i type="int" name="NREBOOT">     0</i>
   <i type="int" name="NMIN">     0</i>
   <i name="EREF">      0.00000000</i>
   <separator name="electronic smearing" >
    <i type="int" name="ISMEAR">    -5</i>
    <i name="SIGMA">      0.20000000</i>
    <i name="KSPACING">      0.50000000</i>
    <i type="logical" name="KGAMMA"> T  </i>
   </separator>
   <separator name="electronic projectors" >
    <i type="logical" name="LREAL"> F  </i>
    <v name="ROPT">      0.00000000      0.00000000</v>
    <i type="int" name="LMAXPAW">  -100</i>
    <i type="int" name="LMAXMIX">     2</i>
    <i type="logical" name="NLSPLINE"> F  </i>
   </separator>
   <separator name="electronic startup" >
    <i type="int" name="ISTART">     0</i>
    <i type="int" name="ICHARG">     2</i>
    <i type="int" name="INIWAV">     1</i>
   </separator>
   <separator name="electronic spin" >
    <i type="int" name="ISPIN">     1</i>
    <i type="logical" name="LNONCOLLINEAR"> F  </i>
    <v name="MAGMOM">      1.00000000      1.00000000      1.00000000      1.00000000      1.00000000      1.00000000</v>
    <i name="NUPDOWN">     -1.00000000</i>
    <i type="logical" name="LSORBIT"> F  </i>
    <v name="SAXIS">      0.00000000      0.00000000      1.00000000</v>
    <i type="logical" name="LSPIRAL"> F  </i>
    <v name="QSPIRAL">      0.00000000      0.00000000      0.00000000</v>
    <i type="logical" name="LZEROZ"> F  </i>
   </separator>
   <separator name="electronic exchange-correlation" >
    <i type="logical" name="LASPH"> F  </i>
    <i type="logical" name="LMETAGGA"> F  </i>
   </separator>
   <separator name="electronic convergence" >
    <i type="int" name="NELM">    60</i>
    <i type="int" name="NELMDL">     0</i>
    <i type="int" name="NELMIN">     4</i>
    <i name="ENINI">    450.00000000</i>
    <separator name="electronic convergence detail" >
     <i type="logical" name="LDIAG"> T  </i>
     <i type="logical" name="LSUBROT"> F  </i>
     <i name="WEIMIN">      0.00000000</i>
     <i name="EBREAK">      0.00000011</i>
     <i name="DEPER">      0.30000000</i>
     <i type="int" name="NRMM">     4</i>
     <i name="TIME">      0.40000000</i>
    </separator>
   </separator>
   <separator name="electronic mixer" >
    <i name="AMIX">      0.40000000</i>
    <i name="BMIX">      1.00000000</i>
    <i name="AMIN">      0.10000000</i>
    <i name="AMIX_MAG">      1.60000000</i>
    <i name="BMIX_MAG">      1.00000000</i>
    <separator name="electronic mixer details" >
     <i type="int" name="IMIX">     4</i>
     <i type="logical" name="MIXFIRST"> F  </i>
     <i type="int" name="MAXMIX">   -45</i>
     <i name="WC">    100.00000000</i>
     <i type="int" name="INIMIX">     1</i>
     <i type="int" name="MIXPRE">     1</i>
     <i type="int" name="MREMOVE">     5</i>
    </separator>
   </separator>
   <separator name="electronic dipolcorrection" >
    <i type="logical" name="LDIPOL"> F  </i>
    <i type="logical" name="LMONO"> F  </i>
    <i type="int" name="IDIPOL">     0</i>
    <i name="EPSILON">      1.00000000</i>
    <v name="DIPOL">   -100.00000000   -100.00000000   -100.00000000</v>
    <i name="EFIELD">      0.00000000</i>
   </separator>
  </separator>
  <separator name="grids" >
   <i type="int" name="NGX">    18</i>
   <i type="int" name="NGY">    18</i>
   <i type="int" name="NGZ">    80</i>
   <i type="int" name="NGXF">    36</i>
   <i type="int" name="NGYF">    36</i>
   <i type="int" name="NGZF">   160</i>
   <i type="logical" name="ADDGRID"> F  </i>
  </separator>
  <separator name="ionic" >
   <i type="int" name="NSW">     0</i>
   <i type="int" name="IBRION">    -1</i>
   <i type="int" name="MDALGO">     0</i>
   <i type="int" name="ISIF">     2</i>
   <i name="PSTRESS">      0.00000000</i>
   <i name="EDIFFG">      0.00010000</i>
   <i type="int" name="NFREE">     0</i>
   <i name="POTIM">      0.50000000</i>
   <i name="SMASS">     -3.00000000</i>
   <i name="SCALEE">      1.00000000</i>
  </separator>
  <separator name="ionic md" >
   <i name="TEBEG">      0.00010000</i>
   <i name="TEEND">      0.00010000</i>
   <i type="int" name="NBLOCK">     1</i>
   <i type="int" name="KBLOCK">     1</i>
   <i type="int" name="NPACO">   256</i>
   <i name="APACO">     16.00000000</i>
  </separator>
  <separator name="symmetry" >
   <i type="int" name="ISYM">     2</i>
   <i name="SYMPREC">      0.00001000</i>
  </separator>
  <separator name="dos" >
   <i type="int" name="LORBIT">     0</i>
   <v name="RWIGS">     -1.00000000     -1.00000000</v>
   <i type="int" name="NEDOS">   301</i>
   <i name="EMIN">     10.00000000</i>
   <i name="EMAX">    -10.00000000</i>
   <i name="EFERMI">      0.00000000</i>
  </separator>
  <separator name="writing" >
   <i type="int" name="NWRITE">     2</i>
   <i type="logical" name="LWAVE"> F  </i>
   <i type="logical" name="LDOWNSAMPLE"> F  </i>
   <i type="logical" name="LCHARG"> T  </i>
   <i type="logical" name="LPARD"> F  </i>
   <i type="logical" name="LVTOT"> F  </i>
   <i type="logical" name="LVHAR"> F  </i>
   <i type="logical" name="LELF"> F  </i>
   <i type="logical" name="LOPTICS"> F  </i>
   <v name="STM">      0.00000000      0.00000000      0.00000000      0.00000000      0.00000000      0.00000000      0.00000000</v>
  </separator>
  <separator name="performance" >
   <i type="int" name="NPAR">     2</i>
   <i type="int" name="NSIM">     4</i>
   <i type="int" name="NBLK">    -1</i>
   <i type="logical" name="LPLANE"> T  </i>
   <i type="logical" name="LSCALAPACK"> T  </i>
   <i type="logical" name="LSCAAWARE"> F  </i>
   <i type="logical" name="LSCALU"> F  </i>
   <i type="logical" name="LASYNC"> F  </i>
   <i type="logical" name="LORBITALREAL"> F  </i>
  </separator>
  <separator name="miscellaneous" >
   <i type="int" name="IDIOT">     3</i>
   <i type="int" name="ISPECIAL">     0</i>
   <i type="logical" name="LMUSIC"> F  </i>
   <v name="POMASS">     95.94000000     32.06600000</v>
   <v name="DARWINR">      0.00000000      0.00000000</v>
   <v name="DARWINV">      1.00000000      1.00000000</v>
   <i type="logical" name="LCORR"> T  </i>
  </separator>
  <i type="logical" name="GGA_COMPAT"> T  </i>
  <i type="logical" name="LBERRY"> F  </i>
  <i type="int" name="ICORELEVEL">     0</i>
  <i type="logical" name="LDAU"> F  </i>
  <i type="int" name="I_CONSTRAINED_M">     0</i>
  <separator name="electronic exchange-correlation" >
   <i type="string" name="GGA">--</i>
   <i type="int" name="VOSKOWN">     0</i>
   <i type="logical" name="LHFCALC"> F  </i>
   <i type="string" name="PRECFOCK"></i>
   <i type="logical" name="LSYMGRAD"> F  </i>
   <i type="logical" name="LHFONE"> F  </i>
   <i type="logical" name="LRHFCALC"> F  </i>
   <i type="logical" name="LTHOMAS"> F  </i>
   <i type="logical" name="LMODELHF"> F  </i>
   <i name="ENCUT4O">     -1.00000000</i>
   <i type="int" name="EXXOEP">     0</i>
   <i type="int" name="FOURORBIT">     0</i>
   <i name="AEXX">      0.00000000</i>
   <i name="HFALPHA">      0.00000000</i>
   <i name="MCALPHA">      0.00000000</i>
   <i name="ALDAX">      1.00000000</i>
   <i name="AGGAX">      1.00000000</i>
   <i name="ALDAC">      1.00000000</i>
   <i name="AGGAC">      1.00000000</i>
   <i type="int" name="NKREDX">     1</i>
   <i type="int" name="NKREDY">     1</i>
   <i type="int" name="NKREDZ">     1</i>
   <i type="logical" name="SHIFTRED"> F  </i>
   <i type="logical" name="ODDONLY"> F  </i>
   <i type="logical" name="EVENONLY"> F  </i>
   <i type="int" name="LMAXFOCK">     0</i>
   <i type="int" name="NMAXFOCKAE">     0</i>
   <i type="logical" name="LFOCKAEDFT"> F  </i>
   <i name="HFSCREEN">      0.00000000</i>
   <i name="HFSCREENC">      0.00000000</i>
   <i type="int" name="NBANDSGWLOW">     0</i>
  </separator>
  <separator name="vdW DFT" >
   <i type="logical" name="LUSE_VDW"> F  </i>
   <i name="Zab_VDW">     -0.84910000</i>
   <i name="PARAM1">      0.12340000</i>
   <i name="PARAM2">      1.00000000</i>
   <i name="PARAM3">      0.00000000</i>
  </separator>
  <separator name="model GW" >
   <i type="int" name="MODEL_GW">     0</i>
   <i name="MODEL_EPS0">     13.11510680</i>
   <i name="MODEL_ALPHA">      1.00000000</i>
  </separator>
  <separator name="linear response parameters" >
   <i type="logical" name="LEPSILON"> F  </i>
   <i type="logical" name="LRPA"> F  </i>
   <i type="logical" name="LNABLA"> F  </i>
   <i type="logical" name="LVEL"> F  </i>
   <i type="int" name="KINTER">     0</i>
   <i name="CSHIFT">      0.10000000</i>
   <i name="OMEGAMAX">     -1.00000000</i>
   <i name="DEG_THRESHOLD">      0.00200000</i>
   <i name="RTIME">     -0.10000000</i>
   <i name="WPLASMAI">      0.00000000</i>
   <v name="DFIELD">      0.00000000      0.00000000      0.00000000</v>
   <v name="WPLASMA">      0.00000000      0.00000000      0.00000000      0.00000000      0.00000000      0.00000000      0.00000000      0.00000000      0.00000000</v>
  </separator>
  <separator name="orbital magnetization" >
   <i type="logical" name="NUCIND"> F  </i>
   <v name="MAGPOS">      0.00000000      0.00000000      0.00000000</v>
   <i type="logical" name="LNICSALL"> T  </i>
   <i type="logical" name="ORBITALMAG"> F  </i>
   <i type="logical" name="LMAGBLOCH"> F  </i>
   <i type="logical" name="LCHIMAG"> F  </i>
   <i type="logical" name="LGAUGE"> T  </i>
   <i type="int" name="MAGATOM">     0</i>
   <v name="MAGDIPOL">      0.00000000      0.00000000      0.00000000</v>
   <v name="AVECCONST">      0.00000000      0.00000000      0.00000000</v>
  </separator>
  <separator name="response functions" >
   <i type="logical" name="LADDER"> F  </i>
   <i type="logical" name="LRPAFORCE"> F  </i>
   <i type="logical" name="LFXC"> F  </i>
   <i type="logical" name="LHARTREE"> T  </i>
   <i type="int" name="IBSE">     0</i>
   <v type="int" name="KPOINT">    -1     0     0     0</v>
   <i type="logical" name="LTCTE"> F  </i>
   <i type="logical" name="LTETE"> F  </i>
   <i type="logical" name="LTRIPLET"> F  </i>
   <i type="logical" name="LFXCEPS"> F  </i>
   <i type="logical" name="LFXHEG"> F  </i>
   <i type="int" name="NATURALO">     2</i>
   <i type="logical" name="L2ORDER"> F  </i>
   <i type="logical" name="LMP2LT"> F  </i>
   <i type="logical" name="LUSEW"> F  </i>
   <i name="ENCUTGW">     -2.00000000</i>
   <i name="ENCUTGWSOFT">     -2.00000000</i>
   <i name="ENCUTLF">     -1.00000000</i>
   <i type="int" name="LMAXMP2">    -1</i>
   <i name="SCISSOR">      0.00000000</i>
   <i type="int" name="NOMEGA">     0</i>
   <i type="int" name="NOMEGAR">     0</i>
   <i type="int" name="NBANDSGW">    -1</i>
   <i type="int" name="NBANDSO">    -1</i>
   <i type="int" name="NBANDSV">    -1</i>
   <i type="int" name="NELM">     1</i>
   <i type="int" name="NELMHF">     1</i>
   <i type="int" name="DIM">     3</i>
   <i type="int" name="ANTIRES">     0</i>
   <i name="OMEGAMAX">    -30.00000000</i>
   <i name="OMEGAMIN">    -30.00000000</i>
   <i name="OMEGATL">   -200.00000000</i>
   <i type="int" name="OMEGAGRID">   140</i>
   <i name="CSHIFT">     -0.10000000</i>
   <i type="logical" name="SELFENERGY"> F  </i>
   <i type="logical" name="LSPECTRAL"> F  </i>
   <i type="logical" name="LSPECTRALGW"> F  </i>
   <i type="logical" name="LSINGLES"> F  </i>
   <i type="logical" name="LFERMIGW"> F  </i>
   <i type="logical" name="ODDONLYGW"> F  </i>
   <i type="logical" name="EVENONLYGW"> F  </i>
   <i type="int" name="NKREDLFX">     1</i>
   <i type="int" name="NKREDLFY">     1</i>
   <i type="int" name="NKREDLFZ">     1</i>
   <i type="int" name="MAXMEM">  2800</i>
   <i type="int" name="TELESCOPE">     0</i>
   <i type="int" name="TAUPAR">     1</i>
   <i type="int" name="OMEGAPAR">    -1</i>
   <i name="LAMBDA">      1.00000000</i>
  </separator>
  <separator name="External order field" >
   <i name="OFIELD_KAPPA">      0.00000000</i>
   <v name="OFIELD_K">      0.00000000      0.00000000      0.00000000</v>
   <i name="OFIELD_Q6_NEAR">      0.00000000</i>
   <i name="OFIELD_Q6_FAR">      0.00000000</i>
   <i name="OFIELD_A">      0.00000000</i>
  </separator>
 </parameters>
 <atominfo>
  <atoms>       6 </atoms>
  <types>       2 </types>
  <array name="atoms" >
   <dimension dim="1">ion</dimension>
   <field type="string">element</field>
   <field type="int">atomtype</field>
   <set>
    <rc><c>Mo</c><c>   1</c></rc>
    <rc><c>Mo</c><c>   1</c></rc>
    <rc><c>S </c><c>   2</c></rc>
    <rc><c>S </c><c>   2</c></rc>
    <rc><c>S </c><c>   2</c></rc>
    <rc><c>S </c><c>   2</c></rc>
   </set>
  </array>
  <array name="atomtypes" >
   <dimension dim="1">type</dimension>
   <field type="int">atomspertype</field>
   <field type="string">element</field>
   <field>mass</field>
   <field>valence</field>
   <field type="string">pseudopotential</field>
   <set>
    <rc><c>   2</c><c>Mo</c><c>     95.94000000</c><c>      6.00000000</c><c> PAW_PBE Mo 08Apr2002                   </c></rc>
    <rc><c>   4</c><c>S </c><c>     32.06600000</c><c>      6.00000000</c><c>  PAW_PBE S 17Jan2003                   </c></rc>
   </set>
  </array>
 </atominfo>
 <structure name="initialpos" >
  <crystal>
   <varray name="basis" >
    <v>       3.19031573       0.00000000       0.00000000 </v>
    <v>      -1.59515786       2.76289447       0.00000000 </v>
    <v>       0.00000000       0.00000000      14.87900430 </v>
   </varray>
   <i name="volume">    131.15106795 </i>
   <varray name="rec_basis" >
    <v>       0.31344860       0.18096963       0.00000000 </v>
    <v>       0.00000000       0.36193927       0.00000000 </v>
    <v>       0.00000000       0.00000000       0.06720880 </v>
   </varray>
  </crystal>
  <varray name="positions" >
   <v>       0.33333300       0.66666700       0.25000000 </v>
   <v>       0.66666700       0.33333300       0.75000000 </v>
   <v>       0.33333300       0.66666700       0.85517400 </v>
   <v>       0.66666700       0.33333300       0.14482600 </v>
   <v>       0.66666600       0.33333300       0.35517400 </v>
   <v>       0.33333400       0.66666700       0.64482600 </v>
  </varray>
 </structure>
 <calculation>
  <scstep>
   <time name="dav">    0.09    0.10</time>
   <time name="total">    0.13    0.16</time>
   <energy>
    <i name="alphaZ">     90.42577596 </i>
    <i name="ewald">  -1146.88905665 </i>
    <i name="hartreedc">   -535.10238363 </i>
    <i name="XCdc">    -72.59368150 </i>
    <i name="pawpsdc">    813.77302396 </i>
    <i name="pawaedc">   -658.68146406 </i>
    <i name="eentropy">      0.00000000 </i>
    <i name="bandstr">    178.11288179 </i>
    <i name="atom">   1542.31022798 </i>
    <i name="e_fr_energy">    211.35532387 </i>
    <i name="e_wo_entrp">    211.35532387 </i>
    <i name="e_0_energy">    211.35532387 </i>
   </energy>
  </scstep>
  <scstep>
   <time name="dav">    0.11    0.12</time>
   <time name="total">    0.11    0.12</time>
   <energy>
    <i name="e_fr_energy">    -24.94221933 </i>
    <i name="e_wo_entrp">    -24.94221933 </i>
    <i name="e_0_energy">    -24.94221933 </i>
   </energy>
  </scstep>
  <scstep>
   <time name="dav">    0.11    0.11</time>
   <time name="total">    0.11    0.11</time>
   <energy>
    <i name="e_fr_energy">    -46.27520452 </i>
    <i name="e_wo_entrp">    -46.27520452 </i>
    <i name="e_0_energy">    -46.27520452 </i>
   </energy>
  </scstep>
  <scstep>
   <time name="dav">    0.11    0.11</time>
   <time name="total">    0.11    0.11</time>
   <energy>
    <i name="e_fr_energy">    -46.87781302 </i>
    <i name="e_wo_entrp">    -46.87781302 </i>
    <i name="e_0_energy">    -46.87781302 </i>
   </energy>
  </scstep>
  <scstep>
   <time name="dav">    0.11    0.11</time>
   <time name="total">    0.13    0.13</time>
   <energy>
    <i name="e_fr_energy">    -46.89526102 </i>
    <i name="e_wo_entrp">    -46.89526102 </i>
    <i name="e_0_energy">    -46.89526102 </i>
   </energy>
  </scstep>
  <scstep>
   <time name="diag">    0.02    0.02</time>
   <time name="diis">    0.07    0.07</time>
   <time name="orth">    0.00    0.00</time>
   <time name="total">    0.14    0.14</time>
   <energy>
    <i name="e_fr_energy">    -44.50976098 </i>
    <i name="e_wo_entrp">    -44.50976098 </i>
    <i name="e_0_energy">    -44.50976098 </i>
   </energy>
  </scstep>
  <scstep>
   <time name="diag">    0.02    0.02</time>
   <time name="diis">    0.07    0.07</time>
   <time name="orth">    0.00    0.00</time>
   <time name="total">    0.14    0.14</time>
   <energy>
    <i name="e_fr_energy">    -43.80067990 </i>
    <i name="e_wo_entrp">    -43.80067990 </i>
    <i name="e_0_energy">    -43.80067990 </i>
   </energy>
  </scstep>
  <scstep>
   <time name="diag">    0.02    0.02</time>
   <time name="diis">    0.07    0.08</time>
   <time name="orth">    0.00    0.00</time>
   <time name="total">    0.14    0.14</time>
   <energy>
    <i name="e_fr_energy">    -43.73766272 </i>
    <i name="e_wo_entrp">    -43.73766272 </i>
    <i name="e_0_energy">    -43.73766272 </i>
   </energy>
  </scstep>
  <scstep>
   <time name="diag">    0.02    0.02</time>
   <time name="diis">    0.08    0.08</time>
   <time name="orth">    0.00    0.00</time>
   <time name="total">    0.15    0.15</time>
   <energy>
    <i name="e_fr_energy">    -43.72624906 </i>
    <i name="e_wo_entrp">    -43.72624906 </i>
    <i name="e_0_energy">    -43.72624906 </i>
   </energy>
  </scstep>
  <scstep>
   <time name="diag">    0.02    0.02</time>
   <time name="diis">    0.08    0.08</time>
   <time name="orth">    0.00    0.00</time>
   <time name="total">    0.14    0.15</time>
   <energy>
    <i name="e_fr_energy">    -43.71111865 </i>
    <i name="e_wo_entrp">    -43.71111865 </i>
    <i name="e_0_energy">    -43.71111865 </i>
   </energy>
  </scstep>
  <scstep>
   <time name="diag">    0.02    0.02</time>
   <time name="diis">    0.08    0.08</time>
   <time name="orth">    0.00    0.00</time>
   <time name="total">    0.15    0.15</time>
   <energy>
    <i name="e_fr_energy">    -43.71137204 </i>
    <i name="e_wo_entrp">    -43.71137204 </i>
    <i name="e_0_energy">    -43.71137204 </i>
   </energy>
  </scstep>
  <scstep>
   <time name="diag">    0.02    0.02</time>
   <time name="diis">    0.08    0.08</time>
   <time name="orth">    0.00    0.00</time>
   <time name="total">    0.15    0.15</time>
   <energy>
    <i name="e_fr_energy">    -43.71149683 </i>
    <i name="e_wo_entrp">    -43.71149683 </i>
    <i name="e_0_energy">    -43.71149683 </i>
   </energy>
  </scstep>
  <scstep>
   <time name="diag">    0.02    0.02</time>
   <time name="diis">    0.09    0.09</time>
   <time name="orth">    0.00    0.00</time>
   <time name="total">    0.15    0.16</time>
   <energy>
    <i name="e_fr_energy">    -43.71151538 </i>
    <i name="e_wo_entrp">    -43.71151538 </i>
    <i name="e_0_energy">    -43.71151538 </i>
   </energy>
  </scstep>
  <scstep>
   <time name="diag">    0.02    0.02</time>
   <time name="diis">    0.07    0.07</time>
   <time name="orth">    0.00    0.00</time>
   <time name="total">    0.14    0.14</time>
   <energy>
    <i name="e_fr_energy">    -43.71149972 </i>
    <i name="e_wo_entrp">    -43.71149972 </i>
    <i name="e_0_energy">    -43.71149972 </i>
   </energy>
  </scstep>
  <scstep>
   <time name="diag">    0.02    0.02</time>
   <time name="diis">    0.05    0.05</time>
   <time name="orth">    0.00    0.00</time>
   <time name="total">    0.11    0.11</time>
   <energy>
    <i name="alphaZ">     90.42577596 </i>
    <i name="ewald">  -1146.88905665 </i>
    <i name="hartreedc">   -543.05474229 </i>
    <i name="XCdc">    -70.40174162 </i>
    <i name="pawpsdc">    944.11001731 </i>
    <i name="pawaedc">   -792.46798261 </i>
    <i name="eentropy">      0.00000000 </i>
    <i name="bandstr">    -67.74399801 </i>
    <i name="atom">   1542.31022798 </i>
    <i name="e_fr_energy">    -43.71149992 </i>
    <i name="e_wo_entrp">    -43.71149992 </i>
    <i name="e_0_energy">    -43.71149992 </i>
   </energy>
  </scstep>
  <structure>
   <crystal>
    <varray name="basis" >
     <v>       3.19031573       0.00000000       0.00000000 </v>
     <v>      -1.59515786       2.76289447       0.00000000 </v>
     <v>       0.00000000       0.00000000      14.87900430 </v>
    </varray>
    <i name="volume">    131.15106795 </i>
    <varray name="rec_basis" >
     <v>       0.31344860       0.18096963       0.00000000 </v>
     <v>       0.00000000       0.36193927       0.00000000 </v>
     <v>       0.00000000       0.00000000       0.06720880 </v>
    </varray>
   </crystal>
   <varray name="positions" >
    <v>       0.33333300       0.66666700       0.25000000 </v>
    <v>       0.66666700       0.33333300       0.75000000 </v>
    <v>       0.33333300       0.66666700       0.85517400 </v>
    <v>       0.66666700       0.33333300       0.14482600 </v>
    <v>       0.66666600       0.33333300       0.35517400 </v>
    <v>       0.33333400       0.66666700       0.64482600 </v>
   </varray>
  </structure>
  <varray name="forces" >
   <v>      -0.00000000      -0.00000000       0.00000000 </v>
   <v>      -0.00000000      -0.00000000       0.00000000 </v>
   <v>      -0.00000000       0.00000000      -0.11071918 </v>
   <v>       0.00000000      -0.00000000       0.11071918 </v>
   <v>       0.00000000      -0.00000000      -0.11071918 </v>
   <v>       0.00000000       0.00000000       0.11071918 </v>
  </varray>
  <varray name="stress" >
   <v>      -8.32415492       0.00000000       0.00000000 </v>
   <v>       0.00000000      -8.32415492       0.00000000 </v>
   <v>       0.00000000      -0.00000000     -18.02586770 </v>
  </varray>
  <energy>
   <i name="e_fr_energy">    -45.04278694 </i>
   <i name="e_wo_entrp">    -45.04278694 </i>
   <i name="e_0_energy">      0.00000000 </i>
  </energy>
  <time name="totalsc">    2.44    2.56</time>
  <eigenvalues>
   <array>
    <dimension dim="1">band</dimension>
    <dimension dim="2">kpoint</dimension>
    <dimension dim="3">spin</dimension>
    <field>eigene</field>
    <field>occ</field>
    <set>
     <set comment="spin 1">
      <set comment="kpoint 1">
       <r>  -10.9285    1.0000 </r>
       <r>  -10.9094    1.0000 </r>
       <r>   -9.7295    1.0000 </r>
       <r>   -9.6954    1.0000 </r>
       <r>   -2.5210    1.0000 </r>
       <r>   -2.3589    1.0000 </r>
       <r>    0.5248    1.0000 </r>
       <r>    0.5248    1.0000 </r>
       <r>    0.5254    1.0000 </r>
       <r>    0.5254    1.0000 </r>
       <r>    1.1031    1.0000 </r>
       <r>    1.6311    1.0000 </r>
       <r>    1.6312    1.0000 </r>
       <r>    1.6331    1.0000 </r>
       <r>    1.6331    1.0000 </r>
       <r>    1.6720    1.0000 </r>
       <r>    2.9284    1.0000 </r>
       <r>    3.3047    1.0000 </r>
       <r>    5.8795    0.0000 </r>
       <r>    5.9169    0.0000 </r>
       <r>    6.0221    0.0000 </r>
       <r>    6.0873    0.0000 </r>
      </set>
      <set comment="kpoint 2">
       <r>  -10.1448    1.0000 </r>
       <r>  -10.1280    1.0000 </r>
       <r>   -9.3532    1.0000 </r>
       <r>   -9.3288    1.0000 </r>
       <r>   -1.8851    1.0000 </r>
       <r>   -1.7737    1.0000 </r>
       <r>   -0.6879    1.0000 </r>
       <r>   -0.6444    1.0000 </r>
       <r>   -0.4581    1.0000 </r>
       <r>   -0.3562    1.0000 </r>
       <r>    0.6593    1.0000 </r>
       <r>    0.6627    1.0000 </r>
       <r>    1.3439    1.0000 </r>
       <r>    1.3474    1.0000 </r>
       <r>    1.7027    1.0000 </r>
       <r>    1.9115    1.0000 </r>
       <r>    2.3765    1.0000 </r>
       <r>    2.4249    1.0000 </r>
       <r>    5.1227    0.0000 </r>
       <r>    5.4422    0.0000 </r>
       <r>    5.4524    0.0000 </r>
       <r>    5.4568    0.0000 </r>
      </set>
      <set comment="kpoint 3">
       <r>   -9.1368    1.0000 </r>
       <r>   -9.1302    1.0000 </r>
       <r>   -8.8921    1.0000 </r>
       <r>   -8.8856    1.0000 </r>
       <r>   -2.6099    1.0000 </r>
       <r>   -2.5828    1.0000 </r>
       <r>   -1.6499    1.0000 </r>
       <r>   -1.6254    1.0000 </r>
       <r>   -0.9663    1.0000 </r>
       <r>   -0.8901    1.0000 </r>
       <r>   -0.0191    1.0000 </r>
       <r>   -0.0149    1.0000 </r>
       <r>    1.2458    1.0000 </r>
       <r>    1.2653    1.0000 </r>
       <r>    2.1552    1.0000 </r>
       <r>    2.1673    1.0000 </r>
       <r>    2.4824    1.0000 </r>
       <r>    2.4864    1.0000 </r>
       <r>    5.2904    0.0000 </r>
       <r>    5.2942    0.0000 </r>
       <r>    5.7870    0.0000 </r>
       <r>    5.8607    0.0000 </r>
      </set>
      <set comment="kpoint 4">
       <r>   -9.1680    1.0000 </r>
       <r>   -9.1593    1.0000 </r>
       <r>   -8.8759    1.0000 </r>
       <r>   -8.8660    1.0000 </r>
       <r>   -1.9632    1.0000 </r>
       <r>   -1.9345    1.0000 </r>
       <r>   -1.7485    1.0000 </r>
       <r>   -1.7373    1.0000 </r>
       <r>   -0.4880    1.0000 </r>
       <r>   -0.4636    1.0000 </r>
       <r>   -0.1368    1.0000 </r>
       <r>   -0.0483    1.0000 </r>
       <r>    0.2189    1.0000 </r>
       <r>    0.2416    1.0000 </r>
       <r>    1.4759    1.0000 </r>
       <r>    1.4866    1.0000 </r>
       <r>    2.6071    1.0000 </r>
       <r>    2.6169    1.0000 </r>
       <r>    5.1930    0.0000 </r>
       <r>    5.3225    0.0000 </r>
       <r>    5.8388    0.0000 </r>
       <r>    6.0551    0.0000 </r>
      </set>
     </set>
    </set>
   </array>
  </eigenvalues>
  <separator name="orbital magnetization" >
   <v name="MAGDIPOLOUT">      0.00000000      0.00000000      0.00000000</v>
  </separator>
  <dos>
   <i name="efermi">      3.32808320 </i>
   <total>
    <array>
     <dimension dim="1">gridpoints</dimension>
     <dimension dim="2">spin</dimension>
     <field>energy</field>
     <field>total</field>
     <field>integrated</field>
     <set>
      <set comment="spin 1">
       <r>   -12.9285     0.0000     0.0000 </r>
       <r>   -12.8584     0.0000     0.0000 </r>
       <r>   -12.7884     0.0000     0.0000 </r>
       <r>   -12.7183     0.0000     0.0000 </r>
       <r>   -12.6483     0.0000     0.0000 </r>
       <r>   -12.5782     0.0000     0.0000 </r>
       <r>   -12.5082     0.0000     0.0000 </r>
       <r>   -12.4381     0.0000     0.0000 </r>
       <r>   -12.3681     0.0000     0.0000 </r>
       <r>   -12.2980     0.0000     0.0000 </r>
       <r>   -12.2279     0.0000     0.0000 </r>
       <r>   -12.1579     0.0000     0.0000 </r>
       <r>   -12.0878     0.0000     0.0000 </r>
       <r>   -12.0178     0.0000     0.0000 </r>
       <r>   -11.9477     0.0000     0.0000 </r>
       <r>   -11.8777     0.0000     0.0000 </r>
       <r>   -11.8076     0.0000     0.0000 </r>
       <r>   -11.7376     0.0000     0.0000 </r>
       <r>   -11.6675     0.0000     0.0000 </r>
       <r>   -11.5975     0.0000     0.0000 </r>
       <r>   -11.5274     0.0000     0.0000 </r>
       <r>   -11.4574     0.0000     0.0000 </r>
       <r>   -11.3873     0.0000     0.0000 </r>
       <r>   -11.3173     0.0000     0.0000 </r>
       <r>   -11.2472     0.0000     0.0000 </r>
       <r>   -11.1772     0.0000     0.0000 </r>
       <r>   -11.1071     0.0000     0.0000 </r>
       <r>   -11.0371     0.0000     0.0000 </r>
       <r>   -10.9670     0.0000     0.0000 </r>
       <r>   -10.8969     0.0538     0.0007 </r>
       <r>   -10.8269     0.2254     0.0105 </r>
       <r>   -10.7568     0.3970     0.0323 </r>
       <r>   -10.6868     0.5686     0.0661 </r>
       <r>   -10.6167     0.7402     0.1119 </r>
       <r>   -10.5467     0.9117     0.1698 </r>
       <r>   -10.4766     1.0833     0.2397 </r>
       <r>   -10.4066     1.2549     0.3216 </r>
       <r>   -10.3365     1.4265     0.4155 </r>
       <r>   -10.2665     1.5981     0.5214 </r>
       <r>   -10.1964     1.7697     0.6394 </r>
       <r>   -10.1264     1.5569     0.7655 </r>
       <r>   -10.0563     1.6613     0.8782 </r>
       <r>    -9.9863     1.7656     0.9983 </r>
       <r>    -9.9162     1.8700     1.1256 </r>
       <r>    -9.8462     1.9744     1.2603 </r>
       <r>    -9.7761     2.0788     1.4022 </r>
       <r>    -9.7061     2.3073     1.5530 </r>
       <r>    -9.6360     3.1142     1.7411 </r>
       <r>    -9.5660     3.9804     1.9896 </r>
       <r>    -9.4959     4.8466     2.2988 </r>
       <r>    -9.4258     5.7128     2.6686 </r>
       <r>    -9.3558     6.5790     3.0992 </r>
       <r>    -9.2857     6.4033     3.5380 </r>
       <r>    -9.2157     7.0215     4.0082 </r>
       <r>    -9.1456    26.3163     5.3689 </r>
       <r>    -9.0756     5.1353     5.8545 </r>
       <r>    -9.0055     5.6491     6.2322 </r>
       <r>    -8.9355     6.1629     6.6460 </r>
       <r>    -8.8654     0.0000     8.0000 </r>
       <r>    -8.7954     0.0000     8.0000 </r>
       <r>    -8.7253     0.0000     8.0000 </r>
       <r>    -8.6553     0.0000     8.0000 </r>
       <r>    -8.5852     0.0000     8.0000 </r>
       <r>    -8.5152     0.0000     8.0000 </r>
       <r>    -8.4451     0.0000     8.0000 </r>
       <r>    -8.3751     0.0000     8.0000 </r>
       <r>    -8.3050     0.0000     8.0000 </r>
       <r>    -8.2350     0.0000     8.0000 </r>
       <r>    -8.1649     0.0000     8.0000 </r>
       <r>    -8.0948     0.0000     8.0000 </r>
       <r>    -8.0248     0.0000     8.0000 </r>
       <r>    -7.9547     0.0000     8.0000 </r>
       <r>    -7.8847     0.0000     8.0000 </r>
       <r>    -7.8146     0.0000     8.0000 </r>
       <r>    -7.7446     0.0000     8.0000 </r>
       <r>    -7.6745     0.0000     8.0000 </r>
       <r>    -7.6045     0.0000     8.0000 </r>
       <r>    -7.5344     0.0000     8.0000 </r>
       <r>    -7.4644     0.0000     8.0000 </r>
       <r>    -7.3943     0.0000     8.0000 </r>
       <r>    -7.3243     0.0000     8.0000 </r>
       <r>    -7.2542     0.0000     8.0000 </r>
       <r>    -7.1842     0.0000     8.0000 </r>
       <r>    -7.1141     0.0000     8.0000 </r>
       <r>    -7.0441     0.0000     8.0000 </r>
       <r>    -6.9740     0.0000     8.0000 </r>
       <r>    -6.9040     0.0000     8.0000 </r>
       <r>    -6.8339     0.0000     8.0000 </r>
       <r>    -6.7639     0.0000     8.0000 </r>
       <r>    -6.6938     0.0000     8.0000 </r>
       <r>    -6.6237     0.0000     8.0000 </r>
       <r>    -6.5537     0.0000     8.0000 </r>
       <r>    -6.4836     0.0000     8.0000 </r>
       <r>    -6.4136     0.0000     8.0000 </r>
       <r>    -6.3435     0.0000     8.0000 </r>
       <r>    -6.2735     0.0000     8.0000 </r>
       <r>    -6.2034     0.0000     8.0000 </r>
       <r>    -6.1334     0.0000     8.0000 </r>
       <r>    -6.0633     0.0000     8.0000 </r>
       <r>    -5.9933     0.0000     8.0000 </r>
       <r>    -5.9232     0.0000     8.0000 </r>
       <r>    -5.8532     0.0000     8.0000 </r>
       <r>    -5.7831     0.0000     8.0000 </r>
       <r>    -5.7131     0.0000     8.0000 </r>
       <r>    -5.6430     0.0000     8.0000 </r>
       <r>    -5.5730     0.0000     8.0000 </r>
       <r>    -5.5029     0.0000     8.0000 </r>
       <r>    -5.4329     0.0000     8.0000 </r>
       <r>    -5.3628     0.0000     8.0000 </r>
       <r>    -5.2928     0.0000     8.0000 </r>
       <r>    -5.2227     0.0000     8.0000 </r>
       <r>    -5.1526     0.0000     8.0000 </r>
       <r>    -5.0826     0.0000     8.0000 </r>
       <r>    -5.0125     0.0000     8.0000 </r>
       <r>    -4.9425     0.0000     8.0000 </r>
       <r>    -4.8724     0.0000     8.0000 </r>
       <r>    -4.8024     0.0000     8.0000 </r>
       <r>    -4.7323     0.0000     8.0000 </r>
       <r>    -4.6623     0.0000     8.0000 </r>
       <r>    -4.5922     0.0000     8.0000 </r>
       <r>    -4.5222     0.0000     8.0000 </r>
       <r>    -4.4521     0.0000     8.0000 </r>
       <r>    -4.3821     0.0000     8.0000 </r>
       <r>    -4.3120     0.0000     8.0000 </r>
       <r>    -4.2420     0.0000     8.0000 </r>
       <r>    -4.1719     0.0000     8.0000 </r>
       <r>    -4.1019     0.0000     8.0000 </r>
       <r>    -4.0318     0.0000     8.0000 </r>
       <r>    -3.9618     0.0000     8.0000 </r>
       <r>    -3.8917     0.0000     8.0000 </r>
       <r>    -3.8216     0.0000     8.0000 </r>
       <r>    -3.7516     0.0000     8.0000 </r>
       <r>    -3.6815     0.0000     8.0000 </r>
       <r>    -3.6115     0.0000     8.0000 </r>
       <r>    -3.5414     0.0000     8.0000 </r>
       <r>    -3.4714     0.0000     8.0000 </r>
       <r>    -3.4013     0.0000     8.0000 </r>
       <r>    -3.3313     0.0000     8.0000 </r>
       <r>    -3.2612     0.0000     8.0000 </r>
       <r>    -3.1912     0.0000     8.0000 </r>
       <r>    -3.1211     0.0000     8.0000 </r>
       <r>    -3.0511     0.0000     8.0000 </r>
       <r>    -2.9810     0.0000     8.0000 </r>
       <r>    -2.9110     0.0000     8.0000 </r>
       <r>    -2.8409     0.0000     8.0000 </r>
       <r>    -2.7709     0.0000     8.0000 </r>
       <r>    -2.7008     0.0000     8.0000 </r>
       <r>    -2.6308     0.0000     8.0000 </r>
       <r>    -2.5607     0.3486     8.0072 </r>
       <r>    -2.4907     1.0800     8.0561 </r>
       <r>    -2.4206     1.8850     8.1600 </r>
       <r>    -2.3505     2.7085     8.3203 </r>
       <r>    -2.2805     3.6669     8.5436 </r>
       <r>    -2.2104     4.6254     8.8340 </r>
       <r>    -2.1404     5.5838     9.1916 </r>
       <r>    -2.0703     6.5423     9.6164 </r>
       <r>    -2.0003     7.5007    10.1082 </r>
       <r>    -1.9302     9.2155    10.9239 </r>
       <r>    -1.8602     4.2457    11.5595 </r>
       <r>    -1.7901     5.6236    11.9052 </r>
       <r>    -1.7201    11.7358    12.5494 </r>
       <r>    -1.6500     4.0885    13.1037 </r>
       <r>    -1.5800     2.8317    13.3200 </r>
       <r>    -1.5099     2.7214    13.5145 </r>
       <r>    -1.4399     2.6111    13.7012 </r>
       <r>    -1.3698     2.5008    13.8803 </r>
       <r>    -1.2998     2.3904    14.0516 </r>
       <r>    -1.2297     2.2801    14.2152 </r>
       <r>    -1.1597     2.1698    14.3711 </r>
       <r>    -1.0896     2.0595    14.5192 </r>
       <r>    -1.0195     1.9492    14.6596 </r>
       <r>    -0.9495     1.9973    14.7936 </r>
       <r>    -0.8794     2.6635    14.9535 </r>
       <r>    -0.8094     3.9654    15.1857 </r>
       <r>    -0.7393     5.2674    15.5090 </r>
       <r>    -0.6693     6.4860    15.9220 </r>
       <r>    -0.5992     7.7738    16.4209 </r>
       <r>    -0.5292     9.1119    17.0124 </r>
       <r>    -0.4591    28.3998    18.2002 </r>
       <r>    -0.3891     7.3841    18.6502 </r>
       <r>    -0.3190     2.3628    19.0027 </r>
       <r>    -0.2490     2.1667    19.1613 </r>
       <r>    -0.1789     1.9707    19.3062 </r>
       <r>    -0.1089     7.1114    19.7261 </r>
       <r>    -0.0388    20.9983    20.4382 </r>
       <r>     0.0312     5.4095    21.0115 </r>
       <r>     0.1013     4.9876    21.3757 </r>
       <r>     0.1713     4.5657    21.7103 </r>
       <r>     0.2414     4.9007    22.1571 </r>
       <r>     0.3114     5.3796    22.6677 </r>
       <r>     0.3815     5.1260    23.0357 </r>
       <r>     0.4516     4.8724    23.3859 </r>
       <r>     0.5216     4.6188    23.7183 </r>
       <r>     0.5917     4.5513    24.0392 </r>
       <r>     0.6617     5.2362    24.3578 </r>
       <r>     0.7318     4.8006    24.6998 </r>
       <r>     0.8018     4.6461    25.0307 </r>
       <r>     0.8719     4.4916    25.3508 </r>
       <r>     0.9419     4.3371    25.6600 </r>
       <r>     1.0120     4.1827    25.9584 </r>
       <r>     1.0820     4.0282    26.2460 </r>
       <r>     1.1521     4.0603    26.5274 </r>
       <r>     1.2221     4.1726    26.8157 </r>
       <r>     1.2922     3.1661    27.0905 </r>
       <r>     1.3622     5.1484    27.3054 </r>
       <r>     1.4323     3.8119    27.6192 </r>
       <r>     1.5023     5.4029    28.1448 </r>
       <r>     1.5724     6.1967    28.5511 </r>
       <r>     1.6424     8.6355    29.0208 </r>
       <r>     1.7125     6.2555    29.9442 </r>
       <r>     1.7826     7.2570    30.4174 </r>
       <r>     1.8526     8.2585    30.9609 </r>
       <r>     1.9227     4.0162    31.5179 </r>
       <r>     1.9927     2.8436    31.7582 </r>
       <r>     2.0628     1.6710    31.9163 </r>
       <r>     2.1328     0.4984    31.9923 </r>
       <r>     2.2029     0.0000    32.0000 </r>
       <r>     2.2729     0.0000    32.0000 </r>
       <r>     2.3430     0.0000    32.0000 </r>
       <r>     2.4130     6.2511    32.1982 </r>
       <r>     2.4831    20.2639    33.2024 </r>
       <r>     2.5531    16.6941    34.5125 </r>
       <r>     2.6232     1.4119    35.6603 </r>
       <r>     2.6932     1.1715    35.7508 </r>
       <r>     2.7633     0.9312    35.8244 </r>
       <r>     2.8333     0.6908    35.8812 </r>
       <r>     2.9034     0.4504    35.9212 </r>
       <r>     2.9734     0.3210    35.9468 </r>
       <r>     3.0435     0.2531    35.9669 </r>
       <r>     3.1135     0.1852    35.9823 </r>
       <r>     3.1836     0.1173    35.9929 </r>
       <r>     3.2537     0.0495    35.9987 </r>
       <r>     3.3237     0.0000    36.0000 </r>
       <r>     3.3938     0.0000    36.0000 </r>
       <r>     3.4638     0.0000    36.0000 </r>
       <r>     3.5339     0.0000    36.0000 </r>
       <r>     3.6039     0.0000    36.0000 </r>
       <r>     3.6740     0.0000    36.0000 </r>
       <r>     3.7440     0.0000    36.0000 </r>
       <r>     3.8141     0.0000    36.0000 </r>
       <r>     3.8841     0.0000    36.0000 </r>
       <r>     3.9542     0.0000    36.0000 </r>
       <r>     4.0242     0.0000    36.0000 </r>
       <r>     4.0943     0.0000    36.0000 </r>
       <r>     4.1643     0.0000    36.0000 </r>
       <r>     4.2344     0.0000    36.0000 </r>
       <r>     4.3044     0.0000    36.0000 </r>
       <r>     4.3745     0.0000    36.0000 </r>
       <r>     4.4445     0.0000    36.0000 </r>
       <r>     4.5146     0.0000    36.0000 </r>
       <r>     4.5846     0.0000    36.0000 </r>
       <r>     4.6547     0.0000    36.0000 </r>
       <r>     4.7248     0.0000    36.0000 </r>
       <r>     4.7948     0.0000    36.0000 </r>
       <r>     4.8649     0.0000    36.0000 </r>
       <r>     4.9349     0.0000    36.0000 </r>
       <r>     5.0050     0.0000    36.0000 </r>
       <r>     5.0750     0.0000    36.0000 </r>
       <r>     5.1451    11.0861    36.2542 </r>
       <r>     5.2151    13.7318    37.2268 </r>
       <r>     5.2852     1.6730    37.7664 </r>
       <r>     5.3552     9.7628    38.7777 </r>
       <r>     5.4253     7.4078    39.3791 </r>
       <r>     5.4953     7.8758    39.8471 </r>
       <r>     5.5654     8.0058    40.4034 </r>
       <r>     5.6354     8.1358    40.9688 </r>
       <r>     5.7055     8.2659    41.5433 </r>
       <r>     5.7755     8.3959    42.1269 </r>
       <r>     5.8456     3.9977    43.0729 </r>
       <r>     5.9156     3.7549    43.3433 </r>
       <r>     5.9857     3.7968    43.6077 </r>
       <r>     6.0558     0.0595    43.9991 </r>
       <r>     6.1258     0.0000    44.0000 </r>
       <r>     6.1959     0.0000    44.0000 </r>
       <r>     6.2659     0.0000    44.0000 </r>
       <r>     6.3360     0.0000    44.0000 </r>
       <r>     6.4060     0.0000    44.0000 </r>
       <r>     6.4761     0.0000    44.0000 </r>
       <r>     6.5461     0.0000    44.0000 </r>
       <r>     6.6162     0.0000    44.0000 </r>
       <r>     6.6862     0.0000    44.0000 </r>
       <r>     6.7563     0.0000    44.0000 </r>
       <r>     6.8263     0.0000    44.0000 </r>
       <r>     6.8964     0.0000    44.0000 </r>
       <r>     6.9664     0.0000    44.0000 </r>
       <r>     7.0365     0.0000    44.0000 </r>
       <r>     7.1065     0.0000    44.0000 </r>
       <r>     7.1766     0.0000    44.0000 </r>
       <r>     7.2466     0.0000    44.0000 </r>
       <r>     7.3167     0.0000    44.0000 </r>
       <r>     7.3867     0.0000    44.0000 </r>
       <r>     7.4568     0.0000    44.0000 </r>
       <r>     7.5269     0.0000    44.0000 </r>
       <r>     7.5969     0.0000    44.0000 </r>
       <r>     7.6670     0.0000    44.0000 </r>
       <r>     7.7370     0.0000    44.0000 </r>
       <r>     7.8071     0.0000    44.0000 </r>
       <r>     7.8771     0.0000    44.0000 </r>
       <r>     7.9472     0.0000    44.0000 </r>
       <r>     8.0172     0.0000    44.0000 </r>
       <r>     8.0873     0.0000    44.0000 </r>
      </set>
     </set>
    </array>
   </total>
  </dos>
 </calculation>
 <structure name="finalpos" >
  <crystal>
   <varray name="basis" >
    <v>       3.19031573       0.00000000       0.00000000 </v>
    <v>      -1.59515786       2.76289447       0.00000000 </v>
    <v>       0.00000000       0.00000000      14.87900430 </v>
   </varray>
   <i name="volume">    131.15106795 </i>
   <varray name="rec_basis" >
    <v>       0.31344860       0.18096963       0.00000000 </v>
    <v>       0.00000000       0.36193927       0.00000000 </v>
    <v>       0.00000000       0.00000000       0.06720880 </v>
   </varray>
  </crystal>
  <varray name="positions" >
   <v>       0.33333300       0.66666700       0.25000000 </v>
   <v>       0.66666700       0.33333300       0.75000000 </v>
   <v>       0.33333300       0.66666700       0.85517400 </v>
   <v>       0.66666700       0.33333300       0.14482600 </v>
   <v>       0.66666600       0.33333300       0.35517400 </v>
   <v>       0.33333400       0.66666700       0.64482600 </v>
  </varray>
 </structure>
</modeling>
