unknown system                          
   1.00000000000000     
     3.190316    0.000000    0.000000
    -1.595158    2.762894    0.000000
     0.000000    0.000000   14.879004
   Mo   S 
     2     4
Direct
  0.333333  0.666667  0.250000
  0.666667  0.333333  0.750000
  0.333333  0.666667  0.855174
  0.666667  0.333333  0.144826
  0.666666  0.333333  0.355174
  0.333334  0.666667  0.644826
 
   36   36  160
 0.39558     0.39863     0.40782     0.42318     0.44470     0.47225     0.50551     0.54389     0.58654     0.63229    
 0.67974     0.72731     0.77328     0.81597     0.85371     0.88496     0.90838     0.92290     0.92781     0.92288    
 0.90834     0.88490     0.85363     0.81588     0.77319     0.72721     0.67965     0.63221     0.58647     0.54383    
 0.50545     0.47220     0.44466     0.42316     0.40781     0.39863     0.39863     0.39863     0.40476     0.41703    
 0.43548     0.46005     0.49051     0.52643     0.56708     0.61147     0.65831     0.70609     0.75316     0.79783    
 0.83838     0.87319     0.90081     0.91998     0.92981     0.92979     0.91994     0.90075     0.87312     0.83830    
 0.79775     0.75308     0.70600     0.65822     0.61139     0.56701     0.52637     0.49046     0.46001     0.43546    
 0.41702     0.40475     0.40781     0.40475     0.40782     0.41703     0.43241     0.45395     0.48150     0.51476    
 0.55315     0.59586     0.64173     0.68941     0.73729     0.78369     0.82686     0.86513     0.89688     0.92072    
 0.93551     0.94052     0.93549     0.92067     0.89682     0.86505     0.82679     0.78360     0.73720     0.68932    
 0.64165     0.59578     0.55309     0.51470     0.48146     0.45392     0.43239     0.41702     0.42316     0.41702    
 0.41702     0.42317     0.43548     0.45395     0.47850     0.50892     0.54479     0.58545     0.62995     0.67708    
 0.72536     0.77313     0.81865     0.86014     0.89591     0.92436     0.94417     0.95434     0.95434     0.94415    
 0.92433     0.89585     0.86007     0.81856     0.77303     0.72526     0.67700     0.62988     0.58539     0.54473    
 0.50887     0.47846     0.45391     0.43546     0.44466     0.43546     0.43240     0.43547     0.44468     0.46004    
 0.48150     0.50892     0.54200     0.58025     0.62291     0.66895     0.71707     0.76570     0.81311     0.85748    
 0.89699     0.92992     0.95472     0.97015     0.97539     0.97015     0.95471     0.92989     0.89693     0.85739    
 0.81301     0.76560     0.71699     0.66889     0.62285     0.58020     0.54195     0.50887     0.48146     0.46001    
 0.47220     0.46002     0.45393     0.45393     0.46003     0.47222     0.49049     0.51475     0.54479     0.58025    
 0.62058     0.66493     0.71220     0.76100     0.80965     0.85634     0.89916     0.93626     0.96589     0.98657    
 0.99721     0.99721     0.98657     0.96587     0.93622     0.89910     0.85626     0.80956     0.76092     0.71214    
 0.66487     0.62052     0.58020     0.54474     0.51471     0.49046     0.50545     0.49047     0.48148     0.47848    
 0.48148     0.49048     0.50548     0.52640     0.55313     0.58544     0.62291     0.66493     0.71060     0.75873    
 0.80779     0.85602     0.90149     0.94223     0.97635      1.0021      1.0182      1.0236      1.0182      1.0021    
 0.97631     0.94219     0.90144     0.85596     0.80772     0.75866     0.71054     0.66487     0.62285     0.58539    
 0.55310     0.52637     0.54383     0.52637     0.51472     0.50889     0.50889     0.51473     0.52640     0.54386    
 0.56704     0.59582     0.62993     0.66895     0.71220     0.75873     0.80721     0.85601     0.90322     0.94684    
 0.98484      1.0153      1.0367      1.0476      1.0476      1.0366      1.0153     0.98481     0.94681     0.90318    
 0.85595     0.80715     0.75867     0.71214     0.66888     0.62988     0.59578     0.56701     0.58647     0.56701    
 0.55311     0.54476     0.54198     0.54476     0.55313     0.56706     0.58651     0.61142     0.64168     0.67704    
 0.71704     0.76097     0.80779     0.85601     0.90386     0.94935     0.99038      1.0249      1.0511      1.0675    
  1.0730      1.0675      1.0511      1.0249     0.99035     0.94932     0.90381     0.85594     0.80773     0.76093    
 0.71699     0.67699     0.64165     0.61139     0.63222     0.61139     0.59579     0.58541     0.58023     0.58023    
 0.58542     0.59583     0.61144     0.63226     0.65826     0.68935     0.72530     0.76564     0.80961     0.85600    
 0.90322     0.94935     0.99231      1.0300      1.0603      1.0816      1.0926      1.0926      1.0816      1.0603    
  1.0299     0.99229     0.94932     0.90316     0.85595     0.80957     0.76561     0.72526     0.68931     0.65822    
 0.67967     0.65823     0.64165     0.62990     0.62289     0.62055     0.62288     0.62992     0.64170     0.65827    
 0.67971     0.70605     0.73724     0.77306     0.81303     0.85628     0.90146     0.94683     0.99038      1.0300    
  1.0635      1.0890      1.1049      1.1104      1.1050      1.0890      1.0635      1.0300     0.99037     0.94680    
 0.90142     0.85626     0.81303     0.77303     0.73719     0.70600     0.72722     0.70601     0.68932     0.67701    
 0.66892     0.66491     0.66491     0.66893     0.67705     0.68937     0.70605     0.72726     0.75313     0.78364    
 0.81858     0.85741     0.89911     0.94219     0.98482      1.0249      1.0603      1.0890      1.1092      1.1196    
  1.1196      1.1092      1.0890      1.0603      1.0249     0.98482     0.94218     0.89909     0.85740     0.81857    
 0.78359     0.75307     0.77319     0.75309     0.73720     0.72527     0.71702     0.71218     0.71059     0.71218    
 0.71705     0.72533     0.73725     0.75312     0.77323     0.79779     0.82682     0.86008     0.89693     0.93621    
 0.97630      1.0153      1.0511      1.0816      1.1050      1.1196      1.1246      1.1196      1.1049      1.0816    
  1.0511      1.0153     0.97631     0.93620     0.89693     0.86008     0.82678     0.79773     0.81587     0.79775    
 0.78361     0.77304     0.76562     0.76096     0.75871     0.75871     0.76098     0.76569     0.77311     0.78365    
 0.79778     0.81592     0.83833     0.86507     0.89585     0.92988     0.96585      1.0021      1.0366      1.0675    
  1.0926      1.1104      1.1196      1.1196      1.1104      1.0926      1.0674      1.0366      1.0021     0.96586    
 0.92988     0.89586     0.86506     0.83829     0.85361     0.83829     0.82680     0.81857     0.81303     0.80960    
 0.80777     0.80719     0.80777     0.80964     0.81310     0.81864     0.82684     0.83834     0.85366     0.87313    
 0.89682     0.92431     0.95468     0.98654      1.0182      1.0476      1.0730      1.0926      1.1050      1.1092    
  1.1050      1.0926      1.0730      1.0476      1.0182     0.98656     0.95469     0.92433     0.89683     0.87312    
 0.88489     0.87311     0.86507     0.86009     0.85741     0.85628     0.85599     0.85599     0.85599     0.85601    
 0.85633     0.85748     0.86015     0.86513     0.87318     0.88492     0.90075     0.92065     0.94412     0.97011    
 0.99717      1.0236      1.0476      1.0675      1.0816      1.0890      1.0890      1.0816      1.0675      1.0476    
  1.0237     0.99722     0.97013     0.94414     0.92068     0.90076     0.90834     0.90074     0.89683     0.89587    
 0.89695     0.89912     0.90147     0.90322     0.90386     0.90322     0.90149     0.89917     0.89701     0.89593    
 0.89690     0.90081     0.90836     0.91993     0.93545     0.95428     0.97533     0.99717      1.0182      1.0367    
  1.0511      1.0603      1.0635      1.0603      1.0511      1.0366      1.0182     0.99722     0.97539     0.95432    
 0.93549     0.91996     0.92289     0.91994     0.92067     0.92434     0.92990     0.93623     0.94222     0.94685    
 0.94938     0.94937     0.94686     0.94225     0.93628     0.92995     0.92439     0.92074     0.92000     0.92289    
 0.92978     0.94047     0.95428     0.97009     0.98653      1.0021      1.0153      1.0249      1.0300      1.0300    
  1.0249      1.0153      1.0021     0.98658     0.97016     0.95433     0.94051     0.92980     0.92782     0.92980    
 0.93548     0.94416     0.95472     0.96589     0.97634     0.98486     0.99042     0.99235     0.99042     0.98488    
 0.97639     0.96593     0.95476     0.94421     0.93554     0.92983     0.92782     0.92978     0.93546     0.94411    
 0.95466     0.96584     0.97631     0.98483     0.99038     0.99232     0.99039     0.98484     0.97633     0.96589    
 0.95473     0.94417     0.93550     0.92981     0.92291     0.92981     0.94051     0.95433     0.97016     0.98660    
  1.0021      1.0154      1.0250      1.0300      1.0300      1.0250      1.0154      1.0022     0.98664     0.97020    
 0.95439     0.94055     0.92982     0.92289     0.91996     0.92067     0.92430     0.92986     0.93620     0.94219    
 0.94682     0.94935     0.94936     0.94685     0.94222     0.93625     0.92993     0.92437     0.92071     0.91998    
 0.90838     0.91999     0.93550     0.95434     0.97540     0.99725      1.0182      1.0367      1.0512      1.0604    
  1.0635      1.0603      1.0512      1.0367      1.0183     0.99729     0.97545     0.95439     0.93553     0.91998    
 0.90836     0.90077     0.89683     0.89585     0.89693     0.89911     0.90145     0.90320     0.90386     0.90324    
 0.90149     0.89915     0.89699     0.89592     0.89688     0.90080     0.88495     0.90081     0.92072     0.94417    
 0.97016     0.99725      1.0237      1.0477      1.0675      1.0817      1.0890      1.0890      1.0817      1.0675    
  1.0477      1.0237     0.99729     0.97022     0.94422     0.92072     0.90078     0.88492     0.87314     0.86507    
 0.86009     0.85743     0.85629     0.85599     0.85599     0.85601     0.85603     0.85633     0.85747     0.86016    
 0.86514     0.87318     0.85369     0.87319     0.89689     0.92438     0.95474     0.98661      1.0182      1.0477    
  1.0731      1.0927      1.1050      1.1093      1.1050      1.0927      1.0731      1.0477      1.0182     0.98665    
 0.95479     0.92440     0.89688     0.87317     0.85366     0.83832     0.82680     0.81859     0.81307     0.80962    
 0.80777     0.80721     0.80780     0.80965     0.81309     0.81865     0.82688     0.83838     0.81596     0.83837    
 0.86514     0.89593     0.92994     0.96591      1.0022      1.0367      1.0675      1.0927      1.1105      1.1197    
  1.1197      1.1105      1.0927      1.0675      1.0367      1.0022     0.96594     0.92997     0.89593     0.86512    
 0.83835     0.81592     0.79776     0.78362     0.77308     0.76566     0.76097     0.75872     0.75874     0.76101    
 0.76569     0.77312     0.78370     0.79784     0.77328     0.79783     0.82688     0.86017     0.89701     0.93627    
 0.97638      1.0154      1.0512      1.0817      1.1050      1.1197      1.1247      1.1197      1.1050      1.0817    
  1.0512      1.0154     0.97638     0.93629     0.89701     0.86014     0.82686     0.79781     0.77323     0.75310    
 0.73723     0.72531     0.71704     0.71219     0.71061     0.71222     0.71707     0.72534     0.73729     0.75318    
 0.72732     0.75317     0.78369     0.81867     0.85750     0.89918     0.94226     0.98489      1.0250      1.0604    
  1.0890      1.1093      1.1197      1.1197      1.1092      1.0891      1.0604      1.0250     0.98487     0.94225    
 0.89917     0.85746     0.81863     0.78368     0.75315     0.72726     0.70604     0.68936     0.67704     0.66893    
 0.66492     0.66494     0.66897     0.67707     0.68939     0.70610     0.67976     0.70610     0.73729     0.77314    
 0.81313     0.85636     0.90151     0.94689     0.99044      1.0300      1.0635      1.0891      1.1050      1.1105    
  1.1050      1.0890      1.0635      1.0300     0.99042     0.94687     0.90150     0.85632     0.81307     0.77310    
 0.73726     0.70606     0.67971     0.65827     0.64170     0.62992     0.62290     0.62057     0.62293     0.62995    
 0.64172     0.65831     0.63230     0.65832     0.68941     0.72536     0.76572     0.80968     0.85605     0.90326    
 0.94940     0.99237      1.0300      1.0604      1.0817      1.0927      1.0927      1.0817      1.0604      1.0300    
 0.99234     0.94937     0.90324     0.85603     0.80963     0.76566     0.72532     0.68937     0.65826     0.63226    
 0.61144     0.59583     0.58543     0.58024     0.58026     0.58546     0.59585     0.61146     0.58654     0.61148    
 0.64174     0.67709     0.71710     0.76104     0.80784     0.85605     0.90391     0.94941     0.99043      1.0250    
  1.0512      1.0675      1.0731      1.0675      1.0512      1.0250     0.99041     0.94936     0.90386     0.85601    
 0.80779     0.76098     0.71705     0.67705     0.64169     0.61142     0.58651     0.56706     0.55314     0.54478    
 0.54200     0.54480     0.55315     0.56707     0.54389     0.56709     0.59587     0.62997     0.66898     0.71225    
 0.75878     0.80726     0.85606     0.90328     0.94689     0.98488      1.0154      1.0367      1.0477      1.0477    
  1.0367      1.0154     0.98486     0.94684     0.90321     0.85599     0.80720     0.75872     0.71220     0.66894    
 0.62993     0.59582     0.56704     0.54386     0.52640     0.51474     0.50891     0.50892     0.51476     0.52642    
 0.50550     0.52643     0.55317     0.58547     0.62294     0.66497     0.71065     0.75877     0.80783     0.85606    
 0.90153     0.94227     0.97637      1.0022      1.0182      1.0237      1.0182      1.0022     0.97636     0.94222    
 0.90146     0.85598     0.80776     0.75870     0.71058     0.66492     0.62290     0.58543     0.55312     0.52639    
 0.50548     0.49049     0.48149     0.47850     0.48151     0.49051     0.47224     0.49051     0.51477     0.54482    
 0.58028     0.62061     0.66497     0.71225     0.76103     0.80967     0.85636     0.89919     0.93629     0.96592    
 0.98661     0.99724     0.99724     0.98659     0.96589     0.93624     0.89913     0.85629     0.80960     0.76095    
 0.71216     0.66490     0.62055     0.58024     0.54477     0.51473     0.49049     0.47222     0.46003     0.45394    
 0.45395     0.46005     0.44470     0.46005     0.48151     0.50894     0.54203     0.58028     0.62295     0.66899    
 0.71710     0.76571     0.81311     0.85749     0.89701     0.92995     0.95475     0.97018     0.97540     0.97015    
 0.95471     0.92990     0.89695     0.85742     0.81305     0.76564     0.71702     0.66891     0.62287     0.58022    
 0.54198     0.50890     0.48148     0.46003     0.44468     0.43548     0.43241     0.43549     0.42318     0.43549    
 0.45396     0.47851     0.50894     0.54481     0.58547     0.62998     0.67710     0.72537     0.77314     0.81866    
 0.86015     0.89592     0.92437     0.94418     0.95435     0.95434     0.94415     0.92433     0.89585     0.86008    
 0.81857     0.77305     0.72529     0.67702     0.62990     0.58541     0.54475     0.50889     0.47848     0.45393    
 0.43547     0.42317     0.41703     0.41703     0.40783     0.41704     0.43242     0.45396     0.48152     0.51477    
 0.55317     0.59586     0.64174     0.68942     0.73730     0.78370     0.82688     0.86513     0.89688     0.92071    
 0.93551     0.94052     0.93549     0.92068     0.89683     0.86506     0.82678     0.78360     0.73720     0.68933    
 0.64167     0.59580     0.55311     0.51472     0.48147     0.45392     0.43240     0.41702     0.40782     0.40476    
 0.39864     0.40476     0.41704     0.43549     0.46006     0.49052     0.52643     0.56708     0.61147     0.65831    
 0.70610     0.75318     0.79784     0.83838     0.87319     0.90080     0.91997     0.92980     0.92980     0.91995    
 0.90076     0.87312     0.83829     0.79774     0.75307     0.70600     0.65823     0.61140     0.56702     0.52638    
 0.49047     0.46001     0.43546     0.41702     0.40475     0.39863     0.40556     0.40882     0.41860     0.43489    
 0.45764     0.48668     0.52164     0.56194     0.60673     0.65486     0.70490     0.75520     0.80399     0.84943    
 0.88972     0.92315     0.94824     0.96381     0.96909     0.96379     0.94820     0.92309     0.88964     0.84934    
 0.80390     0.75510     0.70480     0.65477     0.60666     0.56188     0.52158     0.48663     0.45761     0.43487    
 0.41859     0.40881     0.40881     0.40882     0.41583     0.42982     0.45072     0.47836     0.51246     0.55250    
 0.59774     0.64716     0.69943     0.75295     0.80590     0.85636     0.90235     0.94197     0.97347     0.99538    
  1.0066      1.0066     0.99534     0.97341     0.94189     0.90227     0.85628     0.80582     0.75286     0.69934    
 0.64707     0.59766     0.55243     0.51241     0.47833     0.45069     0.42980     0.41582     0.41859     0.41484    
 0.41859     0.42982     0.44843     0.47426     0.50705     0.54638     0.59160     0.64182     0.69586     0.75221    
 0.80906     0.86442     0.91618     0.96224      1.0006      1.0294      1.0473      1.0534      1.0473      1.0294    
  1.0005     0.96216     0.91610     0.86433     0.80897     0.75212     0.69578     0.64175     0.59153     0.54632    
 0.50701     0.47423     0.44840     0.42980     0.43487     0.42693     0.42693     0.43488     0.45071     0.47426    
 0.50527     0.54338     0.58805     0.63851     0.69374     0.75235     0.81264     0.87258     0.92998     0.98253    
  1.0280      1.0642      1.0895      1.1025      1.1025      1.0895      1.0642      1.0279     0.98245     0.92989    
 0.87249     0.81254     0.75227     0.69367     0.63845     0.58799     0.54334     0.50524     0.47423     0.45069    
 0.45761     0.44509     0.44091     0.44510     0.45763     0.47836     0.50705     0.54338     0.58689     0.63694    
 0.69265     0.75281     0.81586     0.87982     0.94245      1.0013      1.0539      1.0978      1.1309      1.1515    
  1.1585      1.1515      1.1309      1.0978      1.0538      1.0012     0.94235     0.87972     0.81578     0.75275    
 0.69259     0.63688     0.58684     0.54334     0.50701     0.47833     0.48663     0.46928     0.46056     0.46056    
 0.46929     0.48665     0.51244     0.54636     0.58804     0.63694     0.69232     0.75317     0.81808     0.88522    
 0.95237      1.0170      1.0764      1.1280      1.1693      1.1981      1.2129      1.2129      1.1980      1.1692    
  1.1280      1.0764      1.0169     0.95229     0.88514     0.81802     0.75311     0.69226     0.63688     0.58800    
 0.54633     0.51241     0.52158     0.49930     0.48583     0.48133     0.48584     0.49931     0.52161     0.55247    
 0.59157     0.63850     0.69265     0.75317     0.81888     0.88812     0.95877      1.0283      1.0940      1.1528    
  1.2022      1.2394      1.2626      1.2705      1.2626      1.2394      1.2021      1.1528      1.0939      1.0283    
 0.95870     0.88805     0.81882     0.75311     0.69259     0.63845     0.59154     0.55244     0.56187     0.53472    
 0.51647     0.50729     0.50729     0.51648     0.53475     0.56191     0.59770     0.64178     0.69371     0.75280    
 0.81808     0.88811     0.96098      1.0342      1.1051      1.1705      1.2275      1.2731      1.3050      1.3214    
  1.3214      1.3050      1.2731      1.2274      1.1705      1.1051      1.0342     0.96092     0.88805     0.81802    
 0.75274     0.69366     0.64175     0.59767     0.60666     0.57487     0.55197     0.53815     0.53352     0.53815    
 0.55199     0.57491     0.60670     0.64711     0.69581     0.75231     0.81582     0.88520     0.95876      1.0343    
  1.1089      1.1797      1.2434      1.2969      1.3374      1.3627      1.3713      1.3627      1.3374      1.2969    
  1.2434      1.1797      1.1089      1.0342     0.95870     0.88516     0.81578     0.75226     0.69578     0.64708    
 0.65478     0.61877     0.59155     0.57331     0.56416     0.56416     0.57332     0.59159     0.61881     0.65482    
 0.69938     0.75215     0.81258     0.87976     0.95233      1.0283      1.1051      1.1797      1.2489      1.3093    
  1.3578      1.3917      1.4092      1.4092      1.3917      1.3578      1.3092      1.2489      1.1797      1.1050    
  1.0282     0.95230     0.87974     0.81254     0.75211     0.69935     0.70482     0.66518     0.63417     0.61195    
 0.59857     0.59410     0.59857     0.61197     0.63422     0.66523     0.70485     0.75290     0.80901     0.87251    
 0.94237      1.0169      1.0939      1.1705      1.2434      1.3093      1.3647      1.4068      1.4330      1.4420    
  1.4330      1.4068      1.3647      1.3092      1.2434      1.1705      1.0939      1.0169     0.94236     0.87249    
 0.80895     0.75286     0.75512     0.71263     0.67853     0.65293     0.63587     0.62733     0.62732     0.63587    
 0.65297     0.67858     0.71266     0.75515     0.80586     0.86437     0.92991      1.0012      1.0764      1.1528    
  1.2274      1.2969      1.3578      1.4068      1.4411      1.4589      1.4589      1.4411      1.4068      1.3578    
  1.2969      1.2274      1.1528      1.0764      1.0012     0.92990     0.86432     0.80580     0.80390     0.75947    
 0.72314     0.69496     0.67491     0.66291     0.65891     0.66291     0.67494     0.69502     0.72318     0.75949    
 0.80394     0.85632     0.91613     0.98246      1.0538      1.1280      1.2021      1.2731      1.3374      1.3918    
  1.4331      1.4589      1.4677      1.4589      1.4330      1.3917      1.3374      1.2731      1.2021      1.1280    
  1.0538     0.98247     0.91610     0.85626     0.84933     0.80398     0.76640     0.73657     0.71439     0.69973    
 0.69244     0.69244     0.69975     0.71445     0.73663     0.76644     0.80401     0.84938     0.90229     0.96217    
  1.0279      1.0977      1.1692      1.2394      1.3050      1.3627      1.4092      1.4420      1.4589      1.4589    
  1.4420      1.4092      1.3627      1.3050      1.2394      1.1692      1.0977      1.0279     0.96217     0.90226    
 0.88962     0.84446     0.80668     0.77621     0.75290     0.73650     0.72678     0.72355     0.72678     0.73654    
 0.75297     0.77628     0.80672     0.84451     0.88966     0.94190      1.0005      1.0642      1.1309      1.1980    
  1.2626      1.3214      1.3713      1.4092      1.4330      1.4412      1.4331      1.4092      1.3712      1.3214    
  1.2626      1.1980      1.1309      1.0642      1.0005     0.94189     0.92307     0.87928     0.84239     0.81235    
 0.78894     0.77182     0.76066     0.75515     0.75514     0.76067     0.77187     0.78901     0.81241     0.84244    
 0.87933     0.92311     0.97340      1.0294      1.0894      1.1515      1.2128      1.2705      1.3214      1.3627    
  1.3917      1.4068      1.4068      1.3917      1.3627      1.3214      1.2705      1.2129      1.1515      1.0895    
  1.0294     0.97342     0.94820     0.90693     0.87203     0.84350     0.82104     0.80425     0.79269     0.78594    
 0.78371     0.78593     0.79271     0.80430     0.82110     0.84355     0.87210     0.90699     0.94822     0.99532    
  1.0473      1.1024      1.1585      1.2128      1.2626      1.3050      1.3374      1.3577      1.3647      1.3578    
  1.3374      1.3050      1.2626      1.2129      1.1585      1.1025      1.0473     0.99535     0.96380     0.92617    
 0.89430     0.86829     0.84781     0.83238     0.82147     0.81454     0.81119     0.81119     0.81455     0.82150    
 0.83243     0.84785     0.86833     0.89437     0.92621     0.96380      1.0066      1.0534      1.1024      1.1515    
  1.1980      1.2394      1.2731      1.2969      1.3092      1.3093      1.2969      1.2731      1.2394      1.1981    
  1.1515      1.1025      1.0534      1.0066     0.96910     0.93604     0.90814     0.88554     0.86798     0.85488    
 0.84563     0.83959     0.83621     0.83512     0.83621     0.83961     0.84567     0.85492     0.86801     0.88559    
 0.90819     0.93607     0.96909      1.0066      1.0473      1.0894      1.1308      1.1692      1.2021      1.2274    
  1.2434      1.2489      1.2434      1.2275      1.2021      1.1692      1.1309      1.0895      1.0473      1.0066    
 0.96382     0.93606     0.91284     0.89441     0.88053     0.87062     0.86394     0.85977     0.85743     0.85639    
 0.85639     0.85743     0.85980     0.86398     0.87065     0.88056     0.89446     0.91288     0.93606     0.96380    
 0.99534      1.0294      1.0642      1.0977      1.1279      1.1528      1.1705      1.1797      1.1797      1.1705    
  1.1528      1.1280      1.0978      1.0642      1.0294     0.99537     0.94824     0.92621     0.90816     0.89441    
 0.88479     0.87871     0.87539     0.87396     0.87363     0.87372     0.87379     0.87370     0.87363     0.87398    
 0.87541     0.87874     0.88483     0.89446     0.90818     0.92619     0.94822     0.97342      1.0005      1.0279    
  1.0538      1.0764      1.0939      1.1051      1.1089      1.1051      1.0940      1.0764      1.0539      1.0280    
  1.0006     0.97346     0.92314     0.90700     0.89435     0.88556     0.88053     0.87871     0.87928     0.88128    
 0.88380     0.88599     0.88724     0.88722     0.88596     0.88379     0.88130     0.87930     0.87874     0.88058    
 0.88560     0.89435     0.90697     0.92310     0.94191     0.96218     0.98247      1.0012      1.0170      1.0283    
  1.0342      1.0343      1.0283      1.0170      1.0013     0.98254     0.96225     0.94196     0.88970     0.87935    
 0.87210     0.86832     0.86799     0.87062     0.87539     0.88128     0.88725     0.89235     0.89575     0.89693    
 0.89572     0.89233     0.88726     0.88129     0.87540     0.87065     0.86804     0.86834     0.87208     0.87932    
 0.88966     0.90228     0.91611     0.92992     0.94240     0.95234     0.95875     0.96098     0.95878     0.95237    
 0.94243     0.92998     0.91620     0.90235     0.84942     0.84454     0.84246     0.84356     0.84784     0.85491    
 0.86397     0.87397     0.88378     0.89233     0.89865     0.90199     0.90198     0.89863     0.89234     0.88379    
 0.87396     0.86396     0.85493     0.84787     0.84356     0.84244     0.84452     0.84938     0.85629     0.86435    
 0.87252     0.87978     0.88520     0.88811     0.88813     0.88523     0.87981     0.87257     0.86443     0.85637    
 0.80399     0.80406     0.80676     0.81243     0.82110     0.83242     0.84567     0.85980     0.87363     0.88597    
 0.89573     0.90199     0.90413     0.90198     0.89573     0.88599     0.87363     0.85978     0.84566     0.83243    
 0.82110     0.81241     0.80674     0.80404     0.80394     0.80584     0.80899     0.81258     0.81582     0.81807    
 0.81888     0.81810     0.81586     0.81262     0.80905     0.80592     0.75521     0.75955     0.76648     0.77631    
 0.78902     0.80431     0.82151     0.83962     0.85745     0.87372     0.88724     0.89693     0.90198     0.90197    
 0.89692     0.88725     0.87373     0.85743     0.83960     0.82150     0.80430     0.78899     0.77627     0.76646    
 0.75952     0.75516     0.75289     0.75215     0.75231     0.75279     0.75316     0.75318     0.75283     0.75234    
 0.75220     0.75296     0.70491     0.71272     0.72323     0.73667     0.75300     0.77190     0.79274     0.81458    
 0.83624     0.85641     0.87381     0.88725     0.89574     0.89864     0.89572     0.88723     0.87381     0.85639    
 0.83621     0.81456     0.79272     0.77186     0.75294     0.73662     0.72320     0.71268     0.70485     0.69939    
 0.69583     0.69371     0.69263     0.69232     0.69266     0.69374     0.69585     0.69943     0.65487     0.66527    
 0.67862     0.69505     0.71449     0.73659     0.76072     0.78598     0.81122     0.83514     0.85640     0.87373    
 0.88600     0.89235     0.89234     0.88598     0.87372     0.85639     0.83511     0.81119     0.78595     0.76069    
 0.73653     0.71443     0.69501     0.67858     0.66522     0.65482     0.64713     0.64180     0.63849     0.63693    
 0.63694     0.63852     0.64182     0.64715     0.60673     0.61885     0.63426     0.65301     0.67499     0.69981    
 0.72685     0.75521     0.78376     0.81122     0.83622     0.85743     0.87363     0.88381     0.88727     0.88380    
 0.87363     0.85743     0.83620     0.81117     0.78371     0.75516     0.72680     0.69976     0.67494     0.65297    
 0.63421     0.61880     0.60670     0.59771     0.59158     0.58803     0.58689     0.58805     0.59160     0.59773    
 0.56194     0.57494     0.59163     0.61202     0.63593     0.66298     0.69251     0.72362     0.75521     0.78599    
 0.81458     0.83961     0.85978     0.87396     0.88129     0.88129     0.87397     0.85979     0.83959     0.81453    
 0.78592     0.75514     0.72356     0.69245     0.66293     0.63589     0.61197     0.59158     0.57489     0.56191    
 0.55247     0.54636     0.54338     0.54339     0.54638     0.55249     0.52163     0.53478     0.55203     0.57338    
 0.59863     0.62739     0.65898     0.69250     0.72684     0.76073     0.79276     0.82152     0.84566     0.86395    
 0.87538     0.87927     0.87538     0.86395     0.84565     0.82147     0.79268     0.76065     0.72677     0.69243    
 0.65891     0.62733     0.59859     0.57333     0.55198     0.53474     0.52161     0.51244     0.50704     0.50528    
 0.50706     0.51246     0.48667     0.49935     0.51652     0.53820     0.56422     0.59417     0.62739     0.66298    
 0.69980     0.73658     0.77190     0.80433     0.83244     0.85492     0.87062     0.87871     0.87870     0.87060    
 0.85489     0.83239     0.80426     0.77183     0.73650     0.69972     0.66289     0.62731     0.59411     0.56417    