unknown system                          
   1.00000000000000     
     3.190316    0.000000    0.000000
    -1.595158    2.762894    0.000000
     0.000000    0.000000   14.879004
   Mo   S 
     2     4
Direct
  0.333333  0.666667  0.250000
  0.666667  0.333333  0.750000
  0.333333  0.666667  0.855174
  0.666667  0.333333  0.144826
  0.666666  0.333333  0.355174
  0.333334  0.666667  0.644826
 
   36   36  160
 0.39557573202E+00 0.39863467219E+00 0.40782453297E+00 0.42318071324E+00 0.44469660484E+00
 0.47224601573E+00 0.50550560619E+00 0.54389442700E+00 0.58654251590E+00 0.63229411371E+00
 0.67974464578E+00 0.72730524656E+00 0.77328397844E+00 0.81596962760E+00 0.85370637105E+00
 0.88495883939E+00 0.90838039208E+00 0.92289836542E+00 0.92781229995E+00 0.92287743564E+00
 0.90833833611E+00 0.88489632806E+00 0.85362618047E+00 0.81587699183E+00 0.77318565512E+00
 0.72720781814E+00 0.67965304853E+00 0.63221111906E+00 0.58646919503E+00 0.54383106104E+00
 0.50545239400E+00 0.47220323215E+00 0.44466429882E+00 0.42315833356E+00 0.40781088182E+00
 0.39862832878E+00 0.39862869195E+00 0.39863155109E+00 0.40475654719E+00 0.41703407622E+00
 0.43548354776E+00 0.46004653526E+00 0.49050860481E+00 0.52642751726E+00 0.56708494897E+00
 0.61147151333E+00 0.65830618427E+00 0.70608689084E+00 0.75316481977E+00 0.79782782484E+00
 0.83837728288E+00 0.87319482783E+00 0.90081037572E+00 0.91998484145E+00 0.92980799342E+00
 0.92979390352E+00 0.91994362390E+00 0.90074694482E+00 0.87311868078E+00 0.83829741348E+00
 0.79774697113E+00 0.75308059654E+00 0.70599787790E+00 0.65821539421E+00 0.61138508206E+00
 0.56700925536E+00 0.52636658197E+00 0.49046232986E+00 0.46001170948E+00 0.43545744107E+00
 0.41701626686E+00 0.40474693383E+00 0.40781194653E+00 0.40475039787E+00 0.40781827881E+00
 0.41703163350E+00 0.43241430852E+00 0.45394710832E+00 0.48149935862E+00 0.51475562462E+00
 0.55315492514E+00 0.59585621446E+00 0.64173405273E+00 0.68940540610E+00 0.73728870999E+00
 0.78368577105E+00 0.82686453643E+00 0.86512877537E+00 0.89688423341E+00 0.92072005582E+00
 0.93550984029E+00 0.94051794331E+00 0.93548629403E+00 0.92067242330E+00 0.89681742721E+00
 0.86505258300E+00 0.82678518743E+00 0.78360262983E+00 0.73720047126E+00 0.68931521619E+00
 0.64164745361E+00 0.59577806684E+00 0.55308919529E+00 0.51470419690E+00 0.48145999523E+00
 0.45391584994E+00 0.43239031183E+00 0.41701662993E+00 0.42315954840E+00 0.41702097089E+00
 0.41702367161E+00 0.42317041331E+00 0.43547880500E+00 0.45394622406E+00 0.47849670468E+00
 0.50891632941E+00 0.54478899680E+00 0.58544837418E+00 0.62995217341E+00 0.67707912681E+00
 0.72535734412E+00 0.77313093862E+00 0.81864839838E+00 0.86014424173E+00 0.89590844354E+00
 0.92436461819E+00 0.94417177994E+00 0.95433978058E+00 0.95433554469E+00 0.94415397225E+00
 0.92432533050E+00 0.89584693769E+00 0.86006522767E+00 0.81855648921E+00 0.77303272235E+00
 0.72526355112E+00 0.67699779746E+00 0.62988266820E+00 0.58538670346E+00 0.54473496446E+00
 0.50887116013E+00 0.47845879722E+00 0.45391463501E+00 0.43545658922E+00 0.44466429882E+00
 0.43546325559E+00 0.43239906395E+00 0.43546815584E+00 0.44468056005E+00 0.46003801149E+00
 0.48149634692E+00 0.50891605696E+00 0.54200267783E+00 0.58025186601E+00 0.62291092252E+00
 0.66895338821E+00 0.71707050128E+00 0.76570148255E+00 0.81311005484E+00 0.85747895466E+00
 0.89699373882E+00 0.92992345579E+00 0.95472151164E+00 0.97014711572E+00 0.97538605177E+00
 0.97014734702E+00 0.95470916617E+00 0.92988754675E+00 0.89693225653E+00 0.85739463909E+00
 0.81301064316E+00 0.76560327436E+00 0.71698937159E+00 0.66889018057E+00 0.62285453274E+00
 0.58019632574E+00 0.54195171880E+00 0.50887251947E+00 0.48145893050E+00 0.46000877213E+00
 0.47220057979E+00 0.46001776305E+00 0.45392754837E+00 0.45392840717E+00 0.46002616472E+00
 0.47222314921E+00 0.49049218661E+00 0.51474520777E+00 0.54478639607E+00 0.58025470504E+00
 0.62057613047E+00 0.66492751056E+00 0.71220223029E+00 0.76099643474E+00 0.80964973997E+00
 0.85633577638E+00 0.89916183642E+00 0.93626013412E+00 0.96589127879E+00 0.98657182738E+00
 0.99720735460E+00 0.99720787623E+00 0.98656614881E+00 0.96586847786E+00 0.93621839286E+00
 0.89910314467E+00 0.85625999178E+00 0.80956360032E+00 0.76091647686E+00 0.71213751148E+00
 0.66486951056E+00 0.62051539176E+00 0.58019624756E+00 0.54473883184E+00 0.51470684933E+00
 0.49045931430E+00 0.50544705243E+00 0.49046765814E+00 0.48147527190E+00 0.47847687050E+00
 0.48147814220E+00 0.49048373195E+00 0.50547606794E+00 0.52639871548E+00 0.55313141869E+00
 0.58543926220E+00 0.62291473460E+00 0.66493249493E+00 0.71060385466E+00 0.75872911865E+00
 0.80779046803E+00 0.85601616260E+00 0.90148523417E+00 0.94223038679E+00 0.97634531340E+00
 0.10021188952E+01 0.10181825913E+01 0.10236414744E+01 0.10181763629E+01 0.10020971533E+01
 0.97630889665E+00 0.94218941616E+00 0.90143943424E+00 0.85595666439E+00 0.80772054050E+00
 0.75866219021E+00 0.71054174002E+00 0.66486685808E+00 0.62284919119E+00 0.58538791842E+00
 0.55309560154E+00 0.52636694499E+00 0.54382585624E+00 0.52637110849E+00 0.51472199244E+00
 0.50889473951E+00 0.50889485391E+00 0.51473208049E+00 0.52639968159E+00 0.54386012957E+00
 0.56704323442E+00 0.59581760884E+00 0.62992983762E+00 0.66894614161E+00 0.71220071506E+00
 0.75872907761E+00 0.80721398919E+00 0.85600555068E+00 0.90321687617E+00 0.94683719888E+00
 0.98484061329E+00 0.10153204588E+01 0.10366515700E+01 0.10476399619E+01 0.10476403352E+01
 0.10366425807E+01 0.10152925667E+01 0.98480535247E+00 0.94680557433E+00 0.90317786111E+00
 0.85594743347E+00 0.80714721159E+00 0.75866739486E+00 0.71214006361E+00 0.66888240160E+00
 0.62987624865E+00 0.59578327151E+00 0.56701482303E+00 0.58646919493E+00 0.56701435798E+00
 0.55310639892E+00 0.54476239164E+00 0.54197868586E+00 0.54476488602E+00 0.55312988868E+00
 0.56705629247E+00 0.58650604238E+00 0.61142247113E+00 0.64168441748E+00 0.67703787012E+00
 0.71703760753E+00 0.76097477395E+00 0.80778502308E+00 0.85600942047E+00 0.90386077151E+00
 0.94934575627E+00 0.99037964357E+00 0.10249117384E+01 0.10510937031E+01 0.10674535421E+01
 0.10730284983E+01 0.10674662490E+01 0.10510933970E+01 0.10248910352E+01 0.99035441688E+00
 0.94931675795E+00 0.90381127994E+00 0.85594293302E+00 0.80772588211E+00 0.76092883442E+00
 0.71698937149E+00 0.67698687738E+00 0.64164638894E+00 0.61139442409E+00 0.63221970887E+00
 0.61139275754E+00 0.59579083325E+00 0.58541280503E+00 0.58022799395E+00 0.58022523771E+00
 0.58542212404E+00 0.59582970396E+00 0.61144210964E+00 0.63225709008E+00 0.65825932050E+00
 0.68935355860E+00 0.72529857698E+00 0.76564079915E+00 0.80960738896E+00 0.85600432976E+00
 0.90322186717E+00 0.94934944168E+00 0.99230712149E+00 0.10299644140E+01 0.10602988437E+01
 0.10815914919E+01 0.10925875806E+01 0.10926036710E+01 0.10816162795E+01 0.10603010917E+01
 0.10299494297E+01 0.99228886178E+00 0.94931564256E+00 0.90316406660E+00 0.85594807466E+00
 0.80957484266E+00 0.76561443836E+00 0.72525617612E+00 0.68930662640E+00 0.65822362099E+00
 0.67966742064E+00 0.65822607155E+00 0.64165386501E+00 0.62990133498E+00 0.62288813564E+00
 0.62055039796E+00 0.62288440020E+00 0.62992378769E+00 0.64170365831E+00 0.65827318353E+00
 0.67970620289E+00 0.70604866825E+00 0.73724210912E+00 0.77306373779E+00 0.81303498373E+00
 0.85628298854E+00 0.90146376546E+00 0.94683066273E+00 0.99037811721E+00 0.10299688613E+01
 0.10634734085E+01 0.10889686349E+01 0.11049356166E+01 0.11103877136E+01 0.11049590906E+01
 0.10889794859E+01 0.10634619729E+01 0.10299580195E+01 0.99036878895E+00 0.94680036951E+00
 0.90141972052E+00 0.85625733943E+00 0.81302501529E+00 0.77303393713E+00 0.73718716379E+00
 0.70599824105E+00 0.72721916506E+00 0.70600888606E+00 0.68931725897E+00 0.67700694861E+00
 0.66892126052E+00 0.66491161045E+00 0.66490661042E+00 0.66892844194E+00 0.67704809080E+00
 0.68936902724E+00 0.70604717208E+00 0.72726230453E+00 0.75313261867E+00 0.78364358045E+00
 0.81858188262E+00 0.85740656030E+00 0.89910827312E+00 0.94219498773E+00 0.98481597629E+00
 0.10249069077E+01 0.10603174662E+01 0.10889887316E+01 0.11091749352E+01 0.11196134048E+01
 0.11196214104E+01 0.11091781011E+01 0.10889681389E+01 0.10602983347E+01 0.10249120874E+01
 0.98482190393E+00 0.94217806903E+00 0.89908914529E+00 0.85740341184E+00 0.81856662112E+00
 0.78359128272E+00 0.75306961270E+00 0.77318565521E+00 0.75308752862E+00 0.73720316447E+00
 0.72526800079E+00 0.71701509425E+00 0.71218351131E+00 0.71058838788E+00 0.71218495246E+00
 0.71704786111E+00 0.72532657312E+00 0.73724946313E+00 0.75311935618E+00 0.77323466778E+00
 0.79779130753E+00 0.82681797299E+00 0.86008196436E+00 0.89693390971E+00 0.93621088172E+00
 0.97629977957E+00 0.10152876550E+01 0.10510949956E+01 0.10816230681E+01 0.11049672451E+01
 0.11196266864E+01 0.11246317466E+01 0.11196269827E+01 0.11049447183E+01 0.10815907704E+01
 0.10510933972E+01 0.10153146907E+01 0.97631423803E+00 0.93620412591E+00 0.89693225663E+00
 0.86008093205E+00 0.82678412252E+00 0.79772968865E+00 0.81586504504E+00 0.79774731898E+00
 0.78361040869E+00 0.77304099426E+00 0.76562436203E+00 0.76095964715E+00 0.75871295713E+00
 0.75871292423E+00 0.76098120326E+00 0.76568502363E+00 0.77310807124E+00 0.78365210354E+00
 0.79778309012E+00 0.81591709715E+00 0.83832763593E+00 0.86507020502E+00 0.89584997481E+00
 0.92987714386E+00 0.96584924717E+00 0.10020754208E+01 0.10366247567E+01 0.10674580335E+01
 0.10926084106E+01 0.11104034289E+01 0.11196316590E+01 0.11196366987E+01 0.11103996602E+01
 0.10925831341E+01 0.10674445971E+01 0.10366493231E+01 0.10021091001E+01 0.96585918326E+00
 0.92987817415E+00 0.89586009959E+00 0.86506452976E+00 0.83828510333E+00 0.85361009646E+00
 0.83829287836E+00 0.82679836560E+00 0.81857352867E+00 0.81302956431E+00 0.80959726623E+00
 0.80776796969E+00 0.80719386115E+00 0.80777360953E+00 0.80963979303E+00 0.81310461243E+00
 0.81863984093E+00 0.82684467094E+00 0.83834230456E+00 0.85365817461E+00 0.87313281381E+00
 0.89681522588E+00 0.92430926442E+00 0.95468346214E+00 0.98653685464E+00 0.10181501281E+01
 0.10476231253E+01 0.10730243721E+01 0.10925964637E+01 0.11049511613E+01 0.11091862824E+01
 0.11049660726E+01 0.10925961701E+01 0.10730124142E+01 0.10476351306E+01 0.10181871052E+01
 0.98656349619E+00 0.95469308218E+00 0.92432654551E+00 0.89683457582E+00 0.87311904366E+00
 0.88488587602E+00 0.87311363281E+00 0.86506693233E+00 0.86008796657E+00 0.85741244063E+00
 0.85628164239E+00 0.85599427184E+00 0.85599411984E+00 0.85599056536E+00 0.85600666604E+00
 0.85633465269E+00 0.85748475189E+00 0.86015032742E+00 0.86512584283E+00 0.87317582650E+00
 0.88492226968E+00 0.90074679667E+00 0.92065047445E+00 0.94411783274E+00 0.97010703325E+00
 0.99717376149E+00 0.10236207022E+01 0.10476335770E+01 0.10674565382E+01 0.10815956969E+01
 0.10889669330E+01 0.10889790869E+01 0.10816105335E+01 0.10674527953E+01 0.10476347147E+01
 0.10236519262E+01 0.99721567543E+00 0.97013432082E+00 0.94414230556E+00 0.92068287513E+00
 0.90075775955E+00 0.90833833595E+00 0.90074477651E+00 0.89682717395E+00 0.89586712435E+00
 0.89694820157E+00 0.89911646930E+00 0.90146761203E+00 0.90322447073E+00 0.90386342012E+00
 0.90321957734E+00 0.90148933119E+00 0.89917040017E+00 0.89700836293E+00 0.89592579666E+00
 0.89689633840E+00 0.90080858729E+00 0.90835950014E+00 0.91993296394E+00 0.93544903646E+00
 0.95428361405E+00 0.97533496872E+00 0.99717081327E+00 0.10181662122E+01 0.10366501036E+01
 0.10510949953E+01 0.10602927190E+01 0.10634590364E+01 0.10603036541E+01 0.10510937031E+01
 0.10366433745E+01 0.10181879329E+01 0.99722340710E+00 0.97538605161E+00 0.95432092960E+00
 0.93548522935E+00 0.91995666086E+00 0.92288617655E+00 0.91994482821E+00 0.92067409881E+00
 0.92433638934E+00 0.92990164312E+00 0.93623188394E+00 0.94221577911E+00 0.94685438720E+00
 0.94937586116E+00 0.94937186202E+00 0.94686044907E+00 0.94225122892E+00 0.93628161370E+00
 0.92994825332E+00 0.92439176612E+00 0.92074389258E+00 0.91999717851E+00 0.92289232997E+00
 0.92977573536E+00 0.94047201402E+00 0.95427895484E+00 0.97008784052E+00 0.98652811388E+00
 0.10020961089E+01 0.10153133153E+01 0.10249095136E+01 0.10299601202E+01 0.10299645651E+01
 0.10249107741E+01 0.10153065131E+01 0.10021101543E+01 0.98658322081E+00 0.97015843083E+00
 0.95433225443E+00 0.94050920236E+00 0.92980228138E+00 0.92782427700E+00 0.92979703566E+00
 0.93548068739E+00 0.94415513011E+00 0.95472345022E+00 0.96589099053E+00 0.97634274575E+00
 0.98485885301E+00 0.99041972836E+00 0.99234784349E+00 0.99042089984E+00 0.98488298868E+00
 0.97638793116E+00 0.96593302573E+00 0.95476179804E+00 0.94420936864E+00 0.93554144247E+00
 0.92982880955E+00 0.92781794794E+00 0.92978447633E+00 0.93546101349E+00 0.94410738078E+00
 0.95465540106E+00 0.96583730041E+00 0.97631175683E+00 0.98482732326E+00 0.99038051221E+00
 0.99231571129E+00 0.99039162058E+00 0.98483540849E+00 0.97632799468E+00 0.96588862637E+00
 0.95473348872E+00 0.94417299473E+00 0.93549892782E+00 0.92980835650E+00 0.92290710625E+00
 0.92981123498E+00 0.94050945206E+00 0.95433081350E+00 0.97016370488E+00 0.98660164178E+00
 0.10021432738E+01 0.10153504362E+01 0.10249588100E+01 0.10300118713E+01 0.10300074565E+01
 0.10249634814E+01 0.10153826494E+01 0.10021861319E+01 0.98663653124E+00 0.97020403461E+00
 0.95438681096E+00 0.94055463862E+00 0.92982006864E+00 0.92289233010E+00 0.91995510503E+00
 0.92066966704E+00 0.92430052328E+00 0.92985645594E+00 0.93620270334E+00 0.94219238171E+00
 0.94682192183E+00 0.94934929066E+00 0.94936420237E+00 0.94685114433E+00 0.94222164571E+00
 0.93624874072E+00 0.92992962246E+00 0.92437214408E+00 0.92071131476E+00 0.91997646358E+00
 0.90838039211E+00 0.91998636133E+00 0.93550421596E+00 0.95433502106E+00 0.97540369471E+00
 0.99725265565E+00 0.10182329065E+01 0.10367020924E+01 0.10511590453E+01 0.10603675133E+01
 0.10635174649E+01 0.10603488328E+01 0.10511575950E+01 0.10367286634E+01 0.10182651306E+01
 0.99728606464E+00 0.97545461868E+00 0.95439147004E+00 0.93552946525E+00 0.91997503755E+00
 0.90835950033E+00 0.90077064862E+00 0.89683130973E+00 0.89584852155E+00 0.89693390965E+00
 0.89911032611E+00 0.90144939319E+00 0.90319987731E+00 0.90386077165E+00 0.90323548089E+00
 0.90149057558E+00 0.89915108874E+00 0.89699373885E+00 0.89592062862E+00 0.89688316853E+00
 0.90079661251E+00 0.88494838772E+00 0.90080858493E+00 0.92072168957E+00 0.94417280271E+00
 0.97016357987E+00 0.99725207894E+00 0.10237018923E+01 0.10476995607E+01 0.10675277051E+01
 0.10816868749E+01 0.10890492835E+01 0.10890291478E+01 0.10816553432E+01 0.10675235008E+01
 0.10477167022E+01 0.10237226811E+01 0.99728901301E+00 0.97022322736E+00 0.94421982027E+00
 0.92072469971E+00 0.90078473549E+00 0.88492226983E+00 0.87314326564E+00 0.86507170017E+00
 0.86008843201E+00 0.85742835903E+00 0.85629344011E+00 0.85598528797E+00 0.85598926360E+00
 0.85601079790E+00 0.85602661429E+00 0.85632797694E+00 0.85747107718E+00 0.86015590846E+00
 0.86513922701E+00 0.87318401282E+00 0.85369028703E+00 0.87318989403E+00 0.89689387743E+00
 0.92437540525E+00 0.95473596783E+00 0.98660727530E+00 0.10182388546E+01 0.10476991599E+01
 0.10730879118E+01 0.10926771800E+01 0.11050444496E+01 0.11092563115E+01 0.11050131334E+01
 0.10926568953E+01 0.10730926033E+01 0.10477062504E+01 0.10182490467E+01 0.98664527237E+00
 0.95478985913E+00 0.92440050688E+00 0.89688025434E+00 0.87316537475E+00 0.85365817462E+00
 0.83831568897E+00 0.82680188917E+00 0.81859322980E+00 0.81306543982E+00 0.80961597855E+00
 0.80776893901E+00 0.80720878460E+00 0.80780121040E+00 0.80964708735E+00 0.81309397084E+00
 0.81864961339E+00 0.82688168505E+00 0.83837764576E+00 0.81595768038E+00 0.83837238048E+00
 0.86514289675E+00 0.89592834968E+00 0.92993773801E+00 0.96591397141E+00 0.10021646383E+01
 0.10367109514E+01 0.10675151251E+01 0.10926611689E+01 0.11104799579E+01 0.11197128553E+01
 0.11196998248E+01 0.11104647953E+01 0.10926688422E+01 0.10675249958E+01 0.10367033163E+01
 0.10021654441E+01 0.96594497289E+00 0.92996894120E+00 0.89592724970E+00 0.86512434769E+00
 0.83835425150E+00 0.81591709699E+00 0.79776244109E+00 0.78362028670E+00 0.77307568496E+00
 0.76566133588E+00 0.76097253199E+00 0.75872233532E+00 0.75874106565E+00 0.76100572909E+00
 0.76568696116E+00 0.77311777678E+00 0.78369771807E+00 0.79784013473E+00 0.77328397824E+00
 0.79782750893E+00 0.82687732666E+00 0.86016685413E+00 0.89700986598E+00 0.93627409049E+00
 0.97637896833E+00 0.10153780290E+01 0.10511594984E+01 0.10816622851E+01 0.11050212406E+01
 0.11197049904E+01 0.11247064518E+01 0.11196948524E+01 0.11050292175E+01 0.10816827143E+01
 0.10511575948E+01 0.10153569889E+01 0.97637595419E+00 0.93628979229E+00 0.89700836289E+00
 0.86014385985E+00 0.82686075505E+00 0.79781195642E+00 0.77323466749E+00 0.75310435212E+00
 0.73722773710E+00 0.72530690668E+00 0.71703760743E+00 0.71218900024E+00 0.71060919632E+00
 0.71222180216E+00 0.71707050108E+00 0.72533920967E+00 0.73728764537E+00 0.75318137612E+00
 0.72731659360E+00 0.75317120158E+00 0.78369306233E+00 0.81866544841E+00 0.85749696910E+00
 0.89917576512E+00 0.94225692932E+00 0.98489369085E+00 0.10249794868E+01 0.10603654706E+01
 0.10890387648E+01 0.11092534882E+01 0.11196994179E+01 0.11196895613E+01 0.11092449647E+01
 0.10890509469E+01 0.10603735799E+01 0.10249608751E+01 0.98487164163E+00 0.94225383511E+00
 0.89916834708E+00 0.85746295300E+00 0.81862849409E+00 0.78367539776E+00 0.75314762254E+00
 0.72726230422E+00 0.70603732113E+00 0.68935631588E+00 0.67703951196E+00 0.66892958979E+00
 0.66492114795E+00 0.66494151018E+00 0.66896730943E+00 0.67706899451E+00 0.68939405906E+00
 0.70609787490E+00 0.67975901810E+00 0.70609764830E+00 0.73729097324E+00 0.77313921143E+00
 0.81312925239E+00 0.85635797564E+00 0.90151389285E+00 0.94688562522E+00 0.99044459578E+00
 0.10300269258E+01 0.10635291008E+01 0.10890501120E+01 0.11050356129E+01 0.11104680107E+01
 0.11050139933E+01 0.10890388320E+01 0.10635318374E+01 0.10300161974E+01 0.99041850463E+00
 0.94686919010E+00 0.90150370347E+00 0.85632420071E+00 0.81307415614E+00 0.77309612456E+00
 0.73726383565E+00 0.70605851903E+00 0.67970620268E+00 0.65826791037E+00 0.64169878976E+00
 0.62992463280E+00 0.62289502066E+00 0.62057347812E+00 0.62292529486E+00 0.62995338819E+00
 0.64172074505E+00 0.65830654743E+00 0.63230270364E+00 0.65831678836E+00 0.68940724730E+00
 0.72536175922E+00 0.76572286309E+00 0.80968378595E+00 0.85605424761E+00 0.90326326480E+00
 0.94940420987E+00 0.99236594620E+00 0.10300183358E+01 0.10603682279E+01 0.10816877946E+01
 0.10926817057E+01 0.10926685899E+01 0.10816678331E+01 0.10603627033E+01 0.10300117204E+01
 0.99233925354E+00 0.94937201313E+00 0.90324156753E+00 0.85602570771E+00 0.80963120286E+00
 0.76566448670E+00 0.72531824384E+00 0.68936627031E+00 0.65826459359E+00 0.63225709004E+00
 0.61144076632E+00 0.59583140336E+00 0.58543067208E+00 0.58024346262E+00 0.58025788178E+00
 0.58545574916E+00 0.59584762437E+00 0.61146328645E+00 0.58654251594E+00 0.61147919887E+00
 0.64174056127E+00 0.67708834823E+00 0.71709641243E+00 0.76103975872E+00 0.80783808200E+00
 0.85605215727E+00 0.90391223988E+00 0.94940532521E+00 0.99043022335E+00 0.10249584345E+01
 0.10511594987E+01 0.10675367776E+01 0.10731039957E+01 0.10675284515E+01 0.10511590453E+01
 0.10249597744E+01 0.99040775120E+00 0.94935741492E+00 0.90386342032E+00 0.85601072266E+00
 0.80778969343E+00 0.76098344472E+00 0.71704786106E+00 0.67704644914E+00 0.64168928610E+00
 0.61142381450E+00 0.58650604253E+00 0.56705814448E+00 0.55313676016E+00 0.54477934311E+00
 0.54200267787E+00 0.54479748724E+00 0.55315386032E+00 0.56707488048E+00 0.54388922228E+00
 0.56709022343E+00 0.59586928650E+00 0.62997107770E+00 0.66898447239E+00 0.71224811102E+00
 0.75877972262E+00 0.80726057978E+00 0.85605665788E+00 0.90327705960E+00 0.94689082991E+00
 0.98487713882E+00 0.10153559048E+01 0.10367042094E+01 0.10477043649E+01 0.10477048077E+01
 0.10367102877E+01 0.10153643819E+01 0.98486405776E+00 0.94684044136E+00 0.90320586588E+00
 0.85598887303E+00 0.80719906611E+00 0.75871966642E+00 0.71219666706E+00 0.66894499370E+00
 0.62992899238E+00 0.59581590922E+00 0.56704138255E+00 0.54386012982E+00 0.52640392030E+00
 0.51474265537E+00 0.50891342643E+00 0.50892274918E+00 0.51476082939E+00 0.52642194929E+00
 0.50550026437E+00 0.52643234009E+00 0.55317243628E+00 0.58547472450E+00 0.62294440490E+00
 0.66496925243E+00 0.71065015100E+00 0.75877451780E+00 0.80783274029E+00 0.85606283772E+00
 0.90153360703E+00 0.94226827630E+00 0.97637362641E+00 0.10021526913E+01 0.10182281125E+01
 0.10236914406E+01 0.10182275649E+01 0.10021520148E+01 0.97636006471E+00 0.94222452001E+00
 0.90146227017E+00 0.85598382003E+00 0.80775722758E+00 0.75870101031E+00 0.71058304626E+00
 0.66491795755E+00 0.62290411417E+00 0.58543071378E+00 0.55312454681E+00 0.52639447694E+00
 0.50547606819E+00 0.49048953413E+00 0.48149100513E+00 0.47849791964E+00 0.48150576512E+00
 0.49050896784E+00 0.47224336298E+00 0.49051404542E+00 0.51477353307E+00 0.54481650280E+00
 0.58028343933E+00 0.62061073368E+00 0.66497190504E+00 0.71224555877E+00 0.76102740071E+00
 0.80967254344E+00 0.85636062842E+00 0.89918976494E+00 0.93628835735E+00 0.96592326571E+00
 0.98660992785E+00 0.99724427973E+00 0.99723660299E+00 0.98659024835E+00 0.96589364330E+00
 0.93624327760E+00 0.89912721681E+00 0.85628944155E+00 0.80959991879E+00 0.76095035278E+00
 0.71216393935E+00 0.66489761101E+00 0.62055305074E+00 0.58023648023E+00 0.54477193852E+00
 0.51473463250E+00 0.49048638456E+00 0.47222314935E+00 0.46003278457E+00 0.45394235653E+00
 0.45394976095E+00 0.46004955093E+00 0.44469660482E+00 0.46005232373E+00 0.48151449021E+00
 0.50893982414E+00 0.54202966366E+00 0.58028351748E+00 0.62294974672E+00 0.66899225169E+00
 0.71709641237E+00 0.76571169856E+00 0.81311488008E+00 0.85748819665E+00 0.89700986616E+00
 0.92994711063E+00 0.95475205185E+00 0.97017660612E+00 0.97540369465E+00 0.97015238945E+00
 0.95471147317E+00 0.92989547679E+00 0.89694820172E+00 0.85742031807E+00 0.81304564833E+00
 0.76563888340E+00 0.71701509414E+00 0.66890733900E+00 0.62287376354E+00 0.58022197872E+00
 0.54197868594E+00 0.50889748412E+00 0.48148348377E+00 0.46003139167E+00 0.44468056003E+00
 0.43547501557E+00 0.43241324381E+00 0.43548575917E+00 0.42318192839E+00 0.43548902318E+00
 0.45395849955E+00 0.47851461786E+00 0.50893846472E+00 0.54481263512E+00 0.58547350947E+00
 0.62997749766E+00 0.67709926871E+00 0.72536913409E+00 0.77313799627E+00 0.81865531634E+00
 0.86015114977E+00 0.89591518779E+00 0.92437419036E+00 0.94418446971E+00 0.95434963625E+00
 0.95433833936E+00 0.94415391502E+00 0.92432886347E+00 0.89585493938E+00 0.86007629983E+00
 0.81857231379E+00 0.77305415642E+00 0.72528613526E+00 0.67701708045E+00 0.62990011982E+00
 0.58540543024E+00 0.54475390160E+00 0.50888831985E+00 0.47847565548E+00 0.45393227473E+00
 0.43547194518E+00 0.42317041315E+00 0.41703041843E+00 0.41703492822E+00 0.40782559788E+00
 0.41703884429E+00 0.43242275585E+00 0.45395971462E+00 0.48151555512E+00 0.51477088044E+00
 0.55316602958E+00 0.59586408174E+00 0.64174162628E+00 0.68941583739E+00 0.73730428073E+00
 0.78370440937E+00 0.82687839148E+00 0.86513094973E+00 0.89687672861E+00 0.92071123793E+00
 0.93550528104E+00 0.94051819312E+00 0.93549159966E+00 0.92068283977E+00 0.89682823883E+00
 0.86505648051E+00 0.82678121680E+00 0.78359846192E+00 0.73720422958E+00 0.68932860608E+00
 0.64166717228E+00 0.59579942303E+00 0.55310746378E+00 0.51471678778E+00 0.48146886545E+00
 0.45392489594E+00 0.43240012888E+00 0.41702488654E+00 0.40781827862E+00 0.40475691027E+00
 0.39863503531E+00 0.40476045257E+00 0.41703848108E+00 0.43548987505E+00 0.46005526144E+00
 0.49051706125E+00 0.52643197686E+00 0.56708465538E+00 0.61146985672E+00 0.65830856168E+00
 0.70609728525E+00 0.75318218559E+00 0.79784479167E+00 0.83838469060E+00 0.87318953074E+00
 0.90079776991E+00 0.91997332454E+00 0.92980285738E+00 0.92979667260E+00 0.91995320608E+00
 0.90075853989E+00 0.87312444780E+00 0.83829251507E+00 0.79773500879E+00 0.75307097252E+00
 0.70599790244E+00 0.65822570849E+00 0.61140098425E+00 0.56702442635E+00 0.52637667633E+00
 0.49046729491E+00 0.46001474738E+00 0.43546104454E+00 0.41702011919E+00 0.40475003466E+00
 0.39863155095E+00 0.40555851030E+00 0.40881927825E+00 0.41859944914E+00 0.43489390879E+00
 0.45764359468E+00 0.48667514749E+00 0.52163722892E+00 0.56194389498E+00 0.60673445302E+00
 0.65485887029E+00 0.70489553766E+00 0.75520249950E+00 0.80399487350E+00 0.84943408567E+00
 0.88971501914E+00 0.92314771653E+00 0.94824326287E+00 0.96381483360E+00 0.96908826343E+00
 0.96379349806E+00 0.94820087484E+00 0.92308545944E+00 0.88963561320E+00 0.84934202373E+00
 0.80389617207E+00 0.75510378780E+00 0.70480249987E+00 0.65477490121E+00 0.60666063084E+00
 0.56188019434E+00 0.52158369007E+00 0.48663207086E+00 0.45761105824E+00 0.43487135929E+00
 0.41858569899E+00 0.40881290094E+00 0.40881322607E+00 0.40881611903E+00 0.41582582580E+00
 0.42981768432E+00 0.45071794242E+00 0.47836444781E+00 0.51245595638E+00 0.55249594768E+00
 0.59774033637E+00 0.64715986742E+00 0.69942824206E+00 0.75294592912E+00 0.80590149693E+00
 0.85635839816E+00 0.90234909183E+00 0.94196811716E+00 0.97346991918E+00 0.99537988423E+00
 0.10066159700E+01 0.10066016784E+01 0.99533822743E+00 0.97340616628E+00 0.94189197997E+00
 0.90226940519E+00 0.85627750213E+00 0.80581678227E+00 0.75285616431E+00 0.69933682699E+00
 0.64707313408E+00 0.59766456668E+00 0.55243499741E+00 0.51240968543E+00 0.47832967151E+00
 0.45069189934E+00 0.42979988175E+00 0.41581616011E+00 0.41858672205E+00 0.41484228944E+00
 0.41859295181E+00 0.42981503562E+00 0.44842538839E+00 0.47426198312E+00 0.50705364457E+00
 0.54637587488E+00 0.59159708161E+00 0.64182491206E+00 0.69586453313E+00 0.75220581406E+00
 0.80905593355E+00 0.86441612562E+00 0.91618071168E+00 0.96223915481E+00 0.10005827742E+01
 0.10294271793E+01 0.10473495681E+01 0.10534237561E+01 0.10473259018E+01 0.10293791990E+01
 0.10005152363E+01 0.96216189644E+00 0.91610039533E+00 0.86433261681E+00 0.80896796530E+00
 0.75211609280E+00 0.69577822149E+00 0.64174689662E+00 0.59153153701E+00 0.54632475250E+00
 0.50701463807E+00 0.47423107610E+00 0.44840170216E+00 0.42980025126E+00 0.43487255876E+00
 0.42692743349E+00 0.42693003495E+00 0.43488306176E+00 0.45071268461E+00 0.47426076389E+00
 0.50527433284E+00 0.54338101364E+00 0.58804500136E+00 0.63850962293E+00 0.69373556781E+00
 0.75235032608E+00 0.81263692980E+00 0.87258304853E+00 0.92997862083E+00 0.98253016455E+00
 0.10279778676E+01 0.10642263965E+01 0.10894959446E+01 0.11024786582E+01 0.11024745884E+01
 0.10894784088E+01 0.10641869454E+01 0.10279154064E+01 0.98244979327E+00 0.92988589162E+00
 0.87248505386E+00 0.81254394277E+00 0.75226962779E+00 0.69366632302E+00 0.63844814924E+00
 0.58799132635E+00 0.54333635691E+00 0.50523707678E+00 0.47422992100E+00 0.45069111375E+00
 0.45761105825E+00 0.44509280479E+00 0.44090556184E+00 0.44509749197E+00 0.45762669320E+00
 0.47835506573E+00 0.50704999467E+00 0.54338031672E+00 0.58688832707E+00 0.63693780004E+00
 0.69264679410E+00 0.75281324777E+00 0.81585744668E+00 0.87982211983E+00 0.94244748527E+00
 0.10012932010E+01 0.10538716658E+01 0.10977895239E+01 0.11309098182E+01 0.11515273000E+01
 0.11585310810E+01 0.11515280883E+01 0.11308982304E+01 0.10977540524E+01 0.10538100752E+01
 0.10012085556E+01 0.94234796377E+00 0.87972401556E+00 0.81577635493E+00 0.75275003736E+00
 0.69259067523E+00 0.63688289833E+00 0.58683818242E+00 0.54333768366E+00 0.50701361501E+00
 0.47832682013E+00 0.48662940352E+00 0.46928458120E+00 0.46056262464E+00 0.46056332791E+00
 0.46929248381E+00 0.48665112457E+00 0.51243845770E+00 0.54636443118E+00 0.58804116829E+00
 0.63693966718E+00 0.69232393664E+00 0.75317032183E+00 0.81808004095E+00 0.88522447096E+00
 0.95237233545E+00 0.10169990553E+01 0.10764330548E+01 0.11280112254E+01 0.11692522914E+01
 0.11980500975E+01 0.12128616722E+01 0.12128623806E+01 0.11980450518E+01 0.11692305841E+01
 0.11279707369E+01 0.10763752903E+01 0.10169235654E+01 0.95228590113E+00 0.88514397251E+00
 0.81801505126E+00 0.75311275630E+00 0.69226437711E+00 0.63688275723E+00 0.58799510443E+00
 0.54632737545E+00 0.51240669292E+00 0.52157826866E+00 0.49929963196E+00 0.48583475303E+00
 0.48132835057E+00 0.48583703844E+00 0.49931483193E+00 0.52160623979E+00 0.55246575250E+00
 0.59157199934E+00 0.63849862150E+00 0.69264878202E+00 0.75317402401E+00 0.81887695001E+00
 0.88811532826E+00 0.95876946802E+00 0.10283144932E+01 0.10939655826E+01 0.11528441437E+01
 0.12021591857E+01 0.12394162215E+01 0.12626321135E+01 0.12705199196E+01 0.12626258943E+01
 0.12393948308E+01 0.12021237594E+01 0.11528045734E+01 0.10939208479E+01 0.10282552220E+01
 0.95869931338E+00 0.88804860030E+00 0.81881591828E+00 0.75311013330E+00 0.69258525384E+00
 0.63844930436E+00 0.59153798145E+00 0.55243536687E+00 0.56187484361E+00 0.53472004912E+00
 0.51646851021E+00 0.50729426478E+00 0.50729388249E+00 0.51647751825E+00 0.53474744634E+00
 0.56190764643E+00 0.59769675978E+00 0.64178454413E+00 0.69371147940E+00 0.75280385168E+00
 0.81807612216E+00 0.88811374461E+00 0.96098340041E+00 0.10342487815E+01 0.11050976959E+01
 0.11705141132E+01 0.12274611065E+01 0.12730950366E+01 0.13050054027E+01 0.13214319773E+01
 0.13214325010E+01 0.13049966650E+01 0.12730674279E+01 0.12274265814E+01 0.11704837589E+01
 0.11050598233E+01 0.10341913741E+01 0.96091763422E+00 0.88805399535E+00 0.81801782327E+00
 0.75274216040E+00 0.69365977291E+00 0.64175229169E+00 0.59767033118E+00 0.60666063073E+00
 0.57486509144E+00 0.55196598155E+00 0.53814761068E+00 0.53352421186E+00 0.53814896015E+00
 0.55198812125E+00 0.57490554416E+00 0.60669517357E+00 0.64710826617E+00 0.69581316899E+00
 0.75230777866E+00 0.81582252204E+00 0.88520005286E+00 0.95876169195E+00 0.10342515693E+01
 0.11089223212E+01 0.11797085415E+01 0.12434122609E+01 0.12969089733E+01 0.13374000497E+01
 0.13626661637E+01 0.13712656671E+01 0.13626802826E+01 0.13374010875E+01 0.12968890709E+01
 0.12433882133E+01 0.11796813350E+01 0.11088744525E+01 0.10341865561E+01 0.95870473484E+00
 0.88515680862E+00 0.81577635483E+00 0.75225825951E+00 0.69577719850E+00 0.64708297770E+00
 0.65478398781E+00 0.61876749603E+00 0.59155222898E+00 0.57331466282E+00 0.56416105950E+00