   6   6   0   0
  0.2185851E+02  0.3190316E-09  0.3190316E-09  0.1487900E-08  0.5000000E-15
  1.000000000000000E-004
  CAR 
 unknown system                          
      8.23008418    -12.93000248  301      3.36546842      1.00000000
    -12.930  0.0000E+00  0.0000E+00
    -12.859  0.0000E+00  0.0000E+00
    -12.789  0.0000E+00  0.0000E+00
    -12.718  0.0000E+00  0.0000E+00
    -12.648  0.0000E+00  0.0000E+00
    -12.577  0.0000E+00  0.0000E+00
    -12.507  0.0000E+00  0.0000E+00
    -12.436  0.0000E+00  0.0000E+00
    -12.366  0.0000E+00  0.0000E+00
    -12.295  0.0000E+00  0.0000E+00
    -12.225  0.0000E+00  0.0000E+00
    -12.154  0.0000E+00  0.0000E+00
    -12.084  0.0000E+00  0.0000E+00
    -12.013  0.0000E+00  0.0000E+00
    -11.943  0.0000E+00  0.0000E+00
    -11.872  0.0000E+00  0.0000E+00
    -11.801  0.0000E+00  0.0000E+00
    -11.731  0.0000E+00  0.0000E+00
    -11.660  0.0000E+00  0.0000E+00
    -11.590  0.0000E+00  0.0000E+00
    -11.519  0.0000E+00  0.0000E+00
    -11.449  0.0000E+00  0.0000E+00
    -11.378  0.0000E+00  0.0000E+00
    -11.308  0.0000E+00  0.0000E+00
    -11.237  0.0000E+00  0.0000E+00
    -11.167  0.0000E+00  0.0000E+00
    -11.096  0.0000E+00  0.0000E+00
    -11.026  0.0000E+00  0.0000E+00
    -10.955  0.0000E+00  0.0000E+00
    -10.885  0.1732E+00  0.3193E-02
    -10.814  0.5121E+00  0.2736E-01
    -10.743  0.8511E+00  0.7544E-01
    -10.673  0.1190E+01  0.1474E+00
    -10.602  0.1529E+01  0.2433E+00
    -10.532  0.1069E+01  0.3506E+00
    -10.461  0.1121E+01  0.4279E+00
    -10.391  0.1174E+01  0.5088E+00
    -10.320  0.1227E+01  0.5935E+00
    -10.250  0.1279E+01  0.6818E+00
    -10.179  0.1332E+01  0.7739E+00
    -10.109  0.1384E+01  0.8697E+00
    -10.038  0.1437E+01  0.9692E+00
     -9.968  0.1489E+01  0.1072E+01
     -9.897  0.1569E+01  0.1180E+01
     -9.827  0.1716E+01  0.1295E+01
     -9.756  0.1864E+01  0.1422E+01
     -9.685  0.2579E+01  0.1567E+01
     -9.615  0.4240E+01  0.1807E+01
     -9.544  0.5638E+01  0.2165E+01
     -9.474  0.4979E+01  0.2515E+01
     -9.403  0.5406E+01  0.2881E+01
     -9.333  0.5832E+01  0.3277E+01
     -9.262  0.6259E+01  0.3704E+01
     -9.192  0.6933E+01  0.4166E+01
     -9.121  0.8593E+01  0.5087E+01
     -9.051  0.8223E+01  0.5680E+01
     -8.980  0.7854E+01  0.6247E+01
     -8.910  0.7485E+01  0.6788E+01
     -8.839  0.6642E+01  0.7617E+01
     -8.769  0.2578E+01  0.7942E+01
     -8.698  0.0000E+00  0.8000E+01
     -8.627  0.0000E+00  0.8000E+01
     -8.557  0.0000E+00  0.8000E+01
     -8.486  0.0000E+00  0.8000E+01
     -8.416  0.0000E+00  0.8000E+01
     -8.345  0.0000E+00  0.8000E+01
     -8.275  0.0000E+00  0.8000E+01
     -8.204  0.0000E+00  0.8000E+01
     -8.134  0.0000E+00  0.8000E+01
     -8.063  0.0000E+00  0.8000E+01
     -7.993  0.0000E+00  0.8000E+01
     -7.922  0.0000E+00  0.8000E+01
     -7.852  0.0000E+00  0.8000E+01
     -7.781  0.0000E+00  0.8000E+01
     -7.711  0.0000E+00  0.8000E+01
     -7.640  0.0000E+00  0.8000E+01
     -7.569  0.0000E+00  0.8000E+01
     -7.499  0.0000E+00  0.8000E+01
     -7.428  0.0000E+00  0.8000E+01
     -7.358  0.0000E+00  0.8000E+01
     -7.287  0.0000E+00  0.8000E+01
     -7.217  0.0000E+00  0.8000E+01
     -7.146  0.0000E+00  0.8000E+01
     -7.076  0.0000E+00  0.8000E+01
     -7.005  0.0000E+00  0.8000E+01
     -6.935  0.0000E+00  0.8000E+01
     -6.864  0.0000E+00  0.8000E+01
     -6.794  0.0000E+00  0.8000E+01
     -6.723  0.0000E+00  0.8000E+01
     -6.653  0.0000E+00  0.8000E+01
     -6.582  0.0000E+00  0.8000E+01
     -6.511  0.0000E+00  0.8000E+01
     -6.441  0.0000E+00  0.8000E+01
     -6.370  0.0000E+00  0.8000E+01
     -6.300  0.0000E+00  0.8000E+01
     -6.229  0.0000E+00  0.8000E+01
     -6.159  0.0000E+00  0.8000E+01
     -6.088  0.0000E+00  0.8000E+01
     -6.018  0.0000E+00  0.8000E+01
     -5.947  0.0000E+00  0.8000E+01
     -5.877  0.0000E+00  0.8000E+01
     -5.806  0.0000E+00  0.8000E+01
     -5.736  0.0000E+00  0.8000E+01
     -5.665  0.0000E+00  0.8000E+01
     -5.595  0.0000E+00  0.8000E+01
     -5.524  0.0000E+00  0.8000E+01
     -5.453  0.0000E+00  0.8000E+01
     -5.383  0.0000E+00  0.8000E+01
     -5.312  0.0000E+00  0.8000E+01
     -5.242  0.0000E+00  0.8000E+01
     -5.171  0.0000E+00  0.8000E+01
     -5.101  0.0000E+00  0.8000E+01
     -5.030  0.0000E+00  0.8000E+01
     -4.960  0.0000E+00  0.8000E+01
     -4.889  0.0000E+00  0.8000E+01
     -4.819  0.0000E+00  0.8000E+01
     -4.748  0.0000E+00  0.8000E+01
     -4.678  0.0000E+00  0.8000E+01
     -4.607  0.0000E+00  0.8000E+01
     -4.537  0.0000E+00  0.8000E+01
     -4.466  0.0000E+00  0.8000E+01
     -4.395  0.0000E+00  0.8000E+01
     -4.325  0.0000E+00  0.8000E+01
     -4.254  0.0000E+00  0.8000E+01
     -4.184  0.0000E+00  0.8000E+01
     -4.113  0.0000E+00  0.8000E+01
     -4.043  0.0000E+00  0.8000E+01
     -3.972  0.0000E+00  0.8000E+01
     -3.902  0.0000E+00  0.8000E+01
     -3.831  0.0000E+00  0.8000E+01
     -3.761  0.0000E+00  0.8000E+01
     -3.690  0.0000E+00  0.8000E+01
     -3.620  0.0000E+00  0.8000E+01
     -3.549  0.0000E+00  0.8000E+01
     -3.478  0.0000E+00  0.8000E+01
     -3.408  0.0000E+00  0.8000E+01
     -3.337  0.0000E+00  0.8000E+01
     -3.267  0.0000E+00  0.8000E+01
     -3.196  0.0000E+00  0.8000E+01
     -3.126  0.0000E+00  0.8000E+01
     -3.055  0.0000E+00  0.8000E+01
     -2.985  0.0000E+00  0.8000E+01
     -2.914  0.0000E+00  0.8000E+01
     -2.844  0.0000E+00  0.8000E+01
     -2.773  0.0000E+00  0.8000E+01
     -2.703  0.0000E+00  0.8000E+01
     -2.632  0.0000E+00  0.8000E+01
     -2.562  0.3348E+00  0.8007E+01
     -2.491  0.9642E+00  0.8052E+01
     -2.420  0.1704E+01  0.8146E+01
     -2.350  0.2569E+01  0.8296E+01
     -2.279  0.3477E+01  0.8509E+01
     -2.209  0.8274E+01  0.8828E+01
     -2.138  0.9653E+01  0.9781E+01
     -2.068  0.8198E+01  0.1026E+02
     -1.997  0.9072E+01  0.1090E+02
     -1.927  0.6627E+01  0.1147E+02
     -1.856  0.3644E+01  0.1183E+02
     -1.786  0.8307E+00  0.1198E+02
     -1.715  0.1245E+02  0.1210E+02
     -1.645  0.6251E+01  0.1276E+02
     -1.574  0.4756E+01  0.1314E+02
     -1.504  0.3592E+01  0.1343E+02
     -1.433  0.2428E+01  0.1364E+02
     -1.362  0.2124E+01  0.1380E+02
     -1.292  0.1991E+01  0.1394E+02
     -1.221  0.1859E+01  0.1408E+02
     -1.151  0.1726E+01  0.1421E+02
     -1.080  0.1594E+01  0.1432E+02
     -1.010  0.1499E+01  0.1443E+02
     -0.939  0.1775E+01  0.1454E+02
     -0.869  0.5959E+01  0.1479E+02
     -0.798  0.1114E+02  0.1540E+02
     -0.728  0.1473E+02  0.1632E+02
     -0.657  0.8959E+01  0.1716E+02
     -0.587  0.6201E+01  0.1769E+02
     -0.516  0.3471E+01  0.1803E+02
     -0.446  0.2834E+01  0.1824E+02
     -0.375  0.3380E+01  0.1846E+02
     -0.304  0.3992E+01  0.1872E+02
     -0.234  0.4603E+01  0.1902E+02
     -0.163  0.4624E+01  0.1934E+02
     -0.093  0.8814E+01  0.1970E+02
     -0.022  0.1123E+02  0.2072E+02
      0.048  0.7663E+01  0.2133E+02
      0.119  0.6260E+01  0.2182E+02
      0.189  0.5025E+01  0.2222E+02
      0.260  0.4055E+01  0.2253E+02
      0.330  0.4034E+01  0.2281E+02
      0.401  0.3530E+01  0.2308E+02
      0.471  0.2998E+01  0.2331E+02
      0.542  0.2671E+01  0.2350E+02
      0.612  0.2900E+01  0.2370E+02
      0.683  0.3129E+01  0.2391E+02
      0.754  0.3358E+01  0.2414E+02
      0.824  0.4006E+01  0.2441E+02
      0.895  0.3988E+01  0.2469E+02
      0.965  0.4907E+01  0.2502E+02
      1.036  0.4952E+01  0.2536E+02
      1.106  0.1325E+02  0.2591E+02
      1.177  0.9529E+01  0.2670E+02
      1.247  0.8661E+01  0.2734E+02
      1.318  0.7334E+01  0.2791E+02
      1.388  0.6012E+01  0.2838E+02
      1.459  0.3676E+01  0.2870E+02
      1.529  0.3241E+01  0.2894E+02
      1.600  0.3482E+01  0.2917E+02
      1.670  0.4143E+01  0.2944E+02
      1.741  0.5014E+01  0.2976E+02
      1.812  0.5670E+01  0.3014E+02
      1.882  0.6162E+01  0.3056E+02
      1.953  0.7067E+01  0.3102E+02
      2.023  0.6058E+01  0.3150E+02
      2.094  0.3182E+01  0.3182E+02
      2.164  0.1623E+01  0.3198E+02
      2.235  0.2863E+01  0.3212E+02
      2.305  0.5406E+01  0.3241E+02
      2.376  0.6589E+01  0.3285E+02
      2.446  0.6974E+01  0.3333E+02
      2.517  0.7466E+01  0.3384E+02
      2.587  0.8049E+01  0.3438E+02
      2.658  0.4207E+01  0.3484E+02
      2.728  0.3694E+01  0.3512E+02
      2.799  0.3555E+01  0.3538E+02
      2.870  0.2995E+01  0.3561E+02
      2.940  0.2115E+01  0.3579E+02
      3.011  0.1247E+01  0.3591E+02
      3.081  0.4956E+00  0.3597E+02
      3.152  0.1686E+00  0.3599E+02
      3.222  0.4548E-01  0.3600E+02
      3.293  0.2527E-03  0.3600E+02
      3.363  0.0000E+00  0.3600E+02
      3.434  0.0000E+00  0.3600E+02
      3.504  0.0000E+00  0.3600E+02
      3.575  0.0000E+00  0.3600E+02
      3.645  0.0000E+00  0.3600E+02
      3.716  0.0000E+00  0.3600E+02
      3.786  0.0000E+00  0.3600E+02
      3.857  0.0000E+00  0.3600E+02
      3.928  0.0000E+00  0.3600E+02
      3.998  0.0000E+00  0.3600E+02
      4.069  0.0000E+00  0.3600E+02
      4.139  0.0000E+00  0.3600E+02
      4.210  0.0000E+00  0.3600E+02
      4.280  0.0000E+00  0.3600E+02
      4.351  0.0000E+00  0.3600E+02
      4.421  0.0000E+00  0.3600E+02
      4.492  0.0000E+00  0.3600E+02
      4.562  0.0000E+00  0.3600E+02
      4.633  0.0000E+00  0.3600E+02
      4.703  0.0000E+00  0.3600E+02
      4.774  0.7535E-01  0.3600E+02
      4.844  0.4221E+00  0.3602E+02
      4.915  0.7695E+00  0.3606E+02
      4.986  0.1551E+01  0.3614E+02
      5.056  0.3151E+01  0.3630E+02
      5.127  0.5928E+01  0.3661E+02
      5.197  0.9844E+01  0.3716E+02
      5.268  0.2096E+02  0.3811E+02
      5.338  0.2939E+01  0.3947E+02
      5.409  0.2784E+01  0.3966E+02
      5.479  0.4127E+01  0.3989E+02
      5.550  0.6601E+01  0.4026E+02
      5.620  0.8444E+01  0.4079E+02
      5.691  0.1083E+02  0.4146E+02
      5.761  0.7799E+01  0.4223E+02
      5.832  0.1016E+02  0.4291E+02
      5.902  0.5767E+01  0.4343E+02
      5.973  0.3124E+01  0.4373E+02
      6.044  0.1672E+01  0.4390E+02
      6.114  0.6239E+00  0.4398E+02
      6.185  0.9670E-01  0.4400E+02
      6.255  0.0000E+00  0.4400E+02
      6.326  0.0000E+00  0.4400E+02
      6.396  0.0000E+00  0.4400E+02
      6.467  0.0000E+00  0.4400E+02
      6.537  0.0000E+00  0.4400E+02
      6.608  0.0000E+00  0.4400E+02
      6.678  0.0000E+00  0.4400E+02
      6.749  0.0000E+00  0.4400E+02
      6.819  0.0000E+00  0.4400E+02
      6.890  0.0000E+00  0.4400E+02
      6.960  0.0000E+00  0.4400E+02
      7.031  0.0000E+00  0.4400E+02
      7.102  0.0000E+00  0.4400E+02
      7.172  0.0000E+00  0.4400E+02
      7.243  0.0000E+00  0.4400E+02
      7.313  0.0000E+00  0.4400E+02
      7.384  0.0000E+00  0.4400E+02
      7.454  0.0000E+00  0.4400E+02
      7.525  0.0000E+00  0.4400E+02
      7.595  0.0000E+00  0.4400E+02
      7.666  0.0000E+00  0.4400E+02
      7.736  0.0000E+00  0.4400E+02
      7.807  0.0000E+00  0.4400E+02
      7.877  0.0000E+00  0.4400E+02
      7.948  0.0000E+00  0.4400E+02
      8.018  0.0000E+00  0.4400E+02
      8.089  0.0000E+00  0.4400E+02
      8.160  0.0000E+00  0.4400E+02
      8.230  0.0000E+00  0.4400E+02
