Automatically generated mesh
      14
Reciprocal lattice
    0.00000000000000    0.00000000000000    0.00000000000000             1
    0.16666666666667   -0.00000000000000    0.00000000000000             6
    0.33333333333333    0.00000000000000    0.00000000000000             6
    0.50000000000000   -0.00000000000000    0.00000000000000             3
    0.16666666666667    0.16666666666667    0.00000000000000             6
    0.33333333333333    0.16666666666667    0.00000000000000            12
    0.33333333333333    0.33333333333333    0.00000000000000             2
    0.00000000000000    0.00000000000000    0.50000000000000             1
    0.16666666666667   -0.00000000000000    0.50000000000000             6
    0.33333333333333    0.00000000000000    0.50000000000000             6
    0.50000000000000   -0.00000000000000    0.50000000000000             3
    0.16666666666667    0.16666666666667    0.50000000000000             6
    0.33333333333333    0.16666666666667    0.50000000000000            12
    0.33333333333333    0.33333333333333    0.50000000000000             2
Tetrahedra
        71    0.00231481481481
         8         2         2         5         9
         8         1         2         2         9
         4         1         2         8         9
         4         2         5         9        12
         8         2         9         9        12
         8         2         8         9         9
         8         3         5         6        12
         8         2         3         5        12
         4         2         3         9        12
         4         3         6        12        13
         8         3        10        12        13
         8         3         9        10        12
         8         4         6         6        13
         8         3         4         6        13
         4         3         4        10        13
         4         4         6        13        13
         4         4        11        13        13
         8         4        10        11        13
         8         3         5         6        13
         4         3         4        11        13
         4         3         5        12        13
         8         3        10        11        13
         4         2         2         5        12
         4         2         3        10        12
         4         2         2         9        12
         8         2         9        10        12
         4         1         2         9         9
         4         1         8         9         9
         8         3         5         6        10
         8         2         3         5        10
         4         2         5         9        10
         4         5         6        10        13
         8         5        10        12        13
         8         5         9        10        12
        16         6         6         7        13
         8         5         6         6        13
         4         5         6        12        13
         8         6         7        13        14
        16         6        13        13        14
         8         6        12        13        13
         8         6         6         7        14
         8         6         6        13        14
         4         5         6        13        13
         4         3         5        10        13
         4         5        12        13        13
         4         2         5        10        12
         4         4         6         6        11
         8         3         4         6        11
         4         3         6        10        11
         4         6         6        11        13
         8         6        11        13        13
         8         6        10        11        13
         8         6         7        13        13
         8         7        13        13        14
         4         4         6        11        13
         4         3         6        11        13
         8         3         4         6        10
         4         4         6        10        11
         4         5         6        10        12
         8         6        10        12        13
         4         5         6         6        12
         4         6         6        12        13
         4         3         6        10        12
         4         4         6        10        13
         8         2         3         5         9
         4         3         5         9        10
         4         2         5         9         9
         4         5         9         9        12
         4         3         5         9        12
         4         1         2         2         8
         4         2         2         8         9
