 vasp.5.4.4.18Apr17-6-g9f103f2a35 (build Jun 30 2017 11:15:00) complex          
  
 executed on    STALLO_VASP_5.4.4 date 2019.11.08  12:18:01
 running on    4 total cores
 distrk:  each k-point on    4 cores,    1 groups
 distr:  one band on NCORES_PER_BAND=   2 cores,    2 groups


--------------------------------------------------------------------------------------------------------


 INCAR:
 POTCAR:   PAW_PBE Mo 08Apr2002                   
 POTCAR:    PAW_PBE S 17Jan2003                   
 POTCAR:   PAW_PBE Mo 08Apr2002                   
   VRHFIN =Mo: 4p5s4d                                                           
   LEXCH  = PE                                                                  
   EATOM  =   217.5180 eV,   15.9871 Ry                                         
                                                                                
   TITEL  = PAW_PBE Mo 08Apr2002                                                
   LULTRA =        F    use ultrasoft PP ?                                      
   IUNSCR =        1    unscreen: 0-lin 1-nonlin 2-no                           
   RPACOR =    2.200    partial core radius                                     
   POMASS =   95.940; ZVAL   =    6.000    mass and valenz                      
   RCORE  =    2.750    outmost cutoff radius                                   
   RWIGS  =    2.750; RWIGS  =    1.455    wigner-seitz radius (au A)           
   ENMAX  =  224.584; ENMIN  =  168.438 eV                                      
   RCLOC  =    2.111    cutoff for local pot                                    
   LCOR   =        T    correct aug charges                                     
   LPAW   =        T    paw PP                                                  
   EAUG   =  345.278                                                            
   DEXC   =    -.088                                                            
   RMAX   =    3.077    core radius for proj-oper                               
   RAUG   =    1.300    factor for augmentation sphere                          
   RDEP   =    2.815    radius for radial grids                                 
   QCUT   =   -4.063; QGAM   =    8.126    optimization parameters              
                                                                                
   Description                                                                  
     l     E      TYP  RCUT    TYP  RCUT                                        
     2   .000     23  2.500                                                     
     2   .000     23  2.500                                                     
     0   .000     23  2.600                                                     
     0  1.000     23  2.600                                                     
     1   .400     23  2.750                                                     
     1  2.000     23  2.750                                                     
     3   .000      7   .000                                                     
  local pseudopotential read in
  partial core-charges read in
  atomic valenz-charges read in
  non local Contribution for L=           2  read in
    real space projection operators read in
  non local Contribution for L=           2  read in
    real space projection operators read in
  non local Contribution for L=           0  read in
    real space projection operators read in
  non local Contribution for L=           0  read in
    real space projection operators read in
  non local Contribution for L=           1  read in
    real space projection operators read in
  non local Contribution for L=           1  read in
    real space projection operators read in
    PAW grid and wavefunctions read in
 
   number of l-projection  operators is LMAX  =           6
   number of lm-projection operators is LMMAX =          18
 
 POTCAR:    PAW_PBE S 17Jan2003                   
   VRHFIN =S : s2p4                                                             
   LEXCH  = PE                                                                  
   EATOM  =   276.8230 eV,   20.3459 Ry                                         
                                                                                
   TITEL  = PAW_PBE S 17Jan2003                                                 
   LULTRA =        F    use ultrasoft PP ?                                      
   IUNSCR =        1    unscreen: 0-lin 1-nonlin 2-no                           
   RPACOR =    1.500    partial core radius                                     
   POMASS =   32.066; ZVAL   =    6.000    mass and valenz                      
   RCORE  =    1.900    outmost cutoff radius                                   
   RWIGS  =    2.200; RWIGS  =    1.164    wigner-seitz radius (au A)           
   ENMAX  =  280.000; ENMIN  =  194.016 eV                                      
   ICORE  =        2    local potential                                         
   LCOR   =        T    correct aug charges                                     
   LPAW   =        T    paw PP                                                  
   EAUG   =  335.092                                                            
   DEXC   =     .000                                                            
   RMAX   =    2.867    core radius for proj-oper                               
   RAUG   =    1.300    factor for augmentation sphere                          
   RDEP   =    1.954    radius for radial grids                                 
   QCUT   =   -4.360; QGAM   =    8.721    optimization parameters              
                                                                                
   Description                                                                  
     l     E      TYP  RCUT    TYP  RCUT                                        
     0   .000     23  1.900                                                     
     0   .000     23  1.900                                                     
     1   .000     23  1.900                                                     
     1   .000     23  1.900                                                     
     2   .000     23  1.900                                                     
  local pseudopotential read in
  partial core-charges read in
  atomic valenz-charges read in
  non local Contribution for L=           0  read in
    real space projection operators read in
  non local Contribution for L=           0  read in
    real space projection operators read in
  non local Contribution for L=           1  read in
    real space projection operators read in
  non local Contribution for L=           1  read in
    real space projection operators read in
    PAW grid and wavefunctions read in
 
   number of l-projection  operators is LMAX  =           4
   number of lm-projection operators is LMMAX =           8
 
 PAW_PBE Mo 08Apr2002                   :
 energy of atom  1       EATOM= -217.5180
 kinetic energy error for atom=    0.0023 (will be added to EATOM!!)
  PAW_PBE S 17Jan2003                   :
 energy of atom  2       EATOM= -276.8230
 kinetic energy error for atom=    0.0033 (will be added to EATOM!!)
 
 
 POSCAR: MoS2_mp-2815_computed                   
  positions in direct lattice
  No initial velocities read in
 exchange correlation table for  LEXCH =        8
   RHO(1)=    0.500       N(1)  =     2000
   RHO(2)=  100.500       N(2)  =     4000
 


--------------------------------------------------------------------------------------------------------


 ion  position               nearest neighbor table
   1  0.333  0.667  0.250-   5 2.42   4 2.42   4 2.42   5 2.42   5 2.42   4 2.42
   2  0.667  0.333  0.750-   6 2.42   3 2.42   3 2.42   6 2.42   6 2.42   3 2.42
   3  0.333  0.667  0.855-   2 2.42   2 2.42   2 2.42
   4  0.667  0.333  0.145-   1 2.42   1 2.42   1 2.42
   5  0.667  0.333  0.355-   1 2.42   1 2.42   1 2.42
   6  0.333  0.667  0.645-   2 2.42   2 2.42   2 2.42
 
  LATTYP: Found a hexagonal cell.
 ALAT       =     3.1903157300
 C/A-ratio  =     4.6638030713
  
  Lattice vectors:
  
 A1 = (   3.1903157300,   0.0000000000,   0.0000000000)
 A2 = (  -1.5951578650,   2.7628944683,   0.0000000000)
 A3 = (   0.0000000000,   0.0000000000,  14.8790043000)


Analysis of symmetry for initial positions (statically):
=====================================================================
 Subroutine PRICEL returns:
 Original cell was already a primitive cell.
 

 Routine SETGRP: Setting up the symmetry group for a 
 hexagonal supercell.


 Subroutine GETGRP returns: Found 24 space group operations
 (whereof 12 operations were pure point group operations)
 out of a pool of 24 trial point group operations.


The static configuration has the point symmetry D_3d.
 The point group associated with its full space group is D_6h.


Analysis of symmetry for dynamics (positions and initial velocities):
=====================================================================
 Subroutine PRICEL returns:
 Original cell was already a primitive cell.
 

 Routine SETGRP: Setting up the symmetry group for a 
 hexagonal supercell.


 Subroutine GETGRP returns: Found 24 space group operations
 (whereof 12 operations were pure point group operations)
 out of a pool of 24 trial point group operations.


The dynamic configuration has the point symmetry D_3d.
 The point group associated with its full space group is D_6h.


 Subroutine INISYM returns: Found 24 space group operations
 (whereof 12 operations are pure point group operations),
 and found     1 'primitive' translations

 
 
 KPOINTS: k-density: 3.0                          

Automatic generation of k-mesh.
Space group operators:
 irot       det(A)        alpha          n_x          n_y          n_z        tau_x        tau_y        tau_z
    1     1.000000     0.000001     1.000000     0.000000     0.000000     0.000000     0.000000     0.000000
    2    -1.000000     0.000001     1.000000     0.000000     0.000000     0.000000     0.000000     0.000000
    3     1.000000   120.000000     0.000000     0.000000    -1.000000     0.000000     0.000000     0.000000
    4    -1.000000   120.000000     0.000000     0.000000    -1.000000     0.000000     0.000000     0.000000
    5     1.000000   120.000000     0.000000     0.000000     1.000000     0.000000     0.000000     0.000000
    6    -1.000000   120.000000     0.000000     0.000000     1.000000     0.000000     0.000000     0.000000
    7     1.000000   179.999999     1.000000    -0.000000     0.000000     0.000000     0.000000     0.000000
    8    -1.000000   179.999999     1.000000    -0.000000     0.000000     0.000000     0.000000     0.000000
    9     1.000000   180.000000     0.500000    -0.866025     0.000000     0.000000     0.000000     0.000000
   10    -1.000000   180.000000     0.500000    -0.866025     0.000000     0.000000     0.000000     0.000000
   11     1.000000   180.000000    -0.500000    -0.866025     0.000000     0.000000     0.000000     0.000000
   12    -1.000000   180.000000    -0.500000    -0.866025     0.000000     0.000000     0.000000     0.000000
   13     1.000000    60.000000     0.000000     0.000000    -1.000000     0.000001     0.000000     0.500000
   14    -1.000000    60.000000     0.000000     0.000000    -1.000000     0.000001     0.000000     0.500000
   15     1.000000   180.000000     0.000000     0.000000     1.000000     0.000000     0.000000     0.500000
   16    -1.000000   180.000000     0.000000     0.000000     1.000000     0.000000     0.000000     0.500000
   17     1.000000    60.000000     0.000000     0.000000     1.000000     0.000000     0.000000     0.500000
   18    -1.000000    60.000000     0.000000     0.000000     1.000000     0.000000     0.000000     0.500000
   19     1.000000   179.999999     0.866025    -0.500000     0.000000     0.000000     0.000000     0.500000
   20    -1.000000   179.999999     0.866025    -0.500000     0.000000     0.000000     0.000000     0.500000
   21     1.000000   180.000000     0.000000     1.000000     0.000000     0.000001     0.000000     0.500000
   22    -1.000000   180.000000     0.000000     1.000000     0.000000     0.000001     0.000000     0.500000
   23     1.000000   179.999999     0.866025     0.500000     0.000000     0.000000     0.000000     0.500000
   24    -1.000000   179.999999     0.866025     0.500000     0.000000     0.000000     0.000000     0.500000
 
 Subroutine IBZKPT returns following result:
 ===========================================
 
 Found     14 irreducible k-points:
 
 Following reciprocal coordinates:
            Coordinates               Weight
  0.000000  0.000000  0.000000      1.000000
  0.166667 -0.000000  0.000000      6.000000
  0.333333  0.000000  0.000000      6.000000
  0.500000 -0.000000  0.000000      3.000000
  0.166667  0.166667  0.000000      6.000000
  0.333333  0.166667  0.000000     12.000000
  0.333333  0.333333  0.000000      2.000000
  0.000000  0.000000  0.500000      1.000000
  0.166667 -0.000000  0.500000      6.000000
  0.333333  0.000000  0.500000      6.000000
  0.500000 -0.000000  0.500000      3.000000
  0.166667  0.166667  0.500000      6.000000
  0.333333  0.166667  0.500000     12.000000
  0.333333  0.333333  0.500000      2.000000
 
 Following cartesian coordinates:
            Coordinates               Weight
  0.000000  0.000000  0.000000      1.000000
  0.052241  0.030162  0.000000      6.000000
  0.104483  0.060323  0.000000      6.000000
  0.156724  0.090485  0.000000      3.000000
  0.052241  0.090485  0.000000      6.000000
  0.104483  0.120646  0.000000     12.000000
  0.104483  0.180970  0.000000      2.000000
  0.000000  0.000000  0.033604      1.000000
  0.052241  0.030162  0.033604      6.000000
  0.104483  0.060323  0.033604      6.000000
  0.156724  0.090485  0.033604      3.000000
  0.052241  0.090485  0.033604      6.000000
  0.104483  0.120646  0.033604     12.000000
  0.104483  0.180970  0.033604      2.000000
 
 TETIRR: Found     71 inequivalent tetrahedra from      432


--------------------------------------------------------------------------------------------------------




 Dimension of arrays:
   k-points           NKPTS =     14   k-points in BZ     NKDIM =     14   number of bands    NBANDS=     22
   number of dos      NEDOS =    301   number of ions     NIONS =      6
   non local maximal  LDIM  =      6   non local SUM 2l+1 LMDIM =     18
   total plane-waves  NPLWV =  25920
   max r-space proj   IRMAX =      1   max aug-charges    IRDMAX=  12887
   dimension x,y,z NGX =    18 NGY =   18 NGZ =   80
   dimension x,y,z NGXF=    36 NGYF=   36 NGZF=  160
   support grid    NGXF=    36 NGYF=   36 NGZF=  160
   ions per type =               2   4
   NGX,Y,Z   is equivalent  to a cutoff of   9.38,  9.38,  8.94 a.u.
   NGXF,Y,Z  is equivalent  to a cutoff of  18.76, 18.76, 17.88 a.u.

 SYSTEM =  unknown system                          
 POSCAR =  MoS2_mp-2815_computed                   

 Startparameter for this run:
   NWRITE =      2    write-flag & timer
   PREC   = normal    normal or accurate (medium, high low for compatibility)
   ISTART =      0    job   : 0-new  1-cont  2-samecut
   ICHARG =      2    charge: 1-file 2-atom 10-const
   ISPIN  =      1    spin polarized calculation?
   LNONCOLLINEAR =      F non collinear calculations
   LSORBIT =      F    spin-orbit coupling
   INIWAV =      1    electr: 0-lowe 1-rand  2-diag
   LASPH  =      F    aspherical Exc in radial PAW
   METAGGA=      F    non-selfconsistent MetaGGA calc.

 Electronic Relaxation 1
   ENCUT  =  450.0 eV  33.07 Ry    5.75 a.u.   5.52  5.52 25.74*2*pi/ulx,y,z
   ENINI  =  450.0     initial cutoff
   ENAUG  =  345.3 eV  augmentation charge cutoff
   NELM   =     60;   NELMIN=  4; NELMDL=  0     # of ELM steps 
   EDIFF  = 0.1E-04   stopping-criterion for ELM
   LREAL  =      F    real-space projection
   NLSPLINE    = F    spline interpolate recip. space projectors
   LCOMPAT=      F    compatible to vasp.4.4
   GGA_COMPAT  = T    GGA compatible to vasp.4.4-vasp.4.6
   LMAXPAW     = -100 max onsite density
   LMAXMIX     =    2 max onsite mixed and CHGCAR
   VOSKOWN=      0    Vosko Wilk Nusair interpolation
   ROPT   =    0.00000   0.00000
 Ionic relaxation
   EDIFFG = 0.1E-03   stopping-criterion for IOM
   NSW    =      0    number of steps for IOM
   NBLOCK =      1;   KBLOCK =      1    inner block; outer block 
   IBRION =     -1    ionic relax: 0-MD 1-quasi-New 2-CG
   NFREE  =      0    steps in history (QN), initial steepest desc. (CG)
   ISIF   =      2    stress and relaxation
   IWAVPR =     10    prediction:  0-non 1-charg 2-wave 3-comb
   ISYM   =      2    0-nonsym 1-usesym 2-fastsym
   LCORR  =      T    Harris-Foulkes like correction to forces

   POTIM  = 0.5000    time-step for ionic-motion
   TEIN   =    0.0    initial temperature
   TEBEG  =    0.0;   TEEND  =   0.0 temperature during run
   SMASS  =  -3.00    Nose mass-parameter (am)
   estimated Nose-frequenzy (Omega)   =  0.10E-29 period in steps =****** mass=  -0.233E-27a.u.
   SCALEE = 1.0000    scale energy and forces
   NPACO  =    256;   APACO  = 16.0  distance and # of slots for P.C.
   PSTRESS=    0.0 pullay stress

  Mass of Ions in am
   POMASS =  95.94 32.07
  Ionic Valenz
   ZVAL   =   6.00  6.00
  Atomic Wigner-Seitz radii
   RWIGS  =  -1.00 -1.00
  virtual crystal weights 
   VCA    =   1.00  1.00
   NELECT =      36.0000    total number of electrons
   NUPDOWN=      -1.0000    fix difference up-down

 DOS related values:
   EMIN   =  10.00;   EMAX   =-10.00  energy-range for DOS
   EFERMI =   0.00
   ISMEAR =    -5;   SIGMA  =   0.20  broadening in eV -4-tet -1-fermi 0-gaus

 Electronic relaxation 2 (details)
   IALGO  =     68    algorithm
   LDIAG  =      T    sub-space diagonalisation (order eigenvalues)
   LSUBROT=      F    optimize rotation matrix (better conditioning)
   TURBO    =      0    0=normal 1=particle mesh
   IRESTART =      0    0=no restart 2=restart with 2 vectors
   NREBOOT  =      0    no. of reboots
   NMIN     =      0    reboot dimension
   EREF     =   0.00    reference energy to select bands
   IMIX   =      4    mixing-type and parameters
     AMIX     =   0.40;   BMIX     =  1.00
     AMIX_MAG =   1.60;   BMIX_MAG =  1.00
     AMIN     =   0.10
     WC   =   100.;   INIMIX=   1;  MIXPRE=   1;  MAXMIX= -45

 Intra band minimization:
   WEIMIN = 0.0000     energy-eigenvalue tresh-hold
   EBREAK =  0.11E-06  absolut break condition
   DEPER  =   0.30     relativ break condition  

   TIME   =   0.40     timestep for ELM

  volume/ion in A,a.u.               =      21.86       147.51
  Fermi-wavevector in a.u.,A,eV,Ry     =   1.063943  2.010561 15.401453  1.131975
  Thomas-Fermi vector in A             =   2.199445
 
 Write flags
   LWAVE        =      F    write WAVECAR
   LDOWNSAMPLE  =      F    k-point downsampling of WAVECAR
   LCHARG       =      T    write CHGCAR
   LVTOT        =      F    write LOCPOT, total local potential
   LVHAR        =      F    write LOCPOT, Hartree potential only
   LELF         =      F    write electronic localiz. function (ELF)
   LORBIT       =      0    0 simple, 1 ext, 2 COOP (PROOUT), +10 PAW based schemes


 Dipole corrections
   LMONO  =      F    monopole corrections only (constant potential shift)
   LDIPOL =      F    correct potential (dipole corrections)
   IDIPOL =      0    1-x, 2-y, 3-z, 4-all directions 
   EPSILON=  1.0000000 bulk dielectric constant

 Exchange correlation treatment:
   GGA     =    --    GGA type
   LEXCH   =     8    internal setting for exchange type
   VOSKOWN=      0    Vosko Wilk Nusair interpolation
   LHFCALC =     F    Hartree Fock is set to
   LHFONE  =     F    Hartree Fock one center treatment
   AEXX    =    0.0000 exact exchange contribution

 Linear response parameters
   LEPSILON=     F    determine dielectric tensor
   LRPA    =     F    only Hartree local field effects (RPA)
   LNABLA  =     F    use nabla operator in PAW spheres
   LVEL    =     F    velocity operator in full k-point grid
   LINTERFAST=   F  fast interpolation
   KINTER  =     0    interpolate to denser k-point grid
   CSHIFT  =0.1000    complex shift for real part using Kramers Kronig
   OMEGAMAX=  -1.0    maximum frequency
   DEG_THRESHOLD= 0.2000000E-02 threshold for treating states as degnerate
   RTIME   =   -0.100 relaxation time in fs
  (WPLASMAI=    0.000 imaginary part of plasma frequency in eV, 0.658/RTIME)
   DFIELD  = 0.0000000 0.0000000 0.0000000 field for delta impulse in time
 
 Orbital magnetization related:
   ORBITALMAG=     F  switch on orbital magnetization
   LCHIMAG   =     F  perturbation theory with respect to B field
   DQ        =  0.001000  dq finite difference perturbation B field
   LLRAUG    =     F  two centre corrections for induced B field



--------------------------------------------------------------------------------------------------------


 Static calculation
 charge density and potential will be updated during run
 non-spin polarized calculation
 RMM-DIIS sequential band-by-band and
  variant of blocked Davidson during initial phase
 perform sub-space diagonalisation
    before iterative eigenvector-optimisation
 modified Broyden-mixing scheme, WC =      100.0
 initial mixing is a Kerker type mixing with AMIX =  0.4000 and BMIX =      1.0000
 Hartree-type preconditioning will be used
 using additional bands            4
 reciprocal scheme for non local part
 use partial core corrections
 calculate Harris-corrections to forces 
   (improved forces if not selfconsistent)
 use gradient corrections 
 use of overlap-Matrix (Vanderbilt PP)
 Fermi weights with tetrahedron method with Bloechl corrections


--------------------------------------------------------------------------------------------------------


  energy-cutoff  :      450.00
  volume of cell :      131.15
      direct lattice vectors                 reciprocal lattice vectors
     3.190315730  0.000000000  0.000000000     0.313448600  0.180969634  0.000000000
    -1.595157865  2.762894468  0.000000000     0.000000000  0.361939267  0.000000000
     0.000000000  0.000000000 14.879004300     0.000000000  0.000000000  0.067208798

  length of vectors
     3.190315730  3.190315730 14.879004300     0.361939267  0.361939267  0.067208798


 
 k-points in units of 2pi/SCALE and weight: k-density: 3.0                          
   0.00000000  0.00000000  0.00000000       0.014
   0.05224143  0.03016161  0.00000000       0.083
   0.10448287  0.06032321  0.00000000       0.083
   0.15672430  0.09048482  0.00000000       0.042
   0.05224143  0.09048482  0.00000000       0.083
   0.10448287  0.12064642  0.00000000       0.167
   0.10448287  0.18096963  0.00000000       0.028
   0.00000000  0.00000000  0.03360440       0.014
   0.05224143  0.03016161  0.03360440       0.083
   0.10448287  0.06032321  0.03360440       0.083
   0.15672430  0.09048482  0.03360440       0.042
   0.05224143  0.09048482  0.03360440       0.083
   0.10448287  0.12064642  0.03360440       0.167
   0.10448287  0.18096963  0.03360440       0.028
 
 k-points in reciprocal lattice and weights: k-density: 3.0                          
   0.00000000  0.00000000  0.00000000       0.014
   0.16666667 -0.00000000  0.00000000       0.083
   0.33333333  0.00000000  0.00000000       0.083
   0.50000000 -0.00000000  0.00000000       0.042
   0.16666667  0.16666667  0.00000000       0.083
   0.33333333  0.16666667  0.00000000       0.167
   0.33333333  0.33333333  0.00000000       0.028
   0.00000000  0.00000000  0.50000000       0.014
   0.16666667 -0.00000000  0.50000000       0.083
   0.33333333  0.00000000  0.50000000       0.083
   0.50000000 -0.00000000  0.50000000       0.042
   0.16666667  0.16666667  0.50000000       0.083
   0.33333333  0.16666667  0.50000000       0.167
   0.33333333  0.33333333  0.50000000       0.028
 
 position of ions in fractional coordinates (direct lattice) 
   0.33333300  0.66666700  0.25000000
   0.66666700  0.33333300  0.75000000
   0.33333300  0.66666700  0.85517400
   0.66666700  0.33333300  0.14482600
   0.66666600  0.33333300  0.35517400
   0.33333400  0.66666700  0.64482600
 
 position of ions in cartesian coordinates  (Angst):
  -0.00000160  1.84193057  3.71975108
   1.59515946  0.92096390 11.15925323
  -0.00000160  1.84193057 12.72413762
   1.59515946  0.92096390  2.15486668
   1.59515627  0.92096390  5.28463547
   0.00000160  1.84193057  9.59436883
 


--------------------------------------------------------------------------------------------------------


 k-point  1 :   0.0000 0.0000 0.0000  plane waves:    2895
 k-point  2 :   0.1667-0.0000 0.0000  plane waves:    2867
 k-point  3 :   0.3333 0.0000 0.0000  plane waves:    2838
 k-point  4 :   0.5000-0.0000 0.0000  plane waves:    2784
 k-point  5 :   0.1667 0.1667 0.0000  plane waves:    2851
 k-point  6 :   0.3333 0.1667 0.0000  plane waves:    2832
 k-point  7 :   0.3333 0.3333 0.0000  plane waves:    2832
 k-point  8 :   0.0000 0.0000 0.5000  plane waves:    2884
 k-point  9 :   0.1667-0.0000 0.5000  plane waves:    2882
 k-point 10 :   0.3333 0.0000 0.5000  plane waves:    2842
 k-point 11 :   0.5000-0.0000 0.5000  plane waves:    2828
 k-point 12 :   0.1667 0.1667 0.5000  plane waves:    2838
 k-point 13 :   0.3333 0.1667 0.5000  plane waves:    2834
 k-point 14 :   0.3333 0.3333 0.5000  plane waves:    2868

 maximum and minimum number of plane-waves per node :      1458     1377

 maximum number of plane-waves:      2895
 maximum index in each direction: 
   IXMAX=    5   IYMAX=    5   IZMAX=   25
   IXMIN=   -6   IYMIN=   -5   IZMIN=  -26


 parallel 3D FFT for wavefunctions:
    minimum data exchange during FFTs selected (reduces bandwidth)
 parallel 3D FFT for charge:
    minimum data exchange during FFTs selected (reduces bandwidth)


 total amount of memory used by VASP MPI-rank0    45245. kBytes
=======================================================================

   base      :      30000. kBytes
   nonl-proj :       5952. kBytes
   fftplans  :       2162. kBytes
   grid      :       3449. kBytes
   one-center:         46. kBytes
   wavefun   :       3636. kBytes
 
     INWAV:  cpu time    0.0000: real time    0.0000
 Broyden mixing: mesh for mixing (old mesh)
   NGX = 11   NGY = 11   NGZ = 51
  (NGX  = 36   NGY  = 36   NGZ  =160)
  gives a total of   6171 points

 initial charge density was supplied:
 charge density of overlapping atoms calculated
 number of electron      36.0000000 magnetization 
 keeping initial charge density in first step


--------------------------------------------------------------------------------------------------------


 Maximum index for augmentation-charges         3021 (set IRDMAX)


--------------------------------------------------------------------------------------------------------


 First call to EWALD:  gamma=   0.349
 Maximum number of real-space cells 5x 5x 1
 Maximum number of reciprocal cells 2x 2x 7

    FEWALD:  cpu time    0.0010: real time    0.0016


--------------------------------------- Iteration      1(   1)  ---------------------------------------


    POTLOK:  cpu time    0.0310: real time    0.0510
    SETDIJ:  cpu time    0.0050: real time    0.0051
     EDDAV:  cpu time    0.3030: real time    0.3076
 BZINTS: Fermi energy: 14.494038; 36.000000 electrons
         Band energy: 166.568948;  BLOECHL correction: -0.313546
       DOS:  cpu time    0.0030: real time    0.0026
    --------------------------------------------
      LOOP:  cpu time    0.3419: real time    0.3663

 eigenvalue-minimisations  :   616
 total energy-change (2. order) : 0.1998114E+03  (-0.1477277E+04)
 number of electron      36.0000000 magnetization 
 augmentation part       36.0000000 magnetization 

 Free energy of the ion-electron system (eV)
  ---------------------------------------------------
  alpha Z        PSCENC =        90.42577596
  Ewald energy   TEWEN  =     -1146.88905665
  -Hartree energ DENC   =      -535.10238363
  -exchange      EXHF   =         0.00000000
  -V(xc)+E(xc)   XCENC  =       -72.59368150
  PAW double counting   =       813.77302396     -658.68146406
  entropy T*S    EENTRO =         0.00000000
  eigenvalues    EBANDS =       166.56894786
  atomic energy  EATOM  =      1542.31022798
  Solvation  Ediel_sol  =         0.00000000
  ---------------------------------------------------
  free energy    TOTEN  =       199.81138994 eV

  energy without entropy =      199.81138994  energy(sigma->0) =      199.81138994


--------------------------------------------------------------------------------------------------------




--------------------------------------- Iteration      1(   2)  ---------------------------------------


     EDDAV:  cpu time    0.3729: real time    0.3752
 BZINTS: Fermi energy:  5.265847; 36.000000 electrons
         Band energy: -60.971815;  BLOECHL correction:  0.000000
       DOS:  cpu time    0.0010: real time    0.0009
    --------------------------------------------
      LOOP:  cpu time    0.3739: real time    0.3761

 eigenvalue-minimisations  :   826
 total energy-change (2. order) :-0.2275408E+03  (-0.2216611E+03)
 number of electron      36.0000000 magnetization 
 augmentation part       36.0000000 magnetization 

 Free energy of the ion-electron system (eV)
  ---------------------------------------------------
  alpha Z        PSCENC =        90.42577596
  Ewald energy   TEWEN  =     -1146.88905665
  -Hartree energ DENC   =      -535.10238363
  -exchange      EXHF   =         0.00000000
  -V(xc)+E(xc)   XCENC  =       -72.59368150
  PAW double counting   =       813.77302396     -658.68146406
  entropy T*S    EENTRO =         0.00000000
  eigenvalues    EBANDS =       -60.97181485
  atomic energy  EATOM  =      1542.31022798
  Solvation  Ediel_sol  =         0.00000000
  ---------------------------------------------------
  free energy    TOTEN  =       -27.72937277 eV

  energy without entropy =      -27.72937277  energy(sigma->0) =      -27.72937277


--------------------------------------------------------------------------------------------------------




--------------------------------------- Iteration      1(   3)  ---------------------------------------


     EDDAV:  cpu time    0.3729: real time    0.3738
 BZINTS: Fermi energy:  3.939927; 36.000000 electrons
         Band energy: -79.547912;  BLOECHL correction:  0.000000
       DOS:  cpu time    0.0010: real time    0.0007
    --------------------------------------------
      LOOP:  cpu time    0.3739: real time    0.3745

 eigenvalue-minimisations  :   824
 total energy-change (2. order) :-0.1857610E+02  (-0.1849193E+02)
 number of electron      36.0000000 magnetization 
 augmentation part       36.0000000 magnetization 

 Free energy of the ion-electron system (eV)
  ---------------------------------------------------
  alpha Z        PSCENC =        90.42577596
  Ewald energy   TEWEN  =     -1146.88905665
  -Hartree energ DENC   =      -535.10238363
  -exchange      EXHF   =         0.00000000
  -V(xc)+E(xc)   XCENC  =       -72.59368150
  PAW double counting   =       813.77302396     -658.68146406
  entropy T*S    EENTRO =         0.00000000
  eigenvalues    EBANDS =       -79.54791220
  atomic energy  EATOM  =      1542.31022798
  Solvation  Ediel_sol  =         0.00000000
  ---------------------------------------------------
  free energy    TOTEN  =       -46.30547012 eV

  energy without entropy =      -46.30547012  energy(sigma->0) =      -46.30547012


--------------------------------------------------------------------------------------------------------




--------------------------------------- Iteration      1(   4)  ---------------------------------------


     EDDAV:  cpu time    0.3909: real time    0.3934
 BZINTS: Fermi energy:  3.903166; 36.000000 electrons
         Band energy: -80.045540;  BLOECHL correction:  0.000000
       DOS:  cpu time    0.0010: real time    0.0007
    --------------------------------------------
      LOOP:  cpu time    0.3919: real time    0.3941

 eigenvalue-minimisations  :   854
 total energy-change (2. order) :-0.4976283E+00  (-0.4969375E+00)
 number of electron      36.0000000 magnetization 
 augmentation part       36.0000000 magnetization 

 Free energy of the ion-electron system (eV)
  ---------------------------------------------------
  alpha Z        PSCENC =        90.42577596
  Ewald energy   TEWEN  =     -1146.88905665
  -Hartree energ DENC   =      -535.10238363
  -exchange      EXHF   =         0.00000000
  -V(xc)+E(xc)   XCENC  =       -72.59368150
  PAW double counting   =       813.77302396     -658.68146406
  entropy T*S    EENTRO =         0.00000000
  eigenvalues    EBANDS =       -80.04554048
  atomic energy  EATOM  =      1542.31022798
  Solvation  Ediel_sol  =         0.00000000
  ---------------------------------------------------
  free energy    TOTEN  =       -46.80309840 eV

  energy without entropy =      -46.80309840  energy(sigma->0) =      -46.80309840


--------------------------------------------------------------------------------------------------------




--------------------------------------- Iteration      1(   5)  ---------------------------------------


     EDDAV:  cpu time    0.3729: real time    0.3737
 BZINTS: Fermi energy:  3.900487; 36.000000 electrons
         Band energy: -80.058256;  BLOECHL correction:  0.000000
       DOS:  cpu time    0.0000: real time    0.0007
    CHARGE:  cpu time    0.0270: real time    0.0272
    MIXING:  cpu time    0.0020: real time    0.0013
    --------------------------------------------
      LOOP:  cpu time    0.4019: real time    0.4030

 eigenvalue-minimisations  :   828
 total energy-change (2. order) :-0.1271539E-01  (-0.1271167E-01)
 number of electron      36.0000009 magnetization 
 augmentation part       -1.8900615 magnetization 

 Broyden mixing:
  rms(total) = 0.97306E+00    rms(broyden)= 0.97305E+00
  rms(prec ) = 0.12176E+01
  weight for this iteration     100.00

 Free energy of the ion-electron system (eV)
  ---------------------------------------------------
  alpha Z        PSCENC =        90.42577596
  Ewald energy   TEWEN  =     -1146.88905665
  -Hartree energ DENC   =      -535.10238363
  -exchange      EXHF   =         0.00000000
  -V(xc)+E(xc)   XCENC  =       -72.59368150
  PAW double counting   =       813.77302396     -658.68146406
  entropy T*S    EENTRO =         0.00000000
  eigenvalues    EBANDS =       -80.05825587
  atomic energy  EATOM  =      1542.31022798
  Solvation  Ediel_sol  =         0.00000000
  ---------------------------------------------------
  free energy    TOTEN  =       -46.81581379 eV

  energy without entropy =      -46.81581379  energy(sigma->0) =      -46.81581379


--------------------------------------------------------------------------------------------------------




--------------------------------------- Iteration      1(   6)  ---------------------------------------


    POTLOK:  cpu time    0.0270: real time    0.0280
    SETDIJ:  cpu time    0.0040: real time    0.0043
    EDDIAG:  cpu time    0.0640: real time    0.0640
  RMM-DIIS:  cpu time    0.2530: real time    0.2531
    ORTHCH:  cpu time    0.0070: real time    0.0071
 BZINTS: Fermi energy:  2.910128; 36.000000 electrons
         Band energy: -79.157096;  BLOECHL correction:  0.000000
       DOS:  cpu time    0.0010: real time    0.0007
    CHARGE:  cpu time    0.0270: real time    0.0270
    MIXING:  cpu time    0.0010: real time    0.0009
    --------------------------------------------
      LOOP:  cpu time    0.3839: real time    0.3850

 eigenvalue-minimisations  :   689
 total energy-change (2. order) : 0.2380770E+01  (-0.2444416E+01)
 number of electron      36.0000006 magnetization 
 augmentation part       -0.8611029 magnetization 

 Broyden mixing:
  rms(total) = 0.33636E+00    rms(broyden)= 0.33635E+00
  rms(prec ) = 0.49264E+00
  weight for this iteration     100.00

 eigenvalues of (default mixing * dielectric matrix)
  average eigenvalue GAMMA=   0.8738
  0.8738

 Free energy of the ion-electron system (eV)
  ---------------------------------------------------
  alpha Z        PSCENC =        90.42577596
  Ewald energy   TEWEN  =     -1146.88905665
  -Hartree energ DENC   =      -533.61242363
  -exchange      EXHF   =         0.00000000
  -V(xc)+E(xc)   XCENC  =       -70.82528706
  PAW double counting   =       847.88409404     -694.57127886
  entropy T*S    EENTRO =         0.00000000
  eigenvalues    EBANDS =       -79.15709583
  atomic energy  EATOM  =      1542.31022798
  Solvation  Ediel_sol  =         0.00000000
  ---------------------------------------------------
  free energy    TOTEN  =       -44.43504404 eV

  energy without entropy =      -44.43504404  energy(sigma->0) =      -44.43504404


--------------------------------------------------------------------------------------------------------




--------------------------------------- Iteration      1(   7)  ---------------------------------------


    POTLOK:  cpu time    0.0270: real time    0.0305
    SETDIJ:  cpu time    0.0050: real time    0.0044
    EDDIAG:  cpu time    0.0640: real time    0.0641
  RMM-DIIS:  cpu time    0.2560: real time    0.2558
    ORTHCH:  cpu time    0.0060: real time    0.0071
 BZINTS: Fermi energy:  3.208032; 36.000000 electrons
         Band energy: -73.403454;  BLOECHL correction:  0.000000
       DOS:  cpu time    0.0010: real time    0.0007
    CHARGE:  cpu time    0.0270: real time    0.0269
    MIXING:  cpu time    0.0010: real time    0.0009
    --------------------------------------------
      LOOP:  cpu time    0.3869: real time    0.3904

 eigenvalue-minimisations  :   686
 total energy-change (2. order) : 0.7401857E+00  (-0.1953303E+00)
 number of electron      36.0000007 magnetization 
 augmentation part       -1.1126665 magnetization 

 Broyden mixing:
  rms(total) = 0.17917E+00    rms(broyden)= 0.17917E+00
  rms(prec ) = 0.21396E+00
  weight for this iteration     100.00

 eigenvalues of (default mixing * dielectric matrix)
  average eigenvalue GAMMA=   1.4188
  0.7588  2.0789

 Free energy of the ion-electron system (eV)
  ---------------------------------------------------
  alpha Z        PSCENC =        90.42577596
  Ewald energy   TEWEN  =     -1146.88905665
  -Hartree energ DENC   =      -537.93764138
  -exchange      EXHF   =         0.00000000
  -V(xc)+E(xc)   XCENC  =       -71.01788644
  PAW double counting   =       881.26936016     -728.45218437
  entropy T*S    EENTRO =         0.00000000
  eigenvalues    EBANDS =       -73.40345363
  atomic energy  EATOM  =      1542.31022798
  Solvation  Ediel_sol  =         0.00000000
  ---------------------------------------------------
  free energy    TOTEN  =       -43.69485836 eV

  energy without entropy =      -43.69485836  energy(sigma->0) =      -43.69485836


--------------------------------------------------------------------------------------------------------




--------------------------------------- Iteration      1(   8)  ---------------------------------------


    POTLOK:  cpu time    0.0270: real time    0.0270
    SETDIJ:  cpu time    0.0050: real time    0.0043
    EDDIAG:  cpu time    0.0620: real time    0.0632
  RMM-DIIS:  cpu time    0.2610: real time    0.2604
    ORTHCH:  cpu time    0.0070: real time    0.0071
 BZINTS: Fermi energy:  3.370466; 36.000000 electrons
         Band energy: -68.418230;  BLOECHL correction:  0.000000
       DOS:  cpu time    0.0010: real time    0.0007
    CHARGE:  cpu time    0.0270: real time    0.0269
    MIXING:  cpu time    0.0010: real time    0.0015
    --------------------------------------------
      LOOP:  cpu time    0.3909: real time    0.3912

 eigenvalue-minimisations  :   701
 total energy-change (2. order) : 0.6465911E-01  (-0.8979233E-01)
 number of electron      36.0000007 magnetization 
 augmentation part       -1.1695323 magnetization 

 Broyden mixing:
  rms(total) = 0.82575E-01    rms(broyden)= 0.82574E-01
  rms(prec ) = 0.11075E+00
  weight for this iteration     100.00

 eigenvalues of (default mixing * dielectric matrix)
  average eigenvalue GAMMA=   1.4904
  2.0581  1.5973  0.8160

 Free energy of the ion-electron system (eV)
  ---------------------------------------------------
  alpha Z        PSCENC =        90.42577596
  Ewald energy   TEWEN  =     -1146.88905665
  -Hartree energ DENC   =      -542.25192343
  -exchange      EXHF   =         0.00000000
  -V(xc)+E(xc)   XCENC  =       -70.63042813
  PAW double counting   =       932.22707732     -780.40364188
  entropy T*S    EENTRO =         0.00000000
  eigenvalues    EBANDS =       -68.41823042
  atomic energy  EATOM  =      1542.31022798
  Solvation  Ediel_sol  =         0.00000000
  ---------------------------------------------------
  free energy    TOTEN  =       -43.63019925 eV

  energy without entropy =      -43.63019925  energy(sigma->0) =      -43.63019925


--------------------------------------------------------------------------------------------------------




--------------------------------------- Iteration      1(   9)  ---------------------------------------


    POTLOK:  cpu time    0.0270: real time    0.0270
    SETDIJ:  cpu time    0.0040: real time    0.0043
    EDDIAG:  cpu time    0.0630: real time    0.0632
  RMM-DIIS:  cpu time    0.2660: real time    0.2652
    ORTHCH:  cpu time    0.0070: real time    0.0071
 BZINTS: Fermi energy:  3.238615; 36.000000 electrons
         Band energy: -68.925017;  BLOECHL correction:  0.000000
       DOS:  cpu time    0.0010: real time    0.0008
    CHARGE:  cpu time    0.0260: real time    0.0268
    MIXING:  cpu time    0.0010: real time    0.0010
    --------------------------------------------
      LOOP:  cpu time    0.3949: real time    0.3953

 eigenvalue-minimisations  :   722
 total energy-change (2. order) : 0.9876234E-02  (-0.3002342E-01)
 number of electron      36.0000007 magnetization 
 augmentation part       -1.0434312 magnetization 

 Broyden mixing:
  rms(total) = 0.57999E-01    rms(broyden)= 0.57998E-01
  rms(prec ) = 0.81234E-01
  weight for this iteration     100.00

 eigenvalues of (default mixing * dielectric matrix)
  average eigenvalue GAMMA=   1.5371
  2.3293  1.9867  0.9162  0.9162

 Free energy of the ion-electron system (eV)
  ---------------------------------------------------
  alpha Z        PSCENC =        90.42577596
  Ewald energy   TEWEN  =     -1146.88905665
  -Hartree energ DENC   =      -541.82964976
  -exchange      EXHF   =         0.00000000
  -V(xc)+E(xc)   XCENC  =       -70.37265479
  PAW double counting   =       938.38761264     -786.72756169
  entropy T*S    EENTRO =         0.00000000
  eigenvalues    EBANDS =       -68.92501671
  atomic energy  EATOM  =      1542.31022798
  Solvation  Ediel_sol  =         0.00000000
  ---------------------------------------------------
  free energy    TOTEN  =       -43.62032301 eV

  energy without entropy =      -43.62032301  energy(sigma->0) =      -43.62032301


--------------------------------------------------------------------------------------------------------




--------------------------------------- Iteration      1(  10)  ---------------------------------------


    POTLOK:  cpu time    0.0280: real time    0.0304
    SETDIJ:  cpu time    0.0040: real time    0.0044
    EDDIAG:  cpu time    0.0650: real time    0.0648
  RMM-DIIS:  cpu time    0.2750: real time    0.2747
    ORTHCH:  cpu time    0.0070: real time    0.0070
 BZINTS: Fermi energy:  3.366021; 36.000000 electrons
         Band energy: -67.964022;  BLOECHL correction:  0.000000
       DOS:  cpu time    0.0000: real time    0.0008
    CHARGE:  cpu time    0.0270: real time    0.0269
    MIXING:  cpu time    0.0020: real time    0.0010
    --------------------------------------------
      LOOP:  cpu time    0.4079: real time    0.4100

 eigenvalue-minimisations  :   734
 total energy-change (2. order) : 0.1676484E-01  (-0.7337556E-02)
 number of electron      36.0000007 magnetization 
 augmentation part       -1.1075169 magnetization 

 Broyden mixing:
  rms(total) = 0.91824E-02    rms(broyden)= 0.91819E-02
  rms(prec ) = 0.11924E-01
  weight for this iteration     100.00

 eigenvalues of (default mixing * dielectric matrix)
  average eigenvalue GAMMA=   1.4272
  2.4445  1.6649  0.8832  0.8832  1.2602

 Free energy of the ion-electron system (eV)
  ---------------------------------------------------
  alpha Z        PSCENC =        90.42577596
  Ewald energy   TEWEN  =     -1146.88905665
  -Hartree energ DENC   =      -542.67077815
  -exchange      EXHF   =         0.00000000
  -V(xc)+E(xc)   XCENC  =       -70.42750012
  PAW double counting   =       944.70513991     -793.09334471
  entropy T*S    EENTRO =         0.00000000
  eigenvalues    EBANDS =       -67.96402241
  atomic energy  EATOM  =      1542.31022798
  Solvation  Ediel_sol  =         0.00000000
  ---------------------------------------------------
  free energy    TOTEN  =       -43.60355817 eV

  energy without entropy =      -43.60355817  energy(sigma->0) =      -43.60355817


--------------------------------------------------------------------------------------------------------




--------------------------------------- Iteration      1(  11)  ---------------------------------------


    POTLOK:  cpu time    0.0260: real time    0.0268
    SETDIJ:  cpu time    0.0050: real time    0.0043
    EDDIAG:  cpu time    0.0620: real time    0.0629
  RMM-DIIS:  cpu time    0.2790: real time    0.2778
    ORTHCH:  cpu time    0.0060: real time    0.0070
 BZINTS: Fermi energy:  3.361483; 36.000000 electrons
         Band energy: -67.877222;  BLOECHL correction:  0.000000
       DOS:  cpu time    0.0010: real time    0.0008
    CHARGE:  cpu time    0.0270: real time    0.0268
    MIXING:  cpu time    0.0010: real time    0.0011
    --------------------------------------------
      LOOP:  cpu time    0.4069: real time    0.4075

 eigenvalue-minimisations  :   767
 total energy-change (2. order) : 0.1241050E-03  (-0.3113448E-03)
 number of electron      36.0000007 magnetization 
 augmentation part       -1.1006081 magnetization 

 Broyden mixing:
  rms(total) = 0.29596E-02    rms(broyden)= 0.29595E-02
  rms(prec ) = 0.35536E-02
  weight for this iteration     100.00

 eigenvalues of (default mixing * dielectric matrix)
  average eigenvalue GAMMA=   1.6897
  3.1100  2.4814  1.8276  0.8986  0.8986  0.9218

 Free energy of the ion-electron system (eV)
  ---------------------------------------------------
  alpha Z        PSCENC =        90.42577596
  Ewald energy   TEWEN  =     -1146.88905665
  -Hartree energ DENC   =      -542.77850742
  -exchange      EXHF   =         0.00000000
  -V(xc)+E(xc)   XCENC  =       -70.40194420
  PAW double counting   =       944.70608970     -793.09879719
  entropy T*S    EENTRO =         0.00000000
  eigenvalues    EBANDS =       -67.87722226
  atomic energy  EATOM  =      1542.31022798
  Solvation  Ediel_sol  =         0.00000000
  ---------------------------------------------------
  free energy    TOTEN  =       -43.60343407 eV

  energy without entropy =      -43.60343407  energy(sigma->0) =      -43.60343407


--------------------------------------------------------------------------------------------------------




--------------------------------------- Iteration      1(  12)  ---------------------------------------


    POTLOK:  cpu time    0.0270: real time    0.0268
    SETDIJ:  cpu time    0.0040: real time    0.0043
    EDDIAG:  cpu time    0.0630: real time    0.0630
  RMM-DIIS:  cpu time    0.2820: real time    0.2813
    ORTHCH:  cpu time    0.0060: real time    0.0070
 BZINTS: Fermi energy:  3.296644; 36.000000 electrons
         Band energy: -67.703802;  BLOECHL correction:  0.000000
       DOS:  cpu time    0.0010: real time    0.0007
    CHARGE:  cpu time    0.0270: real time    0.0268
    MIXING:  cpu time    0.0010: real time    0.0011
    --------------------------------------------
      LOOP:  cpu time    0.4109: real time    0.4110

 eigenvalue-minimisations  :   779
 total energy-change (2. order) :-0.1500671E-03  (-0.5993879E-04)
 number of electron      36.0000007 magnetization 
 augmentation part       -1.0982489 magnetization 

 Broyden mixing:
  rms(total) = 0.19754E-02    rms(broyden)= 0.19753E-02
  rms(prec ) = 0.24898E-02
  weight for this iteration     100.00

 eigenvalues of (default mixing * dielectric matrix)
  average eigenvalue GAMMA=   1.5680
  2.8964  2.3959  1.4979  1.4979  0.9001  0.9001  0.8878

 Free energy of the ion-electron system (eV)
  ---------------------------------------------------
  alpha Z        PSCENC =        90.42577596
  Ewald energy   TEWEN  =     -1146.88905665
  -Hartree energ DENC   =      -542.97623261
  -exchange      EXHF   =         0.00000000
  -V(xc)+E(xc)   XCENC  =       -70.39069016
  PAW double counting   =       944.39543176     -792.77523834
  entropy T*S    EENTRO =         0.00000000
  eigenvalues    EBANDS =       -67.70380208
  atomic energy  EATOM  =      1542.31022798
  Solvation  Ediel_sol  =         0.00000000
  ---------------------------------------------------
  free energy    TOTEN  =       -43.60358414 eV

  energy without entropy =      -43.60358414  energy(sigma->0) =      -43.60358414


--------------------------------------------------------------------------------------------------------




--------------------------------------- Iteration      1(  13)  ---------------------------------------


    POTLOK:  cpu time    0.0270: real time    0.0300
    SETDIJ:  cpu time    0.0050: real time    0.0044
    EDDIAG:  cpu time    0.0640: real time    0.0641
  RMM-DIIS:  cpu time    0.2770: real time    0.2767
    ORTHCH:  cpu time    0.0060: real time    0.0071
 BZINTS: Fermi energy:  3.366425; 36.000000 electrons
         Band energy: -67.707833;  BLOECHL correction:  0.000000
       DOS:  cpu time    0.0010: real time    0.0008
    CHARGE:  cpu time    0.0270: real time    0.0268
    MIXING:  cpu time    0.0020: real time    0.0012
    --------------------------------------------
      LOOP:  cpu time    0.4089: real time    0.4111

 eigenvalue-minimisations  :   764
 total energy-change (2. order) : 0.4694606E-05  (-0.2018233E-04)
 number of electron      36.0000007 magnetization 
 augmentation part       -1.1007537 magnetization 

 Broyden mixing:
  rms(total) = 0.98801E-03    rms(broyden)= 0.98799E-03
  rms(prec ) = 0.13163E-02
  weight for this iteration     100.00

 eigenvalues of (default mixing * dielectric matrix)
  average eigenvalue GAMMA=   1.7196
  3.2326  2.5562  2.5562  1.6324  0.8907  0.8907  1.1124  0.8858

 Free energy of the ion-electron system (eV)
  ---------------------------------------------------
  alpha Z        PSCENC =        90.42577596
  Ewald energy   TEWEN  =     -1146.88905665
  -Hartree energ DENC   =      -542.96747444
  -exchange      EXHF   =         0.00000000
  -V(xc)+E(xc)   XCENC  =       -70.39405719
  PAW double counting   =       944.52479743     -792.90595912
  entropy T*S    EENTRO =         0.00000000
  eigenvalues    EBANDS =       -67.70783342
  atomic energy  EATOM  =      1542.31022798
  Solvation  Ediel_sol  =         0.00000000
  ---------------------------------------------------
  free energy    TOTEN  =       -43.60357944 eV

  energy without entropy =      -43.60357944  energy(sigma->0) =      -43.60357944


--------------------------------------------------------------------------------------------------------




--------------------------------------- Iteration      1(  14)  ---------------------------------------


    POTLOK:  cpu time    0.0260: real time    0.0267
    SETDIJ:  cpu time    0.0040: real time    0.0043
    EDDIAG:  cpu time    0.0630: real time    0.0629
  RMM-DIIS:  cpu time    0.1900: real time    0.1897
    ORTHCH:  cpu time    0.0070: real time    0.0070
 BZINTS: Fermi energy:  3.365468; 36.000000 electrons
         Band energy: -67.722495;  BLOECHL correction:  0.000000
       DOS:  cpu time    0.0000: real time    0.0008
    --------------------------------------------
      LOOP:  cpu time    0.2900: real time    0.2914

 eigenvalue-minimisations  :   491
 total energy-change (2. order) : 0.2414882E-05  (-0.1918538E-05)
 number of electron      36.0000007 magnetization 
 augmentation part       -1.1007537 magnetization 

 Free energy of the ion-electron system (eV)
  ---------------------------------------------------
  alpha Z        PSCENC =        90.42577596
  Ewald energy   TEWEN  =     -1146.88905665
  -Hartree energ DENC   =      -542.95386558
  -exchange      EXHF   =         0.00000000
  -V(xc)+E(xc)   XCENC  =       -70.39286755
  PAW double counting   =       944.40824179     -792.78953774
  entropy T*S    EENTRO =         0.00000000
  eigenvalues    EBANDS =       -67.72249525
  atomic energy  EATOM  =      1542.31022798
  Solvation  Ediel_sol  =         0.00000000
  ---------------------------------------------------
  free energy    TOTEN  =       -43.60357703 eV

  energy without entropy =      -43.60357703  energy(sigma->0) =      -43.60357703


--------------------------------------------------------------------------------------------------------




 average (electrostatic) potential at core
  the test charge radii are     1.2296  0.9698
  (the norm of the test charge is              1.0000)
       1 -40.3306       2 -40.3306       3 -88.1709       4 -88.1709       5 -88.1709
       6 -88.1709
 
 
 
 E-fermi :   3.3655     XC(G=0):  -9.3247     alpha+bet : -9.6368


 k-point     1 :       0.0000    0.0000    0.0000
  band No.  band energies     occupation 
      1     -10.9300      2.00000
      2     -10.9110      2.00000
      3      -9.7295      2.00000
      4      -9.6955      2.00000
      5      -2.5231      2.00000
      6      -2.3616      2.00000
      7       0.5210      2.00000
      8       0.5210      2.00000
      9       0.5215      2.00000
     10       0.5215      2.00000
     11       1.1060      2.00000
     12       1.6249      2.00000
     13       1.6249      2.00000
     14       1.6268      2.00000
     15       1.6269      2.00000
     16       1.6745      2.00000
     17       2.9225      2.00000
     18       3.2984      2.00000
     19       5.8751      0.00000
     20       5.9126      0.00000
     21       6.0171      0.00000
     22       6.0858      0.00000

 k-point     2 :       0.1667   -0.0000    0.0000
  band No.  band energies     occupation 
      1     -10.5571      2.00000
      2     -10.5390      2.00000
      3      -9.5495      2.00000
      4      -9.5200      2.00000
      5      -2.1182      2.00000
      6      -1.9645      2.00000
      7      -0.2220      2.00000
      8      -0.2148      2.00000
      9       0.1576      2.00000
     10       0.3286      2.00000
     11       0.9239      2.00000
     12       0.9257      2.00000
     13       1.0823      2.00000
     14       1.0852      2.00000
     15       1.9242      2.00000
     16       2.1955      2.00000
     17       2.7361      2.00000
     18       2.8958      2.00000
     19       5.2888      0.00000
     20       5.5622      0.00000
     21       5.6836      0.00000
     22       5.7160      0.00000

 k-point     3 :       0.3333    0.0000    0.0000
  band No.  band energies     occupation 
      1      -9.6818      2.00000
      2      -9.6679      2.00000
      3      -9.1371      2.00000
      4      -9.1192      2.00000
      5      -2.0931      2.00000
      6      -2.0460      2.00000
      7      -1.0503      2.00000
      8      -0.9931      2.00000
      9      -0.8123      2.00000
     10      -0.7265      2.00000
     11       0.2916      2.00000
     12       0.2954      2.00000
     13       1.4371      2.00000
     14       1.5785      2.00000
     15       1.7598      2.00000
     16       1.7664      2.00000
     17       2.1305      2.00000
     18       2.1760      2.00000
     19       5.2837      0.00000
     20       5.2955      0.00000
     21       5.3041      0.00000
     22       5.5440      0.00000

 k-point     4 :       0.5000   -0.0000    0.0000
  band No.  band energies     occupation 
      1      -9.1374      2.00000
      2      -9.1309      2.00000
      3      -8.8927      2.00000
      4      -8.8862      2.00000
      5      -2.6133      2.00000
      6      -2.5863      2.00000
      7      -1.6526      2.00000
      8      -1.6281      2.00000
      9      -0.9676      2.00000
     10      -0.8918      2.00000
     11      -0.0248      2.00000
     12      -0.0207      2.00000
     13       1.2470      2.00000
     14       1.2664      2.00000
     15       2.1534      2.00000
     16       2.1655      2.00000
     17       2.4779      2.00000
     18       2.4817      2.00000
     19       5.2865      0.00000
     20       5.2903      0.00000
     21       5.7748      0.00000
     22       5.8308      0.00000

 k-point     5 :       0.1667    0.1667    0.0000
  band No.  band energies     occupation 
      1      -9.9250      2.00000
      2      -9.9093      2.00000
      3      -9.2458      2.00000
      4      -9.2242      2.00000
      5      -1.8130      2.00000
      6      -1.7280      2.00000
      7      -0.7021      2.00000
      8      -0.6510      2.00000
      9      -0.5290      2.00000
     10      -0.4850      2.00000
     11      -0.0823      2.00000
     12       0.0123      2.00000
     13       1.1636      2.00000
     14       1.1643      2.00000
     15       2.0164      2.00000
     16       2.1324      2.00000
     17       2.3237      2.00000
     18       2.3368      2.00000
     19       4.9111      0.00000
     20       5.1535      0.00000
     21       5.5518      0.00000
     22       5.6744      0.00000

 k-point     6 :       0.3333    0.1667    0.0000
  band No.  band energies     occupation 
      1      -9.1610      2.00000
      2      -9.1528      2.00000
      3      -8.8806      2.00000
      4      -8.8714      2.00000
      5      -2.1577      2.00000
      6      -2.1304      2.00000
      7      -1.7263      2.00000
      8      -1.7202      2.00000
      9      -0.7282      2.00000
     10      -0.6656      2.00000
     11      -0.1005      2.00000
     12      -0.0349      2.00000
     13       0.7644      2.00000
     14       0.7856      2.00000
     15       1.3944      2.00000
     16       1.4253      2.00000
     17       2.6196      2.00000
     18       2.6351      2.00000
     19       5.2331      0.00000
     20       5.3308      0.00000
     21       5.8182      0.00000
     22       5.9567      0.00000

 k-point     7 :       0.3333    0.3333    0.0000
  band No.  band energies     occupation 
      1      -8.8836      2.00000
      2      -8.8836      2.00000
      3      -8.7238      2.00000
      4      -8.7238      2.00000
      5      -2.2359      2.00000
      6      -2.2233      2.00000
      7      -1.4215      2.00000
      8      -1.4215      2.00000
      9      -0.9379      2.00000
     10      -0.9152      2.00000
     11      -0.4374      2.00000
     12      -0.4374      2.00000
     13       0.2415      2.00000
     14       0.2415      2.00000
     15       0.9735      2.00000
     16       0.9735      2.00000
     17       3.0903      2.00000
     18       3.1097      2.00000
     19       4.7586      0.00000
     20       4.7586      0.00000
     21       6.0488      0.00000
     22       6.2301      0.00000

 k-point     8 :       0.0000    0.0000    0.5000
  band No.  band energies     occupation 
      1     -10.9206      2.00000
      2     -10.9206      2.00000
      3      -9.7124      2.00000
      4      -9.7124      2.00000
      5      -2.4451      2.00000
      6      -2.4451      2.00000
      7       0.5212      2.00000
      8       0.5212      2.00000
      9       0.5213      2.00000
     10       0.5213      2.00000
     11       1.3628      2.00000
     12       1.3628      2.00000
     13       1.6259      2.00000
     14       1.6259      2.00000
     15       1.6259      2.00000
     16       1.6259      2.00000
     17       3.1411      2.00000
     18       3.1411      2.00000
     19       5.8749      0.00000
     20       5.8869      0.00000
     21       5.8933      0.00000
     22       6.0359      0.00000

 k-point     9 :       0.1667   -0.0000    0.5000
  band No.  band energies     occupation 
      1     -10.5482      2.00000
      2     -10.5482      2.00000
      3      -9.5347      2.00000
      4      -9.5347      2.00000
      5      -2.0445      2.00000
      6      -2.0445      2.00000
      7      -0.2192      2.00000
      8      -0.2192      2.00000
      9       0.2491      2.00000
     10       0.2491      2.00000
     11       0.9248      2.00000
     12       0.9248      2.00000
     13       1.0838      2.00000
     14       1.0838      2.00000
     15       2.0379      2.00000
     16       2.0379      2.00000
     17       2.8344      2.00000
     18       2.8344      2.00000
     19       5.3926      0.00000
     20       5.4025      0.00000
     21       5.7095      0.00000
     22       5.7176      0.00000

 k-point    10 :       0.3333    0.0000    0.5000
  band No.  band energies     occupation 
      1      -9.6749      2.00000
      2      -9.6749      2.00000
      3      -9.1280      2.00000
      4      -9.1280      2.00000
      5      -2.0699      2.00000
      6      -2.0699      2.00000
      7      -1.0264      2.00000
      8      -1.0264      2.00000
      9      -0.7644      2.00000
     10      -0.7644      2.00000
     11       0.2935      2.00000
     12       0.2935      2.00000
     13       1.5046      2.00000
     14       1.5046      2.00000
     15       1.7631      2.00000
     16       1.7631      2.00000
     17       2.1560      2.00000
     18       2.1560      2.00000
     19       5.2893      0.00000
     20       5.2894      0.00000
     21       5.4136      0.00000
     22       5.4137      0.00000

 k-point    11 :       0.5000   -0.0000    0.5000
  band No.  band energies     occupation 
      1      -9.1342      2.00000
      2      -9.1342      2.00000
      3      -8.8894      2.00000
      4      -8.8894      2.00000
      5      -2.5999      2.00000
      6      -2.5999      2.00000
      7      -1.6413      2.00000
      8      -1.6413      2.00000
      9      -0.9288      2.00000
     10      -0.9288      2.00000
     11      -0.0228      2.00000
     12      -0.0228      2.00000
     13       1.2565      2.00000
     14       1.2565      2.00000
     15       2.1595      2.00000
     16       2.1595      2.00000
     17       2.4798      2.00000
     18       2.4799      2.00000
     19       5.2884      0.00000
     20       5.2884      0.00000
     21       5.8025      0.00000
     22       5.8060      0.00000

 k-point    12 :       0.1667    0.1667    0.5000
  band No.  band energies     occupation 
      1      -9.9173      2.00000
      2      -9.9173      2.00000
      3      -9.2348      2.00000
      4      -9.2348      2.00000
      5      -1.7714      2.00000
      6      -1.7714      2.00000
      7      -0.6840      2.00000
      8      -0.6840      2.00000
      9      -0.5001      2.00000
     10      -0.5001      2.00000
     11      -0.0329      2.00000
     12      -0.0329      2.00000
     13       1.1639      2.00000
     14       1.1640      2.00000
     15       2.0701      2.00000
     16       2.0701      2.00000
     17       2.3321      2.00000
     18       2.3321      2.00000
     19       5.0282      0.00000
     20       5.0287      0.00000
     21       5.5512      0.00000
     22       5.7491      0.00000

 k-point    13 :       0.3333    0.1667    0.5000
  band No.  band energies     occupation 
      1      -9.1570      2.00000
      2      -9.1570      2.00000
      3      -8.8759      2.00000
      4      -8.8759      2.00000
      5      -2.1442      2.00000
      6      -2.1442      2.00000
      7      -1.7233      2.00000
      8      -1.7233      2.00000
      9      -0.6987      2.00000
     10      -0.6986      2.00000
     11      -0.0654      2.00000
     12      -0.0654      2.00000
     13       0.7751      2.00000
     14       0.7751      2.00000
     15       1.4090      2.00000
     16       1.4090      2.00000
     17       2.6275      2.00000
     18       2.6275      2.00000
     19       5.2824      0.00000
     20       5.2824      0.00000
     21       5.8356      0.00000
     22       5.8446      0.00000

 k-point    14 :       0.3333    0.3333    0.5000
  band No.  band energies     occupation 
      1      -8.8836      2.00000
      2      -8.8836      2.00000
      3      -8.7238      2.00000
      4      -8.7238      2.00000
      5      -2.2297      2.00000
      6      -2.2297      2.00000
      7      -1.4211      2.00000
      8      -1.4211      2.00000
      9      -0.9265      2.00000
     10      -0.9265      2.00000
     11      -0.4401      2.00000
     12      -0.4401      2.00000
     13       0.2463      2.00000
     14       0.2463      2.00000
     15       0.9708      2.00000
     16       0.9708      2.00000
     17       3.0999      2.00000
     18       3.0999      2.00000
     19       4.7586      0.00000
     20       4.7586      0.00000
     21       6.1366      0.00000
     22       6.1395      0.00000


--------------------------------------------------------------------------------------------------------


 soft charge-density along one line, spin component           1
         0         1         2         3         4         5         6         7         8         9
 total charge-density along one line
 
 pseudopotential strength for first ion, spin component:           1
 -8.237  -0.000   0.000   0.000   0.000  -0.074   0.000  -0.000
 -0.000  -8.239   0.000  -0.000  -0.000   0.000  -0.074  -0.000
  0.000   0.000  -8.218  -0.000  -0.000  -0.000  -0.000  -0.075
  0.000  -0.000  -0.000  -8.239  -0.000  -0.000   0.000   0.000
  0.000  -0.000  -0.000  -0.000  -8.237  -0.000   0.000   0.000
 -0.074   0.000  -0.000  -0.000  -0.000   0.112  -0.000   0.000
  0.000  -0.074  -0.000   0.000   0.000  -0.000   0.112   0.000
 -0.000  -0.000  -0.075   0.000   0.000   0.000   0.000   0.112
 -0.000   0.000   0.000  -0.074   0.000   0.000  -0.000  -0.000
 -0.000   0.000   0.000   0.000  -0.074   0.000  -0.000  -0.000
  0.000  -0.000  -0.004   0.000  -0.000  -0.000   0.000   0.000
 -0.000   0.000   0.001  -0.000   0.000   0.000  -0.000  -0.000
 -0.000   0.000  -0.000  -0.000  -0.007   0.000  -0.000   0.000
 -0.000   0.000   0.000  -0.000  -0.000  -0.000  -0.000  -0.000
 -0.007  -0.000   0.000   0.000  -0.000  -0.000  -0.000  -0.000
  0.000  -0.000   0.000   0.000   0.004  -0.000   0.000  -0.000
  0.000  -0.000  -0.000   0.000   0.000  -0.000   0.000   0.000
  0.004   0.000  -0.000  -0.000   0.000   0.000  -0.000   0.000
 total augmentation occupancy for first ion, spin component:           1
  0.966   0.000  -0.000  -0.000  -0.000   0.601   0.000  -0.000  -0.000  -0.000  -0.000   0.000   0.000   0.000  -0.065  -0.000
  0.000   0.906  -0.000   0.000   0.000  -0.000   0.840   0.000   0.000   0.000  -0.000  -0.000  -0.000  -0.000   0.000   0.000
 -0.000  -0.000   1.028  -0.000   0.000  -0.000   0.000   0.502  -0.000   0.000   0.112  -0.018  -0.000   0.000   0.000   0.000
 -0.000   0.000   0.000   0.906   0.000   0.000   0.000   0.000   0.840  -0.000   0.000  -0.000   0.000   0.000  -0.000   0.000
 -0.000   0.000   0.000   0.000   0.966  -0.000   0.000   0.000  -0.000   0.601   0.000  -0.000  -0.065  -0.000  -0.000   0.007
  0.601  -0.000  -0.000   0.000  -0.000   0.679   0.000  -0.000   0.000  -0.000   0.000  -0.000   0.000  -0.000  -0.136  -0.000
 -0.000   0.840   0.000   0.000  -0.000   0.000   1.081  -0.000   0.000   0.000   0.000   0.000   0.000   0.000   0.000   0.000
 -0.000  -0.000   0.502   0.000   0.000  -0.000   0.000   0.476  -0.000   0.000   0.059  -0.021  -0.000   0.000   0.000   0.000
  0.000   0.000  -0.000   0.840   0.000   0.000   0.000  -0.000   1.081  -0.000   0.000   0.000   0.000   0.000   0.000   0.000
 -0.000   0.000   0.000   0.000   0.601  -0.000   0.000   0.000   0.000   0.679   0.000  -0.000  -0.136   0.000  -0.000   0.023
 -0.000  -0.000   0.112   0.000   0.000   0.000   0.000   0.059   0.000   0.000   1.207  -0.186  -0.000   0.000   0.000   0.000
  0.000  -0.000  -0.018   0.000  -0.000  -0.000  -0.000  -0.021   0.000  -0.000  -0.186   0.042  -0.000   0.000   0.000   0.000
  0.000  -0.000  -0.000   0.000  -0.065   0.000   0.000  -0.000   0.000  -0.136   0.000   0.000   0.217   0.000   0.000  -0.032
 -0.000  -0.000   0.000   0.000  -0.000  -0.000  -0.000   0.000  -0.000   0.000   0.000   0.000  -0.000   0.264   0.000   0.000
 -0.065  -0.000   0.000   0.000  -0.000  -0.136  -0.000   0.000  -0.000  -0.000   0.000   0.000   0.000   0.000   0.217  -0.000
 -0.000   0.000   0.000   0.000   0.007  -0.000   0.000   0.000  -0.000   0.023  -0.000  -0.000  -0.032   0.000  -0.000   0.005
  0.000  -0.000   0.000   0.000  -0.000  -0.000  -0.000  -0.000  -0.000  -0.000  -0.000  -0.000   0.000  -0.038   0.000   0.000
  0.007   0.000  -0.000   0.000   0.000   0.023  -0.000  -0.000  -0.000   0.000   0.000   0.000  -0.000   0.000  -0.032   0.000


------------------------ aborting loop because EDIFF is reached ----------------------------------------


    CHARGE:  cpu time    0.0280: real time    0.0284
    FORLOC:  cpu time    0.0040: real time    0.0031
    FORNL :  cpu time    0.0850: real time    0.0852
    STRESS:  cpu time    0.2450: real time    0.2453
    FORCOR:  cpu time    0.0300: real time    0.0299
    FORHAR:  cpu time    0.0070: real time    0.0065
    MIXING:  cpu time    0.0010: real time    0.0012
    OFIELD:  cpu time    0.0000: real time    0.0000

  DFT-D2 method for vdW energy calculation
  -------------------------------------------------------------------

  Parameters of vdW forcefield:
         C6(Jnm^6/mol)     R0(A)
   -----------------------------
   Mo      24.670          1.639
   S        5.570          1.683

  IVDW =   1
  VDW_RADIUS =    50.000 A
  VDW_S6 =     0.750
  VDW_SR =     1.000
  VDW_D =    20.000
  LVDW_EWALD = F

  Number of pair interactions contributing to vdW energy:   84128
  Edisp (eV):   -1.33129
    FORVDW:  cpu time    0.0210: real time    0.0295

  FORCE on cell =-STRESS in cart. coord.  units (eV):
  Direction    XX          YY          ZZ          XY          YZ          ZX
  --------------------------------------------------------------------------------------
  Alpha Z    90.42578    90.42578    90.42578
  Ewald     -12.90873   -12.90785 -1121.07429     0.00038     0.00000     0.00025
  Hartree   466.57725   466.57726  -390.19621     0.00003    -0.00000    -0.00001
  E(xc)    -140.61109  -140.61110  -141.78813    -0.00001    -0.00000    -0.00000
  Local   -1080.54496 -1080.54562   872.56953    -0.00042    -0.00000    -0.00011
  n-local   254.33833   251.51096   263.43277    -0.48648    -0.00013    -0.00022
  augment   -51.12782   -51.12767   -53.35910     0.00014     0.00000    -0.00001
  Kinetic   472.37422   476.98264   479.51655   -14.41048     0.00063    -0.00045
  Fock        0.00000     0.00000     0.00000     0.00000     0.00000     0.00000
  vdW         0.17103     0.17103    -0.86546     0.00000     0.00000    -0.00000
  -------------------------------------------------------------------------------------
  Total      -0.41528    -0.41528    -1.33856    -0.00000     0.00000     0.00000
  in kB      -5.07318    -5.07318   -16.35223    -0.00000     0.00000     0.00000
  external pressure =       -8.83 kB  Pullay stress =        0.00 kB


 VOLUME and BASIS-vectors are now :
 -----------------------------------------------------------------------------
  energy-cutoff  :      450.00
  volume of cell :      131.15
      direct lattice vectors                 reciprocal lattice vectors
     3.190315730  0.000000000  0.000000000     0.313448600  0.180969634  0.000000000
    -1.595157865  2.762894468  0.000000000     0.000000000  0.361939267  0.000000000
     0.000000000  0.000000000 14.879004300     0.000000000  0.000000000  0.067208798

  length of vectors
     3.190315730  3.190315730 14.879004300     0.361939267  0.361939267  0.067208798


 FORCES acting on ions
    electron-ion (+dipol)            ewald-force                    non-local-force                 convergence-correction
 -----------------------------------------------------------------------------------------------
   0.473E-04 -.345E-04 -.934E-05   0.928E-04 -.107E-03 0.288E-09   0.191E-16 0.000E+00 0.424E-20   0.919E-08 -.593E-08 -.531E-09
   0.660E-04 -.309E-04 -.934E-05   -.928E-04 0.107E-03 -.288E-09   -.226E-16 0.000E+00 0.169E-20   -.152E-07 0.939E-08 -.532E-09
   0.525E-03 -.305E-03 -.242E+03   0.865E-04 -.537E-04 0.247E+03   -.139E-16 0.520E-17 -.481E+01   0.251E-08 -.382E-09 -.877E-03
   -.117E-02 0.679E-03 0.242E+03   -.865E-04 0.537E-04 -.247E+03   0.382E-16 -.520E-17 0.481E+01   -.719E-09 -.654E-09 0.877E-03
   0.523E-03 0.689E-03 -.242E+03   -.638E-05 0.537E-04 0.247E+03   0.104E-16 0.208E-16 -.481E+01   0.507E-08 0.107E-08 -.877E-03
   -.121E-02 -.292E-03 0.242E+03   0.638E-05 -.537E-04 -.247E+03   -.173E-16 -.173E-16 0.481E+01   -.926E-08 0.135E-08 0.877E-03
 -----------------------------------------------------------------------------------------------
   -.122E-02 0.706E-03 -.106E-04   -.561E-14 0.109E-13 0.284E-13   0.139E-16 0.347E-17 0.000E+00   -.839E-08 0.484E-08 -.409E-09
 
 
 POSITION                                       TOTAL-FORCE (eV/Angst)
 -----------------------------------------------------------------------------------
     -0.00000      1.84193      3.71975        -0.000000     -0.000000      0.000000
      1.59516      0.92096     11.15925         0.000000     -0.000000      0.000000
     -0.00000      1.84193     12.72414         0.000000      0.000000     -0.079658
      1.59516      0.92096      2.15487        -0.000000     -0.000000      0.079658
      1.59516      0.92096      5.28464        -0.000000     -0.000000     -0.079658
      0.00000      1.84193      9.59437         0.000000     -0.000000      0.079658
 -----------------------------------------------------------------------------------
    total drift:                               -0.001223      0.000706     -0.000011


--------------------------------------------------------------------------------------------------------



  FREE ENERGIE OF THE ION-ELECTRON SYSTEM (eV)
  ---------------------------------------------------
  free  energy   TOTEN  =       -44.93486404 eV

  energy  without entropy=      -44.93486404  energy(sigma->0) =      -44.93486404
 


--------------------------------------------------------------------------------------------------------


    POTLOK:  cpu time    0.0330: real time    0.0317


--------------------------------------------------------------------------------------------------------


     LOOP+:  cpu time    6.0371: real time    6.4989
    4ORBIT:  cpu time    0.0000: real time    0.0000
 BZINTS: Fermi energy:  3.365468; 36.000000 electrons
         Band energy: -67.722495;  BLOECHL correction:  0.000000

 total amount of memory used by VASP MPI-rank0    45245. kBytes
=======================================================================

   base      :      30000. kBytes
   nonl-proj :       5952. kBytes
   fftplans  :       2162. kBytes
   grid      :       3449. kBytes
   one-center:         46. kBytes
   wavefun   :       3636. kBytes
 
  
  
 General timing and accounting informations for this job:
 ========================================================
  
                  Total CPU time used (sec):        6.916
                            User time (sec):        6.807
                          System time (sec):        0.109
                         Elapsed time (sec):        7.839
  
                   Maximum memory used (kb):       37608.
                   Average memory used (kb):           0.
  
                          Minor page faults:         9690
                          Major page faults:          132
                 Voluntary context switches:         2425
