perl: warning: Setting locale failed.
perl: warning: Please check that your locale settings:
	LANGUAGE = (unset),
	LC_ALL = (unset),
	LC_CTYPE = "UTF-8",
	LANG = "en_US.iso885915"
    are supported and installed on your system.
perl: warning: Falling back to the standard locale ("C").
Starting job 28533280 ("jobname") on c14-15 at Fri Nov 8 12:18:00 CET 2019
 running on    4 total cores
 distrk:  each k-point on    4 cores,    1 groups
 distr:  one band on    2 cores,    2 groups
 using from now: INCAR     
 vasp.5.4.4.18Apr17-6-g9f103f2a35 (build Jun 30 2017 11:15:00) complex          
  
 POSCAR found type information on POSCAR  Mo S 
 POSCAR found :  2 types and       6 ions
 scaLAPACK will be used
 LDA part: xc-table for Pade appr. of Perdew
 POSCAR, INCAR and KPOINTS ok, starting setup
 FFT: planning ...
 WAVECAR not read
 WARNING: random wavefunctions but no delay for mixing, default for NELMDL
 entering main loop
       N       E                     dE             d eps       ncg     rms          rms(c)
DAV:   1     0.199811389943E+03    0.19981E+03   -0.14773E+04   616   0.126E+03
DAV:   2    -0.277293727748E+02   -0.22754E+03   -0.22166E+03   826   0.263E+02
DAV:   3    -0.463054701176E+02   -0.18576E+02   -0.18492E+02   824   0.755E+01
DAV:   4    -0.468030983999E+02   -0.49763E+00   -0.49694E+00   854   0.135E+01
DAV:   5    -0.468158137885E+02   -0.12715E-01   -0.12712E-01   828   0.211E+00    0.973E+00
RMM:   6    -0.444350440363E+02    0.23808E+01   -0.24444E+01   689   0.194E+01    0.336E+00
RMM:   7    -0.436948583568E+02    0.74019E+00   -0.19533E+00   686   0.557E+00    0.179E+00
RMM:   8    -0.436301992451E+02    0.64659E-01   -0.89792E-01   701   0.335E+00    0.826E-01
RMM:   9    -0.436203230111E+02    0.98762E-02   -0.30023E-01   722   0.227E+00    0.580E-01
RMM:  10    -0.436035581734E+02    0.16765E-01   -0.73376E-02   734   0.114E+00    0.918E-02
RMM:  11    -0.436034340684E+02    0.12410E-03   -0.31134E-03   767   0.240E-01    0.296E-02
RMM:  12    -0.436035841355E+02   -0.15007E-03   -0.59939E-04   779   0.116E-01    0.198E-02
RMM:  13    -0.436035794409E+02    0.46946E-05   -0.20182E-04   764   0.569E-02    0.988E-03
RMM:  14    -0.436035770260E+02    0.24149E-05   -0.19185E-05   491   0.213E-02
   1 F= -.44934864E+02 E0= -.44934864E+02  d E =0.000000E+00

Currently Loaded Modulefiles:
  1) Anaconda3/5.1.0       3) vesta/3.3.8           5) intel/2016.1
  2) gnuplot/5.0.4         4) imagemagick/6.7.9-0   6) vasp/5.4.1.Feb16

Job script resource usage:
       JobID  MaxVMSize     MaxRSS 
------------ ---------- ---------- 
28533280.ba+    216888K      2357K 

Job step resource usage:
       JobID    JobName  AllocCPUS  MaxVMSize     MaxRSS    Elapsed ExitCode 
------------ ---------- ---------- ---------- ---------- ---------- -------- 
28533280        jobname          4                         00:00:10      0:0 
28533280.0    pmi_proxy          1    279832K       526K   00:00:08      0:0 

Job 28533280 ("jobname") completed on c14-15 at Fri Nov 8 12:18:08 CET 2019
