perl: warning: Setting locale failed.
perl: warning: Please check that your locale settings:
	LANGUAGE = (unset),
	LC_ALL = (unset),
	LC_CTYPE = "UTF-8",
	LANG = "en_US.iso885915"
    are supported and installed on your system.
perl: warning: Falling back to the standard locale ("C").
Starting job 28531727 ("jobname") on c14-15 at Fri Nov 8 10:39:45 CET 2019
 running on    4 total cores
 distrk:  each k-point on    4 cores,    1 groups
 distr:  one band on    2 cores,    2 groups
 using from now: INCAR     
 vasp.5.4.4.18Apr17-6-g9f103f2a35 (build Jun 30 2017 11:15:00) complex          
  
 POSCAR found type information on POSCAR  Mo S 
 POSCAR found :  2 types and       6 ions
 scaLAPACK will be used
 LDA part: xc-table for Pade appr. of Perdew
 POSCAR, INCAR and KPOINTS ok, starting setup
 FFT: planning ...
 WAVECAR not read
 WARNING: random wavefunctions but no delay for mixing, default for NELMDL
 entering main loop
       N       E                     dE             d eps       ncg     rms          rms(c)
DAV:   1     0.244865932943E+03    0.24487E+03   -0.17787E+04   616   0.168E+03
DAV:   2    -0.239034293837E+02   -0.26877E+03   -0.26183E+03   826   0.305E+02
DAV:   3    -0.461686501134E+02   -0.22265E+02   -0.22130E+02   834   0.843E+01
DAV:   4    -0.468020200962E+02   -0.63337E+00   -0.63190E+00   834   0.152E+01
DAV:   5    -0.468199471388E+02   -0.17927E-01   -0.17920E-01   828   0.257E+00    0.973E+00
RMM:   6    -0.444465500753E+02    0.23734E+01   -0.24171E+01   693   0.196E+01    0.340E+00
RMM:   7    -0.436991461821E+02    0.74740E+00   -0.20513E+00   680   0.575E+00    0.181E+00
RMM:   8    -0.436330591873E+02    0.66087E-01   -0.88357E-01   705   0.339E+00    0.811E-01
RMM:   9    -0.436217978605E+02    0.11261E-01   -0.25668E-01   738   0.217E+00    0.526E-01
RMM:  10    -0.436082501554E+02    0.13548E-01   -0.52232E-02   741   0.101E+00    0.639E-02
RMM:  11    -0.436084177224E+02   -0.16757E-03   -0.29899E-03   787   0.211E-01    0.296E-02
RMM:  12    -0.436085470511E+02   -0.12933E-03   -0.43752E-04   773   0.111E-01    0.142E-02
RMM:  13    -0.436085582570E+02   -0.11206E-04   -0.20631E-04   788   0.560E-02    0.159E-02
RMM:  14    -0.436085492356E+02    0.90215E-05   -0.45650E-05   563   0.316E-02
 Error reading item 'IVDW' from file INCAR
   1 F= -.43608549E+02 E0= -.43608549E+02  d E =-.142591E-07

Currently Loaded Modulefiles:
  1) Anaconda3/5.1.0       3) vesta/3.3.8           5) intel/2016.1
  2) gnuplot/5.0.4         4) imagemagick/6.7.9-0   6) vasp/5.4.1.Feb16

Job script resource usage:
       JobID  MaxVMSize     MaxRSS 
------------ ---------- ---------- 
28531727.ba+    216888K      2361K 

Job step resource usage:
       JobID    JobName  AllocCPUS  MaxVMSize     MaxRSS    Elapsed ExitCode 
------------ ---------- ---------- ---------- ---------- ---------- -------- 
28531727        jobname          4                         00:00:12      0:0 
28531727.0    pmi_proxy          1    279832K       528K   00:00:11      0:0 

Job 28531727 ("jobname") completed on c14-15 at Fri Nov 8 10:39:56 CET 2019
