perl: warning: Setting locale failed.
perl: warning: Please check that your locale settings:
	LANGUAGE = (unset),
	LC_ALL = (unset),
	LC_CTYPE = "UTF-8",
	LANG = "en_US.iso885915"
    are supported and installed on your system.
perl: warning: Falling back to the standard locale ("C").
Starting job 28531635 ("jobname") on c14-1 at Fri Nov 8 10:34:27 CET 2019
 running on    4 total cores
 distrk:  each k-point on    4 cores,    1 groups
 distr:  one band on    2 cores,    2 groups
 using from now: INCAR     
 vasp.5.4.4.18Apr17-6-g9f103f2a35 (build Jun 30 2017 11:15:00) complex          
  
 POSCAR found type information on POSCAR  Mo S 
 POSCAR found :  2 types and       6 ions
 scaLAPACK will be used
 LDA part: xc-table for Pade appr. of Perdew
 POSCAR, INCAR and KPOINTS ok, starting setup
 FFT: planning ...
 WAVECAR not read
 WARNING: random wavefunctions but no delay for mixing, default for NELMDL
 entering main loop
       N       E                     dE             d eps       ncg     rms          rms(c)
DAV:   1     0.244865932943E+03    0.24487E+03   -0.17787E+04   616   0.168E+03
DAV:   2    -0.239034293837E+02   -0.26877E+03   -0.26183E+03   826   0.305E+02
DAV:   3    -0.461686501134E+02   -0.22265E+02   -0.22130E+02   834   0.843E+01
DAV:   4    -0.468020200962E+02   -0.63337E+00   -0.63190E+00   834   0.152E+01
srun: Job step aborted: Waiting up to 32 seconds for job step to finish.
slurmstepd: error: *** STEP 28531635.0 ON c14-1 CANCELLED AT 2019-11-08T10:34:32 ***
slurmstepd: error: *** JOB 28531635 ON c14-1 CANCELLED AT 2019-11-08T10:34:32 ***

Currently Loaded Modulefiles:
  1) Anaconda3/5.1.0       3) vesta/3.3.8           5) intel/2016.1
  2) gnuplot/5.0.4         4) imagemagick/6.7.9-0   6) vasp/5.4.1.Feb16

Job script resource usage:
       JobID  MaxVMSize     MaxRSS 
------------ ---------- ---------- 
28531635.ba+    605280K      6469K 

Job step resource usage:
forrtl: error (78): process killed (SIGTERM)
Image              PC                Routine            Line        Source             
vasp_std           00000000058E929A  Unknown               Unknown  Unknown
libpthread-2.12.s  00007F3500D837E0  Unknown               Unknown  Unknown
vasp_std           000000000177159A  Unknown               Unknown  Unknown
vasp_std           00000000014CBB5F  Unknown               Unknown  Unknown
vasp_std           00000000014CB3AB  Unknown               Unknown  Unknown
vasp_std           00000000014CA709  Unknown               Unknown  Unknown
vasp_std           000000000148CD76  Unknown               Unknown  Unknown
vasp_std           000000000148DC46  Unknown               Unknown  Unknown
vasp_std           000000000148E690  Unknown               Unknown  Unknown
vasp_std           00000000006910D1  Unknown               Unknown  Unknown
vasp_std           0000000000DEE813  Unknown               Unknown  Unknown
vasp_std           0000000000E608AC  Unknown               Unknown  Unknown
vasp_std           00000000015162B8  Unknown               Unknown  Unknown
vasp_std           00000000014F1F6A  Unknown               Unknown  Unknown
vasp_std           000000000044331E  Unknown               Unknown  Unknown
libc-2.12.so       00007F34FF4FCD20  __libc_start_main     Unknown  Unknown
vasp_std           0000000000443229  Unknown               Unknown  Unknown
       JobID    JobName  AllocCPUS  MaxVMSize     MaxRSS    Elapsed ExitCode 
------------ ---------- ---------- ---------- ---------- ---------- -------- 
28531635        jobname          4                         00:00:07      0:0 
28531635.0    pmi_proxy          1                         00:00:05      0:0 

Job 28531635 ("jobname") completed on c14-1 at Fri Nov 8 10:34:32 CET 2019
