<?xml version="1.0" encoding="ISO-8859-1"?>
<modeling>
 <generator>
  <i name="program" type="string">vasp </i>
  <i name="version" type="string">5.4.4.18Apr17-6-g9f103f2a35  </i>
  <i name="subversion" type="string">(build Jun 30 2017 11:15:00) complex            parallel </i>
  <i name="platform" type="string">STALLO_VASP_5.4.4 </i>
  <i name="date" type="string">2019 11 08 </i>
  <i name="time" type="string">12:18:01 </i>
 </generator>
 <incar>
  <i type="string" name="PREC">normal    ! low/normal/accurate</i>
  <i type="string" name="ALGO"> Fast      ! Algorithm for electronic re</i>
  <i type="int" name="ISPIN">     1</i>
  <i type="int" name="NELMIN">     4</i>
  <i name="EDIFF">      0.00001000</i>
  <i type="int" name="NSW">     0</i>
  <i name="ENCUT">    450.00000000</i>
  <i type="logical" name="LREAL"> F  </i>
  <i type="int" name="ISMEAR">    -5</i>
  <i name="SIGMA">      0.20000000</i>
  <i type="logical" name="LWAVE"> F  </i>
  <v type="int" name="KPOINT_BSE">    -1     0     0     0</v>
 </incar>
 <structure name="primitive_cell" >
  <crystal>
   <varray name="basis" >
    <v>       3.19031573       0.00000000       0.00000000 </v>
    <v>      -1.59515786       2.76289447       0.00000000 </v>
    <v>       0.00000000       0.00000000      14.87900430 </v>
   </varray>
   <i name="volume">    131.15106795 </i>
   <varray name="rec_basis" >
    <v>       0.31344860       0.18096963       0.00000000 </v>
    <v>       0.00000000       0.36193927       0.00000000 </v>
    <v>       0.00000000       0.00000000       0.06720880 </v>
   </varray>
  </crystal>
  <varray name="positions" >
   <v>       0.33333300      -0.33333300       0.25000000 </v>
   <v>      -0.33333400       0.33333300       0.35517400 </v>
   <v>      -0.33333300       0.33333300       0.14482600 </v>
   <v>       0.33333300      -0.33333300      -0.14482600 </v>
   <v>       0.33333400      -0.33333300      -0.35517400 </v>
   <v>      -0.33333300       0.33333300      -0.25000000 </v>
  </varray>
 </structure>
 <varray name="primitive_index" >
  <v type="int" >        1 </v>
  <v type="int" >        5 </v>
  <v type="int" >        4 </v>
  <v type="int" >        3 </v>
  <v type="int" >        6 </v>
  <v type="int" >        2 </v>
 </varray>
 <kpoints>
  <generation param="Gamma">
   <v type="int" name="divisions">       6        6        2 </v>
   <v name="usershift">      0.00000000       0.00000000       0.00000000 </v>
   <v name="genvec1">      0.16666667       0.00000000       0.00000000 </v>
   <v name="genvec2">      0.00000000       0.16666667       0.00000000 </v>
   <v name="genvec3">      0.00000000       0.00000000       0.50000000 </v>
   <v name="shift">      0.00000000       0.00000000       0.00000000 </v>
  </generation>
  <varray name="kpointlist" >
   <v>       0.00000000       0.00000000       0.00000000 </v>
   <v>       0.16666667      -0.00000000       0.00000000 </v>
   <v>       0.33333333       0.00000000       0.00000000 </v>
   <v>       0.50000000      -0.00000000       0.00000000 </v>
   <v>       0.16666667       0.16666667       0.00000000 </v>
   <v>       0.33333333       0.16666667       0.00000000 </v>
   <v>       0.33333333       0.33333333       0.00000000 </v>
   <v>       0.00000000       0.00000000       0.50000000 </v>
   <v>       0.16666667      -0.00000000       0.50000000 </v>
   <v>       0.33333333       0.00000000       0.50000000 </v>
   <v>       0.50000000      -0.00000000       0.50000000 </v>
   <v>       0.16666667       0.16666667       0.50000000 </v>
   <v>       0.33333333       0.16666667       0.50000000 </v>
   <v>       0.33333333       0.33333333       0.50000000 </v>
  </varray>
  <varray name="weights" >
   <v>       0.01388889 </v>
   <v>       0.08333333 </v>
   <v>       0.08333333 </v>
   <v>       0.04166667 </v>
   <v>       0.08333333 </v>
   <v>       0.16666667 </v>
   <v>       0.02777778 </v>
   <v>       0.01388889 </v>
   <v>       0.08333333 </v>
   <v>       0.08333333 </v>
   <v>       0.04166667 </v>
   <v>       0.08333333 </v>
   <v>       0.16666667 </v>
   <v>       0.02777778 </v>
  </varray>
  <varray name="tetrahedronlist"  type="int" >
   <v type="int" >        8        2        2        5        9 </v>
   <v type="int" >        8        1        2        2        9 </v>
   <v type="int" >        4        1        2        8        9 </v>
   <v type="int" >        4        2        5        9       12 </v>
   <v type="int" >        8        2        9        9       12 </v>
   <v type="int" >        8        2        8        9        9 </v>
   <v type="int" >        8        3        5        6       12 </v>
   <v type="int" >        8        2        3        5       12 </v>
   <v type="int" >        4        2        3        9       12 </v>
   <v type="int" >        4        3        6       12       13 </v>
   <v type="int" >        8        3       10       12       13 </v>
   <v type="int" >        8        3        9       10       12 </v>
   <v type="int" >        8        4        6        6       13 </v>
   <v type="int" >        8        3        4        6       13 </v>
   <v type="int" >        4        3        4       10       13 </v>
   <v type="int" >        4        4        6       13       13 </v>
   <v type="int" >        4        4       11       13       13 </v>
   <v type="int" >        8        4       10       11       13 </v>
   <v type="int" >        8        3        5        6       13 </v>
   <v type="int" >        4        3        4       11       13 </v>
   <v type="int" >        4        3        5       12       13 </v>
   <v type="int" >        8        3       10       11       13 </v>
   <v type="int" >        4        2        2        5       12 </v>
   <v type="int" >        4        2        3       10       12 </v>
   <v type="int" >        4        2        2        9       12 </v>
   <v type="int" >        8        2        9       10       12 </v>
   <v type="int" >        4        1        2        9        9 </v>
   <v type="int" >        4        1        8        9        9 </v>
   <v type="int" >        8        3        5        6       10 </v>
   <v type="int" >        8        2        3        5       10 </v>
   <v type="int" >        4        2        5        9       10 </v>
   <v type="int" >        4        5        6       10       13 </v>
   <v type="int" >        8        5       10       12       13 </v>
   <v type="int" >        8        5        9       10       12 </v>
   <v type="int" >       16        6        6        7       13 </v>
   <v type="int" >        8        5        6        6       13 </v>
   <v type="int" >        4        5        6       12       13 </v>
   <v type="int" >        8        6        7       13       14 </v>
   <v type="int" >       16        6       13       13       14 </v>
   <v type="int" >        8        6       12       13       13 </v>
   <v type="int" >        8        6        6        7       14 </v>
   <v type="int" >        8        6        6       13       14 </v>
   <v type="int" >        4        5        6       13       13 </v>
   <v type="int" >        4        3        5       10       13 </v>
   <v type="int" >        4        5       12       13       13 </v>
   <v type="int" >        4        2        5       10       12 </v>
   <v type="int" >        4        4        6        6       11 </v>
   <v type="int" >        8        3        4        6       11 </v>
   <v type="int" >        4        3        6       10       11 </v>
   <v type="int" >        4        6        6       11       13 </v>
   <v type="int" >        8        6       11       13       13 </v>
   <v type="int" >        8        6       10       11       13 </v>
   <v type="int" >        8        6        7       13       13 </v>
   <v type="int" >        8        7       13       13       14 </v>
   <v type="int" >        4        4        6       11       13 </v>
   <v type="int" >        4        3        6       11       13 </v>
   <v type="int" >        8        3        4        6       10 </v>
   <v type="int" >        4        4        6       10       11 </v>
   <v type="int" >        4        5        6       10       12 </v>
   <v type="int" >        8        6       10       12       13 </v>
   <v type="int" >        4        5        6        6       12 </v>
   <v type="int" >        4        6        6       12       13 </v>
   <v type="int" >        4        3        6       10       12 </v>
   <v type="int" >        4        4        6       10       13 </v>
   <v type="int" >        8        2        3        5        9 </v>
   <v type="int" >        4        3        5        9       10 </v>
   <v type="int" >        4        2        5        9        9 </v>
   <v type="int" >        4        5        9        9       12 </v>
   <v type="int" >        4        3        5        9       12 </v>
   <v type="int" >        4        1        2        2        8 </v>
   <v type="int" >        4        2        2        8        9 </v>
  </varray>
  <i name="volumeweight">      0.00231481 </i>
 </kpoints>
 <parameters>
  <separator name="general" >
   <i type="string" name="SYSTEM">unknown system</i>
   <i type="logical" name="LCOMPAT"> F  </i>
  </separator>
  <separator name="electronic" >
   <i type="string" name="PREC">normal</i>
   <i name="ENMAX">    450.00000000</i>
   <i name="ENAUG">    345.27800000</i>
   <i name="EDIFF">      0.00001000</i>
   <i type="int" name="IALGO">    68</i>
   <i type="int" name="IWAVPR">    10</i>
   <i type="int" name="NBANDS">    22</i>
   <i name="NELECT">     36.00000000</i>
   <i type="int" name="TURBO">     0</i>
   <i type="int" name="IRESTART">     0</i>
   <i type="int" name="NREBOOT">     0</i>
   <i type="int" name="NMIN">     0</i>
   <i name="EREF">      0.00000000</i>
   <separator name="electronic smearing" >
    <i type="int" name="ISMEAR">    -5</i>
    <i name="SIGMA">      0.20000000</i>
    <i name="KSPACING">      0.50000000</i>
    <i type="logical" name="KGAMMA"> T  </i>
   </separator>
   <separator name="electronic projectors" >
    <i type="logical" name="LREAL"> F  </i>
    <v name="ROPT">      0.00000000      0.00000000</v>
    <i type="int" name="LMAXPAW">  -100</i>
    <i type="int" name="LMAXMIX">     2</i>
    <i type="logical" name="NLSPLINE"> F  </i>
   </separator>
   <separator name="electronic startup" >
    <i type="int" name="ISTART">     0</i>
    <i type="int" name="ICHARG">     2</i>
    <i type="int" name="INIWAV">     1</i>
   </separator>
   <separator name="electronic spin" >
    <i type="int" name="ISPIN">     1</i>
    <i type="logical" name="LNONCOLLINEAR"> F  </i>
    <v name="MAGMOM">      1.00000000      1.00000000      1.00000000      1.00000000      1.00000000      1.00000000</v>
    <i name="NUPDOWN">     -1.00000000</i>
    <i type="logical" name="LSORBIT"> F  </i>
    <v name="SAXIS">      0.00000000      0.00000000      1.00000000</v>
    <i type="logical" name="LSPIRAL"> F  </i>
    <v name="QSPIRAL">      0.00000000      0.00000000      0.00000000</v>
    <i type="logical" name="LZEROZ"> F  </i>
   </separator>
   <separator name="electronic exchange-correlation" >
    <i type="logical" name="LASPH"> F  </i>
    <i type="logical" name="LMETAGGA"> F  </i>
   </separator>
   <separator name="electronic convergence" >
    <i type="int" name="NELM">    60</i>
    <i type="int" name="NELMDL">     0</i>
    <i type="int" name="NELMIN">     4</i>
    <i name="ENINI">    450.00000000</i>
    <separator name="electronic convergence detail" >
     <i type="logical" name="LDIAG"> T  </i>
     <i type="logical" name="LSUBROT"> F  </i>
     <i name="WEIMIN">      0.00000000</i>
     <i name="EBREAK">      0.00000011</i>
     <i name="DEPER">      0.30000000</i>
     <i type="int" name="NRMM">     4</i>
     <i name="TIME">      0.40000000</i>
    </separator>
   </separator>
   <separator name="electronic mixer" >
    <i name="AMIX">      0.40000000</i>
    <i name="BMIX">      1.00000000</i>
    <i name="AMIN">      0.10000000</i>
    <i name="AMIX_MAG">      1.60000000</i>
    <i name="BMIX_MAG">      1.00000000</i>
    <separator name="electronic mixer details" >
     <i type="int" name="IMIX">     4</i>
     <i type="logical" name="MIXFIRST"> F  </i>
     <i type="int" name="MAXMIX">   -45</i>
     <i name="WC">    100.00000000</i>
     <i type="int" name="INIMIX">     1</i>
     <i type="int" name="MIXPRE">     1</i>
     <i type="int" name="MREMOVE">     5</i>
    </separator>
   </separator>
   <separator name="electronic dipolcorrection" >
    <i type="logical" name="LDIPOL"> F  </i>
    <i type="logical" name="LMONO"> F  </i>
    <i type="int" name="IDIPOL">     0</i>
    <i name="EPSILON">      1.00000000</i>
    <v name="DIPOL">   -100.00000000   -100.00000000   -100.00000000</v>
    <i name="EFIELD">      0.00000000</i>
   </separator>
  </separator>
  <separator name="grids" >
   <i type="int" name="NGX">    18</i>
   <i type="int" name="NGY">    18</i>
   <i type="int" name="NGZ">    80</i>
   <i type="int" name="NGXF">    36</i>
   <i type="int" name="NGYF">    36</i>
   <i type="int" name="NGZF">   160</i>
   <i type="logical" name="ADDGRID"> F  </i>
  </separator>
  <separator name="ionic" >
   <i type="int" name="NSW">     0</i>
   <i type="int" name="IBRION">    -1</i>
   <i type="int" name="MDALGO">     0</i>
   <i type="int" name="ISIF">     2</i>
   <i name="PSTRESS">      0.00000000</i>
   <i name="EDIFFG">      0.00010000</i>
   <i type="int" name="NFREE">     0</i>
   <i name="POTIM">      0.50000000</i>
   <i name="SMASS">     -3.00000000</i>
   <i name="SCALEE">      1.00000000</i>
  </separator>
  <separator name="ionic md" >
   <i name="TEBEG">      0.00010000</i>
   <i name="TEEND">      0.00010000</i>
   <i type="int" name="NBLOCK">     1</i>
   <i type="int" name="KBLOCK">     1</i>
   <i type="int" name="NPACO">   256</i>
   <i name="APACO">     16.00000000</i>
  </separator>
  <separator name="symmetry" >
   <i type="int" name="ISYM">     2</i>
   <i name="SYMPREC">      0.00001000</i>
  </separator>
  <separator name="dos" >
   <i type="int" name="LORBIT">     0</i>
   <v name="RWIGS">     -1.00000000     -1.00000000</v>
   <i type="int" name="NEDOS">   301</i>
   <i name="EMIN">     10.00000000</i>
   <i name="EMAX">    -10.00000000</i>
   <i name="EFERMI">      0.00000000</i>
  </separator>
  <separator name="writing" >
   <i type="int" name="NWRITE">     2</i>
   <i type="logical" name="LWAVE"> F  </i>
   <i type="logical" name="LDOWNSAMPLE"> F  </i>
   <i type="logical" name="LCHARG"> T  </i>
   <i type="logical" name="LPARD"> F  </i>
   <i type="logical" name="LVTOT"> F  </i>
   <i type="logical" name="LVHAR"> F  </i>
   <i type="logical" name="LELF"> F  </i>
   <i type="logical" name="LOPTICS"> F  </i>
   <v name="STM">      0.00000000      0.00000000      0.00000000      0.00000000      0.00000000      0.00000000      0.00000000</v>
  </separator>
  <separator name="performance" >
   <i type="int" name="NPAR">     2</i>
   <i type="int" name="NSIM">     4</i>
   <i type="int" name="NBLK">    -1</i>
   <i type="logical" name="LPLANE"> T  </i>
   <i type="logical" name="LSCALAPACK"> T  </i>
   <i type="logical" name="LSCAAWARE"> F  </i>
   <i type="logical" name="LSCALU"> F  </i>
   <i type="logical" name="LASYNC"> F  </i>
   <i type="logical" name="LORBITALREAL"> F  </i>
  </separator>
  <separator name="miscellaneous" >
   <i type="int" name="IDIOT">     3</i>
   <i type="int" name="ISPECIAL">     0</i>
   <i type="logical" name="LMUSIC"> F  </i>
   <v name="POMASS">     95.94000000     32.06600000</v>
   <v name="DARWINR">      0.00000000      0.00000000</v>
   <v name="DARWINV">      1.00000000      1.00000000</v>
   <i type="logical" name="LCORR"> T  </i>
  </separator>
  <i type="logical" name="GGA_COMPAT"> T  </i>
  <i type="logical" name="LBERRY"> F  </i>
  <i type="int" name="ICORELEVEL">     0</i>
  <i type="logical" name="LDAU"> F  </i>
  <i type="int" name="I_CONSTRAINED_M">     0</i>
  <separator name="electronic exchange-correlation" >
   <i type="string" name="GGA">--</i>
   <i type="int" name="VOSKOWN">     0</i>
   <i type="logical" name="LHFCALC"> F  </i>
   <i type="string" name="PRECFOCK"></i>
   <i type="logical" name="LSYMGRAD"> F  </i>
   <i type="logical" name="LHFONE"> F  </i>
   <i type="logical" name="LRHFCALC"> F  </i>
   <i type="logical" name="LTHOMAS"> F  </i>
   <i type="logical" name="LMODELHF"> F  </i>
   <i name="ENCUT4O">     -1.00000000</i>
   <i type="int" name="EXXOEP">     0</i>
   <i type="int" name="FOURORBIT">     0</i>
   <i name="AEXX">      0.00000000</i>
   <i name="HFALPHA">      0.00000000</i>
   <i name="MCALPHA">      0.00000000</i>
   <i name="ALDAX">      1.00000000</i>
   <i name="AGGAX">      1.00000000</i>
   <i name="ALDAC">      1.00000000</i>
   <i name="AGGAC">      1.00000000</i>
   <i type="int" name="NKREDX">     1</i>
   <i type="int" name="NKREDY">     1</i>
   <i type="int" name="NKREDZ">     1</i>
   <i type="logical" name="SHIFTRED"> F  </i>
   <i type="logical" name="ODDONLY"> F  </i>
   <i type="logical" name="EVENONLY"> F  </i>
   <i type="int" name="LMAXFOCK">     0</i>
   <i type="int" name="NMAXFOCKAE">     0</i>
   <i type="logical" name="LFOCKAEDFT"> F  </i>
   <i name="HFSCREEN">      0.00000000</i>
   <i name="HFSCREENC">      0.00000000</i>
   <i type="int" name="NBANDSGWLOW">     0</i>
  </separator>
  <separator name="vdW DFT" >
   <i type="logical" name="LUSE_VDW"> F  </i>
   <i name="Zab_VDW">     -0.84910000</i>
   <i name="PARAM1">      0.12340000</i>
   <i name="PARAM2">      1.00000000</i>
   <i name="PARAM3">      0.00000000</i>
  </separator>
  <separator name="model GW" >
   <i type="int" name="MODEL_GW">     0</i>
   <i name="MODEL_EPS0">     13.11510680</i>
   <i name="MODEL_ALPHA">      1.00000000</i>
  </separator>
  <separator name="linear response parameters" >
   <i type="logical" name="LEPSILON"> F  </i>
   <i type="logical" name="LRPA"> F  </i>
   <i type="logical" name="LNABLA"> F  </i>
   <i type="logical" name="LVEL"> F  </i>
   <i type="int" name="KINTER">     0</i>
   <i name="CSHIFT">      0.10000000</i>
   <i name="OMEGAMAX">     -1.00000000</i>
   <i name="DEG_THRESHOLD">      0.00200000</i>
   <i name="RTIME">     -0.10000000</i>
   <i name="WPLASMAI">      0.00000000</i>
   <v name="DFIELD">      0.00000000      0.00000000      0.00000000</v>
   <v name="WPLASMA">      0.00000000      0.00000000      0.00000000      0.00000000      0.00000000      0.00000000      0.00000000      0.00000000      0.00000000</v>
  </separator>
  <separator name="orbital magnetization" >
   <i type="logical" name="NUCIND"> F  </i>
   <v name="MAGPOS">      0.00000000      0.00000000      0.00000000</v>
   <i type="logical" name="LNICSALL"> T  </i>
   <i type="logical" name="ORBITALMAG"> F  </i>
   <i type="logical" name="LMAGBLOCH"> F  </i>
   <i type="logical" name="LCHIMAG"> F  </i>
   <i type="logical" name="LGAUGE"> T  </i>
   <i type="int" name="MAGATOM">     0</i>
   <v name="MAGDIPOL">      0.00000000      0.00000000      0.00000000</v>
   <v name="AVECCONST">      0.00000000      0.00000000      0.00000000</v>
  </separator>
  <separator name="response functions" >
   <i type="logical" name="LADDER"> F  </i>
   <i type="logical" name="LRPAFORCE"> F  </i>
   <i type="logical" name="LFXC"> F  </i>
   <i type="logical" name="LHARTREE"> T  </i>
   <i type="int" name="IBSE">     0</i>
   <v type="int" name="KPOINT">    -1     0     0     0</v>
   <i type="logical" name="LTCTE"> F  </i>
   <i type="logical" name="LTETE"> F  </i>
   <i type="logical" name="LTRIPLET"> F  </i>
   <i type="logical" name="LFXCEPS"> F  </i>
   <i type="logical" name="LFXHEG"> F  </i>
   <i type="int" name="NATURALO">     2</i>
   <i type="logical" name="L2ORDER"> F  </i>
   <i type="logical" name="LMP2LT"> F  </i>
   <i type="logical" name="LUSEW"> F  </i>
   <i name="ENCUTGW">     -2.00000000</i>
   <i name="ENCUTGWSOFT">     -2.00000000</i>
   <i name="ENCUTLF">     -1.00000000</i>
   <i type="int" name="LMAXMP2">    -1</i>
   <i name="SCISSOR">      0.00000000</i>
   <i type="int" name="NOMEGA">     0</i>
   <i type="int" name="NOMEGAR">     0</i>
   <i type="int" name="NBANDSGW">    -1</i>
   <i type="int" name="NBANDSO">    -1</i>
   <i type="int" name="NBANDSV">    -1</i>
   <i type="int" name="NELM">     1</i>
   <i type="int" name="NELMHF">     1</i>
   <i type="int" name="DIM">     3</i>
   <i type="int" name="ANTIRES">     0</i>
   <i name="OMEGAMAX">    -30.00000000</i>
   <i name="OMEGAMIN">    -30.00000000</i>
   <i name="OMEGATL">   -200.00000000</i>
   <i type="int" name="OMEGAGRID">   140</i>
   <i name="CSHIFT">     -0.10000000</i>
   <i type="logical" name="SELFENERGY"> F  </i>
   <i type="logical" name="LSPECTRAL"> F  </i>
   <i type="logical" name="LSPECTRALGW"> F  </i>
   <i type="logical" name="LSINGLES"> F  </i>
   <i type="logical" name="LFERMIGW"> F  </i>
   <i type="logical" name="ODDONLYGW"> F  </i>
   <i type="logical" name="EVENONLYGW"> F  </i>
   <i type="int" name="NKREDLFX">     1</i>
   <i type="int" name="NKREDLFY">     1</i>
   <i type="int" name="NKREDLFZ">     1</i>
   <i type="int" name="MAXMEM">  2800</i>
   <i type="int" name="TELESCOPE">     0</i>
   <i type="int" name="TAUPAR">     1</i>
   <i type="int" name="OMEGAPAR">    -1</i>
   <i name="LAMBDA">      1.00000000</i>
  </separator>
  <separator name="External order field" >
   <i name="OFIELD_KAPPA">      0.00000000</i>
   <v name="OFIELD_K">      0.00000000      0.00000000      0.00000000</v>
   <i name="OFIELD_Q6_NEAR">      0.00000000</i>
   <i name="OFIELD_Q6_FAR">      0.00000000</i>
   <i name="OFIELD_A">      0.00000000</i>
  </separator>
 </parameters>
 <atominfo>
  <atoms>       6 </atoms>
  <types>       2 </types>
  <array name="atoms" >
   <dimension dim="1">ion</dimension>
   <field type="string">element</field>
   <field type="int">atomtype</field>
   <set>
    <rc><c>Mo</c><c>   1</c></rc>
    <rc><c>Mo</c><c>   1</c></rc>
    <rc><c>S </c><c>   2</c></rc>
    <rc><c>S </c><c>   2</c></rc>
    <rc><c>S </c><c>   2</c></rc>
    <rc><c>S </c><c>   2</c></rc>
   </set>
  </array>
  <array name="atomtypes" >
   <dimension dim="1">type</dimension>
   <field type="int">atomspertype</field>
   <field type="string">element</field>
   <field>mass</field>
   <field>valence</field>
   <field type="string">pseudopotential</field>
   <set>
    <rc><c>   2</c><c>Mo</c><c>     95.94000000</c><c>      6.00000000</c><c> PAW_PBE Mo 08Apr2002                   </c></rc>
    <rc><c>   4</c><c>S </c><c>     32.06600000</c><c>      6.00000000</c><c>  PAW_PBE S 17Jan2003                   </c></rc>
   </set>
  </array>
 </atominfo>
 <structure name="initialpos" >
  <crystal>
   <varray name="basis" >
    <v>       3.19031573       0.00000000       0.00000000 </v>
    <v>      -1.59515786       2.76289447       0.00000000 </v>
    <v>       0.00000000       0.00000000      14.87900430 </v>
   </varray>
   <i name="volume">    131.15106795 </i>
   <varray name="rec_basis" >
    <v>       0.31344860       0.18096963       0.00000000 </v>
    <v>       0.00000000       0.36193927       0.00000000 </v>
    <v>       0.00000000       0.00000000       0.06720880 </v>
   </varray>
  </crystal>
  <varray name="positions" >
   <v>       0.33333300       0.66666700       0.25000000 </v>
   <v>       0.66666700       0.33333300       0.75000000 </v>
   <v>       0.33333300       0.66666700       0.85517400 </v>
   <v>       0.66666700       0.33333300       0.14482600 </v>
   <v>       0.66666600       0.33333300       0.35517400 </v>
   <v>       0.33333400       0.66666700       0.64482600 </v>
  </varray>
 </structure>
 <calculation>
  <scstep>
   <time name="dav">    0.30    0.31</time>
   <time name="total">    0.34    0.37</time>
   <energy>
    <i name="alphaZ">     90.42577596 </i>
    <i name="ewald">  -1146.88905665 </i>
    <i name="hartreedc">   -535.10238363 </i>
    <i name="XCdc">    -72.59368150 </i>
    <i name="pawpsdc">    813.77302396 </i>
    <i name="pawaedc">   -658.68146406 </i>
    <i name="eentropy">      0.00000000 </i>
    <i name="bandstr">    166.56894786 </i>
    <i name="atom">   1542.31022798 </i>
    <i name="e_fr_energy">    199.81138994 </i>
    <i name="e_wo_entrp">    199.81138994 </i>
    <i name="e_0_energy">    199.81138994 </i>
   </energy>
  </scstep>
  <scstep>
   <time name="dav">    0.37    0.38</time>
   <time name="total">    0.37    0.38</time>
   <energy>
    <i name="e_fr_energy">    -27.72937277 </i>
    <i name="e_wo_entrp">    -27.72937277 </i>
    <i name="e_0_energy">    -27.72937277 </i>
   </energy>
  </scstep>
  <scstep>
   <time name="dav">    0.37    0.37</time>
   <time name="total">    0.37    0.37</time>
   <energy>
    <i name="e_fr_energy">    -46.30547012 </i>
    <i name="e_wo_entrp">    -46.30547012 </i>
    <i name="e_0_energy">    -46.30547012 </i>
   </energy>
  </scstep>
  <scstep>
   <time name="dav">    0.39    0.39</time>
   <time name="total">    0.39    0.39</time>
   <energy>
    <i name="e_fr_energy">    -46.80309840 </i>
    <i name="e_wo_entrp">    -46.80309840 </i>
    <i name="e_0_energy">    -46.80309840 </i>
   </energy>
  </scstep>
  <scstep>
   <time name="dav">    0.37    0.37</time>
   <time name="total">    0.40    0.40</time>
   <energy>
    <i name="e_fr_energy">    -46.81581379 </i>
    <i name="e_wo_entrp">    -46.81581379 </i>
    <i name="e_0_energy">    -46.81581379 </i>
   </energy>
  </scstep>
  <scstep>
   <time name="diag">    0.06    0.06</time>
   <time name="diis">    0.25    0.25</time>
   <time name="orth">    0.01    0.01</time>
   <time name="total">    0.38    0.39</time>
   <energy>
    <i name="e_fr_energy">    -44.43504404 </i>
    <i name="e_wo_entrp">    -44.43504404 </i>
    <i name="e_0_energy">    -44.43504404 </i>
   </energy>
  </scstep>
  <scstep>
   <time name="diag">    0.06    0.06</time>
   <time name="diis">    0.26    0.26</time>
   <time name="orth">    0.01    0.01</time>
   <time name="total">    0.39    0.39</time>
   <energy>
    <i name="e_fr_energy">    -43.69485836 </i>
    <i name="e_wo_entrp">    -43.69485836 </i>
    <i name="e_0_energy">    -43.69485836 </i>
   </energy>
  </scstep>
  <scstep>
   <time name="diag">    0.06    0.06</time>
   <time name="diis">    0.26    0.26</time>
   <time name="orth">    0.01    0.01</time>
   <time name="total">    0.39    0.39</time>
   <energy>
    <i name="e_fr_energy">    -43.63019925 </i>
    <i name="e_wo_entrp">    -43.63019925 </i>
    <i name="e_0_energy">    -43.63019925 </i>
   </energy>
  </scstep>
  <scstep>
   <time name="diag">    0.06    0.06</time>
   <time name="diis">    0.27    0.27</time>
   <time name="orth">    0.01    0.01</time>
   <time name="total">    0.39    0.40</time>
   <energy>
    <i name="e_fr_energy">    -43.62032301 </i>
    <i name="e_wo_entrp">    -43.62032301 </i>
    <i name="e_0_energy">    -43.62032301 </i>
   </energy>
  </scstep>
  <scstep>
   <time name="diag">    0.06    0.06</time>
   <time name="diis">    0.27    0.27</time>
   <time name="orth">    0.01    0.01</time>
   <time name="total">    0.41    0.41</time>
   <energy>
    <i name="e_fr_energy">    -43.60355817 </i>
    <i name="e_wo_entrp">    -43.60355817 </i>
    <i name="e_0_energy">    -43.60355817 </i>
   </energy>
  </scstep>
  <scstep>
   <time name="diag">    0.06    0.06</time>
   <time name="diis">    0.28    0.28</time>
   <time name="orth">    0.01    0.01</time>
   <time name="total">    0.41    0.41</time>
   <energy>
    <i name="e_fr_energy">    -43.60343407 </i>
    <i name="e_wo_entrp">    -43.60343407 </i>
    <i name="e_0_energy">    -43.60343407 </i>
   </energy>
  </scstep>
  <scstep>
   <time name="diag">    0.06    0.06</time>
   <time name="diis">    0.28    0.28</time>
   <time name="orth">    0.01    0.01</time>
   <time name="total">    0.41    0.41</time>
   <energy>
    <i name="e_fr_energy">    -43.60358414 </i>
    <i name="e_wo_entrp">    -43.60358414 </i>
    <i name="e_0_energy">    -43.60358414 </i>
   </energy>
  </scstep>
  <scstep>
   <time name="diag">    0.06    0.06</time>
   <time name="diis">    0.28    0.28</time>
   <time name="orth">    0.01    0.01</time>
   <time name="total">    0.41    0.41</time>
   <energy>
    <i name="e_fr_energy">    -43.60357944 </i>
    <i name="e_wo_entrp">    -43.60357944 </i>
    <i name="e_0_energy">    -43.60357944 </i>
   </energy>
  </scstep>
  <scstep>
   <time name="diag">    0.06    0.06</time>
   <time name="diis">    0.19    0.19</time>
   <time name="orth">    0.01    0.01</time>
   <time name="total">    0.29    0.29</time>
   <energy>
    <i name="alphaZ">     90.42577596 </i>
    <i name="ewald">  -1146.88905665 </i>
    <i name="hartreedc">   -542.95386558 </i>
    <i name="XCdc">    -70.39286755 </i>
    <i name="pawpsdc">    944.40824179 </i>
    <i name="pawaedc">   -792.78953774 </i>
    <i name="eentropy">      0.00000000 </i>
    <i name="bandstr">    -67.72249525 </i>
    <i name="atom">   1542.31022798 </i>
    <i name="e_fr_energy">    -43.60357703 </i>
    <i name="e_wo_entrp">    -43.60357703 </i>
    <i name="e_0_energy">    -43.60357703 </i>
   </energy>
  </scstep>
  <structure>
   <crystal>
    <varray name="basis" >
     <v>       3.19031573       0.00000000       0.00000000 </v>
     <v>      -1.59515786       2.76289447       0.00000000 </v>
     <v>       0.00000000       0.00000000      14.87900430 </v>
    </varray>
    <i name="volume">    131.15106795 </i>
    <varray name="rec_basis" >
     <v>       0.31344860       0.18096963       0.00000000 </v>
     <v>       0.00000000       0.36193927       0.00000000 </v>
     <v>       0.00000000       0.00000000       0.06720880 </v>
    </varray>
   </crystal>
   <varray name="positions" >
    <v>       0.33333300       0.66666700       0.25000000 </v>
    <v>       0.66666700       0.33333300       0.75000000 </v>
    <v>       0.33333300       0.66666700       0.85517400 </v>
    <v>       0.66666700       0.33333300       0.14482600 </v>
    <v>       0.66666600       0.33333300       0.35517400 </v>
    <v>       0.33333400       0.66666700       0.64482600 </v>
   </varray>
  </structure>
  <varray name="forces" >
   <v>      -0.00000000      -0.00000000       0.00000000 </v>
   <v>       0.00000000      -0.00000000       0.00000000 </v>
   <v>       0.00000000       0.00000000      -0.07965839 </v>
   <v>      -0.00000000      -0.00000000       0.07965839 </v>
   <v>      -0.00000000      -0.00000000      -0.07965839 </v>
   <v>       0.00000000      -0.00000000       0.07965839 </v>
  </varray>
  <varray name="stress" >
   <v>      -5.07318206       0.00000000       0.00000000 </v>
   <v>      -0.00000000      -5.07318206      -0.00000000 </v>
   <v>      -0.00000000       0.00000000     -16.35222839 </v>
  </varray>
  <energy>
   <i name="e_fr_energy">    -44.93486404 </i>
   <i name="e_wo_entrp">    -44.93486404 </i>
   <i name="e_0_energy">      0.00000000 </i>
  </energy>
  <time name="totalsc">    6.04    6.50</time>
  <eigenvalues>
   <array>
    <dimension dim="1">band</dimension>
    <dimension dim="2">kpoint</dimension>
    <dimension dim="3">spin</dimension>
    <field>eigene</field>
    <field>occ</field>
    <set>
     <set comment="spin 1">
      <set comment="kpoint 1">
       <r>  -10.9300    1.0000 </r>
       <r>  -10.9110    1.0000 </r>
       <r>   -9.7295    1.0000 </r>
       <r>   -9.6955    1.0000 </r>
       <r>   -2.5231    1.0000 </r>
       <r>   -2.3616    1.0000 </r>
       <r>    0.5210    1.0000 </r>
       <r>    0.5210    1.0000 </r>
       <r>    0.5215    1.0000 </r>
       <r>    0.5215    1.0000 </r>
       <r>    1.1060    1.0000 </r>
       <r>    1.6249    1.0000 </r>
       <r>    1.6249    1.0000 </r>
       <r>    1.6268    1.0000 </r>
       <r>    1.6269    1.0000 </r>
       <r>    1.6745    1.0000 </r>
       <r>    2.9225    1.0000 </r>
       <r>    3.2984    1.0000 </r>
       <r>    5.8751    0.0000 </r>
       <r>    5.9126    0.0000 </r>
       <r>    6.0171    0.0000 </r>
       <r>    6.0858    0.0000 </r>
      </set>
      <set comment="kpoint 2">
       <r>  -10.5571    1.0000 </r>
       <r>  -10.5390    1.0000 </r>
       <r>   -9.5495    1.0000 </r>
       <r>   -9.5200    1.0000 </r>
       <r>   -2.1182    1.0000 </r>
       <r>   -1.9645    1.0000 </r>
       <r>   -0.2220    1.0000 </r>
       <r>   -0.2148    1.0000 </r>
       <r>    0.1576    1.0000 </r>
       <r>    0.3286    1.0000 </r>
       <r>    0.9239    1.0000 </r>
       <r>    0.9257    1.0000 </r>
       <r>    1.0823    1.0000 </r>
       <r>    1.0852    1.0000 </r>
       <r>    1.9242    1.0000 </r>
       <r>    2.1955    1.0000 </r>
       <r>    2.7361    1.0000 </r>
       <r>    2.8958    1.0000 </r>
       <r>    5.2888    0.0000 </r>
       <r>    5.5622    0.0000 </r>
       <r>    5.6836    0.0000 </r>
       <r>    5.7160    0.0000 </r>
      </set>
      <set comment="kpoint 3">
       <r>   -9.6818    1.0000 </r>
       <r>   -9.6679    1.0000 </r>
       <r>   -9.1371    1.0000 </r>
       <r>   -9.1192    1.0000 </r>
       <r>   -2.0931    1.0000 </r>
       <r>   -2.0460    1.0000 </r>
       <r>   -1.0503    1.0000 </r>
       <r>   -0.9931    1.0000 </r>
       <r>   -0.8123    1.0000 </r>
       <r>   -0.7265    1.0000 </r>
       <r>    0.2916    1.0000 </r>
       <r>    0.2954    1.0000 </r>
       <r>    1.4371    1.0000 </r>
       <r>    1.5785    1.0000 </r>
       <r>    1.7598    1.0000 </r>
       <r>    1.7664    1.0000 </r>
       <r>    2.1305    1.0000 </r>
       <r>    2.1760    1.0000 </r>
       <r>    5.2837    0.0000 </r>
       <r>    5.2955    0.0000 </r>
       <r>    5.3041    0.0000 </r>
       <r>    5.5440    0.0000 </r>
      </set>
      <set comment="kpoint 4">
       <r>   -9.1374    1.0000 </r>
       <r>   -9.1309    1.0000 </r>
       <r>   -8.8927    1.0000 </r>
       <r>   -8.8862    1.0000 </r>
       <r>   -2.6133    1.0000 </r>
       <r>   -2.5863    1.0000 </r>
       <r>   -1.6526    1.0000 </r>
       <r>   -1.6281    1.0000 </r>
       <r>   -0.9676    1.0000 </r>
       <r>   -0.8918    1.0000 </r>
       <r>   -0.0248    1.0000 </r>
       <r>   -0.0207    1.0000 </r>
       <r>    1.2470    1.0000 </r>
       <r>    1.2664    1.0000 </r>
       <r>    2.1534    1.0000 </r>
       <r>    2.1655    1.0000 </r>
       <r>    2.4779    1.0000 </r>
       <r>    2.4817    1.0000 </r>
       <r>    5.2865    0.0000 </r>
       <r>    5.2903    0.0000 </r>
       <r>    5.7748    0.0000 </r>
       <r>    5.8308    0.0000 </r>
      </set>
      <set comment="kpoint 5">
       <r>   -9.9250    1.0000 </r>
       <r>   -9.9093    1.0000 </r>
       <r>   -9.2458    1.0000 </r>
       <r>   -9.2242    1.0000 </r>
       <r>   -1.8130    1.0000 </r>
       <r>   -1.7280    1.0000 </r>
       <r>   -0.7021    1.0000 </r>
       <r>   -0.6510    1.0000 </r>
       <r>   -0.5290    1.0000 </r>
       <r>   -0.4850    1.0000 </r>
       <r>   -0.0823    1.0000 </r>
       <r>    0.0123    1.0000 </r>
       <r>    1.1636    1.0000 </r>
       <r>    1.1643    1.0000 </r>
       <r>    2.0164    1.0000 </r>
       <r>    2.1324    1.0000 </r>
       <r>    2.3237    1.0000 </r>
       <r>    2.3368    1.0000 </r>
       <r>    4.9111    0.0000 </r>
       <r>    5.1535    0.0000 </r>
       <r>    5.5518    0.0000 </r>
       <r>    5.6744    0.0000 </r>
      </set>
      <set comment="kpoint 6">
       <r>   -9.1610    1.0000 </r>
       <r>   -9.1528    1.0000 </r>
       <r>   -8.8806    1.0000 </r>
       <r>   -8.8714    1.0000 </r>
       <r>   -2.1577    1.0000 </r>
       <r>   -2.1304    1.0000 </r>
       <r>   -1.7263    1.0000 </r>
       <r>   -1.7202    1.0000 </r>
       <r>   -0.7282    1.0000 </r>
       <r>   -0.6656    1.0000 </r>
       <r>   -0.1005    1.0000 </r>
       <r>   -0.0349    1.0000 </r>
       <r>    0.7644    1.0000 </r>
       <r>    0.7856    1.0000 </r>
       <r>    1.3944    1.0000 </r>
       <r>    1.4253    1.0000 </r>
       <r>    2.6196    1.0000 </r>
       <r>    2.6351    1.0000 </r>
       <r>    5.2331    0.0000 </r>
       <r>    5.3308    0.0000 </r>
       <r>    5.8182    0.0000 </r>
       <r>    5.9567    0.0000 </r>
      </set>
      <set comment="kpoint 7">
       <r>   -8.8836    1.0000 </r>
       <r>   -8.8836    1.0000 </r>
       <r>   -8.7238    1.0000 </r>
       <r>   -8.7238    1.0000 </r>
       <r>   -2.2359    1.0000 </r>
       <r>   -2.2233    1.0000 </r>
       <r>   -1.4215    1.0000 </r>
       <r>   -1.4215    1.0000 </r>
       <r>   -0.9379    1.0000 </r>
       <r>   -0.9152    1.0000 </r>
       <r>   -0.4374    1.0000 </r>
       <r>   -0.4374    1.0000 </r>
       <r>    0.2415    1.0000 </r>
       <r>    0.2415    1.0000 </r>
       <r>    0.9735    1.0000 </r>
       <r>    0.9735    1.0000 </r>
       <r>    3.0903    1.0000 </r>
       <r>    3.1097    1.0000 </r>
       <r>    4.7586    0.0000 </r>
       <r>    4.7586    0.0000 </r>
       <r>    6.0488    0.0000 </r>
       <r>    6.2301    0.0000 </r>
      </set>
      <set comment="kpoint 8">
       <r>  -10.9206    1.0000 </r>
       <r>  -10.9206    1.0000 </r>
       <r>   -9.7124    1.0000 </r>
       <r>   -9.7124    1.0000 </r>
       <r>   -2.4451    1.0000 </r>
       <r>   -2.4451    1.0000 </r>
       <r>    0.5212    1.0000 </r>
       <r>    0.5212    1.0000 </r>
       <r>    0.5213    1.0000 </r>
       <r>    0.5213    1.0000 </r>
       <r>    1.3628    1.0000 </r>
       <r>    1.3628    1.0000 </r>
       <r>    1.6259    1.0000 </r>
       <r>    1.6259    1.0000 </r>
       <r>    1.6259    1.0000 </r>
       <r>    1.6259    1.0000 </r>
       <r>    3.1411    1.0000 </r>
       <r>    3.1411    1.0000 </r>
       <r>    5.8749    0.0000 </r>
       <r>    5.8869    0.0000 </r>
       <r>    5.8933    0.0000 </r>
       <r>    6.0359    0.0000 </r>
      </set>
      <set comment="kpoint 9">
       <r>  -10.5482    1.0000 </r>
       <r>  -10.5482    1.0000 </r>
       <r>   -9.5347    1.0000 </r>
       <r>   -9.5347    1.0000 </r>
       <r>   -2.0445    1.0000 </r>
       <r>   -2.0445    1.0000 </r>
       <r>   -0.2192    1.0000 </r>
       <r>   -0.2192    1.0000 </r>
       <r>    0.2491    1.0000 </r>
       <r>    0.2491    1.0000 </r>
       <r>    0.9248    1.0000 </r>
       <r>    0.9248    1.0000 </r>
       <r>    1.0838    1.0000 </r>
       <r>    1.0838    1.0000 </r>
       <r>    2.0379    1.0000 </r>
       <r>    2.0379    1.0000 </r>
       <r>    2.8344    1.0000 </r>
       <r>    2.8344    1.0000 </r>
       <r>    5.3926    0.0000 </r>
       <r>    5.4025    0.0000 </r>
       <r>    5.7095    0.0000 </r>
       <r>    5.7176    0.0000 </r>
      </set>
      <set comment="kpoint 10">
       <r>   -9.6749    1.0000 </r>
       <r>   -9.6749    1.0000 </r>
       <r>   -9.1280    1.0000 </r>
       <r>   -9.1280    1.0000 </r>
       <r>   -2.0699    1.0000 </r>
       <r>   -2.0699    1.0000 </r>
       <r>   -1.0264    1.0000 </r>
       <r>   -1.0264    1.0000 </r>
       <r>   -0.7644    1.0000 </r>
       <r>   -0.7644    1.0000 </r>
       <r>    0.2935    1.0000 </r>
       <r>    0.2935    1.0000 </r>
       <r>    1.5046    1.0000 </r>
       <r>    1.5046    1.0000 </r>
       <r>    1.7631    1.0000 </r>
       <r>    1.7631    1.0000 </r>
       <r>    2.1560    1.0000 </r>
       <r>    2.1560    1.0000 </r>
       <r>    5.2893    0.0000 </r>
       <r>    5.2894    0.0000 </r>
       <r>    5.4136    0.0000 </r>
       <r>    5.4137    0.0000 </r>
      </set>
      <set comment="kpoint 11">
       <r>   -9.1342    1.0000 </r>
       <r>   -9.1342    1.0000 </r>
       <r>   -8.8894    1.0000 </r>
       <r>   -8.8894    1.0000 </r>
       <r>   -2.5999    1.0000 </r>
       <r>   -2.5999    1.0000 </r>
       <r>   -1.6413    1.0000 </r>
       <r>   -1.6413    1.0000 </r>
       <r>   -0.9288    1.0000 </r>
       <r>   -0.9288    1.0000 </r>
       <r>   -0.0228    1.0000 </r>
       <r>   -0.0228    1.0000 </r>
       <r>    1.2565    1.0000 </r>
       <r>    1.2565    1.0000 </r>
       <r>    2.1595    1.0000 </r>
       <r>    2.1595    1.0000 </r>
       <r>    2.4798    1.0000 </r>
       <r>    2.4799    1.0000 </r>
       <r>    5.2884    0.0000 </r>
       <r>    5.2884    0.0000 </r>
       <r>    5.8025    0.0000 </r>
       <r>    5.8060    0.0000 </r>
      </set>
      <set comment="kpoint 12">
       <r>   -9.9173    1.0000 </r>
       <r>   -9.9173    1.0000 </r>
       <r>   -9.2348    1.0000 </r>
       <r>   -9.2348    1.0000 </r>
       <r>   -1.7714    1.0000 </r>
       <r>   -1.7714    1.0000 </r>
       <r>   -0.6840    1.0000 </r>
       <r>   -0.6840    1.0000 </r>
       <r>   -0.5001    1.0000 </r>
       <r>   -0.5001    1.0000 </r>
       <r>   -0.0329    1.0000 </r>
       <r>   -0.0329    1.0000 </r>
       <r>    1.1639    1.0000 </r>
       <r>    1.1640    1.0000 </r>
       <r>    2.0701    1.0000 </r>
       <r>    2.0701    1.0000 </r>
       <r>    2.3321    1.0000 </r>
       <r>    2.3321    1.0000 </r>
       <r>    5.0282    0.0000 </r>
       <r>    5.0287    0.0000 </r>
       <r>    5.5512    0.0000 </r>
       <r>    5.7491    0.0000 </r>
      </set>
      <set comment="kpoint 13">
       <r>   -9.1570    1.0000 </r>
       <r>   -9.1570    1.0000 </r>
       <r>   -8.8759    1.0000 </r>
       <r>   -8.8759    1.0000 </r>
       <r>   -2.1442    1.0000 </r>
       <r>   -2.1442    1.0000 </r>
       <r>   -1.7233    1.0000 </r>
       <r>   -1.7233    1.0000 </r>
       <r>   -0.6987    1.0000 </r>
       <r>   -0.6986    1.0000 </r>
       <r>   -0.0654    1.0000 </r>
       <r>   -0.0654    1.0000 </r>
       <r>    0.7751    1.0000 </r>
       <r>    0.7751    1.0000 </r>
       <r>    1.4090    1.0000 </r>
       <r>    1.4090    1.0000 </r>
       <r>    2.6275    1.0000 </r>
       <r>    2.6275    1.0000 </r>
       <r>    5.2824    0.0000 </r>
       <r>    5.2824    0.0000 </r>
       <r>    5.8356    0.0000 </r>
       <r>    5.8446    0.0000 </r>
      </set>
      <set comment="kpoint 14">
       <r>   -8.8836    1.0000 </r>
       <r>   -8.8836    1.0000 </r>
       <r>   -8.7238    1.0000 </r>
       <r>   -8.7238    1.0000 </r>
       <r>   -2.2297    1.0000 </r>
       <r>   -2.2297    1.0000 </r>
       <r>   -1.4211    1.0000 </r>
       <r>   -1.4211    1.0000 </r>
       <r>   -0.9265    1.0000 </r>
       <r>   -0.9265    1.0000 </r>
       <r>   -0.4401    1.0000 </r>
       <r>   -0.4401    1.0000 </r>
       <r>    0.2463    1.0000 </r>
       <r>    0.2463    1.0000 </r>
       <r>    0.9708    1.0000 </r>
       <r>    0.9708    1.0000 </r>
       <r>    3.0999    1.0000 </r>
       <r>    3.0999    1.0000 </r>
       <r>    4.7586    0.0000 </r>
       <r>    4.7586    0.0000 </r>
       <r>    6.1366    0.0000 </r>
       <r>    6.1395    0.0000 </r>
      </set>
     </set>
    </set>
   </array>
  </eigenvalues>
  <separator name="orbital magnetization" >
   <v name="MAGDIPOLOUT">      0.00000000      0.00000000      0.00000000</v>
  </separator>
  <dos>
   <i name="efermi">      3.36546842 </i>
   <total>
    <array>
     <dimension dim="1">gridpoints</dimension>
     <dimension dim="2">spin</dimension>
     <field>energy</field>
     <field>total</field>
     <field>integrated</field>
     <set>
      <set comment="spin 1">
       <r>   -12.9300     0.0000     0.0000 </r>
       <r>   -12.8595     0.0000     0.0000 </r>
       <r>   -12.7889     0.0000     0.0000 </r>
       <r>   -12.7184     0.0000     0.0000 </r>
       <r>   -12.6479     0.0000     0.0000 </r>
       <r>   -12.5773     0.0000     0.0000 </r>
       <r>   -12.5068     0.0000     0.0000 </r>
       <r>   -12.4363     0.0000     0.0000 </r>
       <r>   -12.3657     0.0000     0.0000 </r>
       <r>   -12.2952     0.0000     0.0000 </r>
       <r>   -12.2247     0.0000     0.0000 </r>
       <r>   -12.1541     0.0000     0.0000 </r>
       <r>   -12.0836     0.0000     0.0000 </r>
       <r>   -12.0131     0.0000     0.0000 </r>
       <r>   -11.9425     0.0000     0.0000 </r>
       <r>   -11.8720     0.0000     0.0000 </r>
       <r>   -11.8015     0.0000     0.0000 </r>
       <r>   -11.7309     0.0000     0.0000 </r>
       <r>   -11.6604     0.0000     0.0000 </r>
       <r>   -11.5899     0.0000     0.0000 </r>
       <r>   -11.5193     0.0000     0.0000 </r>
       <r>   -11.4488     0.0000     0.0000 </r>
       <r>   -11.3783     0.0000     0.0000 </r>
       <r>   -11.3077     0.0000     0.0000 </r>
       <r>   -11.2372     0.0000     0.0000 </r>
       <r>   -11.1667     0.0000     0.0000 </r>
       <r>   -11.0961     0.0000     0.0000 </r>
       <r>   -11.0256     0.0000     0.0000 </r>
       <r>   -10.9551     0.0000     0.0000 </r>
       <r>   -10.8845     0.1732     0.0032 </r>
       <r>   -10.8140     0.5121     0.0274 </r>
       <r>   -10.7435     0.8511     0.0754 </r>
       <r>   -10.6729     1.1901     0.1474 </r>
       <r>   -10.6024     1.5291     0.2433 </r>
       <r>   -10.5319     1.0688     0.3506 </r>
       <r>   -10.4613     1.1214     0.4279 </r>
       <r>   -10.3908     1.1739     0.5088 </r>
       <r>   -10.3203     1.2265     0.5935 </r>
       <r>   -10.2497     1.2791     0.6818 </r>
       <r>   -10.1792     1.3317     0.7739 </r>
       <r>   -10.1087     1.3842     0.8697 </r>
       <r>   -10.0381     1.4368     0.9692 </r>
       <r>    -9.9676     1.4894     1.0724 </r>
       <r>    -9.8971     1.5690     1.1796 </r>
       <r>    -9.8265     1.7164     1.2954 </r>
       <r>    -9.7560     1.8638     1.4217 </r>
       <r>    -9.6855     2.5786     1.5670 </r>
       <r>    -9.6149     4.2402     1.8073 </r>
       <r>    -9.5444     5.6379     2.1645 </r>
       <r>    -9.4739     4.9788     2.5147 </r>
       <r>    -9.4033     5.4056     2.8809 </r>
       <r>    -9.3328     5.8324     3.2773 </r>
       <r>    -9.2623     6.2593     3.7037 </r>
       <r>    -9.1917     6.9326     4.1657 </r>
       <r>    -9.1212     8.5928     5.0872 </r>
       <r>    -9.0507     8.2228     5.6803 </r>
       <r>    -8.9801     7.8537     6.2472 </r>
       <r>    -8.9096     7.4852     6.7882 </r>
       <r>    -8.8391     6.6419     7.6172 </r>
       <r>    -8.7685     2.5778     7.9424 </r>
       <r>    -8.6980     0.0000     8.0000 </r>
       <r>    -8.6275     0.0000     8.0000 </r>
       <r>    -8.5569     0.0000     8.0000 </r>
       <r>    -8.4864     0.0000     8.0000 </r>
       <r>    -8.4159     0.0000     8.0000 </r>
       <r>    -8.3453     0.0000     8.0000 </r>
       <r>    -8.2748     0.0000     8.0000 </r>
       <r>    -8.2042     0.0000     8.0000 </r>
       <r>    -8.1337     0.0000     8.0000 </r>
       <r>    -8.0632     0.0000     8.0000 </r>
       <r>    -7.9926     0.0000     8.0000 </r>
       <r>    -7.9221     0.0000     8.0000 </r>
       <r>    -7.8516     0.0000     8.0000 </r>
       <r>    -7.7810     0.0000     8.0000 </r>
       <r>    -7.7105     0.0000     8.0000 </r>
       <r>    -7.6400     0.0000     8.0000 </r>
       <r>    -7.5694     0.0000     8.0000 </r>
       <r>    -7.4989     0.0000     8.0000 </r>
       <r>    -7.4284     0.0000     8.0000 </r>
       <r>    -7.3578     0.0000     8.0000 </r>
       <r>    -7.2873     0.0000     8.0000 </r>
       <r>    -7.2168     0.0000     8.0000 </r>
       <r>    -7.1462     0.0000     8.0000 </r>
       <r>    -7.0757     0.0000     8.0000 </r>
       <r>    -7.0052     0.0000     8.0000 </r>
       <r>    -6.9346     0.0000     8.0000 </r>
       <r>    -6.8641     0.0000     8.0000 </r>
       <r>    -6.7936     0.0000     8.0000 </r>
       <r>    -6.7230     0.0000     8.0000 </r>
       <r>    -6.6525     0.0000     8.0000 </r>
       <r>    -6.5820     0.0000     8.0000 </r>
       <r>    -6.5114     0.0000     8.0000 </r>
       <r>    -6.4409     0.0000     8.0000 </r>
       <r>    -6.3704     0.0000     8.0000 </r>
       <r>    -6.2998     0.0000     8.0000 </r>
       <r>    -6.2293     0.0000     8.0000 </r>
       <r>    -6.1588     0.0000     8.0000 </r>
       <r>    -6.0882     0.0000     8.0000 </r>
       <r>    -6.0177     0.0000     8.0000 </r>
       <r>    -5.9472     0.0000     8.0000 </r>
       <r>    -5.8766     0.0000     8.0000 </r>
       <r>    -5.8061     0.0000     8.0000 </r>
       <r>    -5.7356     0.0000     8.0000 </r>
       <r>    -5.6650     0.0000     8.0000 </r>
       <r>    -5.5945     0.0000     8.0000 </r>
       <r>    -5.5240     0.0000     8.0000 </r>
       <r>    -5.4534     0.0000     8.0000 </r>
       <r>    -5.3829     0.0000     8.0000 </r>
       <r>    -5.3124     0.0000     8.0000 </r>
       <r>    -5.2418     0.0000     8.0000 </r>
       <r>    -5.1713     0.0000     8.0000 </r>
       <r>    -5.1008     0.0000     8.0000 </r>
       <r>    -5.0302     0.0000     8.0000 </r>
       <r>    -4.9597     0.0000     8.0000 </r>
       <r>    -4.8892     0.0000     8.0000 </r>
       <r>    -4.8186     0.0000     8.0000 </r>
       <r>    -4.7481     0.0000     8.0000 </r>
       <r>    -4.6776     0.0000     8.0000 </r>
       <r>    -4.6070     0.0000     8.0000 </r>
       <r>    -4.5365     0.0000     8.0000 </r>
       <r>    -4.4660     0.0000     8.0000 </r>
       <r>    -4.3954     0.0000     8.0000 </r>
       <r>    -4.3249     0.0000     8.0000 </r>
       <r>    -4.2544     0.0000     8.0000 </r>
       <r>    -4.1838     0.0000     8.0000 </r>
       <r>    -4.1133     0.0000     8.0000 </r>
       <r>    -4.0428     0.0000     8.0000 </r>
       <r>    -3.9722     0.0000     8.0000 </r>
       <r>    -3.9017     0.0000     8.0000 </r>
       <r>    -3.8312     0.0000     8.0000 </r>
       <r>    -3.7606     0.0000     8.0000 </r>
       <r>    -3.6901     0.0000     8.0000 </r>
       <r>    -3.6196     0.0000     8.0000 </r>
       <r>    -3.5490     0.0000     8.0000 </r>
       <r>    -3.4785     0.0000     8.0000 </r>
       <r>    -3.4080     0.0000     8.0000 </r>
       <r>    -3.3374     0.0000     8.0000 </r>
       <r>    -3.2669     0.0000     8.0000 </r>
       <r>    -3.1964     0.0000     8.0000 </r>
       <r>    -3.1258     0.0000     8.0000 </r>
       <r>    -3.0553     0.0000     8.0000 </r>
       <r>    -2.9848     0.0000     8.0000 </r>
       <r>    -2.9142     0.0000     8.0000 </r>
       <r>    -2.8437     0.0000     8.0000 </r>
       <r>    -2.7732     0.0000     8.0000 </r>
       <r>    -2.7026     0.0000     8.0000 </r>
       <r>    -2.6321     0.0000     8.0000 </r>
       <r>    -2.5616     0.3348     8.0067 </r>
       <r>    -2.4910     0.9642     8.0522 </r>
       <r>    -2.4205     1.7044     8.1455 </r>
       <r>    -2.3500     2.5689     8.2955 </r>
       <r>    -2.2794     3.4770     8.5088 </r>
       <r>    -2.2089     8.2743     8.8282 </r>
       <r>    -2.1384     9.6525     9.7806 </r>
       <r>    -2.0678     8.1978    10.2648 </r>
       <r>    -1.9973     9.0718    10.9034 </r>
       <r>    -1.9268     6.6269    11.4687 </r>
       <r>    -1.8562     3.6441    11.8311 </r>
       <r>    -1.7857     0.8307    11.9840 </r>
       <r>    -1.7152    12.4499    12.1045 </r>
       <r>    -1.6446     6.2507    12.7590 </r>
       <r>    -1.5741     4.7562    13.1373 </r>
       <r>    -1.5036     3.5920    13.4318 </r>
       <r>    -1.4330     2.4278    13.6440 </r>
       <r>    -1.3625     2.1237    13.7995 </r>
       <r>    -1.2920     1.9912    13.9446 </r>
       <r>    -1.2214     1.8587    14.0804 </r>
       <r>    -1.1509     1.7263    14.2068 </r>
       <r>    -1.0804     1.5940    14.3239 </r>
       <r>    -1.0098     1.4993    14.4322 </r>
       <r>    -0.9393     1.7747    14.5412 </r>
       <r>    -0.8688     5.9587    14.7911 </r>
       <r>    -0.7982    11.1366    15.3953 </r>
       <r>    -0.7277    14.7350    16.3237 </r>
       <r>    -0.6572     8.9589    17.1599 </r>
       <r>    -0.5866     6.2011    17.6947 </r>
       <r>    -0.5161     3.4714    18.0343 </r>
       <r>    -0.4456     2.8335    18.2431 </r>
       <r>    -0.3750     3.3804    18.4602 </r>
       <r>    -0.3045     3.9923    18.7202 </r>
       <r>    -0.2340     4.6029    19.0233 </r>
       <r>    -0.1634     4.6241    19.3381 </r>
       <r>    -0.0929     8.8141    19.6986 </r>
       <r>    -0.0223    11.2326    20.7208 </r>
       <r>     0.0482     7.6630    21.3302 </r>
       <r>     0.1187     6.2595    21.8213 </r>
       <r>     0.1893     5.0248    22.2160 </r>
       <r>     0.2598     4.0553    22.5333 </r>
       <r>     0.3303     4.0338    22.8102 </r>
       <r>     0.4009     3.5302    23.0772 </r>
       <r>     0.4714     2.9980    23.3076 </r>
       <r>     0.5419     2.6705    23.5018 </r>
       <r>     0.6125     2.8998    23.6983 </r>
       <r>     0.6830     3.1289    23.9109 </r>
       <r>     0.7535     3.3581    24.1397 </r>
       <r>     0.8241     4.0060    24.4090 </r>
       <r>     0.8946     3.9879    24.6909 </r>
       <r>     0.9651     4.9071    25.0152 </r>
       <r>     1.0357     4.9520    25.3605 </r>
       <r>     1.1062    13.2464    25.9146 </r>
       <r>     1.1767     9.5285    26.6998 </r>
       <r>     1.2473     8.6613    27.3409 </r>
       <r>     1.3178     7.3345    27.9067 </r>
       <r>     1.3883     6.0117    28.3770 </r>
       <r>     1.4589     3.6761    28.7000 </r>
       <r>     1.5294     3.2413    28.9389 </r>
       <r>     1.5999     3.4818    29.1730 </r>
       <r>     1.6705     4.1430    29.4383 </r>
       <r>     1.7410     5.0135    29.7613 </r>
       <r>     1.8115     5.6705    30.1407 </r>
       <r>     1.8821     6.1625    30.5584 </r>
       <r>     1.9526     7.0672    31.0167 </r>
       <r>     2.0231     6.0578    31.5002 </r>
       <r>     2.0937     3.1824    31.8210 </r>
       <r>     2.1642     1.6231    31.9839 </r>
       <r>     2.2347     2.8631    32.1171 </r>
       <r>     2.3053     5.4063    32.4086 </r>
       <r>     2.3758     6.5889    32.8492 </r>
       <r>     2.4463     6.9740    33.3275 </r>
       <r>     2.5169     7.4660    33.8350 </r>
       <r>     2.5874     8.0487    34.3822 </r>
       <r>     2.6579     4.2070    34.8423 </r>
       <r>     2.7285     3.6939    35.1209 </r>
       <r>     2.7990     3.5550    35.3770 </r>
       <r>     2.8695     2.9949    35.6110 </r>
       <r>     2.9401     2.1146    35.7932 </r>
       <r>     3.0106     1.2471    35.9110 </r>
       <r>     3.0811     0.4956    35.9718 </r>
       <r>     3.1517     0.1686    35.9918 </r>
       <r>     3.2222     0.0455    35.9988 </r>
       <r>     3.2927     0.0003    36.0000 </r>
       <r>     3.3633     0.0000    36.0000 </r>
       <r>     3.4338     0.0000    36.0000 </r>
       <r>     3.5043     0.0000    36.0000 </r>
       <r>     3.5749     0.0000    36.0000 </r>
       <r>     3.6454     0.0000    36.0000 </r>
       <r>     3.7159     0.0000    36.0000 </r>
       <r>     3.7865     0.0000    36.0000 </r>
       <r>     3.8570     0.0000    36.0000 </r>
       <r>     3.9275     0.0000    36.0000 </r>
       <r>     3.9981     0.0000    36.0000 </r>
       <r>     4.0686     0.0000    36.0000 </r>
       <r>     4.1391     0.0000    36.0000 </r>
       <r>     4.2097     0.0000    36.0000 </r>
       <r>     4.2802     0.0000    36.0000 </r>
       <r>     4.3507     0.0000    36.0000 </r>
       <r>     4.4213     0.0000    36.0000 </r>
       <r>     4.4918     0.0000    36.0000 </r>
       <r>     4.5623     0.0000    36.0000 </r>
       <r>     4.6329     0.0000    36.0000 </r>
       <r>     4.7034     0.0000    36.0000 </r>
       <r>     4.7739     0.0754    36.0006 </r>
       <r>     4.8445     0.4221    36.0181 </r>
       <r>     4.9150     0.7695    36.0601 </r>
       <r>     4.9855     1.5508    36.1373 </r>
       <r>     5.0561     3.1505    36.2976 </r>
       <r>     5.1266     5.9284    36.6103 </r>
       <r>     5.1971     9.8443    37.1619 </r>
       <r>     5.2677    20.9554    38.1109 </r>
       <r>     5.3382     2.9386    39.4664 </r>
       <r>     5.4087     2.7840    39.6557 </r>
       <r>     5.4793     4.1272    39.8927 </r>
       <r>     5.5498     6.6012    40.2645 </r>
       <r>     5.6203     8.4441    40.7947 </r>
       <r>     5.6909    10.8253    41.4638 </r>
       <r>     5.7614     7.7985    42.2255 </r>
       <r>     5.8319    10.1579    42.9114 </r>
       <r>     5.9025     5.7674    43.4250 </r>
       <r>     5.9730     3.1243    43.7304 </r>
       <r>     6.0435     1.6719    43.8987 </r>
       <r>     6.1141     0.6239    43.9757 </r>
       <r>     6.1846     0.0967    43.9985 </r>
       <r>     6.2551     0.0000    44.0000 </r>
       <r>     6.3257     0.0000    44.0000 </r>
       <r>     6.3962     0.0000    44.0000 </r>
       <r>     6.4667     0.0000    44.0000 </r>
       <r>     6.5373     0.0000    44.0000 </r>
       <r>     6.6078     0.0000    44.0000 </r>
       <r>     6.6783     0.0000    44.0000 </r>
       <r>     6.7489     0.0000    44.0000 </r>
       <r>     6.8194     0.0000    44.0000 </r>
       <r>     6.8899     0.0000    44.0000 </r>
       <r>     6.9605     0.0000    44.0000 </r>
       <r>     7.0310     0.0000    44.0000 </r>
       <r>     7.1015     0.0000    44.0000 </r>
       <r>     7.1721     0.0000    44.0000 </r>
       <r>     7.2426     0.0000    44.0000 </r>
       <r>     7.3131     0.0000    44.0000 </r>
       <r>     7.3837     0.0000    44.0000 </r>
       <r>     7.4542     0.0000    44.0000 </r>
       <r>     7.5247     0.0000    44.0000 </r>
       <r>     7.5953     0.0000    44.0000 </r>
       <r>     7.6658     0.0000    44.0000 </r>
       <r>     7.7363     0.0000    44.0000 </r>
       <r>     7.8069     0.0000    44.0000 </r>
       <r>     7.8774     0.0000    44.0000 </r>
       <r>     7.9479     0.0000    44.0000 </r>
       <r>     8.0185     0.0000    44.0000 </r>
       <r>     8.0890     0.0000    44.0000 </r>
       <r>     8.1596     0.0000    44.0000 </r>
       <r>     8.2301     0.0000    44.0000 </r>
      </set>
     </set>
    </array>
   </total>
  </dos>
 </calculation>
 <structure name="finalpos" >
  <crystal>
   <varray name="basis" >
    <v>       3.19031573       0.00000000       0.00000000 </v>
    <v>      -1.59515786       2.76289447       0.00000000 </v>
    <v>       0.00000000       0.00000000      14.87900430 </v>
   </varray>
   <i name="volume">    131.15106795 </i>
   <varray name="rec_basis" >
    <v>       0.31344860       0.18096963       0.00000000 </v>
    <v>       0.00000000       0.36193927       0.00000000 </v>
    <v>       0.00000000       0.00000000       0.06720880 </v>
   </varray>
  </crystal>
  <varray name="positions" >
   <v>       0.33333300       0.66666700       0.25000000 </v>
   <v>       0.66666700       0.33333300       0.75000000 </v>
   <v>       0.33333300       0.66666700       0.85517400 </v>
   <v>       0.66666700       0.33333300       0.14482600 </v>
   <v>       0.66666600       0.33333300       0.35517400 </v>
   <v>       0.33333400       0.66666700       0.64482600 </v>
  </varray>
 </structure>
</modeling>
