unknown system                          
   1.00000000000000     
     3.190316    0.000000    0.000000
    -1.595158    2.762894    0.000000
     0.000000    0.000000   26.879004
   Mo   S 
     1     2
Direct
  0.333333  0.666667  0.138389
  0.666667  0.333333  0.080169
  0.666666  0.333333  0.196608
 
   24   24  216
 0.36937     0.37480     0.38949     0.41497     0.45380     0.50536     0.56535     0.62858     0.69048     0.74710    
 0.79461     0.82737     0.83741     0.82029     0.78248     0.73716     0.69048     0.63742     0.57417     0.50865    
 0.45379     0.41491     0.38923     0.37404     0.37453     0.37505     0.38853     0.41555     0.45795     0.51631    
 0.58888     0.67157     0.75711     0.83610     0.90190     0.95240     0.98367     0.98589     0.95210     0.88970    
 0.81612     0.74279     0.66938     0.59398     0.52178     0.46118     0.41655     0.38799     0.38961     0.38088    
 0.38916     0.41600     0.46126     0.52340     0.60217     0.69720     0.80282     0.90698     0.99735      1.0676    
  1.1160      1.1393      1.1294      1.0801     0.99610     0.89370     0.79029     0.69426     0.60592     0.52631    
 0.46110     0.41552     0.41648     0.39549     0.39264     0.41412     0.46129     0.52762     0.61024     0.71243    
 0.83158     0.95499      1.0692      1.1648      1.2334      1.2691      1.2733      1.2476      1.1854      1.0827    
 0.95469     0.82723     0.71358     0.61180     0.52322     0.45707     0.45379     0.42094     0.40358     0.41091    
 0.45379     0.52363     0.60909     0.71524     0.84607     0.98600      1.1170      1.2351      1.3334      1.3915    
  1.4005      1.3773      1.3334      1.2545      1.1308     0.98463     0.84608     0.72078     0.60554     0.51252    
 0.49790     0.45302     0.42462     0.41237     0.43986     0.50808     0.59452     0.69748     0.83362     0.99256    
  1.1412      1.2712      1.3938      1.4916      1.5282      1.5048      1.4559      1.3895      1.2822      1.1351    
 0.98266     0.84258     0.70652     0.58274     0.54988     0.48552     0.45145     0.42411     0.42723     0.48394    
 0.57080     0.66566     0.79048     0.95902      1.1324      1.2747      1.4024      1.5293      1.6158      1.6243    
  1.5778      1.5115      1.4145      1.2699      1.1065     0.95777     0.81495     0.66835     0.61490     0.51898    
 0.47590     0.44387     0.42356     0.45626     0.54019     0.63340     0.73739     0.89093      1.0812      1.2480    
  1.3773      1.5043      1.6235      1.6817      1.6657      1.6129      1.5325      1.3982      1.2232      1.0587    
 0.91470     0.76277     0.69048     0.56017     0.49487     0.46212     0.42967     0.43104     0.49816     0.59601    
 0.69048     0.81385     0.99428      1.1852      1.3334      1.4548      1.5762      1.6650      1.6838      1.6543    
  1.6020      1.5006      1.3334      1.1499     0.99572     0.84954     0.76107     0.61093     0.51394     0.47192    
 0.43917     0.41607     0.44948     0.53956     0.63800     0.74073     0.89019      1.0814      1.2553      1.3897    
  1.5109      1.6130      1.6550      1.6383      1.6019      1.5394      1.4099      1.2283      1.0577     0.91312    
 0.80998     0.66141     0.53971     0.47636     0.44407     0.41369     0.41321     0.47318     0.56728     0.66396    
 0.78412     0.95026      1.1296      1.2821      1.4143      1.5333      1.6037      1.6025      1.5640      1.5159    
  1.4280      1.2764      1.1023     0.95107     0.83333     0.69729     0.56960     0.48380     0.44214     0.41463    
 0.39875     0.42375     0.49350     0.58132     0.68294     0.81822     0.97931      1.1320      1.2676      1.3975    
  1.5017      1.5398      1.5147      1.4648      1.3957      1.2806      1.1248     0.97031     0.83741     0.71157    
 0.59237     0.49665     0.43906     0.40878     0.39226     0.39847     0.43906     0.50599     0.59065     0.70095    
 0.83741     0.97692      1.1021      1.2207      1.3334      1.4104      1.4266      1.3939      1.3334      1.2425    
  1.1156     0.97253     0.82625     0.70726     0.59902     0.50786     0.44110     0.39980     0.37988     0.38043    
 0.40335     0.44719     0.51050     0.59771     0.71047     0.83542     0.95291      1.0564      1.1502      1.2297    
  1.2774      1.2809      1.2427      1.1706      1.0702     0.95077     0.79788     0.69047     0.59059     0.50915    
 0.44627     0.39833     0.36851     0.36175     0.37513     0.40245     0.44464     0.50785     0.59392     0.69750    
 0.80835     0.91258     0.99755      1.0602      1.1048      1.1290      1.1203      1.0723     0.99446     0.90087    
 0.75116     0.66375     0.57408     0.49990     0.44652     0.40381     0.36927     0.35280     0.35670     0.37203    
 0.39688     0.43897     0.49940     0.57234     0.65839     0.75755     0.85182     0.91751     0.95345     0.97472    
 0.98129     0.95748     0.90141     0.82950     0.69048     0.62656     0.55359     0.48625     0.43908     0.40603    
 0.37686     0.35712     0.35409     0.36085     0.37186     0.39628     0.43906     0.48866     0.53978     0.60589    
 0.69048     0.76811     0.81476     0.83617     0.84607     0.83822     0.80244     0.74842     0.62369     0.58006    
 0.52834     0.47319     0.43039     0.40324     0.38176     0.36493     0.36043     0.36478     0.36815     0.37668    
 0.40423     0.44471     0.47958     0.51076     0.55721     0.61881     0.67207     0.70334     0.71912     0.72191    
 0.70360     0.66619     0.55864     0.52992     0.49810     0.46067     0.42697     0.40469     0.38889     0.37536    
 0.37015     0.37484     0.37849     0.37723     0.38554     0.41331     0.44743     0.47187     0.49144     0.51919    
 0.55323     0.58226     0.60237     0.61332     0.60927     0.58786     0.50117     0.48368     0.46676     0.44722    
 0.42792     0.41504     0.40736     0.39951     0.39364     0.39555     0.40101     0.39983     0.39394     0.39740    
 0.41637     0.44113     0.46076     0.47459     0.48661     0.49849     0.51067     0.52186     0.52608     0.51796    
 0.45380     0.44577     0.43945     0.43407     0.42965     0.42930     0.43369     0.43809     0.43908     0.43965    
 0.44300     0.44505     0.43906     0.42629     0.41657     0.41807     0.42967     0.44327     0.45152     0.45342    
 0.45379     0.45692     0.46088     0.46027     0.41645     0.41629     0.41849     0.42412     0.43273     0.44460    
 0.46072     0.47954     0.49592     0.50553     0.50920     0.51047     0.50877     0.49840     0.47641     0.44948    
 0.42968     0.42291     0.42416     0.42458     0.42115     0.41725     0.41605     0.41653     0.38935     0.39440    
 0.40348     0.41844     0.43931     0.46408     0.49153     0.52194     0.55345     0.57965     0.59400     0.59637    
 0.59223     0.58415     0.56735     0.53634     0.49472     0.45490     0.42731     0.41236     0.40344     0.39572    
 0.38968     0.38750     0.37375     0.38060     0.39393     0.41578     0.44754     0.48682     0.52945     0.57319    
 0.61731     0.65864     0.69000     0.70415     0.69986     0.68320     0.66095     0.63286     0.59304     0.54044    
 0.48505     0.44029     0.41112     0.39288     0.38042     0.37355     0.48990     0.49923     0.52553     0.57048    
 0.63658     0.72239     0.82181     0.92697      1.0300      1.1234      1.2000      1.2515      1.2679      1.2440    
  1.1872      1.1129      1.0300     0.93634     0.83116     0.72588     0.63658     0.57043     0.52526     0.49841    
 0.49894     0.49947     0.52372     0.57198     0.64550     0.74380     0.86325     0.99708      1.1344      1.2617    
  1.3680      1.4480      1.4950      1.4973      1.4477      1.3551      1.2406      1.1194     0.99484     0.86863    
 0.74951     0.64888     0.57305     0.52319     0.52564     0.51000     0.52519     0.57246     0.65063     0.75659    
 0.88809      1.0422      1.2096      1.3739      1.5178      1.6303      1.7062      1.7393      1.7203      1.6435    
  1.5165      1.3599      1.1964      1.0390     0.89197     0.75962     0.65047     0.57195     0.57206     0.53457    
 0.53158     0.56960     0.64898     0.76098     0.90028      1.0676      1.2572      1.4517      1.6325      1.7849    
  1.8950      1.9526      1.9570      1.9100      1.8067      1.6469      1.4514      1.2525      1.0688     0.90192    
 0.75637     0.64453     0.63658     0.57586     0.54862     0.56528     0.63657     0.75144     0.89527      1.0705    
  1.2783      1.4986      1.7080      1.8971      2.0528      2.1479      2.1692      2.1329      2.0528      1.9176    
  1.7225      1.4971      1.2783      1.0764     0.89159     0.73975     0.71456     0.62961     0.58001     0.56708    
 0.61573     0.72530     0.86919      1.0424      1.2592      1.5055      1.7422      1.9554      2.1506      2.3027    
  2.3675      2.3427      2.2650      2.1460      1.9669      1.7357      1.4950      1.2687      1.0520     0.85678    
 0.80553     0.68876     0.62175     0.58222     0.59620     0.68712     0.82766     0.99094      1.1966      1.4559    
  1.7242      1.9590      2.1714      2.3687      2.5016      2.5251      2.4614      2.3499      2.1842      1.9540    
  1.6969      1.4546      1.2224     0.99374     0.91255     0.75250     0.66498     0.60914     0.58768     0.64422    
 0.77494     0.93218      1.1137      1.3570      1.6452      1.9108      2.1331      2.3423      2.5243      2.6159    
  2.5990      2.5131      2.3721      2.1552      1.8846      1.6214      1.3821      1.1404      1.0300     0.82581    
 0.70527     0.63784     0.59226     0.60499     0.70869     0.86360      1.0300      1.2382      1.5146      1.8065    
  2.0528      2.2638      2.4597      2.5982      2.6337      2.5869      2.4871      2.3121      2.0528      1.7692    
  1.5161      1.2758      1.1381     0.90787     0.74667     0.66020     0.60360     0.57921     0.63650     0.77363    
 0.93634      1.1166      1.3557      1.6450      1.9181      2.1461      2.3492      2.5132      2.5877      2.5701    
  2.5014      2.3793      2.1674      1.8896      1.6199      1.3798      1.2162     0.98550     0.79387     0.67811    
 0.61292     0.57019     0.58039     0.67480     0.82298     0.98815      1.1889      1.4457      1.7205      1.9664    
  2.1837      2.3728      2.4888      2.5021      2.4469      2.3545      2.1982      1.9603      1.6916      1.4466    
  1.2578      1.0411     0.84186     0.69856     0.61691     0.56815     0.55141     0.59757     0.70891     0.85431    
  1.0260      1.2418      1.4903      1.7316      1.9510      2.1543      2.3134      2.3798      2.3533      2.2743    
  2.1524      1.9648      1.7239      1.4809      1.2679      1.0656     0.87672     0.72205     0.61995     0.56173    
 0.53524     0.55081     0.61994     0.73198     0.87495      1.0543      1.2679      1.4878      1.6915      1.8816    
  2.0528      2.1681      2.1971      2.1506      2.0528      1.9047      1.7058      1.4832      1.2503      1.0610    
 0.88754     0.73935     0.62680     0.55337     0.51675     0.51723     0.55696     0.63318     0.74216     0.88613    
  1.0644      1.2600      1.4485      1.6185      1.7694      1.8914      1.9619      1.9655      1.9052      1.7910    
  1.6331      1.4462      1.2034      1.0339     0.87489     0.74071     0.63394     0.55276     0.50207     0.48829    
 0.50892     0.55704     0.63226     0.73932     0.87832      1.0414      1.2145      1.3793      1.5180      1.6230    
  1.6952      1.7293      1.7114      1.6358      1.5148      1.3669      1.1276     0.98792     0.84665     0.72553    
 0.63244     0.55842     0.50201     0.47439     0.47848     0.50493     0.55123     0.62453     0.72491     0.84475    
 0.98234      1.1344      1.2782      1.3850      1.4501      1.4867      1.4936      1.4542      1.3681      1.2548    
  1.0300     0.92428     0.80854     0.70125     0.61996     0.55978     0.51075     0.47892     0.47201     0.48282    
 0.50556     0.54965     0.61994     0.70368     0.79395     0.90256      1.0300      1.1460      1.2222      1.2620    
  1.2783      1.2641      1.2092      1.1254     0.92191     0.84675     0.76181     0.67483     0.60459     0.55587    
 0.51867     0.49166     0.48238     0.48689     0.49497     0.51339     0.55701     0.61963     0.68148     0.74332    
 0.82272     0.91669     0.99762      1.0486      1.0747      1.0776      1.0488     0.99150     0.81482     0.76408    
 0.70861     0.64830     0.59493     0.55772     0.53174     0.51199     0.50376     0.50782     0.51243     0.51391    
 0.52825     0.56679     0.61642     0.66013     0.70170     0.75276     0.80901     0.85624     0.88828     0.90353    
 0.89546     0.86215     0.71800     0.68686     0.65529     0.62205     0.59170     0.57160     0.56048     0.55195    
 0.54687     0.54984     0.55552     0.55330     0.54608     0.55001     0.57295     0.60562     0.63642     0.66363    
 0.68989     0.71512     0.73783     0.75497     0.75936     0.74546     0.63658     0.62197     0.60910     0.59879    
 0.59224     0.59316     0.60192     0.61258     0.61996     0.62532     0.63057     0.63095     0.61995     0.60022    
 0.58389     0.58127     0.59226     0.60855     0.62183     0.62998     0.63657     0.64443     0.65025     0.64791    
 0.57203     0.57095     0.57355     0.58226     0.59741     0.61936     0.64837     0.68144     0.71132     0.73141    
 0.74078     0.74212     0.73486     0.71401     0.67819     0.63649     0.60357     0.58705     0.58229     0.57995    
 0.57606     0.57292     0.57253     0.57300     0.52537     0.53344     0.54851     0.57348     0.60894     0.65253    
 0.70178     0.75513     0.80837     0.85246     0.87842     0.88470     0.87656     0.85724     0.82307     0.77031    
 0.70511     0.64281     0.59628     0.56706     0.54846     0.53483     0.52573     0.52262     0.49810     0.50974    
 0.53294     0.57038     0.62377     0.69012     0.76358     0.83957     0.91464     0.98261      1.0334      1.0577    
  1.0532      1.0262     0.98500     0.93101     0.86051     0.77517     0.68826     0.61617     0.56550     0.53182    
 0.50950     0.49787     0.64973     0.66575     0.71164     0.78822     0.89666      1.0335      1.1900      1.3548    
  1.5161      1.6618      1.7801      1.8585      1.8841      1.8506      1.7664      1.6506      1.5161      1.3648    
  1.1999      1.0372     0.89668     0.78820     0.71136     0.66487     0.66543     0.66598     0.70765     0.78958    
 0.91100      1.0688      1.2565      1.4640      1.6764      1.8747      2.0421      2.1672      2.2386      2.2411    
  2.1669      2.0284      1.8523      1.6605      1.4617      1.2622      1.0748     0.91455     0.79073     0.70712    
 0.71175     0.68531     0.71128     0.79009     0.91818      1.0892      1.2976      1.5373      1.7956      2.0507    
  2.2782      2.4591      2.5803      2.6297      2.5953      2.4731      2.2768      2.0359      1.7817      1.5339    
  1.3016      1.0923     0.91800     0.78955     0.78989     0.72752     0.72437     0.78731     0.91464      1.0938    
  1.3155      1.5777      1.8715      2.1753      2.4631      2.7109      2.8932      2.9900      2.9947      2.9091    
  2.7339      2.4784      2.1749      1.8665      1.5788      1.3172      1.0889     0.90994     0.89668     0.79502    
 0.75330     0.78382     0.89667      1.0769      1.3050      1.5806      1.9026      2.2474      2.5850      2.8965    
  3.1556      3.3200      3.3651      3.3041      3.1556      2.9182      2.6003      2.2457      1.9026      1.5869    
  1.3012      1.0645      1.0253     0.88255     0.80234     0.78867     0.86788      1.0366      1.2628      1.5374    
  1.8736      2.2546      2.6357      2.9944      3.3232      3.5792      3.7000      3.6737      3.5392      3.3184    
  3.0066      2.6288      2.2435      1.8837      1.5477      1.2497      1.1728     0.98132     0.86725     0.81051    
 0.84017     0.97962      1.1963      1.4577      1.7819      2.1797      2.6020      2.9982      3.3679      3.7013    
  3.9270      3.9820      3.8844      3.6814      3.3815      2.9928      2.5731      2.1783      1.8092      1.4606    
  1.3395      1.0885     0.93776     0.84819     0.82539     0.91569      1.1123      1.3605      1.6546      2.0329    
  2.4766      2.9109      3.3047      3.6733      3.9811      4.1417      4.1238      3.9694      3.7049      3.3281    
  2.8832      2.4514      2.0594      1.6828      1.5161      1.2064      1.0074     0.89063     0.82668     0.85578    
  1.0110      1.2464      1.5161      1.8499      2.2749      2.7338      3.1556      3.5379      3.8826      4.1230    
  4.1940      4.1110      3.9116      3.5892      3.1556      2.6943      2.2764      1.8897      1.6774      1.3311    
  1.0781     0.92797     0.83731     0.81151     0.90288      1.1066      1.3611      1.6544      2.0290      2.4747    
  2.9177      3.3180      3.6806      3.9695      4.1118      4.0931      3.9570      3.7125      3.3407      2.8875    
  2.4481      2.0546      1.7972      1.4450      1.1522     0.96047     0.84728     0.78678     0.81286     0.95703    
  1.1831      1.4478      1.7682      2.1648      2.5955      3.0046      3.3805      3.7057      3.9134      3.9576    
  3.8690      3.6863      3.3959      2.9982      2.5649      2.1657      1.8651      1.5269      1.2221     0.99384    
 0.85221     0.77139     0.75364     0.83175      1.0049      1.2354      1.5109      1.8482      2.2336      2.6215    
  2.9883      3.3268      3.5905      3.7131      3.6850      3.5492      3.3248      3.0029      2.6134      2.2236    
  1.8841      1.5649      1.2712      1.0272     0.85610     0.75363     0.71132     0.74198     0.85609      1.0378    
  1.2694      1.5530      1.8841      2.2310      2.5647      2.8790      3.1556      3.3419      3.3951      3.3233    
  3.1556      2.9035      2.5799      2.2261      1.8572      1.5602      1.2869      1.0500     0.86368     0.73667    
 0.67152     0.67192     0.74030     0.87041      1.0530      1.2854      1.5636      1.8675      2.1679      2.4466    
  2.6945      2.8905      3.0012      3.0051      2.9049      2.7174      2.4621      2.1653      1.7835      1.5194    
  1.2694      1.0514     0.87126     0.73153     0.64261     0.61559     0.64970     0.73599     0.86952      1.0499    
  1.2729      1.5272      1.7955      2.0540      2.2784      2.4531      2.5714      2.6220      2.5884      2.4666    
  2.2751      2.0409      1.6661      1.4475      1.2272      1.0309     0.86956     0.73741     0.63773     0.58699    
 0.59127     0.64082     0.72993     0.86127      1.0302      1.2252      1.4417      1.6734      1.8922      2.0624    
  2.1736      2.2348      2.2419      2.1779      2.0446      1.8674      1.5161      1.3483      1.1678     0.99681    
 0.85609     0.74327     0.65162     0.59174     0.57518     0.59581     0.64624     0.73276     0.85609     0.99922    
  1.1523      1.3254      1.5161      1.6887      1.8090      1.8767      1.9026      1.8787      1.7952      1.6670    
  1.3496      1.2285      1.0941     0.95711     0.83924     0.74739     0.67348     0.61915     0.59536     0.60003    
 0.62257     0.66801     0.74871     0.85504     0.96401      1.0746      1.2032      1.3440      1.4646      1.5442    
  1.5851      1.5881      1.5443      1.4582      1.1827      1.1008      1.0109     0.91536     0.82826     0.76039    
 0.70769     0.66650     0.64434     0.64380     0.65334     0.66845     0.70404     0.76996     0.85092     0.92793    
  1.0037      1.0888      1.1764      1.2491      1.2977      1.3189      1.3052      1.2553      1.0289     0.97937    
 0.92744     0.87384     0.82469     0.78823     0.76325     0.74327     0.72980     0.72848     0.73440     0.73646    
 0.73706     0.75221     0.78964     0.83942     0.88915     0.93632     0.98248      1.0258      1.0625      1.0875    
  1.0920      1.0705     0.89666     0.87447     0.85384     0.83719     0.82668     0.82623     0.83555     0.84755    
 0.85609     0.86217     0.86780     0.86807     0.85610     0.83457     0.81651     0.81359     0.82668     0.84756    
 0.86734     0.88293     0.89667     0.90988     0.91779     0.91351     0.78987     0.78982     0.79553     0.81056    
 0.83576     0.87107     0.91546     0.96399      1.0073      1.0371      1.0515      1.0529      1.0408      1.0103    
 0.96057     0.90283     0.85430     0.82479     0.81061     0.80229     0.79523     0.79085     0.79019     0.79066    
 0.71147     0.72635     0.75320     0.79543     0.85367     0.92458      1.0038      1.0871      1.1676      1.2333    
  1.2730      1.2839      1.2711      1.2384      1.1832      1.1032      1.0073     0.91426     0.84025     0.78862    
 0.75313     0.72781     0.71184     0.70647     0.66454     0.68509     0.72581     0.78918     0.87634     0.98277    
  1.1002      1.2210      1.3382      1.4420      1.5188      1.5565      1.5517      1.5112      1.4445      1.3556    
  1.2432      1.1125     0.98077     0.86829     0.78406     0.72463     0.68477     0.66426     0.86798     0.89380    
 0.96814      1.0899      1.2577      1.4657      1.7021      1.9524      2.1999      2.4253      2.6088      2.7302    
  2.7707      2.7217      2.5942      2.4133      2.1999      1.9631      1.7127      1.4696      1.2578      1.0899    
 0.96785     0.89284     0.89346     0.89404     0.96015      1.0890      1.2769      1.5177      1.8021      2.1171    
  2.4426      2.7516      3.0168      3.2156      3.3269      3.3295      3.2152      3.0022      2.7279      2.4258    
  2.1147      1.8083      1.5241      1.2807      1.0902     0.95958     0.96827     0.92712     0.96776      1.0895    
  1.2859      1.5471      1.8650      2.2313      2.6289      3.0279      3.3913      3.6850      3.8813      3.9576    
  3.8973      3.6999      3.3899      3.0123      2.6141      2.2276      1.8692      1.5504      1.2857      1.0890    
  1.0917     0.99607     0.99270      1.0889      1.2807      1.5519      1.8907      2.2935      2.7489      3.2277    
  3.6912      4.0967      4.3992      4.5611      4.5661      4.4162      4.1214      3.7074      3.2272      2.7434    
  2.2947      1.8925      1.5468      1.2758      1.2578      1.1019      1.0412      1.0899      1.2578      1.5262    
  1.8728      2.2965      2.7955      3.3406      3.8895      4.4042      4.8345      5.1132      5.1979      5.0964    
  4.8346      4.4273      3.9056      3.3388      2.7955      2.3033      1.8688      1.5131      1.4569      1.2372    
  1.1171      1.1026      1.2216      1.4690      1.8088      2.2312      2.7508      3.3481      3.9675      4.5681    
  5.1177      5.5435      5.7555      5.7275      5.5009      5.1125      4.5810      3.9602      3.3364      2.7617    
  2.2422      1.7949      1.6838      1.3910      1.2152      1.1364      1.1864      1.3893      1.7089      2.1104    
  2.6143      3.2322      3.9074      4.5720      5.2022      5.7575      6.1324      6.2385      6.0871      5.7363    
  5.2167      4.5664      3.8767      3.2309      2.6434      2.1135      1.9363      1.5585      1.3236      1.1904    
  1.1661      1.3001      1.5838      1.9587      2.4197      3.0091      3.7055      4.4196      5.0979      5.7276    
  6.2378      6.5081      6.4892      6.2254      5.7613      5.1229      4.3901      3.6787      3.0372      2.4495    
  2.1999      1.7395      1.4340      1.2528      1.1655      1.2157      1.4377      1.7819      2.1999      2.7253    
  3.3880      4.1212      4.8346      5.4995      6.0852      6.4883      6.6159      6.4756      6.1160      5.5540    
  4.8346      4.0792      3.3895      2.7677      2.4418      1.9256      1.5461      1.3120      1.1779      1.1505    
  1.2854      1.5763      1.9573      2.4173      3.0029      3.7017      4.4254      5.1111      5.7349      6.2253    
  6.4764      6.4565      6.2119      5.7688      5.1353      4.3933      3.6733      3.0301      2.6270      2.0936    
  1.6591      1.3665      1.1920      1.1093      1.1554      1.3629      1.6919      2.0965      2.5960      3.2129    
  3.8975      4.5767      5.2142      5.7615      6.1179      6.2128      6.0708      5.7409      5.2306      4.5698    
  3.8650      3.2140      2.7372      2.2156      1.7615      1.4201      1.2021      1.0816      1.0627      1.1803    
  1.4320      1.7758      2.1985      2.7191      3.3215      3.9489      4.5593      5.1204      5.5554      5.7700    
  5.7402      5.5116      5.1184      4.5748      3.9402      3.3109      2.7707      2.2747      1.8322      1.4693    
  1.2110      1.0546     0.99326      1.0421      1.2110      1.4807      1.8304      2.2620      2.7707      3.3188    
  3.8648      4.3841      4.8346      5.1376      5.2311      5.1177      4.8345      4.4102      3.8809      3.3135    
  2.7287      2.2697      1.8554      1.5009      1.2225      1.0313     0.93269     0.93299      1.0350      1.2297    
  1.5041      1.8537      2.2733      2.7398      3.2163      3.6717      4.0794      4.3979      4.5754      4.5793    
  4.4132      4.1038      3.6883      3.2135      2.6123      2.2075      1.8303      1.5024      1.2318      1.0231    
 0.89052     0.84857     0.89784      1.0278      1.2300      1.5008      1.8339      2.2159      2.6252      3.0295    
  3.3915      3.6805      3.8750      3.9529      3.8930      3.6948      3.3882      3.0156      2.4297      2.0961    
  1.7670      1.4733      1.2287      1.0293     0.88130     0.80526     0.80971     0.88451      1.0215      1.2200    
  1.4724      1.7647      2.0901      2.4376      2.7702      3.0404      3.2259      3.3272      3.3347      3.2304    
  3.0216      2.7441      2.1999      1.9438      1.6757      1.4234      1.2110      1.0381     0.89989     0.81021    
 0.78356     0.81448     0.89432      1.0272      1.2110      1.4257      1.6592      1.9196      2.1999      2.4557    
  2.6432      2.7544      2.7955      2.7563      2.6285      2.4328      1.9470      1.7629      1.5630      1.3631    
  1.1884      1.0479     0.93468     0.85228     0.81400     0.81888     0.85587     0.92904      1.0494      1.2050    
  1.3702      1.5424      1.7361      1.9410      2.1177      2.2385      2.3014      2.3045      2.2386      2.1110    
  1.6945      1.5716      1.4376      1.2986      1.1718      1.0699     0.98949     0.92739     0.89229     0.88762    
 0.90164     0.92935     0.98567      1.0801      1.1958      1.3120      1.4301      1.5588      1.6876      1.7942    
  1.8652      1.8943      1.8730      1.8009      1.4608      1.3890      1.3126      1.2349      1.1644      1.1108    
  1.0729      1.0436      1.0240      1.0200      1.0261      1.0309      1.0369      1.0612      1.1123      1.1801    
  1.2512      1.3221      1.3922      1.4574      1.5110      1.5453      1.5501      1.5194      1.2577      1.2286    
  1.2009      1.1787      1.1655      1.1660      1.1794      1.1970      1.2110      1.2210      1.2282      1.2272    
  1.2110      1.1834      1.1592      1.1526      1.1655      1.1898      1.2153      1.2376      1.2578      1.2757    
  1.2855      1.2795      1.0916      1.0963      1.1099      1.1364      1.1772      1.2320      1.2987      1.3703    
  1.4344      1.4798      1.5025      1.5041      1.4839      1.4376      1.3666      1.2852      1.2141      1.1656    
  1.1365      1.1171      1.1021      1.0927      1.0897      1.0902     0.96797     0.99483      1.0411      1.1097    
  1.2007      1.3096      1.4302      1.5557      1.6755      1.7733      1.8340      1.8520      1.8320      1.7789    
  1.6920      1.5727      1.4339      1.2986      1.1865      1.1025      1.0410     0.99637     0.96836     0.95889    
 0.89251     0.92689     0.99424      1.0956      1.2306      1.3926      1.5710      1.7550      1.9333      2.0904    
  2.2069      2.2657      2.2606      2.1988      2.0930      1.9516      1.7786      1.5841      1.3905      1.2220    
  1.0902     0.99299     0.92653     0.89219      1.1667      1.2053      1.3169      1.4980      1.7454      2.0515    
  2.4032      2.7828      3.1660      3.5216      3.8143      4.0089      4.0750      3.9997      3.7987      3.5087    
  3.1660      2.7943      2.4147      2.0557      1.7454      1.4980      1.3165      1.2043      1.2049      1.2056    
  1.3028      1.4923      1.7685      2.1244      2.5502      3.0305      3.5380      4.0315      4.4634      4.7897    
  4.9704      4.9731      4.7892      4.4478      4.0062      3.5202      3.0281      2.5567      2.1312      1.7725    
  1.4936      1.3022      1.3170      1.2575      1.3164      1.4928      1.7790      2.1651      2.6441      3.2075    
  3.8324      4.4739      5.0714      5.5618      5.8902      6.0133      5.9071      5.5778      5.0700      4.4573    
  3.8166      3.2036      2.6486      2.1687      1.7788      1.4922      1.4999      1.3626      1.3590      1.4969    
  1.7725      2.1702      2.6809      3.3038      4.0245      4.8005      5.5677      6.2493      6.7629      7.0394    
  7.0448      6.7811      6.2757      5.5850      4.7999      4.0186      3.3049      2.6828      2.1647      1.7672    
  1.7454      1.5199      1.4357      1.5072      1.7454      2.1334      2.6523      3.3068      4.0966      4.9824    
  5.8976      6.7679      7.4984      7.9778      8.1322      7.9598      7.4984      6.7925      5.9148      4.9804    
  4.0966      3.3141      2.6481      2.1194      2.0421      1.7197      1.5490      1.5335      1.7032      2.0552    
  2.5573      3.2074      4.0263      4.9903      6.0225      7.0463      7.9825      8.7049      9.0768      9.0469    
  8.6594      7.9769      7.0601      6.0147      4.9779      4.0381      3.2192      2.5425      2.3838      1.9493    