unknown system                          
   1.00000000000000     
     3.190316    0.000000    0.000000
    -1.595158    2.762894    0.000000
     0.000000    0.000000   26.879004
   Mo   S 
     1     2
Direct
  0.333333  0.666667  0.138389
  0.666667  0.333333  0.080169
  0.666666  0.333333  0.196608
 
   24   24  216
 0.36936922765E+00 0.37480304301E+00 0.38949260457E+00 0.41497355155E+00 0.45380331720E+00
 0.50536454581E+00 0.56535366046E+00 0.62857884210E+00 0.69048175717E+00 0.74710257308E+00
 0.79460732574E+00 0.82737479858E+00 0.83740980331E+00 0.82029308917E+00 0.78248459431E+00
 0.73715973476E+00 0.69048056213E+00 0.63741978291E+00 0.57416526489E+00 0.50864802849E+00
 0.45378960971E+00 0.41491322289E+00 0.38923283076E+00 0.37403934553E+00 0.37453358551E+00
 0.37504687810E+00 0.38852610131E+00 0.41555093506E+00 0.45794623238E+00 0.51631354007E+00
 0.58888275282E+00 0.67156887562E+00 0.75710918466E+00 0.83609869856E+00 0.90189910396E+00
 0.95239531929E+00 0.98367382415E+00 0.98588911056E+00 0.95209556286E+00 0.88969808119E+00
 0.81612024607E+00 0.74279036299E+00 0.66938106944E+00 0.59397573636E+00 0.52177699397E+00
 0.46117800139E+00 0.41655076508E+00 0.38798988298E+00 0.38961034414E+00 0.38088237835E+00
 0.38915950809E+00 0.41600060350E+00 0.46126225758E+00 0.52339960095E+00 0.60217026076E+00
 0.69719921141E+00 0.80281876493E+00 0.90698420440E+00 0.99735177380E+00 0.10675571165E+01
 0.11160236048E+01 0.11393068405E+01 0.11293935711E+01 0.10800796542E+01 0.99610029232E+00
 0.89369582788E+00 0.79028959981E+00 0.69426084373E+00 0.60591630086E+00 0.52630708918E+00
 0.46110176306E+00 0.41552467055E+00 0.41647523106E+00 0.39549240590E+00 0.39264037237E+00
 0.41411796687E+00 0.46129138255E+00 0.52762091098E+00 0.61024234132E+00 0.71242550735E+00
 0.83158449853E+00 0.95498959513E+00 0.10691725678E+01 0.11648455592E+01 0.12334383962E+01
 0.12691004375E+01 0.12732814881E+01 0.12476031587E+01 0.11854214779E+01 0.10827413353E+01
 0.95469168864E+00 0.82723241174E+00 0.71357721445E+00 0.61180255840E+00 0.52322474562E+00
 0.45706955751E+00 0.45378959526E+00 0.42093727619E+00 0.40358415357E+00 0.41091039049E+00
 0.45379273703E+00 0.52363249946E+00 0.60908884562E+00 0.71523742526E+00 0.84607338134E+00
 0.98600247244E+00 0.11169863190E+01 0.12350699353E+01 0.13333911096E+01 0.13914568267E+01
 0.14004926357E+01 0.13772507779E+01 0.13333853676E+01 0.12545237086E+01 0.11307555007E+01
 0.98463428521E+00 0.84607511082E+00 0.72078034626E+00 0.60553880120E+00 0.51251761357E+00
 0.49790426661E+00 0.45302456939E+00 0.42462314170E+00 0.41236865351E+00 0.43986105006E+00
 0.50808156520E+00 0.59452321479E+00 0.69748041369E+00 0.83362228341E+00 0.99256151388E+00
 0.11412340299E+01 0.12712496358E+01 0.13937916852E+01 0.14915766568E+01 0.15282087420E+01
 0.15047818344E+01 0.14558969080E+01 0.13894930588E+01 0.12821618513E+01 0.11350732840E+01
 0.98265566557E+00 0.84257883385E+00 0.70652494178E+00 0.58273776099E+00 0.54988266106E+00
 0.48551759418E+00 0.45145240292E+00 0.42410888247E+00 0.42723475842E+00 0.48393568271E+00
 0.57079785601E+00 0.66566044854E+00 0.79047648590E+00 0.95902339282E+00 0.11324006271E+01
 0.12747203208E+01 0.14023671787E+01 0.15293035733E+01 0.16157999474E+01 0.16242817415E+01
 0.15777669059E+01 0.15115186828E+01 0.14144956800E+01 0.12698977795E+01 0.11064728880E+01
 0.95777401650E+00 0.81494972203E+00 0.66835499838E+00 0.61489737243E+00 0.51897547969E+00
 0.47589770102E+00 0.44386838229E+00 0.42355955598E+00 0.45626289700E+00 0.54019155960E+00
 0.63340279748E+00 0.73739293502E+00 0.89093336621E+00 0.10812233457E+01 0.12480372366E+01
 0.13772553087E+01 0.15042812478E+01 0.16235181799E+01 0.16817151028E+01 0.16656673342E+01
 0.16129272804E+01 0.15325207847E+01 0.13982310975E+01 0.12232361667E+01 0.10586568944E+01
 0.91469791287E+00 0.76276637466E+00 0.69048056977E+00 0.56017255315E+00 0.49486780121E+00
 0.46212113973E+00 0.42966953931E+00 0.43104148335E+00 0.49815833270E+00 0.59600824712E+00
 0.69048255429E+00 0.81384838086E+00 0.99428077172E+00 0.11852105645E+01 0.13333922052E+01
 0.14547576964E+01 0.15761637131E+01 0.16649749258E+01 0.16837977313E+01 0.16542724763E+01
 0.16020495123E+01 0.15005579531E+01 0.13333854008E+01 0.11499422129E+01 0.99572278718E+00
 0.84954328571E+00 0.76107219241E+00 0.61093051506E+00 0.51394453306E+00 0.47192350807E+00
 0.43917100137E+00 0.41606503866E+00 0.44947704748E+00 0.53955591191E+00 0.63800043245E+00
 0.74073229485E+00 0.89019177418E+00 0.10813932402E+01 0.12552647480E+01 0.13897122225E+01
 0.15108883077E+01 0.16130043275E+01 0.16549701069E+01 0.16383208797E+01 0.16018896136E+01
 0.15394380467E+01 0.14099283895E+01 0.12282934041E+01 0.10576875574E+01 0.91311631480E+00
 0.80998350987E+00 0.66141204292E+00 0.53970860196E+00 0.47635916697E+00 0.44406752412E+00
 0.41369179738E+00 0.41321021784E+00 0.47317959209E+00 0.56727555029E+00 0.66396060640E+00
 0.78411744439E+00 0.95026243650E+00 0.11295919407E+01 0.12821120590E+01 0.14142526455E+01
 0.15332804485E+01 0.16036626295E+01 0.16025160937E+01 0.15640184538E+01 0.15159446863E+01
 0.14279915526E+01 0.12763638407E+01 0.11022722064E+01 0.95106950684E+00 0.83332838420E+00
 0.69729087136E+00 0.56959667759E+00 0.48379534034E+00 0.44214416178E+00 0.41463237009E+00
 0.39875173908E+00 0.42375455179E+00 0.49349729201E+00 0.58132078090E+00 0.68294159080E+00
 0.81821599939E+00 0.97930548591E+00 0.11320224827E+01 0.12675564709E+01 0.13975487837E+01
 0.15017102638E+01 0.15398389459E+01 0.15147480037E+01 0.14647570372E+01 0.13957269984E+01
 0.12805736996E+01 0.11247512580E+01 0.97030746320E+00 0.83740984518E+00 0.71156551827E+00
 0.59237020482E+00 0.49664685556E+00 0.43906446150E+00 0.40877882819E+00 0.39225916580E+00
 0.39847187310E+00 0.43905660538E+00 0.50599263213E+00 0.59065469198E+00 0.70095338119E+00
 0.83741355653E+00 0.97691689599E+00 0.11020930245E+01 0.12207056289E+01 0.13333922457E+01
 0.14104244328E+01 0.14266497917E+01 0.13938887964E+01 0.13333911832E+01 0.12425231110E+01
 0.11156461039E+01 0.97253292666E+00 0.82624609436E+00 0.70726085090E+00 0.59902380113E+00
 0.50786470401E+00 0.44110488744E+00 0.39980068395E+00 0.37988364205E+00 0.38043481652E+00
 0.40334614409E+00 0.44719034845E+00 0.51049792064E+00 0.59770949069E+00 0.71047134213E+00
 0.83542066782E+00 0.95291148891E+00 0.10563520457E+01 0.11501645898E+01 0.12296842500E+01
 0.12773693948E+01 0.12808646584E+01 0.12427063887E+01 0.11705770337E+01 0.10702062137E+01
 0.95077235773E+00 0.79787645654E+00 0.69046644236E+00 0.59058936398E+00 0.50914797215E+00
 0.44626976576E+00 0.39833196696E+00 0.36850744301E+00 0.36174613391E+00 0.37512925720E+00
 0.40245297834E+00 0.44463683525E+00 0.50784885262E+00 0.59392382564E+00 0.69749721888E+00
 0.80834725057E+00 0.91258389765E+00 0.99754990531E+00 0.10602213031E+01 0.11048489461E+01
 0.11289699610E+01 0.11202554510E+01 0.10722549563E+01 0.99446021329E+00 0.90087303033E+00
 0.75115645443E+00 0.66375208506E+00 0.57407878994E+00 0.49990308459E+00 0.44651712458E+00
 0.40380554430E+00 0.36927047868E+00 0.35280121567E+00 0.35670426659E+00 0.37203066759E+00
 0.39687877493E+00 0.43896706751E+00 0.49939981079E+00 0.57233940618E+00 0.65838644013E+00
 0.75755023823E+00 0.85181953110E+00 0.91750968584E+00 0.95344924440E+00 0.97472327644E+00
 0.98129122447E+00 0.95748147343E+00 0.90141003818E+00 0.82949843335E+00 0.69048177496E+00
 0.62655978346E+00 0.55359073310E+00 0.48625334225E+00 0.43908185263E+00 0.40603284649E+00
 0.37686351326E+00 0.35711921521E+00 0.35409175546E+00 0.36084809041E+00 0.37186014797E+00
 0.39627718529E+00 0.43905658513E+00 0.48865970256E+00 0.53977665397E+00 0.60589030797E+00
 0.69048256448E+00 0.76811304885E+00 0.81475910958E+00 0.83616838221E+00 0.84607341935E+00
 0.83822019919E+00 0.80244127424E+00 0.74841728025E+00 0.62369454155E+00 0.58005639906E+00
 0.52834274229E+00 0.47318528198E+00 0.43039343754E+00 0.40323840499E+00 0.38176027913E+00
 0.36492536190E+00 0.36043258421E+00 0.36478006338E+00 0.36815078957E+00 0.37667924729E+00
 0.40423424285E+00 0.44471478406E+00 0.47958422758E+00 0.51075914121E+00 0.55720667114E+00
 0.61880536157E+00 0.67206509131E+00 0.70333984721E+00 0.71911826793E+00 0.72191252782E+00
 0.70360387875E+00 0.66619033337E+00 0.55863585120E+00 0.52991853755E+00 0.49810105776E+00
 0.46067209111E+00 0.42697197199E+00 0.40468766338E+00 0.38889219097E+00 0.37535562662E+00
 0.37014568966E+00 0.37484467098E+00 0.37849436769E+00 0.37723457635E+00 0.38554136485E+00
 0.41330735340E+00 0.44742694536E+00 0.47186916878E+00 0.49144052470E+00 0.51918949260E+00
 0.55323308252E+00 0.58225912914E+00 0.60237102391E+00 0.61332469862E+00 0.60926560792E+00
 0.58785667000E+00 0.50116767152E+00 0.48368142077E+00 0.46675651257E+00 0.44722411663E+00
 0.42792149898E+00 0.41503980794E+00 0.40736420788E+00 0.39951029471E+00 0.39363827290E+00
 0.39555479364E+00 0.40100849954E+00 0.39982813941E+00 0.39393525603E+00 0.39740024349E+00
 0.41636836570E+00 0.44113371658E+00 0.46076187951E+00 0.47458845862E+00 0.48661225915E+00
 0.49849405022E+00 0.51067048583E+00 0.52186202335E+00 0.52607615756E+00 0.51796400182E+00
 0.45380331848E+00 0.44577482096E+00 0.43945385951E+00 0.43407114093E+00 0.42964761845E+00
 0.42930417092E+00 0.43368979238E+00 0.43809195450E+00 0.43908183985E+00 0.43964904561E+00
 0.44300065169E+00 0.44504781357E+00 0.43906442851E+00 0.42629467019E+00 0.41656862352E+00
 0.41807276195E+00 0.42966953602E+00 0.44326776516E+00 0.45151737259E+00 0.45341902605E+00
 0.45379275276E+00 0.45691517135E+00 0.46088475393E+00 0.46026620650E+00 0.41644563740E+00
 0.41629281772E+00 0.41848540823E+00 0.42412225776E+00 0.43272901325E+00 0.44459581258E+00
 0.46072033877E+00 0.47954168064E+00 0.49592309976E+00 0.50552551614E+00 0.50919622077E+00
 0.51046553226E+00 0.50876561444E+00 0.49839915834E+00 0.47640739739E+00 0.44948313606E+00
 0.42967595317E+00 0.42291453132E+00 0.42415711780E+00 0.42458448149E+00 0.42114761705E+00
 0.41724856695E+00 0.41604885994E+00 0.41652878672E+00 0.38934749648E+00 0.39439878472E+00
 0.40347776901E+00 0.41843716027E+00 0.43930874231E+00 0.46407995433E+00 0.49152834040E+00
 0.52193808906E+00 0.55344561169E+00 0.57965296662E+00 0.59400356896E+00 0.59637473318E+00
 0.59222510638E+00 0.58415227827E+00 0.56735261223E+00 0.53633665382E+00 0.49472269637E+00
 0.45489562023E+00 0.42731491132E+00 0.41235905377E+00 0.40343903235E+00 0.39572271283E+00
 0.38968213467E+00 0.38750001510E+00 0.37374921909E+00 0.38060448212E+00 0.39393227931E+00
 0.41577806585E+00 0.44753520039E+00 0.48682446415E+00 0.52945201762E+00 0.57318523163E+00
 0.61730825956E+00 0.65864437536E+00 0.68999990749E+00 0.70414524657E+00 0.69986499476E+00
 0.68320178672E+00 0.66094554608E+00 0.63285613557E+00 0.59303599970E+00 0.54044408449E+00
 0.48505110642E+00 0.44029399761E+00 0.41111831294E+00 0.39287656073E+00 0.38041586971E+00
 0.37355428229E+00 0.48990105205E+00 0.49922966604E+00 0.52553410394E+00 0.57048399185E+00
 0.63658091522E+00 0.72239301252E+00 0.82180819119E+00 0.92696667197E+00 0.10300139528E+01
 0.11234210263E+01 0.12000237978E+01 0.12514841128E+01 0.12678807167E+01 0.12440192674E+01
 0.11871964034E+01 0.11128594935E+01 0.10299859397E+01 0.93634029629E+00 0.83116450862E+00
 0.72588310210E+00 0.63657564082E+00 0.57043274392E+00 0.52526236385E+00 0.49841420145E+00
 0.49894010945E+00 0.49946584427E+00 0.52371826193E+00 0.57198011168E+00 0.64550319861E+00
 0.74379729760E+00 0.86325259782E+00 0.99708385468E+00 0.11344299286E+01 0.12616609369E+01
 0.13680093320E+01 0.14479593974E+01 0.14949698747E+01 0.14973336574E+01 0.14476716083E+01
 0.13551112382E+01 0.12405530161E+01 0.11193590895E+01 0.99484067174E+00 0.86863264772E+00
 0.74950974501E+00 0.64887804649E+00 0.57305203615E+00 0.52318825854E+00 0.52564358485E+00
 0.50999528113E+00 0.52518566090E+00 0.57245613421E+00 0.65063320651E+00 0.75659190768E+00
 0.88809323962E+00 0.10421681006E+01 0.12096126947E+01 0.13738908676E+01 0.15177564245E+01
 0.16302877696E+01 0.17061832247E+01 0.17393078944E+01 0.17203033957E+01 0.16435209699E+01
 0.15164732578E+01 0.13599233376E+01 0.11964160151E+01 0.10390205646E+01 0.89196667916E+00
 0.75962127185E+00 0.65047057821E+00 0.57195386250E+00 0.57205513664E+00 0.53456905136E+00
 0.53158494757E+00 0.56960322253E+00 0.64897924762E+00 0.76098122822E+00 0.90028012690E+00
 0.10676348735E+01 0.12571653464E+01 0.14516768537E+01 0.16325111673E+01 0.17849293061E+01
 0.18950164542E+01 0.19526236550E+01 0.19570354505E+01 0.19099697883E+01 0.18066645333E+01
 0.16468589604E+01 0.14513638148E+01 0.12525274569E+01 0.10687961505E+01 0.90191938449E+00
 0.75637479659E+00 0.64453339178E+00 0.63657562637E+00 0.57585540198E+00 0.54861931170E+00
 0.56528130946E+00 0.63657183252E+00 0.75144433895E+00 0.89527142301E+00 0.10705071096E+01
 0.12782878541E+01 0.14986074492E+01 0.17080487588E+01 0.18971356259E+01 0.20527917991E+01
 0.21479004657E+01 0.21692092788E+01 0.21329190746E+01 0.20527849824E+01 0.19176353138E+01
 0.17225288498E+01 0.14971252984E+01 0.12782937934E+01 0.10764037898E+01 0.89158547190E+00
 0.73975380458E+00 0.71456017576E+00 0.62961335299E+00 0.58000756927E+00 0.56707914607E+00
 0.61573019878E+00 0.72529846363E+00 0.86918899447E+00 0.10423659392E+01 0.12592246511E+01
 0.15054821031E+01 0.17422330142E+01 0.19554391320E+01 0.21505754521E+01 0.23026606663E+01
 0.23674627686E+01 0.23427317130E+01 0.22649894193E+01 0.21460186038E+01 0.19669289276E+01
 0.17357072694E+01 0.14950324063E+01 0.12687209223E+01 0.10519675743E+01 0.85678383986E+00
 0.80552886617E+00 0.68875738035E+00 0.62175324130E+00 0.58221894259E+00 0.59619762615E+00
 0.68712125811E+00 0.82766362251E+00 0.99094489264E+00 0.11966056582E+01 0.14558989463E+01
 0.17242219073E+01 0.19590438028E+01 0.21714242214E+01 0.23686852385E+01 0.25015943217E+01
 0.25250798163E+01 0.24614401585E+01 0.23499080292E+01 0.21842373417E+01 0.19539819442E+01
 0.16968931985E+01 0.14546102744E+01 0.12224328836E+01 0.99374252156E+00 0.91254506243E+00
 0.75250230716E+00 0.66497932913E+00 0.60914499658E+00 0.58768170117E+00 0.64422292559E+00
 0.77493555890E+00 0.93217885993E+00 0.11137289617E+01 0.13570150061E+01 0.16452187561E+01
 0.19107530459E+01 0.21330878699E+01 0.23422587022E+01 0.25242824519E+01 0.26158826298E+01
 0.25989540101E+01 0.25131227737E+01 0.23720792073E+01 0.21552428070E+01 0.18846100564E+01
 0.16214413116E+01 0.13820944988E+01 0.11404320983E+01 0.10299859473E+01 0.82580828866E+00
 0.70527346188E+00 0.63783896710E+00 0.59225856415E+00 0.60498610317E+00 0.70868806742E+00
 0.86360029910E+00 0.10299894695E+01 0.12381981336E+01 0.15146012358E+01 0.18064669775E+01
 0.20527948366E+01 0.22637830179E+01 0.24597457850E+01 0.25982221012E+01 0.26337445322E+01
 0.25869264112E+01 0.24870758034E+01 0.23121351932E+01 0.20527850156E+01 0.17692193193E+01
 0.15160920450E+01 0.12758499521E+01 0.11381218079E+01 0.90787466615E+00 0.74667128399E+00
 0.66020440630E+00 0.60359886224E+00 0.57921265346E+00 0.63649527117E+00 0.77363453325E+00
 0.93634287368E+00 0.11165852833E+01 0.13556670349E+01 0.16449699335E+01 0.19180890318E+01
 0.21460725323E+01 0.23491798528E+01 0.25131934786E+01 0.25876615747E+01 0.25700732207E+01
 0.25014415787E+01 0.23793169465E+01 0.21674114348E+01 0.18895780556E+01 0.16198827634E+01
 0.13798476605E+01 0.12162317704E+01 0.98550253287E+00 0.79387277769E+00 0.67811155328E+00
 0.61292423398E+00 0.57018528835E+00 0.58039389818E+00 0.67480485148E+00 0.82298289952E+00
 0.98815256413E+00 0.11888772046E+01 0.14457064344E+01 0.17205043618E+01 0.19663624597E+01
 0.21837407143E+01 0.23728181032E+01 0.24887811529E+01 0.25021112893E+01 0.24469233379E+01
 0.23545158010E+01 0.21982446470E+01 0.19602819347E+01 0.16916492871E+01 0.14465734731E+01
 0.12577741152E+01 0.10411186809E+01 0.84185735727E+00 0.69855960116E+00 0.61690807926E+00
 0.56815097680E+00 0.55140721586E+00 0.59756678850E+00 0.70891067074E+00 0.85431388873E+00
 0.10259758631E+01 0.12417848699E+01 0.14903289733E+01 0.17315841906E+01 0.19509835716E+01
 0.21543319032E+01 0.23133607024E+01 0.23798087764E+01 0.23533063689E+01 0.22743348350E+01
 0.21524252980E+01 0.19647560853E+01 0.17239290118E+01 0.14808566309E+01 0.12678807585E+01
 0.10655526131E+01 0.87671972888E+00 0.72205057603E+00 0.61994506754E+00 0.56172967701E+00
 0.53524088227E+00 0.55080601159E+00 0.61994107104E+00 0.73198020791E+00 0.87494913702E+00
 0.10543438104E+01 0.12678891428E+01 0.14878317651E+01 0.16914689941E+01 0.18815691213E+01
 0.20527948770E+01 0.21681407519E+01 0.21970598729E+01 0.21506407930E+01 0.20527918726E+01
 0.19046517188E+01 0.17058020161E+01 0.14831863745E+01 0.12502690393E+01 0.10610319571E+01
 0.88753955805E+00 0.73935343500E+00 0.62680289720E+00 0.55337435721E+00 0.51674822399E+00
 0.51723084940E+00 0.55695591254E+00 0.63318354656E+00 0.74215945579E+00 0.88612558517E+00
 0.10643863367E+01 0.12600029547E+01 0.14485456032E+01 0.16184925128E+01 0.17694290691E+01
 0.18914210994E+01 0.19618829931E+01 0.19655469496E+01 0.19051506020E+01 0.17910150286E+01
 0.16331269831E+01 0.14462183986E+01 0.12033913184E+01 0.10339345869E+01 0.87488843324E+00
 0.74070818986E+00 0.63394115670E+00 0.55275504569E+00 0.50207324211E+00 0.48829491061E+00
 0.50892495419E+00 0.55703770975E+00 0.63225845398E+00 0.73932027138E+00 0.87831666048E+00
 0.10413547911E+01 0.12145450724E+01 0.13793052680E+01 0.15179687591E+01 0.16230476372E+01
 0.16952187978E+01 0.17292860336E+01 0.17114162805E+01 0.16357576874E+01 0.15147701818E+01
 0.13669111792E+01 0.11276086919E+01 0.98792168360E+00 0.84664601802E+00 0.72552790826E+00
 0.63243530319E+00 0.55841820015E+00 0.50201205527E+00 0.47439410382E+00 0.47848324577E+00
 0.50493494138E+00 0.55122597487E+00 0.62453261776E+00 0.72491023630E+00 0.84474674553E+00
 0.98234086640E+00 0.11344118049E+01 0.12782086326E+01 0.13849979334E+01 0.14500872664E+01
 0.14867234226E+01 0.14935650935E+01 0.14542421317E+01 0.13680791699E+01 0.12547510611E+01
 0.10300139706E+01 0.92428079592E+00 0.80853632321E+00 0.70125449064E+00 0.61995575168E+00
 0.55977948481E+00 0.51074586818E+00 0.47891799963E+00 0.47200647193E+00 0.48281616575E+00
 0.50555745517E+00 0.54965044251E+00 0.61994105079E+00 0.70367640897E+00 0.79394755174E+00
 0.90256001193E+00 0.10299894797E+01 0.11460447794E+01 0.12222413205E+01 0.12620270339E+01
 0.12782878922E+01 0.12640635430E+01 0.12092314964E+01 0.11253834757E+01 0.92191113364E+00
 0.84675248571E+00 0.76181187255E+00 0.67483235628E+00 0.60459359736E+00 0.55586545057E+00
 0.51866732890E+00 0.49165765060E+00 0.48238301133E+00 0.48688546792E+00 0.49497455120E+00
 0.51339041164E+00 0.55700807815E+00 0.61962530564E+00 0.68148447189E+00 0.74331666798E+00
 0.82272192096E+00 0.91668733271E+00 0.99762452035E+00 0.10486332995E+01 0.10746816065E+01
 0.10775610106E+01 0.10488477529E+01 0.99150240663E+00 0.81482166532E+00 0.76407926835E+00
 0.70860767219E+00 0.64829582613E+00 0.59492934926E+00 0.55771869136E+00 0.53174398319E+00
 0.51198769147E+00 0.50375932798E+00 0.50782377904E+00 0.51242727319E+00 0.51390904189E+00
 0.52825436472E+00 0.56678613012E+00 0.61641579376E+00 0.66013350211E+00 0.70170154281E+00
 0.75276441565E+00 0.80901452699E+00 0.85624199721E+00 0.88828488470E+00 0.90352661590E+00
 0.89546101099E+00 0.86215443587E+00 0.71800400501E+00 0.68685759351E+00 0.65529449908E+00
 0.62204573720E+00 0.59170113625E+00 0.57159653820E+00 0.56048362193E+00 0.55195074142E+00
 0.54686989754E+00 0.54984153195E+00 0.55551996433E+00 0.55330008233E+00 0.54608303704E+00
 0.55000716419E+00 0.57295024273E+00 0.60561582708E+00 0.63641993051E+00 0.66362917738E+00
 0.68988622060E+00 0.71511642309E+00 0.73782530010E+00 0.75496982283E+00 0.75935685034E+00
 0.74546406628E+00 0.63658091650E+00 0.62196805376E+00 0.60910248194E+00 0.59879497498E+00
 0.59224370895E+00 0.59316031581E+00 0.60191588626E+00 0.61257897768E+00 0.61995573890E+00
 0.62531781431E+00 0.63057365283E+00 0.63094781816E+00 0.61994503455E+00 0.60022340929E+00
 0.58388888193E+00 0.58126639161E+00 0.59225856086E+00 0.60854710816E+00 0.62183327894E+00
 0.62998296482E+00 0.63657184824E+00 0.64442702628E+00 0.65025199525E+00 0.64790713030E+00
 0.57203380727E+00 0.57095054356E+00 0.57354927628E+00 0.58226177090E+00 0.59741495130E+00
 0.61935506467E+00 0.64837009137E+00 0.68143772229E+00 0.71132485820E+00 0.73141388885E+00
 0.74078245607E+00 0.74211836207E+00 0.73485799907E+00 0.71401273669E+00 0.67818580129E+00
 0.63649190708E+00 0.60356594573E+00 0.58704808694E+00 0.58229319551E+00 0.57995186808E+00
 0.57606115760E+00 0.57292397190E+00 0.57253040823E+00 0.57300402488E+00 0.52537220222E+00
 0.53343843972E+00 0.54850621138E+00 0.57347501074E+00 0.60894057111E+00 0.65252955478E+00
 0.70178303186E+00 0.75513223440E+00 0.80837440817E+00 0.85245772617E+00 0.87841782165E+00
 0.88470037371E+00 0.87655783681E+00 0.85723625791E+00 0.82307003305E+00 0.77030951439E+00
 0.70511156342E+00 0.64280817210E+00 0.59627950472E+00 0.56706056973E+00 0.54845739686E+00
 0.53483141974E+00 0.52572878872E+00 0.52262009660E+00 0.49810459416E+00 0.50974414245E+00
 0.53293943512E+00 0.57037727493E+00 0.62377281081E+00 0.69012152214E+00 0.76358024923E+00
 0.83957383417E+00 0.91463514358E+00 0.98260894162E+00 0.10334355529E+01 0.10576937372E+01
 0.10531699071E+01 0.10262387955E+01 0.98500353684E+00 0.93101389710E+00 0.86050605164E+00
 0.77517248739E+00 0.68825839340E+00 0.61616737042E+00 0.56550029876E+00 0.53182157368E+00
 0.50949627330E+00 0.49786867015E+00 0.64973208014E+00 0.66574902570E+00 0.71163700309E+00
 0.78821648272E+00 0.89666457993E+00 0.10335263516E+01 0.11899684344E+01 0.13547914498E+01
 0.15161180103E+01 0.16618212630E+01 0.17800880148E+01 0.18584911731E+01 0.18841111562E+01
 0.18505710345E+01 0.17664462144E+01 0.16505709185E+01 0.15160897393E+01 0.13647831417E+01
 0.11999292609E+01 0.10372390084E+01 0.89668486639E+00 0.78820341885E+00 0.71136016236E+00
 0.66486625427E+00 0.66543322846E+00 0.66597724013E+00 0.70764943380E+00 0.78957699574E+00
 0.91100126434E+00 0.10688259304E+01 0.12565188210E+01 0.14640330298E+01 0.16763996793E+01
 0.18746827482E+01 0.20420814058E+01 0.21672300305E+01 0.22386005922E+01 0.22411194209E+01
 0.21669280065E+01 0.20283733646E+01 0.18522931112E+01 0.16604876810E+01 0.14617432979E+01
 0.12622439129E+01 0.10748421042E+01 0.91455407135E+00 0.79073373439E+00 0.70712025354E+00
 0.71175064713E+00 0.68530805660E+00 0.71127726446E+00 0.79009008400E+00 0.91818093744E+00
 0.10891625849E+01 0.12975509953E+01 0.15373267283E+01 0.17956301050E+01 0.20506730085E+01
 0.22781537031E+01 0.24590633871E+01 0.25802972169E+01 0.26297113065E+01 0.25952736390E+01
 0.24731082694E+01 0.22768311508E+01 0.20359213523E+01 0.17816660285E+01 0.15339451481E+01
 0.13015732277E+01 0.10923195193E+01 0.91799873829E+00 0.78955420864E+00 0.78989486683E+00
 0.72752216631E+00 0.72437156534E+00 0.78731262701E+00 0.91464388054E+00 0.10937536402E+01
 0.13154747560E+01 0.15776814315E+01 0.18715346560E+01 0.21752560947E+01 0.24631475992E+01
 0.27108522547E+01 0.28932337282E+01 0.29900217431E+01 0.29947206608E+01 0.29091365344E+01
 0.27339401276E+01 0.24783693004E+01 0.21748869182E+01 0.18665448026E+01 0.15788446530E+01
 0.13171877962E+01 0.10888815705E+01 0.90993659098E+00 0.89668485194E+00 0.79502160443E+00
 0.75329600495E+00 0.78382076434E+00 0.89667335311E+00 0.10768624531E+01 0.13050157961E+01
 0.15806010569E+01 0.19026329201E+01 0.22473639127E+01 0.25849793782E+01 0.28965044392E+01
 0.31555841171E+01 0.33199850921E+01 0.33651123908E+01 0.33041238204E+01 0.31555835876E+01
 0.29181998774E+01 0.26002626210E+01 0.22457422236E+01 0.19026458013E+01 0.15869131689E+01
 0.13011827567E+01 0.10645151656E+01 0.10252604249E+01 0.88255350416E+00 0.80234349627E+00
 0.78866543548E+00 0.86788076255E+00 0.10366410822E+01 0.12627830363E+01 0.15374067676E+01
 0.18735811469E+01 0.22545694562E+01 0.26357365811E+01 0.29944010121E+01 0.33232343358E+01
 0.35792256465E+01 0.36999865635E+01 0.36737344823E+01 0.35392179233E+01 0.33183509552E+01
 0.30065712561E+01 0.26288348257E+01 0.22435236063E+01 0.18837078170E+01 0.15476702332E+01
 0.12496983816E+01 0.11727577738E+01 0.98131721581E+00 0.86724782531E+00 0.81051374318E+00
 0.84016931597E+00 0.97961731175E+00 0.11962809288E+01 0.14576563741E+01 0.17818665847E+01
 0.21796526793E+01 0.26020007883E+01 0.29981745699E+01 0.33679216455E+01 0.37013456301E+01
 0.39269763372E+01 0.39820106878E+01 0.38844074860E+01 0.36814334632E+01 0.33815087032E+01
 0.29928461972E+01 0.25730911251E+01 0.21783248513E+01 0.18092280054E+01 0.14605637956E+01
 0.13395412314E+01 0.10884550642E+01 0.93775890348E+00 0.84818920893E+00 0.82539249699E+00
 0.91568903589E+00 0.11122617973E+01 0.13604885958E+01 0.16546272315E+01 0.20328589810E+01
 0.24766030439E+01 0.29109038492E+01 0.33046592269E+01 0.36732818835E+01 0.39811414241E+01
 0.41416644177E+01 0.41237804856E+01 0.39694176311E+01 0.37049288995E+01 0.33281213410E+01
 0.28831980117E+01 0.24514359200E+01 0.20594167716E+01 0.16828035958E+01 0.15160897469E+01
 0.12064240777E+01 0.10074286827E+01 0.89063046551E+00 0.82668337269E+00 0.85577555466E+00
 0.10109844877E+01 0.12464238676E+01 0.15160910285E+01 0.18498518716E+01 0.22749102379E+01
 0.27337615890E+01 0.31555938298E+01 0.35379321885E+01 0.38826103056E+01 0.41230056165E+01
 0.41940040254E+01 0.41110380362E+01 0.39115789756E+01 0.35891808812E+01 0.31555836207E+01
 0.26942643315E+01 0.22764406742E+01 0.18897105078E+01 0.16773661517E+01 0.13310591317E+01
 0.10781154286E+01 0.92797037684E+00 0.83731417947E+00 0.81150870867E+00 0.90288097797E+00
 0.11066123389E+01 0.13610672900E+01 0.16544408710E+01 0.20289971888E+01 0.24747023409E+01
 0.29177362909E+01 0.33180325129E+01 0.36806049986E+01 0.39695172946E+01 0.41118164819E+01
 0.40931202501E+01 0.39569619499E+01 0.37125082916E+01 0.33406790313E+01 0.28875257748E+01
 0.24480595624E+01 0.20546016395E+01 0.17972236494E+01 0.14450472428E+01 0.11522174661E+01
 0.96047303999E+00 0.84728331346E+00 0.78677858006E+00 0.81285814953E+00 0.95702573312E+00
 0.11830783716E+01 0.14478056421E+01 0.17681670625E+01 0.21647997184E+01 0.25954777653E+01
 0.30046187151E+01 0.33805195692E+01 0.37056537495E+01 0.39133877415E+01 0.39576460034E+01
 0.38690274408E+01 0.36862615205E+01 0.33958898271E+01 0.29981586186E+01 0.25648867262E+01
 0.21657485193E+01 0.18651410021E+01 0.15269267986E+01 0.12220976215E+01 0.99384143242E+00
 0.85221188512E+00 0.77139360211E+00 0.75364242994E+00 0.83174819147E+00 0.10049329466E+01
 0.12354265096E+01 0.15109068165E+01 0.18481512712E+01 0.22336444201E+01 0.26215308018E+01
 0.29883022889E+01 0.33267648460E+01 0.35904865197E+01 0.37130937540E+01 0.36850292224E+01
 0.35491842016E+01 0.33247951122E+01 0.30029002379E+01 0.26133948858E+01 0.22236235042E+01
 0.18841111980E+01 0.15649009957E+01 0.12712339871E+01 0.10272173258E+01 0.85609626003E+00
 0.75362767825E+00 0.71132352641E+00 0.74198356628E+00 0.85609376194E+00 0.10378330896E+01
 0.12694182041E+01 0.15530123083E+01 0.18841253862E+01 0.22310326708E+01 0.25647003296E+01
 0.28789828830E+01 0.31555938702E+01 0.33418593639E+01 0.33950931417E+01 0.33232547552E+01
 0.31555841905E+01 0.29035005162E+01 0.25799067445E+01 0.22260754472E+01 0.18571694007E+01
 0.15601527183E+01 0.12869240817E+01 0.10499556014E+01 0.86367740335E+00 0.73666797045E+00
 0.67151631786E+00 0.67191904559E+00 0.74029520089E+00 0.87040658269E+00 0.10529532257E+01
 0.12853674309E+01 0.15636487144E+01 0.18675360113E+01 0.21678680044E+01 0.24465853026E+01
 0.26944554549E+01 0.28904767617E+01 0.30012428774E+01 0.30050577880E+01 0.29049426484E+01
 0.27173585679E+01 0.24621317178E+01 0.21653412666E+01 0.17835434690E+01 0.15193524308E+01
 0.12693612822E+01 0.10513901982E+01 0.87125756108E+00 0.73153166333E+00 0.64260609403E+00
 0.61558851280E+00 0.64969822790E+00 0.73599072556E+00 0.86952176583E+00 0.10498849241E+01
 0.12728736611E+01 0.15272232826E+01 0.17954890648E+01 0.20540459223E+01 0.22783656949E+01
 0.24531076669E+01 0.25713739005E+01 0.26220115250E+01 0.25884348334E+01 0.24665855929E+01
 0.22750887906E+01 0.20409019009E+01 0.16661382802E+01 0.14475285011E+01 0.12272468633E+01
 0.10309429817E+01 0.86956005910E+00 0.73740963052E+00 0.63773467572E+00 0.58699102478E+00
 0.59127202564E+00 0.64081927404E+00 0.72992722091E+00 0.86127476693E+00 0.10301918909E+01
 0.12251735980E+01 0.14417421746E+01 0.16734261232E+01 0.18921532488E+01 0.20624179362E+01
 0.21735892296E+01 0.22347809304E+01 0.22419209765E+01 0.21778816689E+01 0.20446095411E+01
 0.18674397505E+01 0.15161180281E+01 0.13482923596E+01 0.11677753199E+01 0.99681332901E+00
 0.85608977916E+00 0.74326797636E+00 0.65162144285E+00 0.59173616406E+00 0.57517800322E+00
 0.59581459151E+00 0.64624279532E+00 0.73275743240E+00 0.85609374169E+00 0.99922256234E+00
 0.11523009558E+01 0.13254125122E+01 0.15160910387E+01 0.16887287230E+01 0.18090380917E+01
 0.18767001895E+01 0.19026329581E+01 0.18787027947E+01 0.17952396430E+01 0.16669731629E+01
 0.13495582160E+01 0.12285447713E+01 0.10941121863E+01 0.95710923214E+00 0.83924258731E+00
 0.74738875790E+00 0.67348066764E+00 0.61914519787E+00 0.59536247766E+00 0.60003427242E+00
 0.62256826716E+00 0.66800761126E+00 0.74870851601E+00 0.85504436049E+00 0.96400546730E+00
 0.10745838595E+01 0.12032062672E+01 0.13439729243E+01 0.14646361155E+01 0.15441520896E+01
 0.15851277904E+01 0.15880991559E+01 0.15443064943E+01 0.14582328201E+01 0.11826858514E+01
 0.11007649350E+01 0.10108872912E+01 0.91536284807E+00 0.82826446302E+00 0.76038604068E+00
 0.70769497581E+00 0.66650091644E+00 0.64433884545E+00 0.64379816926E+00 0.65334411586E+00
 0.66844801856E+00 0.70404095165E+00 0.76995888232E+00 0.85091817032E+00 0.92792970930E+00
 0.10037019059E+01 0.10887663960E+01 0.11763920458E+01 0.12490579636E+01 0.12977332006E+01
 0.13189127185E+01 0.13052240877E+01 0.12553393070E+01 0.10289149487E+01 0.97936681321E+00
 0.92744459071E+00 0.87383633828E+00 0.82469039012E+00 0.78822527652E+00 0.76325094840E+00
 0.74327391214E+00 0.72979699627E+00 0.72848121541E+00 0.73439655913E+00 0.73646455553E+00
 0.73705806420E+00 0.75221227423E+00 0.78964351159E+00 0.83942235984E+00 0.88914851338E+00
 0.93631956862E+00 0.98248225140E+00 0.10257809434E+01 0.10624910868E+01 0.10874507841E+01