   3   3   0   0
  0.7897505E+02  0.3190316E-09  0.3190316E-09  0.2687900E-08  0.5000000E-15
  1.000000000000000E-004
  CAR 
 unknown system                          
      6.12333024    -19.47308277  301     -3.41133361      1.00000000
    -19.473  0.0000E+00  0.0000E+00
    -19.388  0.0000E+00  0.0000E+00
    -19.302  0.0000E+00  0.0000E+00
    -19.217  0.0000E+00  0.0000E+00
    -19.132  0.0000E+00  0.0000E+00
    -19.046  0.0000E+00  0.0000E+00
    -18.961  0.0000E+00  0.0000E+00
    -18.876  0.0000E+00  0.0000E+00
    -18.791  0.0000E+00  0.0000E+00
    -18.705  0.0000E+00  0.0000E+00
    -18.620  0.0000E+00  0.0000E+00
    -18.535  0.0000E+00  0.0000E+00
    -18.449  0.0000E+00  0.0000E+00
    -18.364  0.0000E+00  0.0000E+00
    -18.279  0.0000E+00  0.0000E+00
    -18.193  0.0000E+00  0.0000E+00
    -18.108  0.0000E+00  0.0000E+00
    -18.023  0.0000E+00  0.0000E+00
    -17.937  0.0000E+00  0.0000E+00
    -17.852  0.0000E+00  0.0000E+00
    -17.767  0.0000E+00  0.0000E+00
    -17.681  0.0000E+00  0.0000E+00
    -17.596  0.0000E+00  0.0000E+00
    -17.511  0.0000E+00  0.0000E+00
    -17.425  0.1952E+00  0.4656E-02
    -17.340  0.5442E+00  0.3620E-01
    -17.255  0.4794E+00  0.9579E-01
    -17.169  0.5190E+00  0.1384E+00
    -17.084  0.5585E+00  0.1844E+00
    -16.999  0.5981E+00  0.2337E+00
    -16.913  0.6376E+00  0.2864E+00
    -16.828  0.6627E+00  0.3422E+00
    -16.743  0.6698E+00  0.3991E+00
    -16.657  0.6869E+00  0.4567E+00
    -16.572  0.7200E+00  0.5167E+00
    -16.487  0.7531E+00  0.5796E+00
    -16.402  0.7862E+00  0.6452E+00
    -16.316  0.8193E+00  0.7137E+00
    -16.231  0.1525E+01  0.7954E+00
    -16.146  0.2075E+01  0.9795E+00
    -16.060  0.2370E+01  0.1169E+01
    -15.975  0.2693E+01  0.1384E+01
    -15.890  0.2908E+01  0.1623E+01
    -15.804  0.3247E+01  0.1886E+01
    -15.719  0.3586E+01  0.2177E+01
    -15.634  0.4208E+01  0.2637E+01
    -15.548  0.4246E+01  0.2995E+01
    -15.463  0.3811E+01  0.3383E+01
    -15.378  0.3248E+01  0.3792E+01
    -15.292  0.0000E+00  0.4000E+01
    -15.207  0.0000E+00  0.4000E+01
    -15.122  0.0000E+00  0.4000E+01
    -15.036  0.0000E+00  0.4000E+01
    -14.951  0.0000E+00  0.4000E+01
    -14.866  0.0000E+00  0.4000E+01
    -14.780  0.0000E+00  0.4000E+01
    -14.695  0.0000E+00  0.4000E+01
    -14.610  0.0000E+00  0.4000E+01
    -14.524  0.0000E+00  0.4000E+01
    -14.439  0.0000E+00  0.4000E+01
    -14.354  0.0000E+00  0.4000E+01
    -14.268  0.0000E+00  0.4000E+01
    -14.183  0.0000E+00  0.4000E+01
    -14.098  0.0000E+00  0.4000E+01
    -14.013  0.0000E+00  0.4000E+01
    -13.927  0.0000E+00  0.4000E+01
    -13.842  0.0000E+00  0.4000E+01
    -13.757  0.0000E+00  0.4000E+01
    -13.671  0.0000E+00  0.4000E+01
    -13.586  0.0000E+00  0.4000E+01
    -13.501  0.0000E+00  0.4000E+01
    -13.415  0.0000E+00  0.4000E+01
    -13.330  0.0000E+00  0.4000E+01
    -13.245  0.0000E+00  0.4000E+01
    -13.159  0.0000E+00  0.4000E+01
    -13.074  0.0000E+00  0.4000E+01
    -12.989  0.0000E+00  0.4000E+01
    -12.903  0.0000E+00  0.4000E+01
    -12.818  0.0000E+00  0.4000E+01
    -12.733  0.0000E+00  0.4000E+01
    -12.647  0.0000E+00  0.4000E+01
    -12.562  0.0000E+00  0.4000E+01
    -12.477  0.0000E+00  0.4000E+01
    -12.391  0.0000E+00  0.4000E+01
    -12.306  0.0000E+00  0.4000E+01
    -12.221  0.0000E+00  0.4000E+01
    -12.135  0.0000E+00  0.4000E+01
    -12.050  0.0000E+00  0.4000E+01
    -11.965  0.0000E+00  0.4000E+01
    -11.879  0.0000E+00  0.4000E+01
    -11.794  0.0000E+00  0.4000E+01
    -11.709  0.0000E+00  0.4000E+01
    -11.624  0.0000E+00  0.4000E+01
    -11.538  0.0000E+00  0.4000E+01
    -11.453  0.0000E+00  0.4000E+01
    -11.368  0.0000E+00  0.4000E+01
    -11.282  0.0000E+00  0.4000E+01
    -11.197  0.0000E+00  0.4000E+01
    -11.112  0.0000E+00  0.4000E+01
    -11.026  0.0000E+00  0.4000E+01
    -10.941  0.0000E+00  0.4000E+01
    -10.856  0.0000E+00  0.4000E+01
    -10.770  0.0000E+00  0.4000E+01
    -10.685  0.0000E+00  0.4000E+01
    -10.600  0.0000E+00  0.4000E+01
    -10.514  0.0000E+00  0.4000E+01
    -10.429  0.0000E+00  0.4000E+01
    -10.344  0.0000E+00  0.4000E+01
    -10.258  0.0000E+00  0.4000E+01
    -10.173  0.0000E+00  0.4000E+01
    -10.088  0.0000E+00  0.4000E+01
    -10.002  0.0000E+00  0.4000E+01
     -9.917  0.0000E+00  0.4000E+01
     -9.832  0.0000E+00  0.4000E+01
     -9.746  0.0000E+00  0.4000E+01
     -9.661  0.0000E+00  0.4000E+01
     -9.576  0.0000E+00  0.4000E+01
     -9.490  0.0000E+00  0.4000E+01
     -9.405  0.0000E+00  0.4000E+01
     -9.320  0.0000E+00  0.4000E+01
     -9.235  0.0000E+00  0.4000E+01
     -9.149  0.0000E+00  0.4000E+01
     -9.064  0.5004E+00  0.4020E+01
     -8.979  0.1043E+01  0.4085E+01
     -8.893  0.1837E+01  0.4208E+01
     -8.808  0.2642E+01  0.4408E+01
     -8.723  0.2860E+01  0.4650E+01
     -8.637  0.3779E+01  0.4971E+01
     -8.552  0.3110E+01  0.5265E+01
     -8.467  0.5322E+01  0.5544E+01
     -8.381  0.2740E+01  0.5988E+01
     -8.296  0.5277E+01  0.6194E+01
     -8.211  0.2507E+01  0.6515E+01
     -8.125  0.1316E+01  0.6646E+01
     -8.040  0.1181E+01  0.6753E+01
     -7.955  0.1046E+01  0.6848E+01
     -7.869  0.9104E+00  0.6931E+01
     -7.784  0.8329E+00  0.7004E+01
     -7.699  0.8377E+00  0.7075E+01
     -7.613  0.8424E+00  0.7147E+01
     -7.528  0.8472E+00  0.7219E+01
     -7.443  0.2036E+01  0.7313E+01
     -7.357  0.5017E+01  0.7613E+01
     -7.272  0.5127E+01  0.8150E+01
     -7.187  0.5023E+01  0.8572E+01
     -7.101  0.3130E+01  0.8920E+01
     -7.016  0.1348E+01  0.9108E+01
     -6.931  0.1178E+01  0.9215E+01
     -6.846  0.1082E+01  0.9311E+01
     -6.760  0.9860E+00  0.9400E+01
     -6.675  0.8900E+00  0.9480E+01
     -6.590  0.1215E+02  0.1012E+02
     -6.504  0.3719E+01  0.1066E+02
     -6.419  0.2269E+01  0.1092E+02
     -6.334  0.2243E+01  0.1120E+02
     -6.248  0.1828E+01  0.1136E+02
     -6.163  0.1717E+01  0.1152E+02
     -6.078  0.1606E+01  0.1166E+02
     -5.992  0.3967E+01  0.1184E+02
     -5.907  0.2195E+01  0.1207E+02
     -5.822  0.1622E+01  0.1225E+02
     -5.736  0.8728E+00  0.1234E+02
     -5.651  0.8662E+00  0.1242E+02
     -5.566  0.8597E+00  0.1249E+02
     -5.480  0.8531E+00  0.1256E+02
     -5.395  0.4119E+01  0.1276E+02
     -5.310  0.9033E+01  0.1332E+02
     -5.224  0.6654E+01  0.1401E+02
     -5.139  0.1700E+01  0.1436E+02
     -5.054  0.1496E+01  0.1450E+02
     -4.968  0.1453E+01  0.1462E+02
     -4.883  0.1493E+01  0.1475E+02
     -4.798  0.1678E+01  0.1488E+02
     -4.712  0.5707E+01  0.1507E+02
     -4.627  0.2949E+01  0.1546E+02
     -4.542  0.2279E+01  0.1566E+02
     -4.457  0.2512E+01  0.1587E+02
     -4.371  0.4990E+00  0.1599E+02
     -4.286  0.1614E+01  0.1604E+02
     -4.201  0.4176E+01  0.1631E+02
     -4.115  0.3681E+01  0.1664E+02
     -4.030  0.3360E+01  0.1694E+02
     -3.945  0.3038E+01  0.1722E+02
     -3.859  0.2079E+01  0.1743E+02
     -3.774  0.1764E+01  0.1760E+02
     -3.689  0.1448E+01  0.1773E+02
     -3.603  0.1133E+01  0.1784E+02
     -3.518  0.7657E+00  0.1797E+02
     -3.433  0.0000E+00  0.1800E+02
     -3.347  0.0000E+00  0.1800E+02
     -3.262  0.0000E+00  0.1800E+02
     -3.177  0.0000E+00  0.1800E+02
     -3.091  0.0000E+00  0.1800E+02
     -3.006  0.0000E+00  0.1800E+02
     -2.921  0.0000E+00  0.1800E+02
     -2.835  0.0000E+00  0.1800E+02
     -2.750  0.0000E+00  0.1800E+02
     -2.665  0.0000E+00  0.1800E+02
     -2.579  0.0000E+00  0.1800E+02
     -2.494  0.0000E+00  0.1800E+02
     -2.409  0.0000E+00  0.1800E+02
     -2.323  0.0000E+00  0.1800E+02
     -2.238  0.0000E+00  0.1800E+02
     -2.153  0.0000E+00  0.1800E+02
     -2.068  0.0000E+00  0.1800E+02
     -1.982  0.0000E+00  0.1800E+02
     -1.897  0.0000E+00  0.1800E+02
     -1.812  0.0000E+00  0.1800E+02
     -1.726  0.0000E+00  0.1800E+02
     -1.641  0.0000E+00  0.1800E+02
     -1.556  0.7319E+00  0.1807E+02
     -1.470  0.9542E+00  0.1814E+02
     -1.385  0.6321E+01  0.1843E+02
     -1.300  0.8565E+01  0.1909E+02
     -1.214  0.9280E+00  0.1972E+02
     -1.129  0.7813E+00  0.1979E+02
     -1.044  0.4570E+01  0.1996E+02
     -0.958  0.4424E+01  0.2057E+02
     -0.873  0.4435E+01  0.2100E+02
     -0.788  0.4864E+01  0.2139E+02
     -0.702  0.3935E+01  0.2188E+02
     -0.617  0.3150E+01  0.2218E+02
     -0.532  0.2330E+01  0.2242E+02
     -0.446  0.2532E+01  0.2262E+02
     -0.361  0.2641E+01  0.2284E+02
     -0.276  0.1951E+01  0.2309E+02
     -0.190  0.2472E+01  0.2328E+02
     -0.105  0.2027E+01  0.2353E+02
     -0.020  0.1962E+01  0.2370E+02
      0.066  0.1897E+01  0.2386E+02
      0.151  0.1960E+01  0.2402E+02
      0.236  0.1855E+01  0.2420E+02
      0.321  0.1573E+01  0.2434E+02
      0.407  0.1200E+01  0.2446E+02
      0.492  0.9780E+00  0.2455E+02
      0.577  0.1078E+01  0.2463E+02
      0.663  0.1178E+01  0.2473E+02
      0.748  0.3728E+01  0.2490E+02
      0.833  0.2101E+01  0.2537E+02
      0.919  0.1765E+01  0.2554E+02
      1.004  0.1429E+01  0.2568E+02
      1.089  0.1093E+01  0.2578E+02
      1.175  0.1158E+01  0.2588E+02
      1.260  0.0000E+00  0.2600E+02
      1.345  0.0000E+00  0.2600E+02
      1.431  0.0000E+00  0.2600E+02
      1.516  0.0000E+00  0.2600E+02
      1.601  0.0000E+00  0.2600E+02
      1.687  0.0000E+00  0.2600E+02
      1.772  0.0000E+00  0.2600E+02
      1.857  0.0000E+00  0.2600E+02
      1.943  0.0000E+00  0.2600E+02
      2.028  0.9351E-01  0.2600E+02
      2.113  0.2143E+00  0.2602E+02
      2.199  0.3350E+00  0.2604E+02
      2.284  0.4558E+00  0.2607E+02
      2.369  0.3253E+00  0.2611E+02
      2.455  0.3451E+00  0.2614E+02
      2.540  0.3648E+00  0.2617E+02
      2.625  0.3846E+00  0.2620E+02
      2.710  0.4044E+00  0.2623E+02
      2.796  0.4654E+00  0.2627E+02
      2.881  0.6070E+00  0.2631E+02
      2.966  0.7320E+00  0.2637E+02
      3.052  0.8427E+00  0.2644E+02
      3.137  0.9535E+00  0.2652E+02
      3.222  0.1112E+01  0.2660E+02
      3.308  0.1666E+01  0.2671E+02
      3.393  0.1709E+01  0.2686E+02
      3.478  0.1752E+01  0.2700E+02
      3.564  0.2113E+01  0.2719E+02
      3.649  0.2153E+01  0.2738E+02
      3.734  0.2106E+01  0.2756E+02
      3.820  0.1535E+01  0.2772E+02
      3.905  0.9637E+00  0.2782E+02
      3.990  0.1016E+01  0.2793E+02
      4.076  0.3643E+00  0.2799E+02
      4.161  0.0000E+00  0.2800E+02
      4.246  0.0000E+00  0.2800E+02
      4.332  0.0000E+00  0.2800E+02
      4.417  0.0000E+00  0.2800E+02
      4.502  0.0000E+00  0.2800E+02
      4.588  0.0000E+00  0.2800E+02
      4.673  0.0000E+00  0.2800E+02
      4.758  0.0000E+00  0.2800E+02
      4.844  0.0000E+00  0.2800E+02
      4.929  0.0000E+00  0.2800E+02
      5.014  0.0000E+00  0.2800E+02
      5.099  0.0000E+00  0.2800E+02
      5.185  0.0000E+00  0.2800E+02
      5.270  0.0000E+00  0.2800E+02
      5.355  0.0000E+00  0.2800E+02
      5.441  0.0000E+00  0.2800E+02
      5.526  0.0000E+00  0.2800E+02
      5.611  0.0000E+00  0.2800E+02
      5.697  0.0000E+00  0.2800E+02
      5.782  0.0000E+00  0.2800E+02
      5.867  0.0000E+00  0.2800E+02
      5.953  0.0000E+00  0.2800E+02
      6.038  0.0000E+00  0.2800E+02
      6.123  0.0000E+00  0.2800E+02
