    3    3    1    1
  0.7897505E+02  0.3190316E-09  0.3190316E-09  0.2687900E-08  0.5000000E-15
  1.000000000000000E-004
  CAR 
 unknown system                          
     18     10     14
 
  0.0000000E+00  0.0000000E+00  0.0000000E+00  0.1562500E-01
    1      -17.473083   1.000000
    2      -16.264677   1.000000
    3       -8.983307   1.000000
    4       -6.021353   1.000000
    5       -6.021091   1.000000
    6       -5.161764   1.000000
    7       -4.914281   1.000000
    8       -4.913814   1.000000
    9       -3.439270   1.000000
   10       -0.665001   0.000000
   11       -0.664219   0.000000
   12       -0.442918   0.000000
   13       -0.442223   0.000000
   14        1.961837   0.000000
 
  0.1250000E+00  0.0000000E+00  0.0000000E+00  0.9375000E-01
    1      -17.258990   1.000000
    2      -16.162182   1.000000
    3       -8.738346   1.000000
    4       -6.485672   1.000000
    5       -5.968749   1.000000
    6       -5.787055   1.000000
    7       -5.250338   1.000000
    8       -4.482860   1.000000
    9       -3.578105   1.000000
   10       -0.947712   0.000000
   11       -0.880904   0.000000
   12       -0.679468   0.000000
   13       -0.310878   0.000000
   14        2.325802   0.000000
 
  0.2500000E+00  0.0000000E+00  0.0000000E+00  0.9375000E-01
    1      -16.690380   1.000000
    2      -15.893229   1.000000
    3       -8.372610   1.000000
    4       -7.213877   1.000000
    5       -6.950329   1.000000
    6       -5.887018   1.000000
    7       -5.201296   1.000000
    8       -4.734822   1.000000
    9       -4.146645   1.000000
   10       -1.271985   0.000000
   11       -1.096869   0.000000
   12       -0.553654   0.000000
   13        0.304211   0.000000
   14        3.153490   0.000000
 
  0.3750000E+00  0.0000000E+00  0.0000000E+00  0.9375000E-01
    1      -16.015400   1.000000
    2      -15.584603   1.000000
    3       -8.811694   1.000000
    4       -7.819218   1.000000
    5       -7.345199   1.000000
    6       -6.385659   1.000000
    7       -5.143755   1.000000
    8       -4.611480   1.000000
    9       -4.340781   1.000000
   10       -1.279391   0.000000
   11       -0.999767   0.000000
   12        0.165126   0.000000
   13        0.696675   0.000000
   14        3.722198   0.000000
 
  0.5000000E+00  0.0000000E+00  0.0000000E+00  0.4687500E-01
    1      -15.687061   1.000000
    2      -15.441201   1.000000
    3       -9.144771   1.000000
    4       -8.185284   1.000000
    5       -7.470731   1.000000
    6       -6.566284   1.000000
    7       -5.282355   1.000000
    8       -4.384335   1.000000
    9       -4.059195   1.000000
   10       -1.257728   0.000000
   11       -0.743203   0.000000
   12        0.464956   0.000000
   13        0.812548   0.000000
   14        2.766883   0.000000
 
  0.1250000E+00  0.1250000E+00  0.0000000E+00  0.9375000E-01
    1      -16.866283   1.000000
    2      -15.975054   1.000000
    3       -8.390878   1.000000
    4       -7.051037   1.000000
    5       -6.531482   1.000000
    6       -6.064736   1.000000
    7       -5.448681   1.000000
    8       -4.348119   1.000000
    9       -3.950793   1.000000
   10       -1.347083   0.000000
   11       -0.969543   0.000000
   12       -0.957316   0.000000
   13        0.283321   0.000000
   14        2.920578   0.000000
 
  0.2500000E+00  0.1250000E+00  0.0000000E+00  0.1875000E+00
    1      -16.232830   1.000000
    2      -15.676343   1.000000
    3       -8.455134   1.000000
    4       -7.477548   1.000000
    5       -7.214172   1.000000
    6       -6.570081   1.000000
    7       -5.349613   1.000000
    8       -4.710985   1.000000
    9       -4.234493   1.000000
   10       -1.430777   0.000000
   11       -0.984026   0.000000
   12       -0.487172   0.000000
   13        0.788764   0.000000
   14        3.911747   0.000000
 
  0.3750000E+00  0.1250000E+00  0.0000000E+00  0.1875000E+00
    1      -15.702374   1.000000
    2      -15.432346   1.000000
    3       -8.857308   1.000000
    4       -8.241220   1.000000
    5       -7.343289   1.000000
    6       -6.587729   1.000000
    7       -5.334518   1.000000
    8       -5.192435   1.000000
    9       -3.907805   1.000000
   10       -1.238838   0.000000
   11       -0.728726   0.000000
   12        0.136523   0.000000
   13        0.822619   0.000000
   14        3.291941   0.000000
 
  0.2500000E+00  0.2500000E+00  0.0000000E+00  0.9375000E-01
    1      -15.717333   1.000000
    2      -15.423409   1.000000
    3       -8.496262   1.000000
    4       -8.290991   1.000000
    5       -7.016612   1.000000
    6       -6.635960   1.000000
    7       -6.316830   1.000000
    8       -5.059270   1.000000
    9       -3.937475   1.000000
   10       -1.289680   0.000000
   11       -0.677890   0.000000
   12       -0.361227   0.000000
   13        1.107036   0.000000
   14        4.123330   0.000000
 
  0.3750000E+00  0.2500000E+00  0.0000000E+00  0.9375000E-01
    1      -15.482354   1.000000
    2      -15.304333   1.000000
    3       -8.675801   1.000000
    4       -8.327016   1.000000
    5       -7.300158   1.000000
    6       -6.638010   1.000000
    7       -6.409953   1.000000
    8       -5.444760   1.000000
    9       -3.570020   1.000000
   10       -1.615925   0.000000
   11       -0.300072   0.000000
   12       -0.128484   0.000000
   13        1.250286   0.000000
   14        3.536883   0.000000
