       N       E                     dE             d eps       ncg     rms          rms(c)
DAV:   1     0.999298770418E+02    0.99930E+02   -0.43327E+03   288   0.519E+02
DAV:   2    -0.116115941832E+02   -0.11154E+03   -0.10588E+03   476   0.145E+02
DAV:   3    -0.231618524781E+02   -0.11550E+02   -0.11441E+02   382   0.600E+01
DAV:   4    -0.233624606917E+02   -0.20061E+00   -0.19983E+00   360   0.951E+00
DAV:   5    -0.233681958653E+02   -0.57352E-02   -0.57339E-02   352   0.152E+00    0.691E+00
RMM:   6    -0.222098184010E+02    0.11584E+01   -0.53854E+00   292   0.116E+01    0.263E+00
RMM:   7    -0.218261836802E+02    0.38363E+00   -0.56263E-01   290   0.329E+00    0.153E+00
RMM:   8    -0.217661051575E+02    0.60079E-01   -0.23502E-01   303   0.245E+00    0.349E-01
RMM:   9    -0.217614166002E+02    0.46886E-02   -0.82607E-03   335   0.549E-01    0.925E-02
RMM:  10    -0.217607288998E+02    0.68770E-03   -0.16366E-03   335   0.208E-01    0.432E-02
RMM:  11    -0.217607283070E+02    0.59281E-06   -0.17785E-03   312   0.186E-01    0.540E-02
RMM:  12    -0.217606439853E+02    0.84322E-04   -0.55249E-04   304   0.126E-01    0.153E-02
RMM:  13    -0.217610924217E+02   -0.44844E-03   -0.14516E-04   282   0.627E-02    0.180E-02
RMM:  14    -0.217611529958E+02   -0.60574E-04   -0.23804E-05   249   0.253E-02    0.533E-03
RMM:  15    -0.217612769617E+02   -0.12397E-03   -0.13241E-05   202   0.161E-02    0.360E-03
RMM:  16    -0.217613130426E+02   -0.36081E-04   -0.25060E-06   165   0.783E-03    0.247E-03
RMM:  17    -0.217613511853E+02   -0.38143E-04   -0.28924E-06   157   0.797E-03    0.253E-03
RMM:  18    -0.217613543901E+02   -0.32048E-05   -0.36929E-07    86   0.422E-03
   1 F= -.22352263E+02 E0= -.22352263E+02  d E =0.000000E+00
