 vasp.5.4.4.18Apr17-6-g9f103f2a35 (build Jun 30 2017 11:15:00) complex          
  
 executed on    STALLO_VASP_5.4.4 date 2019.11.08  11:57:05
 running on    4 total cores
 distrk:  each k-point on    4 cores,    1 groups
 distr:  one band on NCORES_PER_BAND=   2 cores,    2 groups


--------------------------------------------------------------------------------------------------------


 INCAR:
 POTCAR:   PAW_PBE Mo 08Apr2002                   
 POTCAR:    PAW_PBE S 17Jan2003                   
 POTCAR:   PAW_PBE Mo 08Apr2002                   
   VRHFIN =Mo: 4p5s4d                                                           
   LEXCH  = PE                                                                  
   EATOM  =   217.5180 eV,   15.9871 Ry                                         
                                                                                
   TITEL  = PAW_PBE Mo 08Apr2002                                                
   LULTRA =        F    use ultrasoft PP ?                                      
   IUNSCR =        1    unscreen: 0-lin 1-nonlin 2-no                           
   RPACOR =    2.200    partial core radius                                     
   POMASS =   95.940; ZVAL   =    6.000    mass and valenz                      
   RCORE  =    2.750    outmost cutoff radius                                   
   RWIGS  =    2.750; RWIGS  =    1.455    wigner-seitz radius (au A)           
   ENMAX  =  224.584; ENMIN  =  168.438 eV                                      
   RCLOC  =    2.111    cutoff for local pot                                    
   LCOR   =        T    correct aug charges                                     
   LPAW   =        T    paw PP                                                  
   EAUG   =  345.278                                                            
   DEXC   =    -.088                                                            
   RMAX   =    3.077    core radius for proj-oper                               
   RAUG   =    1.300    factor for augmentation sphere                          
   RDEP   =    2.815    radius for radial grids                                 
   QCUT   =   -4.063; QGAM   =    8.126    optimization parameters              
                                                                                
   Description                                                                  
     l     E      TYP  RCUT    TYP  RCUT                                        
     2   .000     23  2.500                                                     
     2   .000     23  2.500                                                     
     0   .000     23  2.600                                                     
     0  1.000     23  2.600                                                     
     1   .400     23  2.750                                                     
     1  2.000     23  2.750                                                     
     3   .000      7   .000                                                     
  local pseudopotential read in
  partial core-charges read in
  atomic valenz-charges read in
  non local Contribution for L=           2  read in
    real space projection operators read in
  non local Contribution for L=           2  read in
    real space projection operators read in
  non local Contribution for L=           0  read in
    real space projection operators read in
  non local Contribution for L=           0  read in
    real space projection operators read in
  non local Contribution for L=           1  read in
    real space projection operators read in
  non local Contribution for L=           1  read in
    real space projection operators read in
    PAW grid and wavefunctions read in
 
   number of l-projection  operators is LMAX  =           6
   number of lm-projection operators is LMMAX =          18
 
 POTCAR:    PAW_PBE S 17Jan2003                   
   VRHFIN =S : s2p4                                                             
   LEXCH  = PE                                                                  
   EATOM  =   276.8230 eV,   20.3459 Ry                                         
                                                                                
   TITEL  = PAW_PBE S 17Jan2003                                                 
   LULTRA =        F    use ultrasoft PP ?                                      
   IUNSCR =        1    unscreen: 0-lin 1-nonlin 2-no                           
   RPACOR =    1.500    partial core radius                                     
   POMASS =   32.066; ZVAL   =    6.000    mass and valenz                      
   RCORE  =    1.900    outmost cutoff radius                                   
   RWIGS  =    2.200; RWIGS  =    1.164    wigner-seitz radius (au A)           
   ENMAX  =  280.000; ENMIN  =  194.016 eV                                      
   ICORE  =        2    local potential                                         
   LCOR   =        T    correct aug charges                                     
   LPAW   =        T    paw PP                                                  
   EAUG   =  335.092                                                            
   DEXC   =     .000                                                            
   RMAX   =    2.867    core radius for proj-oper                               
   RAUG   =    1.300    factor for augmentation sphere                          
   RDEP   =    1.954    radius for radial grids                                 
   QCUT   =   -4.360; QGAM   =    8.721    optimization parameters              
                                                                                
   Description                                                                  
     l     E      TYP  RCUT    TYP  RCUT                                        
     0   .000     23  1.900                                                     
     0   .000     23  1.900                                                     
     1   .000     23  1.900                                                     
     1   .000     23  1.900                                                     
     2   .000     23  1.900                                                     
  local pseudopotential read in
  partial core-charges read in
  atomic valenz-charges read in
  non local Contribution for L=           0  read in
    real space projection operators read in
  non local Contribution for L=           0  read in
    real space projection operators read in
  non local Contribution for L=           1  read in
    real space projection operators read in
  non local Contribution for L=           1  read in
    real space projection operators read in
    PAW grid and wavefunctions read in
 
   number of l-projection  operators is LMAX  =           4
   number of lm-projection operators is LMMAX =           8
 
 PAW_PBE Mo 08Apr2002                   :
 energy of atom  1       EATOM= -217.5180
 kinetic energy error for atom=    0.0235 (will be added to EATOM!!)
  PAW_PBE S 17Jan2003                   :
 energy of atom  2       EATOM= -276.8230
 kinetic energy error for atom=    0.0359 (will be added to EATOM!!)
 
 
 POSCAR: MoS2_mp-2815_computed                   
  positions in cartesian coordinates
  velocities in cartesian coordinates
  No initial velocities read in
 exchange correlation table for  LEXCH =        8
   RHO(1)=    0.500       N(1)  =     2000
   RHO(2)=  100.500       N(2)  =     4000
 


--------------------------------------------------------------------------------------------------------


 ion  position               nearest neighbor table
   1  0.333  0.667  0.138-   3 2.42   2 2.42   2 2.42   3 2.42   3 2.42   2 2.42
   2  0.667  0.333  0.080-   1 2.42   1 2.42   1 2.42
   3  0.667  0.333  0.197-   1 2.42   1 2.42   1 2.42
 
  LATTYP: Found a hexagonal cell.
 ALAT       =     3.1903157300
 C/A-ratio  =     8.4251862746
  
  Lattice vectors:
  
 A1 = (   3.1903157300,   0.0000000000,   0.0000000000)
 A2 = (  -1.5951578650,   2.7628944683,   0.0000000000)
 A3 = (   0.0000000000,   0.0000000000,  26.8790043000)


Analysis of symmetry for initial positions (statically):
=====================================================================
 Subroutine PRICEL returns:
 Original cell was already a primitive cell.
 

 Routine SETGRP: Setting up the symmetry group for a 
 hexagonal supercell.


 Subroutine GETGRP returns: Found 12 space group operations
 (whereof  6 operations were pure point group operations)
 out of a pool of 24 trial point group operations.


The static configuration has the point symmetry C_3v.
 The point group associated with its full space group is D_3h.


Analysis of symmetry for dynamics (positions and initial velocities):
=====================================================================
 Subroutine PRICEL returns:
 Original cell was already a primitive cell.
 

 Routine SETGRP: Setting up the symmetry group for a 
 hexagonal supercell.


 Subroutine GETGRP returns: Found 12 space group operations
 (whereof  6 operations were pure point group operations)
 out of a pool of 24 trial point group operations.


The dynamic configuration has the point symmetry C_3v.
 The point group associated with its full space group is D_3h.


 Subroutine INISYM returns: Found 12 space group operations
 (whereof  6 operations are pure point group operations),
 and found     1 'primitive' translations

 
 
 KPOINTS: k-density: 4.0                          

Automatic generation of k-mesh.
Space group operators:
 irot       det(A)        alpha          n_x          n_y          n_z        tau_x        tau_y        tau_z
    1     1.000000     0.000001     1.000000     0.000000     0.000000     0.000000     0.000000     0.000000
    2     1.000000   120.000000     0.000000     0.000000    -1.000000     0.000000     0.000000     0.000000
    3     1.000000   120.000000     0.000000     0.000000     1.000000     0.000000     0.000000     0.000000
    4    -1.000000   179.999999     1.000000    -0.000000     0.000000     0.000000     0.000000     0.000000
    5    -1.000000   180.000000     0.500000    -0.866025     0.000000     0.000000     0.000000     0.000000
    6    -1.000000   180.000000    -0.500000    -0.866025     0.000000     0.000000     0.000000     0.000000
    7    -1.000000    60.000000     0.000000     0.000000    -1.000000    -0.000000     0.000000     0.276777
    8    -1.000000   180.000000     0.000000     0.000000     1.000000     0.000000     0.000000     0.276777
    9    -1.000000    60.000000     0.000000     0.000000     1.000000     0.000000     0.000001     0.276777
   10     1.000000   180.000000     0.866025    -0.500000     0.000000     0.000000     0.000000     0.276777
   11     1.000000   180.000000     0.000000     1.000000     0.000000     0.000000     0.000000     0.276777
   12     1.000000   179.999999     0.866025     0.500000     0.000000    -0.000000     0.000001     0.276777
 
 Subroutine IBZKPT returns following result:
 ===========================================
 
 Found     10 irreducible k-points:
 
 Following reciprocal coordinates:
            Coordinates               Weight
  0.000000  0.000000  0.000000      1.000000
  0.125000  0.000000  0.000000      6.000000
  0.250000  0.000000  0.000000      6.000000
  0.375000  0.000000  0.000000      6.000000
  0.500000  0.000000  0.000000      3.000000
  0.125000  0.125000  0.000000      6.000000
  0.250000  0.125000  0.000000     12.000000
  0.375000  0.125000  0.000000     12.000000
  0.250000  0.250000  0.000000      6.000000
  0.375000  0.250000  0.000000      6.000000
 
 Following cartesian coordinates:
            Coordinates               Weight
  0.000000  0.000000  0.000000      1.000000
  0.039181  0.022621  0.000000      6.000000
  0.078362  0.045242  0.000000      6.000000
  0.117543  0.067864  0.000000      6.000000
  0.156724  0.090485  0.000000      3.000000
  0.039181  0.067864  0.000000      6.000000
  0.078362  0.090485  0.000000     12.000000
  0.117543  0.113106  0.000000     12.000000
  0.078362  0.135727  0.000000      6.000000
  0.117543  0.158348  0.000000      6.000000
 
 TETIRR: Found     36 inequivalent tetrahedra from      384


--------------------------------------------------------------------------------------------------------




 Dimension of arrays:
   k-points           NKPTS =     10   k-points in BZ     NKDIM =     10   number of bands    NBANDS=     14
   number of dos      NEDOS =    301   number of ions     NIONS =      3
   non local maximal  LDIM  =      6   non local SUM 2l+1 LMDIM =     18
   total plane-waves  NPLWV =  15552
   max r-space proj   IRMAX =      1   max aug-charges    IRDMAX=   4413
   dimension x,y,z NGX =    12 NGY =   12 NGZ =  108
   dimension x,y,z NGXF=    24 NGYF=   24 NGZF=  216
   support grid    NGXF=    24 NGYF=   24 NGZF=  216
   ions per type =               1   2
   NGX,Y,Z   is equivalent  to a cutoff of   6.25,  6.25,  6.68 a.u.
   NGXF,Y,Z  is equivalent  to a cutoff of  12.51, 12.51, 13.36 a.u.

 SYSTEM =  unknown system                          
 POSCAR =  MoS2_mp-2815_computed                   

 Startparameter for this run:
   NWRITE =      2    write-flag & timer
   PREC   = normal    normal or accurate (medium, high low for compatibility)
   ISTART =      0    job   : 0-new  1-cont  2-samecut
   ICHARG =      2    charge: 1-file 2-atom 10-const
   ISPIN  =      1    spin polarized calculation?
   LNONCOLLINEAR =      F non collinear calculations
   LSORBIT =      F    spin-orbit coupling
   INIWAV =      1    electr: 0-lowe 1-rand  2-diag
   LASPH  =      F    aspherical Exc in radial PAW
   METAGGA=      F    non-selfconsistent MetaGGA calc.

 Electronic Relaxation 1
   ENCUT  =  250.0 eV  18.37 Ry    4.29 a.u.   4.11  4.11 34.65*2*pi/ulx,y,z
   ENINI  =  250.0     initial cutoff
   ENAUG  =  345.3 eV  augmentation charge cutoff
   NELM   =     60;   NELMIN=  4; NELMDL= -5     # of ELM steps 
   EDIFF  = 0.1E-04   stopping-criterion for ELM
   LREAL  =      F    real-space projection
   NLSPLINE    = F    spline interpolate recip. space projectors
   LCOMPAT=      F    compatible to vasp.4.4
   GGA_COMPAT  = T    GGA compatible to vasp.4.4-vasp.4.6
   LMAXPAW     = -100 max onsite density
   LMAXMIX     =    2 max onsite mixed and CHGCAR
   VOSKOWN=      0    Vosko Wilk Nusair interpolation
   ROPT   =    0.00000   0.00000
 Ionic relaxation
   EDIFFG = 0.1E-03   stopping-criterion for IOM
   NSW    =      0    number of steps for IOM
   NBLOCK =      1;   KBLOCK =      1    inner block; outer block 
   IBRION =     -1    ionic relax: 0-MD 1-quasi-New 2-CG
   NFREE  =      0    steps in history (QN), initial steepest desc. (CG)
   ISIF   =      2    stress and relaxation
   IWAVPR =     10    prediction:  0-non 1-charg 2-wave 3-comb
   ISYM   =      2    0-nonsym 1-usesym 2-fastsym
   LCORR  =      T    Harris-Foulkes like correction to forces

   POTIM  = 0.5000    time-step for ionic-motion
   TEIN   =    0.0    initial temperature
   TEBEG  =    0.0;   TEEND  =   0.0 temperature during run
   SMASS  =  -3.00    Nose mass-parameter (am)
   estimated Nose-frequenzy (Omega)   =  0.10E-29 period in steps =****** mass=  -0.233E-27a.u.
   SCALEE = 1.0000    scale energy and forces
   NPACO  =    256;   APACO  = 16.0  distance and # of slots for P.C.
   PSTRESS=    0.0 pullay stress

  Mass of Ions in am
   POMASS =  95.94 32.07
  Ionic Valenz
   ZVAL   =   6.00  6.00
  Atomic Wigner-Seitz radii
   RWIGS  =  -1.00 -1.00
  virtual crystal weights 
   VCA    =   1.00  1.00
   NELECT =      18.0000    total number of electrons
   NUPDOWN=      -1.0000    fix difference up-down

 DOS related values:
   EMIN   =  10.00;   EMAX   =-10.00  energy-range for DOS
   EFERMI =   0.00
   ISMEAR =    -5;   SIGMA  =   0.20  broadening in eV -4-tet -1-fermi 0-gaus

 Electronic relaxation 2 (details)
   IALGO  =     68    algorithm
   LDIAG  =      T    sub-space diagonalisation (order eigenvalues)
   LSUBROT=      F    optimize rotation matrix (better conditioning)
   TURBO    =      0    0=normal 1=particle mesh
   IRESTART =      0    0=no restart 2=restart with 2 vectors
   NREBOOT  =      0    no. of reboots
   NMIN     =      0    reboot dimension
   EREF     =   0.00    reference energy to select bands
   IMIX   =      4    mixing-type and parameters
     AMIX     =   0.40;   BMIX     =  1.00
     AMIX_MAG =   1.60;   BMIX_MAG =  1.00
     AMIN     =   0.10
     WC   =   100.;   INIMIX=   1;  MIXPRE=   1;  MAXMIX= -45

 Intra band minimization:
   WEIMIN = 0.0000     energy-eigenvalue tresh-hold
   EBREAK =  0.18E-06  absolut break condition
   DEPER  =   0.30     relativ break condition  

   TIME   =   0.40     timestep for ELM

  volume/ion in A,a.u.               =      78.98       532.95
  Fermi-wavevector in a.u.,A,eV,Ry     =   0.693365  1.310270  6.541070  0.480755
  Thomas-Fermi vector in A             =   1.775558
 
 Write flags
   LWAVE        =      F    write WAVECAR
   LDOWNSAMPLE  =      F    k-point downsampling of WAVECAR
   LCHARG       =      T    write CHGCAR
   LVTOT        =      F    write LOCPOT, total local potential
   LVHAR        =      F    write LOCPOT, Hartree potential only
   LELF         =      F    write electronic localiz. function (ELF)
   LORBIT       =      0    0 simple, 1 ext, 2 COOP (PROOUT), +10 PAW based schemes


 Dipole corrections
   LMONO  =      F    monopole corrections only (constant potential shift)
   LDIPOL =      F    correct potential (dipole corrections)
   IDIPOL =      0    1-x, 2-y, 3-z, 4-all directions 
   EPSILON=  1.0000000 bulk dielectric constant

 Exchange correlation treatment:
   GGA     =    --    GGA type
   LEXCH   =     8    internal setting for exchange type
   VOSKOWN=      0    Vosko Wilk Nusair interpolation
   LHFCALC =     F    Hartree Fock is set to
   LHFONE  =     F    Hartree Fock one center treatment
   AEXX    =    0.0000 exact exchange contribution

 Linear response parameters
   LEPSILON=     F    determine dielectric tensor
   LRPA    =     F    only Hartree local field effects (RPA)
   LNABLA  =     F    use nabla operator in PAW spheres
   LVEL    =     F    velocity operator in full k-point grid
   LINTERFAST=   F  fast interpolation
   KINTER  =     0    interpolate to denser k-point grid
   CSHIFT  =0.1000    complex shift for real part using Kramers Kronig
   OMEGAMAX=  -1.0    maximum frequency
   DEG_THRESHOLD= 0.2000000E-02 threshold for treating states as degnerate
   RTIME   =   -0.100 relaxation time in fs
  (WPLASMAI=    0.000 imaginary part of plasma frequency in eV, 0.658/RTIME)
   DFIELD  = 0.0000000 0.0000000 0.0000000 field for delta impulse in time
 
 Orbital magnetization related:
   ORBITALMAG=     F  switch on orbital magnetization
   LCHIMAG   =     F  perturbation theory with respect to B field
   DQ        =  0.001000  dq finite difference perturbation B field
   LLRAUG    =     F  two centre corrections for induced B field



--------------------------------------------------------------------------------------------------------


 Static calculation
 charge density and potential will be updated during run
 non-spin polarized calculation
 RMM-DIIS sequential band-by-band and
  variant of blocked Davidson during initial phase
 perform sub-space diagonalisation
    before iterative eigenvector-optimisation
 modified Broyden-mixing scheme, WC =      100.0
 initial mixing is a Kerker type mixing with AMIX =  0.4000 and BMIX =      1.0000
 Hartree-type preconditioning will be used
 using additional bands            5
 reciprocal scheme for non local part
 use partial core corrections
 calculate Harris-corrections to forces 
   (improved forces if not selfconsistent)
 use gradient corrections 
 use of overlap-Matrix (Vanderbilt PP)
 Fermi weights with tetrahedron method with Bloechl corrections


--------------------------------------------------------------------------------------------------------


  energy-cutoff  :      250.00
  volume of cell :      236.93
      direct lattice vectors                 reciprocal lattice vectors
     3.190315730  0.000000000  0.000000000     0.313448600  0.180969634  0.000000000
    -1.595157865  2.762894468  0.000000000     0.000000000  0.361939267  0.000000000
     0.000000000  0.000000000 26.879004300     0.000000000  0.000000000  0.037203759

  length of vectors
     3.190315730  3.190315730 26.879004300     0.361939267  0.361939267  0.037203759


 
 k-points in units of 2pi/SCALE and weight: k-density: 4.0                          
   0.00000000  0.00000000  0.00000000       0.016
   0.03918108  0.02262120  0.00000000       0.094
   0.07836215  0.04524241  0.00000000       0.094
   0.11754323  0.06786361  0.00000000       0.094
   0.15672430  0.09048482  0.00000000       0.047
   0.03918108  0.06786361  0.00000000       0.094
   0.07836215  0.09048482  0.00000000       0.188
   0.11754323  0.11310602  0.00000000       0.188
   0.07836215  0.13572723  0.00000000       0.094
   0.11754323  0.15834843  0.00000000       0.094
 
 k-points in reciprocal lattice and weights: k-density: 4.0                          
   0.00000000  0.00000000  0.00000000       0.016
   0.12500000  0.00000000  0.00000000       0.094
   0.25000000  0.00000000  0.00000000       0.094
   0.37500000  0.00000000  0.00000000       0.094
   0.50000000  0.00000000  0.00000000       0.047
   0.12500000  0.12500000  0.00000000       0.094
   0.25000000  0.12500000  0.00000000       0.188
   0.37500000  0.12500000  0.00000000       0.188
   0.25000000  0.25000000  0.00000000       0.094
   0.37500000  0.25000000  0.00000000       0.094
 
 position of ions in fractional coordinates (direct lattice) 
   0.33333300  0.66666700  0.13838872
   0.66666700  0.33333300  0.08016914
   0.66666600  0.33333300  0.19660830
 
 position of ions in cartesian coordinates  (Angst):
  -0.00000160  1.84193057  3.71975108
   1.59515946  0.92096390  2.15486668
   1.59515627  0.92096390  5.28463547
 


--------------------------------------------------------------------------------------------------------


 k-point  1 :   0.0000 0.0000 0.0000  plane waves:    2067
 k-point  2 :   0.1250 0.0000 0.0000  plane waves:    2083
 k-point  3 :   0.2500 0.0000 0.0000  plane waves:    2129
 k-point  4 :   0.3750 0.0000 0.0000  plane waves:    2151
 k-point  5 :   0.5000 0.0000 0.0000  plane waves:    2156
 k-point  6 :   0.1250 0.1250 0.0000  plane waves:    2102
 k-point  7 :   0.2500 0.1250 0.0000  plane waves:    2129
 k-point  8 :   0.3750 0.1250 0.0000  plane waves:    2143
 k-point  9 :   0.2500 0.2500 0.0000  plane waves:    2136
 k-point 10 :   0.3750 0.2500 0.0000  plane waves:    2132

 maximum and minimum number of plane-waves per node :      1083     1032

 maximum number of plane-waves:      2156
 maximum index in each direction: 
   IXMAX=    4   IYMAX=    4   IZMAX=   34
   IXMIN=   -4   IYMIN=   -4   IZMIN=  -34


 parallel 3D FFT for wavefunctions:
    minimum data exchange during FFTs selected (reduces bandwidth)
 parallel 3D FFT for charge:
    minimum data exchange during FFTs selected (reduces bandwidth)


 total amount of memory used by VASP MPI-rank0    37756. kBytes
=======================================================================

   base      :      30000. kBytes
   nonl-proj :       3144. kBytes
   fftplans  :       1284. kBytes
   grid      :       2065. kBytes
   one-center:         31. kBytes
   wavefun   :       1232. kBytes
 
     INWAV:  cpu time    0.0000: real time    0.0000
 Broyden mixing: mesh for mixing (old mesh)
   NGX =  9   NGY =  9   NGZ = 69
  (NGX  = 24   NGY  = 24   NGZ  =216)
  gives a total of   5589 points

 initial charge density was supplied:
 charge density of overlapping atoms calculated
 number of electron      18.0000000 magnetization 
 keeping initial charge density in first step


--------------------------------------------------------------------------------------------------------


 Maximum index for augmentation-charges         1041 (set IRDMAX)


--------------------------------------------------------------------------------------------------------


 First call to EWALD:  gamma=   0.286
 Maximum number of real-space cells 6x 6x 1
 Maximum number of reciprocal cells 2x 2x10

    FEWALD:  cpu time    0.0020: real time    0.0015


--------------------------------------- Iteration      1(   1)  ---------------------------------------


    POTLOK:  cpu time    0.0190: real time    0.5202
    SETDIJ:  cpu time    0.0020: real time    0.0028
     EDDAV:  cpu time    0.0940: real time    0.0980
 BZINTS: Fermi energy:  5.859826; 18.000000 electrons
         Band energy: -43.430567;  BLOECHL correction: -0.324764
       DOS:  cpu time    0.0000: real time    0.0011
    --------------------------------------------
      LOOP:  cpu time    0.1150: real time    0.6222

 eigenvalue-minimisations  :   288
 total energy-change (2. order) : 0.9992988E+02  (-0.4332684E+03)
 number of electron      18.0000000 magnetization 
 augmentation part       18.0000000 magnetization 

 Free energy of the ion-electron system (eV)
  ---------------------------------------------------
  alpha Z        PSCENC =        12.51390764
  Ewald energy   TEWEN  =      4286.25630342
  -Hartree energ DENC   =     -4967.71356794
  -exchange      EXHF   =         0.00000000
  -V(xc)+E(xc)   XCENC  =       -36.31055464
  PAW double counting   =       406.88651198     -329.34073203
  entropy T*S    EENTRO =         0.00000000
  eigenvalues    EBANDS =       -43.43056714
  atomic energy  EATOM  =       771.06857575
  Solvation  Ediel_sol  =         0.00000000
  ---------------------------------------------------
  free energy    TOTEN  =        99.92987704 eV

  energy without entropy =       99.92987704  energy(sigma->0) =       99.92987704


--------------------------------------------------------------------------------------------------------




--------------------------------------- Iteration      1(   2)  ---------------------------------------


     EDDAV:  cpu time    0.1370: real time    0.1380
 BZINTS: Fermi energy: -2.283836; 18.000000 electrons
         Band energy:-154.972038;  BLOECHL correction:  0.000000
       DOS:  cpu time    0.0010: real time    0.0002
    --------------------------------------------
      LOOP:  cpu time    0.1380: real time    0.1382

 eigenvalue-minimisations  :   476
 total energy-change (2. order) :-0.1115415E+03  (-0.1058781E+03)
 number of electron      18.0000000 magnetization 
 augmentation part       18.0000000 magnetization 

 Free energy of the ion-electron system (eV)
  ---------------------------------------------------
  alpha Z        PSCENC =        12.51390764
  Ewald energy   TEWEN  =      4286.25630342
  -Hartree energ DENC   =     -4967.71356794
  -exchange      EXHF   =         0.00000000
  -V(xc)+E(xc)   XCENC  =       -36.31055464
  PAW double counting   =       406.88651198     -329.34073203
  entropy T*S    EENTRO =         0.00000000
  eigenvalues    EBANDS =      -154.97203837
  atomic energy  EATOM  =       771.06857575
  Solvation  Ediel_sol  =         0.00000000
  ---------------------------------------------------
  free energy    TOTEN  =       -11.61159418 eV

  energy without entropy =      -11.61159418  energy(sigma->0) =      -11.61159418


--------------------------------------------------------------------------------------------------------




--------------------------------------- Iteration      1(   3)  ---------------------------------------


     EDDAV:  cpu time    0.1110: real time    0.1121
 BZINTS: Fermi energy: -3.307657; 18.000000 electrons
         Band energy:-166.522297;  BLOECHL correction:  0.000000
       DOS:  cpu time    0.0000: real time    0.0002
    --------------------------------------------
      LOOP:  cpu time    0.1110: real time    0.1123

 eigenvalue-minimisations  :   382
 total energy-change (2. order) :-0.1155026E+02  (-0.1144109E+02)
 number of electron      18.0000000 magnetization 
 augmentation part       18.0000000 magnetization 

 Free energy of the ion-electron system (eV)
  ---------------------------------------------------
  alpha Z        PSCENC =        12.51390764
  Ewald energy   TEWEN  =      4286.25630342
  -Hartree energ DENC   =     -4967.71356794
  -exchange      EXHF   =         0.00000000
  -V(xc)+E(xc)   XCENC  =       -36.31055464
  PAW double counting   =       406.88651198     -329.34073203
  entropy T*S    EENTRO =         0.00000000
  eigenvalues    EBANDS =      -166.52229666
  atomic energy  EATOM  =       771.06857575
  Solvation  Ediel_sol  =         0.00000000
  ---------------------------------------------------
  free energy    TOTEN  =       -23.16185248 eV

  energy without entropy =      -23.16185248  energy(sigma->0) =      -23.16185248


--------------------------------------------------------------------------------------------------------




--------------------------------------- Iteration      1(   4)  ---------------------------------------


     EDDAV:  cpu time    0.1060: real time    0.1059
 BZINTS: Fermi energy: -3.303634; 18.000000 electrons
         Band energy:-166.722905;  BLOECHL correction:  0.000000
       DOS:  cpu time    0.0000: real time    0.0003
    --------------------------------------------
      LOOP:  cpu time    0.1060: real time    0.1062

 eigenvalue-minimisations  :   360
 total energy-change (2. order) :-0.2006082E+00  (-0.1998311E+00)
 number of electron      18.0000000 magnetization 
 augmentation part       18.0000000 magnetization 

 Free energy of the ion-electron system (eV)
  ---------------------------------------------------
  alpha Z        PSCENC =        12.51390764
  Ewald energy   TEWEN  =      4286.25630342
  -Hartree energ DENC   =     -4967.71356794
  -exchange      EXHF   =         0.00000000
  -V(xc)+E(xc)   XCENC  =       -36.31055464
  PAW double counting   =       406.88651198     -329.34073203
  entropy T*S    EENTRO =         0.00000000
  eigenvalues    EBANDS =      -166.72290488
  atomic energy  EATOM  =       771.06857575
  Solvation  Ediel_sol  =         0.00000000
  ---------------------------------------------------
  free energy    TOTEN  =       -23.36246069 eV

  energy without entropy =      -23.36246069  energy(sigma->0) =      -23.36246069


--------------------------------------------------------------------------------------------------------




--------------------------------------- Iteration      1(   5)  ---------------------------------------


     EDDAV:  cpu time    0.1040: real time    0.1039
 BZINTS: Fermi energy: -3.310055; 18.000000 electrons
         Band energy:-166.728640;  BLOECHL correction:  0.000000
       DOS:  cpu time    0.0000: real time    0.0003
    CHARGE:  cpu time    0.0070: real time    0.0081
    MIXING:  cpu time    0.0020: real time    0.0008
    --------------------------------------------
      LOOP:  cpu time    0.1130: real time    0.1131

 eigenvalue-minimisations  :   352
 total energy-change (2. order) :-0.5735174E-02  (-0.5733880E-02)
 number of electron      17.9999904 magnetization 
 augmentation part       -0.9516778 magnetization 

 Broyden mixing:
  rms(total) = 0.69126E+00    rms(broyden)= 0.69107E+00
  rms(prec ) = 0.74807E+00
  weight for this iteration     100.00

 Free energy of the ion-electron system (eV)
  ---------------------------------------------------
  alpha Z        PSCENC =        12.51390764
  Ewald energy   TEWEN  =      4286.25630342
  -Hartree energ DENC   =     -4967.71356794
  -exchange      EXHF   =         0.00000000
  -V(xc)+E(xc)   XCENC  =       -36.31055464
  PAW double counting   =       406.88651198     -329.34073203
  entropy T*S    EENTRO =         0.00000000
  eigenvalues    EBANDS =      -166.72864005
  atomic energy  EATOM  =       771.06857575
  Solvation  Ediel_sol  =         0.00000000
  ---------------------------------------------------
  free energy    TOTEN  =       -23.36819587 eV

  energy without entropy =      -23.36819587  energy(sigma->0) =      -23.36819587


--------------------------------------------------------------------------------------------------------




--------------------------------------- Iteration      1(   6)  ---------------------------------------


    POTLOK:  cpu time    0.0140: real time    0.0150
    SETDIJ:  cpu time    0.0020: real time    0.0019
    EDDIAG:  cpu time    0.0190: real time    0.0195
  RMM-DIIS:  cpu time    0.0680: real time    0.0671
    ORTHCH:  cpu time    0.0010: real time    0.0021
 BZINTS: Fermi energy: -4.377942; 18.000000 electrons
         Band energy:-167.310367;  BLOECHL correction:  0.000000
       DOS:  cpu time    0.0000: real time    0.0002
    CHARGE:  cpu time    0.0080: real time    0.0079
    MIXING:  cpu time    0.0010: real time    0.0006
    --------------------------------------------
      LOOP:  cpu time    0.1130: real time    0.1144

 eigenvalue-minimisations  :   292
 total energy-change (2. order) : 0.1158377E+01  (-0.5385426E+00)
 number of electron      17.9999900 magnetization 
 augmentation part       -0.4079910 magnetization 

 Broyden mixing:
  rms(total) = 0.26323E+00    rms(broyden)= 0.26302E+00
  rms(prec ) = 0.30869E+00
  weight for this iteration     100.00

 eigenvalues of (default mixing * dielectric matrix)
  average eigenvalue GAMMA=   0.8350
  0.8350

 Free energy of the ion-electron system (eV)
  ---------------------------------------------------
  alpha Z        PSCENC =        12.51390764
  Ewald energy   TEWEN  =      4286.25630342
  -Hartree energ DENC   =     -4965.98157907
  -exchange      EXHF   =         0.00000000
  -V(xc)+E(xc)   XCENC  =       -35.41165537
  PAW double counting   =       426.19733658     -349.54234044
  entropy T*S    EENTRO =         0.00000000
  eigenvalues    EBANDS =      -167.31036691
  atomic energy  EATOM  =       771.06857575
  Solvation  Ediel_sol  =         0.00000000
  ---------------------------------------------------
  free energy    TOTEN  =       -22.20981840 eV

  energy without entropy =      -22.20981840  energy(sigma->0) =      -22.20981840


--------------------------------------------------------------------------------------------------------




--------------------------------------- Iteration      1(   7)  ---------------------------------------


    POTLOK:  cpu time    0.0140: real time    0.0144
    SETDIJ:  cpu time    0.0020: real time    0.0019
    EDDIAG:  cpu time    0.0190: real time    0.0191
  RMM-DIIS:  cpu time    0.0660: real time    0.0660
    ORTHCH:  cpu time    0.0020: real time    0.0021
 BZINTS: Fermi energy: -3.812046; 18.000000 electrons
         Band energy:-161.170014;  BLOECHL correction:  0.000000
       DOS:  cpu time    0.0000: real time    0.0002
    CHARGE:  cpu time    0.0080: real time    0.0079
    MIXING:  cpu time    0.0010: real time    0.0007
    --------------------------------------------
      LOOP:  cpu time    0.1120: real time    0.1123

 eigenvalue-minimisations  :   290
 total energy-change (2. order) : 0.3836347E+00  (-0.5626274E-01)
 number of electron      17.9999902 magnetization 
 augmentation part       -0.6105145 magnetization 

 Broyden mixing:
  rms(total) = 0.15348E+00    rms(broyden)= 0.15345E+00
  rms(prec ) = 0.16188E+00
  weight for this iteration     100.00

 eigenvalues of (default mixing * dielectric matrix)
  average eigenvalue GAMMA=   1.3725
  0.6632  2.0819

 Free energy of the ion-electron system (eV)
  ---------------------------------------------------
  alpha Z        PSCENC =        12.51390764
  Ewald energy   TEWEN  =      4286.25630342
  -Hartree energ DENC   =     -4971.36567617
  -exchange      EXHF   =         0.00000000
  -V(xc)+E(xc)   XCENC  =       -35.55365306
  PAW double counting   =       445.05807304     -368.63370073
  entropy T*S    EENTRO =         0.00000000
  eigenvalues    EBANDS =      -161.17001357
  atomic energy  EATOM  =       771.06857575
  Solvation  Ediel_sol  =         0.00000000
  ---------------------------------------------------
  free energy    TOTEN  =       -21.82618368 eV

  energy without entropy =      -21.82618368  energy(sigma->0) =      -21.82618368


--------------------------------------------------------------------------------------------------------




--------------------------------------- Iteration      1(   8)  ---------------------------------------


    POTLOK:  cpu time    0.0200: real time    0.0230
    SETDIJ:  cpu time    0.0020: real time    0.0019
    EDDIAG:  cpu time    0.0190: real time    0.0190
  RMM-DIIS:  cpu time    0.0700: real time    0.0698
    ORTHCH:  cpu time    0.0020: real time    0.0021
 BZINTS: Fermi energy: -3.692703; 18.000000 electrons
         Band energy:-156.967498;  BLOECHL correction:  0.000000
       DOS:  cpu time    0.0000: real time    0.0002
    CHARGE:  cpu time    0.0080: real time    0.0079
    MIXING:  cpu time    0.0010: real time    0.0013
    --------------------------------------------
      LOOP:  cpu time    0.1220: real time    0.1253

 eigenvalue-minimisations  :   303
 total energy-change (2. order) : 0.6007852E-01  (-0.2350218E-01)
 number of electron      17.9999901 magnetization 
 augmentation part       -0.5612959 magnetization 

 Broyden mixing:
  rms(total) = 0.34918E-01    rms(broyden)= 0.34893E-01
  rms(prec ) = 0.37236E-01
  weight for this iteration     100.00

 eigenvalues of (default mixing * dielectric matrix)
  average eigenvalue GAMMA=   1.4968
  1.9146  1.9146  0.6611

 Free energy of the ion-electron system (eV)
  ---------------------------------------------------
  alpha Z        PSCENC =        12.51390764
  Ewald energy   TEWEN  =      4286.25630342
  -Hartree energ DENC   =     -4975.27204350
  -exchange      EXHF   =         0.00000000
  -V(xc)+E(xc)   XCENC  =       -35.26872080
  PAW double counting   =       471.20428057     -395.30090987
  entropy T*S    EENTRO =         0.00000000
  eigenvalues    EBANDS =      -156.96749838
  atomic energy  EATOM  =       771.06857575
  Solvation  Ediel_sol  =         0.00000000
  ---------------------------------------------------
  free energy    TOTEN  =       -21.76610516 eV

  energy without entropy =      -21.76610516  energy(sigma->0) =      -21.76610516


--------------------------------------------------------------------------------------------------------




--------------------------------------- Iteration      1(   9)  ---------------------------------------


    POTLOK:  cpu time    0.0130: real time    0.0149
    SETDIJ:  cpu time    0.0020: real time    0.0019
    EDDIAG:  cpu time    0.0190: real time    0.0190
  RMM-DIIS:  cpu time    0.0780: real time    0.0773
    ORTHCH:  cpu time    0.0010: real time    0.0021
 BZINTS: Fermi energy: -3.622967; 18.000000 electrons
         Band energy:-155.689567;  BLOECHL correction:  0.000000
       DOS:  cpu time    0.0000: real time    0.0002
    CHARGE:  cpu time    0.0080: real time    0.0079
    MIXING:  cpu time    0.0010: real time    0.0007
    --------------------------------------------
      LOOP:  cpu time    0.1220: real time    0.1240

 eigenvalue-minimisations  :   335
 total energy-change (2. order) : 0.4688557E-02  (-0.8260748E-03)
 number of electron      17.9999901 magnetization 
 augmentation part       -0.5582052 magnetization 

 Broyden mixing:
  rms(total) = 0.92550E-02    rms(broyden)= 0.92484E-02
  rms(prec ) = 0.11393E-01
  weight for this iteration     100.00

 eigenvalues of (default mixing * dielectric matrix)
  average eigenvalue GAMMA=   1.5045
  0.6625  1.0478  2.4425  1.8651

 Free energy of the ion-electron system (eV)
  ---------------------------------------------------
  alpha Z        PSCENC =        12.51390764
  Ewald energy   TEWEN  =      4286.25630342
  -Hartree energ DENC   =     -4976.52305004
  -exchange      EXHF   =         0.00000000
  -V(xc)+E(xc)   XCENC  =       -35.21783123
  PAW double counting   =       476.73625164     -400.90600725
  entropy T*S    EENTRO =         0.00000000
  eigenvalues    EBANDS =      -155.68956652
  atomic energy  EATOM  =       771.06857575
  Solvation  Ediel_sol  =         0.00000000
  ---------------------------------------------------
  free energy    TOTEN  =       -21.76141660 eV

  energy without entropy =      -21.76141660  energy(sigma->0) =      -21.76141660


--------------------------------------------------------------------------------------------------------




--------------------------------------- Iteration      1(  10)  ---------------------------------------


    POTLOK:  cpu time    0.0140: real time    0.0142
    SETDIJ:  cpu time    0.0020: real time    0.0019
    EDDIAG:  cpu time    0.0190: real time    0.0190
  RMM-DIIS:  cpu time    0.0770: real time    0.0772
    ORTHCH:  cpu time    0.0020: real time    0.0021
 BZINTS: Fermi energy: -3.565806; 18.000000 electrons
         Band energy:-154.566664;  BLOECHL correction:  0.000000
       DOS:  cpu time    0.0000: real time    0.0002
    CHARGE:  cpu time    0.0080: real time    0.0079
    MIXING:  cpu time    0.0000: real time    0.0008
    --------------------------------------------
      LOOP:  cpu time    0.1220: real time    0.1233

 eigenvalue-minimisations  :   335
 total energy-change (2. order) : 0.6877004E-03  (-0.1636639E-03)
 number of electron      17.9999901 magnetization 
 augmentation part       -0.5614764 magnetization 

 Broyden mixing:
  rms(total) = 0.43223E-02    rms(broyden)= 0.43165E-02
  rms(prec ) = 0.60083E-02
  weight for this iteration     100.00

 eigenvalues of (default mixing * dielectric matrix)
  average eigenvalue GAMMA=   1.6708
  0.6631  1.0341  2.1648  2.2461  2.2461

 Free energy of the ion-electron system (eV)
  ---------------------------------------------------
  alpha Z        PSCENC =        12.51390764
  Ewald energy   TEWEN  =      4286.25630342
  -Hartree energ DENC   =     -4977.63726217
  -exchange      EXHF   =         0.00000000
  -V(xc)+E(xc)   XCENC  =       -35.19339910
  PAW double counting   =       479.28131692     -403.48350691
  entropy T*S    EENTRO =         0.00000000
  eigenvalues    EBANDS =      -154.56666446
  atomic energy  EATOM  =       771.06857575
  Solvation  Ediel_sol  =         0.00000000
  ---------------------------------------------------
  free energy    TOTEN  =       -21.76072890 eV

  energy without entropy =      -21.76072890  energy(sigma->0) =      -21.76072890


--------------------------------------------------------------------------------------------------------




--------------------------------------- Iteration      1(  11)  ---------------------------------------


    POTLOK:  cpu time    0.0150: real time    0.0141
    SETDIJ:  cpu time    0.0020: real time    0.0019
    EDDIAG:  cpu time    0.0190: real time    0.0190
  RMM-DIIS:  cpu time    0.0730: real time    0.0730
    ORTHCH:  cpu time    0.0020: real time    0.0021
 BZINTS: Fermi energy: -3.508565; 18.000000 electrons
         Band energy:-153.431140;  BLOECHL correction:  0.000000
       DOS:  cpu time    0.0000: real time    0.0002
    CHARGE:  cpu time    0.0080: real time    0.0079
    MIXING:  cpu time    0.0010: real time    0.0008
    --------------------------------------------
      LOOP:  cpu time    0.1200: real time    0.1191

 eigenvalue-minimisations  :   312
 total energy-change (2. order) : 0.5928127E-06  (-0.1778545E-03)
 number of electron      17.9999901 magnetization 
 augmentation part       -0.5586072 magnetization 

 Broyden mixing:
  rms(total) = 0.53978E-02    rms(broyden)= 0.53933E-02
  rms(prec ) = 0.62034E-02
  weight for this iteration     100.00

 eigenvalues of (default mixing * dielectric matrix)
  average eigenvalue GAMMA=   1.6637
  2.8012  2.8012  0.6634  1.4020  1.4020  0.9126

 Free energy of the ion-electron system (eV)
  ---------------------------------------------------
  alpha Z        PSCENC =        12.51390764
  Ewald energy   TEWEN  =      4286.25630342
  -Hartree energ DENC   =     -4978.79525561
  -exchange      EXHF   =         0.00000000
  -V(xc)+E(xc)   XCENC  =       -35.18088410
  PAW double counting   =       478.68135553     -402.87359090
  entropy T*S    EENTRO =         0.00000000
  eigenvalues    EBANDS =      -153.43114004
  atomic energy  EATOM  =       771.06857575
  Solvation  Ediel_sol  =         0.00000000
  ---------------------------------------------------
  free energy    TOTEN  =       -21.76072831 eV

  energy without entropy =      -21.76072831  energy(sigma->0) =      -21.76072831


--------------------------------------------------------------------------------------------------------




--------------------------------------- Iteration      1(  12)  ---------------------------------------


    POTLOK:  cpu time    0.0140: real time    0.0140
    SETDIJ:  cpu time    0.0020: real time    0.0019
    EDDIAG:  cpu time    0.0190: real time    0.0189
  RMM-DIIS:  cpu time    0.0710: real time    0.0714
    ORTHCH:  cpu time    0.0020: real time    0.0021
 BZINTS: Fermi energy: -3.473963; 18.000000 electrons
         Band energy:-152.784148;  BLOECHL correction:  0.000000
       DOS:  cpu time    0.0000: real time    0.0002
    CHARGE:  cpu time    0.0080: real time    0.0079
    MIXING:  cpu time    0.0010: real time    0.0009
    --------------------------------------------
      LOOP:  cpu time    0.1170: real time    0.1173

 eigenvalue-minimisations  :   304
 total energy-change (2. order) : 0.8432175E-04  (-0.5524869E-04)
 number of electron      17.9999901 magnetization 
 augmentation part       -0.5605720 magnetization 

 Broyden mixing:
  rms(total) = 0.15258E-02    rms(broyden)= 0.15134E-02
  rms(prec ) = 0.21429E-02
  weight for this iteration     100.00

 eigenvalues of (default mixing * dielectric matrix)
  average eigenvalue GAMMA=   1.9521
  3.8046  2.7789  2.7789  0.6634  0.9694  1.3346  1.3346

 Free energy of the ion-electron system (eV)
  ---------------------------------------------------
  alpha Z        PSCENC =        12.51390764
  Ewald energy   TEWEN  =      4286.25630342
  -Hartree energ DENC   =     -4979.44880996
  -exchange      EXHF   =         0.00000000
  -V(xc)+E(xc)   XCENC  =       -35.17649342
  PAW double counting   =       478.85707484     -403.04705467
  entropy T*S    EENTRO =         0.00000000
  eigenvalues    EBANDS =      -152.78414759
  atomic energy  EATOM  =       771.06857575
  Solvation  Ediel_sol  =         0.00000000
  ---------------------------------------------------
  free energy    TOTEN  =       -21.76064399 eV

  energy without entropy =      -21.76064399  energy(sigma->0) =      -21.76064399


--------------------------------------------------------------------------------------------------------




--------------------------------------- Iteration      1(  13)  ---------------------------------------


    POTLOK:  cpu time    0.0140: real time    0.0143
    SETDIJ:  cpu time    0.0020: real time    0.0019
    EDDIAG:  cpu time    0.0190: real time    0.0189
  RMM-DIIS:  cpu time    0.0630: real time    0.0629
    ORTHCH:  cpu time    0.0020: real time    0.0021
 BZINTS: Fermi energy: -3.434236; 18.000000 electrons
         Band energy:-152.067543;  BLOECHL correction:  0.000000
       DOS:  cpu time    0.0000: real time    0.0002
    CHARGE:  cpu time    0.0080: real time    0.0079
    MIXING:  cpu time    0.0010: real time    0.0009
    --------------------------------------------
      LOOP:  cpu time    0.1090: real time    0.1092

 eigenvalue-minimisations  :   282
 total energy-change (2. order) :-0.4484364E-03  (-0.1451598E-04)
 number of electron      17.9999901 magnetization 
 augmentation part       -0.5594457 magnetization 

 Broyden mixing:
  rms(total) = 0.17965E-02    rms(broyden)= 0.17863E-02
  rms(prec ) = 0.20067E-02
  weight for this iteration     100.00

 eigenvalues of (default mixing * dielectric matrix)
  average eigenvalue GAMMA=   1.8981
  4.7323  2.6950  2.3656  1.4104  1.4104  0.6635  0.9538  0.9538

 Free energy of the ion-electron system (eV)
  ---------------------------------------------------
  alpha Z        PSCENC =        12.51390764
  Ewald energy   TEWEN  =      4286.25630342
  -Hartree energ DENC   =     -4980.16703059
  -exchange      EXHF   =         0.00000000
  -V(xc)+E(xc)   XCENC  =       -35.17028980
  PAW double counting   =       478.83606703     -403.03108335
  entropy T*S    EENTRO =         0.00000000
  eigenvalues    EBANDS =      -152.06754253
  atomic energy  EATOM  =       771.06857575
  Solvation  Ediel_sol  =         0.00000000
  ---------------------------------------------------
  free energy    TOTEN  =       -21.76109242 eV

  energy without entropy =      -21.76109242  energy(sigma->0) =      -21.76109242


--------------------------------------------------------------------------------------------------------




--------------------------------------- Iteration      1(  14)  ---------------------------------------


    POTLOK:  cpu time    0.0140: real time    0.0144
    SETDIJ:  cpu time    0.0020: real time    0.0019
    EDDIAG:  cpu time    0.0190: real time    0.0189
  RMM-DIIS:  cpu time    0.0620: real time    0.0616
    ORTHCH:  cpu time    0.0020: real time    0.0022
 BZINTS: Fermi energy: -3.426196; 18.000000 electrons
         Band energy:-151.927373;  BLOECHL correction:  0.000000
       DOS:  cpu time    0.0000: real time    0.0002
    CHARGE:  cpu time    0.0080: real time    0.0079
    MIXING:  cpu time    0.0010: real time    0.0010
    --------------------------------------------
      LOOP:  cpu time    0.1080: real time    0.1080

 eigenvalue-minimisations  :   249
 total energy-change (2. order) :-0.6057412E-04  (-0.2380429E-05)
 number of electron      17.9999901 magnetization 
 augmentation part       -0.5604946 magnetization 

 Broyden mixing:
  rms(total) = 0.53305E-03    rms(broyden)= 0.49773E-03
  rms(prec ) = 0.69072E-03
  weight for this iteration     100.00

 eigenvalues of (default mixing * dielectric matrix)
  average eigenvalue GAMMA=   2.1684
  6.4496  3.0226  2.3694  2.3694  0.6635  1.4938  0.9754  0.9754  1.1965

 Free energy of the ion-electron system (eV)
  ---------------------------------------------------
  alpha Z        PSCENC =        12.51390764
  Ewald energy   TEWEN  =      4286.25630342
  -Hartree energ DENC   =     -4980.30972588
  -exchange      EXHF   =         0.00000000
  -V(xc)+E(xc)   XCENC  =       -35.17252610
  PAW double counting   =       478.63335389     -402.82366915
  entropy T*S    EENTRO =         0.00000000
  eigenvalues    EBANDS =      -151.92737256
  atomic energy  EATOM  =       771.06857575
  Solvation  Ediel_sol  =         0.00000000
  ---------------------------------------------------
  free energy    TOTEN  =       -21.76115300 eV

  energy without entropy =      -21.76115300  energy(sigma->0) =      -21.76115300


--------------------------------------------------------------------------------------------------------




--------------------------------------- Iteration      1(  15)  ---------------------------------------


    POTLOK:  cpu time    0.0140: real time    0.0143
    SETDIJ:  cpu time    0.0020: real time    0.0019
    EDDIAG:  cpu time    0.0190: real time    0.0189
  RMM-DIIS:  cpu time    0.0520: real time    0.0519
    ORTHCH:  cpu time    0.0010: real time    0.0021
 BZINTS: Fermi energy: -3.415466; 18.000000 electrons
         Band energy:-151.749732;  BLOECHL correction:  0.000000
       DOS:  cpu time    0.0000: real time    0.0002
    CHARGE:  cpu time    0.0080: real time    0.0079
    MIXING:  cpu time    0.0010: real time    0.0010
    --------------------------------------------
      LOOP:  cpu time    0.0970: real time    0.0983

 eigenvalue-minimisations  :   202
 total energy-change (2. order) :-0.1239660E-03  (-0.1324076E-05)
 number of electron      17.9999901 magnetization 
 augmentation part       -0.5600984 magnetization 

 Broyden mixing:
  rms(total) = 0.35954E-03    rms(broyden)= 0.30524E-03
  rms(prec ) = 0.39626E-03
  weight for this iteration     100.00
  WARNING: grid for Broyden might be to small

 eigenvalues of (default mixing * dielectric matrix)
  average eigenvalue GAMMA=   2.1444
  6.6227  3.4759  2.5971  0.6635  1.7382  1.7382  1.5693  1.0447  1.0447  0.9499

 Free energy of the ion-electron system (eV)
  ---------------------------------------------------
  alpha Z        PSCENC =        12.51390764
  Ewald energy   TEWEN  =      4286.25630342
  -Hartree energ DENC   =     -4980.48732189
  -exchange      EXHF   =         0.00000000
  -V(xc)+E(xc)   XCENC  =       -35.17189965
  PAW double counting   =       478.67868023     -402.86979060
  entropy T*S    EENTRO =         0.00000000
  eigenvalues    EBANDS =      -151.74973185
  atomic energy  EATOM  =       771.06857575
  Solvation  Ediel_sol  =         0.00000000
  ---------------------------------------------------
  free energy    TOTEN  =       -21.76127696 eV

  energy without entropy =      -21.76127696  energy(sigma->0) =      -21.76127696


--------------------------------------------------------------------------------------------------------




--------------------------------------- Iteration      1(  16)  ---------------------------------------


    POTLOK:  cpu time    0.0150: real time    0.0143
    SETDIJ:  cpu time    0.0020: real time    0.0019
    EDDIAG:  cpu time    0.0190: real time    0.0189
  RMM-DIIS:  cpu time    0.0490: real time    0.0491
    ORTHCH:  cpu time    0.0020: real time    0.0022
 BZINTS: Fermi energy: -3.412710; 18.000000 electrons
         Band energy:-151.698633;  BLOECHL correction:  0.000000
       DOS:  cpu time    0.0000: real time    0.0002
    CHARGE:  cpu time    0.0080: real time    0.0079
    MIXING:  cpu time    0.0010: real time    0.0011
    --------------------------------------------
      LOOP:  cpu time    0.0960: real time    0.0955

 eigenvalue-minimisations  :   165
 total energy-change (2. order) :-0.3608089E-04  (-0.2506046E-06)
 number of electron      17.9999901 magnetization 
 augmentation part       -0.5603207 magnetization 

 Broyden mixing:
  rms(total) = 0.24722E-03    rms(broyden)= 0.15829E-03
  rms(prec ) = 0.20773E-03
  weight for this iteration     100.00
  WARNING: grid for Broyden might be to small

 eigenvalues of (default mixing * dielectric matrix)
  average eigenvalue GAMMA=   2.3390
  7.4022  4.1099  3.1289  2.6233  2.1642  1.4997  0.6635  1.1935  1.0476  0.9437
  0.9522

 Free energy of the ion-electron system (eV)
  ---------------------------------------------------
  alpha Z        PSCENC =        12.51390764
  Ewald energy   TEWEN  =      4286.25630342
  -Hartree energ DENC   =     -4980.53776489
  -exchange      EXHF   =         0.00000000
  -V(xc)+E(xc)   XCENC  =       -35.17197552
  PAW double counting   =       478.72118551     -402.91291238
  entropy T*S    EENTRO =         0.00000000
  eigenvalues    EBANDS =      -151.69863258
  atomic energy  EATOM  =       771.06857575
  Solvation  Ediel_sol  =         0.00000000
  ---------------------------------------------------
  free energy    TOTEN  =       -21.76131304 eV

  energy without entropy =      -21.76131304  energy(sigma->0) =      -21.76131304


--------------------------------------------------------------------------------------------------------




--------------------------------------- Iteration      1(  17)  ---------------------------------------


    POTLOK:  cpu time    0.0140: real time    0.0175
    SETDIJ:  cpu time    0.0020: real time    0.0019
    EDDIAG:  cpu time    0.0190: real time    0.0190
  RMM-DIIS:  cpu time    0.0450: real time    0.0444
    ORTHCH:  cpu time    0.0020: real time    0.0021
 BZINTS: Fermi energy: -3.411373; 18.000000 electrons
         Band energy:-151.666579;  BLOECHL correction:  0.000000
       DOS:  cpu time    0.0000: real time    0.0002
    CHARGE:  cpu time    0.0080: real time    0.0079
    MIXING:  cpu time    0.0010: real time    0.0012
    --------------------------------------------
      LOOP:  cpu time    0.0910: real time    0.0942

 eigenvalue-minimisations  :   157
 total energy-change (2. order) :-0.3814268E-04  (-0.2892433E-06)
 number of electron      17.9999901 magnetization 
 augmentation part       -0.5602948 magnetization 

 Broyden mixing:
  rms(total) = 0.25254E-03    rms(broyden)= 0.16647E-03
  rms(prec ) = 0.18760E-03
  weight for this iteration     100.00
  WARNING: grid for Broyden might be to small

 eigenvalues of (default mixing * dielectric matrix)
  average eigenvalue GAMMA=   2.3170
  7.7872  4.9552  2.9671  2.5084  2.0994  0.6635  1.4843  1.4151  1.0451  1.0451
  0.9355  0.8984

 Free energy of the ion-electron system (eV)
  ---------------------------------------------------
  alpha Z        PSCENC =        12.51390764
  Ewald energy   TEWEN  =      4286.25630342
  -Hartree energ DENC   =     -4980.57067015
  -exchange      EXHF   =         0.00000000
  -V(xc)+E(xc)   XCENC  =       -35.17209817
  PAW double counting   =       478.67327518     -402.86406627
  entropy T*S    EENTRO =         0.00000000
  eigenvalues    EBANDS =      -151.66657859
  atomic energy  EATOM  =       771.06857575
  Solvation  Ediel_sol  =         0.00000000
  ---------------------------------------------------
  free energy    TOTEN  =       -21.76135119 eV

  energy without entropy =      -21.76135119  energy(sigma->0) =      -21.76135119


--------------------------------------------------------------------------------------------------------




--------------------------------------- Iteration      1(  18)  ---------------------------------------


    POTLOK:  cpu time    0.0140: real time    0.0141
    SETDIJ:  cpu time    0.0020: real time    0.0019
    EDDIAG:  cpu time    0.0190: real time    0.0189
  RMM-DIIS:  cpu time    0.0410: real time    0.0410
    ORTHCH:  cpu time    0.0010: real time    0.0021
 BZINTS: Fermi energy: -3.411334; 18.000000 electrons
         Band energy:-151.665700;  BLOECHL correction:  0.000000
       DOS:  cpu time    0.0000: real time    0.0002
    --------------------------------------------
      LOOP:  cpu time    0.0770: real time    0.0782

 eigenvalue-minimisations  :    86
 total energy-change (2. order) :-0.3204758E-05  (-0.3692921E-07)
 number of electron      17.9999901 magnetization 
 augmentation part       -0.5602948 magnetization 

 Free energy of the ion-electron system (eV)
  ---------------------------------------------------
  alpha Z        PSCENC =        12.51390764
  Ewald energy   TEWEN  =      4286.25630342
  -Hartree energ DENC   =     -4980.57138004
  -exchange      EXHF   =         0.00000000
  -V(xc)+E(xc)   XCENC  =       -35.17206654
  PAW double counting   =       478.68571945     -402.87671367
  entropy T*S    EENTRO =         0.00000000
  eigenvalues    EBANDS =      -151.66570040
  atomic energy  EATOM  =       771.06857575
  Solvation  Ediel_sol  =         0.00000000
  ---------------------------------------------------
  free energy    TOTEN  =       -21.76135439 eV

  energy without entropy =      -21.76135439  energy(sigma->0) =      -21.76135439


--------------------------------------------------------------------------------------------------------




 average (electrostatic) potential at core
  the test charge radii are     1.2296  0.9698
  (the norm of the test charge is              1.0000)
       1 -46.8914       2 -94.7435       3 -94.7436
 
 
 
 E-fermi :  -3.4113     XC(G=0):  -2.9283     alpha+bet : -2.6672


 k-point     1 :       0.0000    0.0000    0.0000
  band No.  band energies     occupation 
      1     -17.4731      2.00000
      2     -16.2647      2.00000
      3      -8.9833      2.00000
      4      -6.0214      2.00000
      5      -6.0211      2.00000
      6      -5.1618      2.00000
      7      -4.9143      2.00000
      8      -4.9138      2.00000
      9      -3.4393      2.00000
     10      -0.6650      0.00000
     11      -0.6642      0.00000
     12      -0.4429      0.00000
     13      -0.4422      0.00000
     14       1.9618      0.00000

 k-point     2 :       0.1250    0.0000    0.0000
  band No.  band energies     occupation 
      1     -17.2590      2.00000
      2     -16.1622      2.00000
      3      -8.7383      2.00000
      4      -6.4857      2.00000
      5      -5.9687      2.00000
      6      -5.7871      2.00000
      7      -5.2503      2.00000
      8      -4.4829      2.00000
      9      -3.5781      2.00000
     10      -0.9477      0.00000
     11      -0.8809      0.00000
     12      -0.6795      0.00000
     13      -0.3109      0.00000
     14       2.3258      0.00000

 k-point     3 :       0.2500    0.0000    0.0000
  band No.  band energies     occupation 
      1     -16.6904      2.00000
      2     -15.8932      2.00000
      3      -8.3726      2.00000
      4      -7.2139      2.00000
      5      -6.9503      2.00000
      6      -5.8870      2.00000
      7      -5.2013      2.00000
      8      -4.7348      2.00000
      9      -4.1466      2.00000
     10      -1.2720      0.00000
     11      -1.0969      0.00000
     12      -0.5537      0.00000
     13       0.3042      0.00000
     14       3.1535      0.00000

 k-point     4 :       0.3750    0.0000    0.0000
  band No.  band energies     occupation 
      1     -16.0154      2.00000
      2     -15.5846      2.00000
      3      -8.8117      2.00000
      4      -7.8192      2.00000
      5      -7.3452      2.00000
      6      -6.3857      2.00000
      7      -5.1438      2.00000
      8      -4.6115      2.00000
      9      -4.3408      2.00000
     10      -1.2794      0.00000
     11      -0.9998      0.00000
     12       0.1651      0.00000
     13       0.6967      0.00000
     14       3.7222      0.00000

 k-point     5 :       0.5000    0.0000    0.0000
  band No.  band energies     occupation 
      1     -15.6871      2.00000
      2     -15.4412      2.00000
      3      -9.1448      2.00000
      4      -8.1853      2.00000
      5      -7.4707      2.00000
      6      -6.5663      2.00000
      7      -5.2824      2.00000
      8      -4.3843      2.00000
      9      -4.0592      2.00000
     10      -1.2577      0.00000
     11      -0.7432      0.00000
     12       0.4650      0.00000
     13       0.8125      0.00000
     14       2.7669      0.00000

 k-point     6 :       0.1250    0.1250    0.0000
  band No.  band energies     occupation 
      1     -16.8663      2.00000
      2     -15.9751      2.00000
      3      -8.3909      2.00000
      4      -7.0510      2.00000
      5      -6.5315      2.00000
      6      -6.0647      2.00000
      7      -5.4487      2.00000
      8      -4.3481      2.00000
      9      -3.9508      2.00000
     10      -1.3471      0.00000
     11      -0.9695      0.00000
     12      -0.9573      0.00000
     13       0.2833      0.00000
     14       2.9206      0.00000

 k-point     7 :       0.2500    0.1250    0.0000
  band No.  band energies     occupation 
      1     -16.2328      2.00000
      2     -15.6763      2.00000
      3      -8.4551      2.00000
      4      -7.4775      2.00000
      5      -7.2142      2.00000
      6      -6.5701      2.00000
      7      -5.3496      2.00000
      8      -4.7110      2.00000
      9      -4.2345      2.00000
     10      -1.4308      0.00000
     11      -0.9840      0.00000
     12      -0.4872      0.00000
     13       0.7888      0.00000
     14       3.9117      0.00000

 k-point     8 :       0.3750    0.1250    0.0000
  band No.  band energies     occupation 
      1     -15.7024      2.00000
      2     -15.4323      2.00000
      3      -8.8573      2.00000
      4      -8.2412      2.00000
      5      -7.3433      2.00000
      6      -6.5877      2.00000
      7      -5.3345      2.00000
      8      -5.1924      2.00000
      9      -3.9078      2.00000
     10      -1.2388      0.00000
     11      -0.7287      0.00000
     12       0.1365      0.00000
     13       0.8226      0.00000
     14       3.2919      0.00000

 k-point     9 :       0.2500    0.2500    0.0000
  band No.  band energies     occupation 
      1     -15.7173      2.00000
      2     -15.4234      2.00000
      3      -8.4963      2.00000
      4      -8.2910      2.00000
      5      -7.0166      2.00000
      6      -6.6360      2.00000
      7      -6.3168      2.00000
      8      -5.0593      2.00000
      9      -3.9375      2.00000
     10      -1.2897      0.00000
     11      -0.6779      0.00000
     12      -0.3612      0.00000
     13       1.1070      0.00000
     14       4.1233      0.00000

 k-point    10 :       0.3750    0.2500    0.0000
  band No.  band energies     occupation 
      1     -15.4824      2.00000
      2     -15.3043      2.00000
      3      -8.6758      2.00000
      4      -8.3270      2.00000
      5      -7.3002      2.00000
      6      -6.6380      2.00000
      7      -6.4100      2.00000
      8      -5.4448      2.00000
      9      -3.5700      2.00000
     10      -1.6159      0.00000
     11      -0.3001      0.00000
     12      -0.1285      0.00000
     13       1.2503      0.00000
     14       3.5369      0.00000


--------------------------------------------------------------------------------------------------------


 soft charge-density along one line, spin component           1
         0         1         2         3         4         5         6         7         8         9
 total charge-density along one line
 
 pseudopotential strength for first ion, spin component:           1
 -9.990  -0.000  -0.000   0.000  -0.000   0.103   0.000   0.000
 -0.000  -9.990  -0.000  -0.000  -0.000   0.000   0.103   0.000
 -0.000  -0.000  -9.969  -0.000   0.000   0.000   0.000   0.101
  0.000  -0.000  -0.000  -9.990   0.000  -0.000   0.000   0.000
 -0.000  -0.000   0.000   0.000  -9.990   0.000   0.000  -0.000
  0.103   0.000   0.000  -0.000   0.000   0.098  -0.000  -0.000
  0.000   0.103   0.000   0.000   0.000  -0.000   0.098  -0.000
  0.000   0.000   0.101   0.000  -0.000  -0.000  -0.000   0.098
 -0.000   0.000   0.000   0.103  -0.000   0.000   0.000  -0.000
  0.000   0.000  -0.000  -0.000   0.103  -0.000  -0.000   0.000
 -0.000  -0.000  -0.005  -0.000   0.000   0.000   0.000   0.000
  0.000   0.000   0.001   0.000  -0.000  -0.000  -0.000  -0.000
 -0.000   0.000  -0.000  -0.000  -0.007   0.000   0.000   0.000
 -0.000   0.000  -0.000  -0.000  -0.000  -0.000  -0.000  -0.000
 -0.007  -0.000   0.000   0.000  -0.000  -0.000  -0.000  -0.000
  0.000  -0.000   0.000   0.000   0.004  -0.000   0.000  -0.000
  0.000  -0.000   0.000   0.000   0.000  -0.000   0.000   0.000
  0.004   0.000  -0.000  -0.000   0.000   0.000  -0.000   0.000
 total augmentation occupancy for first ion, spin component:           1
  0.970   0.000  -0.000   0.000  -0.000   0.662   0.000  -0.000   0.000  -0.000  -0.000   0.000   0.000  -0.000  -0.066  -0.000
  0.000   0.911   0.000   0.000  -0.000   0.000   0.897   0.000   0.000  -0.000  -0.000   0.000   0.000   0.000   0.000   0.000
 -0.000   0.000   1.035   0.000   0.000  -0.000   0.000   0.567   0.000   0.000   0.111  -0.019  -0.000  -0.000   0.000   0.000
 -0.000   0.000   0.000   0.911   0.000   0.000   0.000  -0.000   0.897   0.000  -0.000   0.000  -0.000  -0.000  -0.000   0.000
 -0.000   0.000   0.000   0.000   0.970  -0.000   0.000   0.000  -0.000   0.662   0.000  -0.000  -0.066   0.000  -0.000   0.007
  0.662   0.000  -0.000   0.000  -0.000   0.769   0.000  -0.000   0.000  -0.000   0.000   0.000   0.000   0.000  -0.143  -0.000
 -0.000   0.897   0.000   0.000   0.000   0.000   1.205   0.000   0.000   0.000   0.000  -0.000  -0.000   0.000   0.000   0.000
 -0.000   0.000   0.567  -0.000   0.000  -0.000   0.000   0.551   0.000   0.000   0.066  -0.023  -0.000  -0.000   0.000   0.000
  0.000   0.000   0.000   0.897   0.000   0.000   0.000   0.000   1.205   0.000   0.000   0.000   0.000  -0.000   0.000   0.000
 -0.000   0.000   0.000   0.000   0.662  -0.000   0.000   0.000   0.000   0.769  -0.000   0.000  -0.143   0.000  -0.000   0.024
 -0.000   0.000   0.111   0.000   0.000   0.000   0.000   0.066   0.000  -0.000   1.210  -0.183   0.000   0.000   0.000   0.000
  0.000   0.000  -0.019   0.000  -0.000   0.000  -0.000  -0.023   0.000  -0.000  -0.183   0.041   0.000  -0.000   0.000   0.000
  0.000   0.000  -0.000   0.000  -0.066   0.000   0.000  -0.000   0.000  -0.143   0.000   0.000   0.217   0.000   0.000  -0.033
  0.000   0.000   0.000   0.000   0.000   0.000   0.000  -0.000  -0.000   0.000   0.000   0.000   0.000   0.265   0.000   0.000
 -0.066   0.000   0.000   0.000  -0.000  -0.143  -0.000   0.000  -0.000  -0.000  -0.000  -0.000   0.000   0.000   0.217  -0.000
 -0.000   0.000   0.000  -0.000   0.007  -0.000   0.000   0.000   0.000   0.024   0.000   0.000  -0.033  -0.000  -0.000   0.005
  0.000  -0.000  -0.000   0.000   0.000   0.000   0.000   0.000  -0.000   0.000  -0.000   0.000  -0.000  -0.039   0.000   0.000
  0.007   0.000  -0.000  -0.000   0.000   0.024  -0.000  -0.000   0.000   0.000   0.000   0.000  -0.000   0.000  -0.033   0.000


------------------------ aborting loop because EDIFF is reached ----------------------------------------


    CHARGE:  cpu time    0.0070: real time    0.0080
    FORLOC:  cpu time    0.0020: real time    0.0014
    FORNL :  cpu time    0.0150: real time    0.0151
    STRESS:  cpu time    0.0750: real time    0.0753
    FORCOR:  cpu time    0.0160: real time    0.0158
    FORHAR:  cpu time    0.0040: real time    0.0036
    MIXING:  cpu time    0.0010: real time    0.0013
    OFIELD:  cpu time    0.0000: real time    0.0000

  DFT-D2 method for vdW energy calculation
  -------------------------------------------------------------------

  Parameters of vdW forcefield:
         C6(Jnm^6/mol)     R0(A)
   -----------------------------
   Mo      24.670          1.639
   S        5.570          1.683

  IVDW =   1
  VDW_RADIUS =    50.000 A
  VDW_S6 =     0.750
  VDW_SR =     1.000
  VDW_D =    20.000
  LVDW_EWALD = F

  Number of pair interactions contributing to vdW energy:   12957
  Edisp (eV):   -0.59091
    FORVDW:  cpu time    0.0110: real time    0.0160

  FORCE on cell =-STRESS in cart. coord.  units (eV):
  Direction    XX          YY          ZZ          XY          YZ          ZX
  --------------------------------------------------------------------------------------
  Alpha Z    12.51391    12.51391    12.51391
  Ewald    4853.12264  4853.12308 -5419.98957     0.00019     0.00000     0.00012
  Hartree  4942.33048  4942.33049 -4904.08878     0.00002     0.00000    -0.00000
  E(xc)     -70.33524   -70.33521   -70.93961     0.00003    -0.00002    -0.00001
  Local  -10076.88164-10076.88323 10036.63552    -0.00130    -0.00029    -0.00022
  n-local   127.31335   125.93038   131.86348    -0.26593    -0.00002     0.00001
  augment   -25.66557   -25.66512   -26.76947     0.00039    -0.00001    -0.00001
  Kinetic   236.14036   238.93487   240.02688    -7.43062     0.00005     0.00005
  Fock        0.00000     0.00000     0.00000     0.00000     0.00000     0.00000
  vdW         0.16041     0.16041    -0.13425     0.00000     0.00000    -0.00000
  -------------------------------------------------------------------------------------
  Total      -0.59587    -0.59587    -0.88190     0.00000    -0.00000     0.00000
  in kB      -4.02947    -4.02947    -5.96371     0.00000    -0.00000     0.00000
  external pressure =       -4.67 kB  Pullay stress =        0.00 kB


 VOLUME and BASIS-vectors are now :
 -----------------------------------------------------------------------------
  energy-cutoff  :      250.00
  volume of cell :      236.93
      direct lattice vectors                 reciprocal lattice vectors
     3.190315730  0.000000000  0.000000000     0.313448600  0.180969634  0.000000000
    -1.595157865  2.762894468  0.000000000     0.000000000  0.361939267  0.000000000
     0.000000000  0.000000000 26.879004300     0.000000000  0.000000000  0.037203759

  length of vectors
     3.190315730  3.190315730 26.879004300     0.361939267  0.361939267  0.037203759


 FORCES acting on ions
    electron-ion (+dipol)            ewald-force                    non-local-force                 convergence-correction
 -----------------------------------------------------------------------------------------------
   -.794E-05 -.244E-05 -.509E-04   0.931E-04 -.108E-03 0.307E-06   0.104E-16 0.694E-17 -.102E-19   0.158E-08 -.293E-08 0.181E-06
   -.121E-02 -.950E-05 0.579E+03   -.864E-04 0.538E-04 -.584E+03   0.243E-16 0.243E-16 0.496E+01   -.143E-07 0.656E-08 0.317E-02
   0.112E-02 0.106E-02 -.579E+03   -.674E-05 0.538E-04 0.584E+03   0.373E-16 0.226E-16 -.496E+01   0.214E-07 0.839E-08 -.317E-02
 -----------------------------------------------------------------------------------------------
   -.103E-03 0.105E-02 0.136E-03   0.897E-14 0.972E-14 -.114E-12   0.720E-16 0.538E-16 0.000E+00   0.866E-08 0.120E-07 0.468E-06
 
 
 POSITION                                       TOTAL-FORCE (eV/Angst)
 -----------------------------------------------------------------------------------
     -0.00000      1.84193      3.71975         0.000000     -0.000000     -0.000000
      1.59516      0.92096      2.15487        -0.000000     -0.000000      0.103118
      1.59516      0.92096      5.28464         0.000000      0.000000     -0.103118
 -----------------------------------------------------------------------------------
    total drift:                               -0.000103      0.001050      0.000136


--------------------------------------------------------------------------------------------------------



  FREE ENERGIE OF THE ION-ELECTRON SYSTEM (eV)
  ---------------------------------------------------
  free  energy   TOTEN  =       -22.35226345 eV

  energy  without entropy=      -22.35226345  energy(sigma->0) =      -22.35226345
 


--------------------------------------------------------------------------------------------------------


    POTLOK:  cpu time    0.0170: real time    0.0161


--------------------------------------------------------------------------------------------------------


     LOOP+:  cpu time    2.2617: real time    2.8457
    4ORBIT:  cpu time    0.0000: real time    0.0000
 BZINTS: Fermi energy: -3.411334; 18.000000 electrons
         Band energy:-151.665700;  BLOECHL correction:  0.000000

 total amount of memory used by VASP MPI-rank0    37756. kBytes
=======================================================================

   base      :      30000. kBytes
   nonl-proj :       3144. kBytes
   fftplans  :       1284. kBytes
   grid      :       2065. kBytes
   one-center:         31. kBytes
   wavefun   :       1232. kBytes
 
  
  
 General timing and accounting informations for this job:
 ========================================================
  
                  Total CPU time used (sec):        2.959
                            User time (sec):        2.891
                          System time (sec):        0.068
                         Elapsed time (sec):        4.614
  
                   Maximum memory used (kb):       28768.
                   Average memory used (kb):           0.
  
                          Minor page faults:         7283
                          Major page faults:          155
                 Voluntary context switches:         2160
