perl: warning: Setting locale failed.
perl: warning: Please check that your locale settings:
	LANGUAGE = (unset),
	LC_ALL = (unset),
	LC_CTYPE = "UTF-8",
	LANG = "en_US.iso885915"
    are supported and installed on your system.
perl: warning: Falling back to the standard locale ("C").
Starting job 28532685 ("jobname") on c16-11 at Fri Nov 8 11:57:04 CET 2019
 running on    4 total cores
 distrk:  each k-point on    4 cores,    1 groups
 distr:  one band on    2 cores,    2 groups
 using from now: INCAR     
 vasp.5.4.4.18Apr17-6-g9f103f2a35 (build Jun 30 2017 11:15:00) complex          
  
 POSCAR found type information on POSCAR  Mo S 
 POSCAR found :  2 types and       3 ions
 scaLAPACK will be used
 LDA part: xc-table for Pade appr. of Perdew
 POSCAR, INCAR and KPOINTS ok, starting setup
 FFT: planning ...
 WAVECAR not read
 entering main loop
       N       E                     dE             d eps       ncg     rms          rms(c)
DAV:   1     0.999298770418E+02    0.99930E+02   -0.43327E+03   288   0.519E+02
DAV:   2    -0.116115941832E+02   -0.11154E+03   -0.10588E+03   476   0.145E+02
DAV:   3    -0.231618524781E+02   -0.11550E+02   -0.11441E+02   382   0.600E+01
DAV:   4    -0.233624606917E+02   -0.20061E+00   -0.19983E+00   360   0.951E+00
DAV:   5    -0.233681958653E+02   -0.57352E-02   -0.57339E-02   352   0.152E+00    0.691E+00
RMM:   6    -0.222098184010E+02    0.11584E+01   -0.53854E+00   292   0.116E+01    0.263E+00
RMM:   7    -0.218261836802E+02    0.38363E+00   -0.56263E-01   290   0.329E+00    0.153E+00
RMM:   8    -0.217661051575E+02    0.60079E-01   -0.23502E-01   303   0.245E+00    0.349E-01
RMM:   9    -0.217614166002E+02    0.46886E-02   -0.82607E-03   335   0.549E-01    0.925E-02
RMM:  10    -0.217607288998E+02    0.68770E-03   -0.16366E-03   335   0.208E-01    0.432E-02
RMM:  11    -0.217607283070E+02    0.59281E-06   -0.17785E-03   312   0.186E-01    0.540E-02
RMM:  12    -0.217606439853E+02    0.84322E-04   -0.55249E-04   304   0.126E-01    0.153E-02
RMM:  13    -0.217610924217E+02   -0.44844E-03   -0.14516E-04   282   0.627E-02    0.180E-02
RMM:  14    -0.217611529958E+02   -0.60574E-04   -0.23804E-05   249   0.253E-02    0.533E-03
RMM:  15    -0.217612769617E+02   -0.12397E-03   -0.13241E-05   202   0.161E-02    0.360E-03
RMM:  16    -0.217613130426E+02   -0.36081E-04   -0.25060E-06   165   0.783E-03    0.247E-03
RMM:  17    -0.217613511853E+02   -0.38143E-04   -0.28924E-06   157   0.797E-03    0.253E-03
RMM:  18    -0.217613543901E+02   -0.32048E-05   -0.36929E-07    86   0.422E-03
   1 F= -.22352263E+02 E0= -.22352263E+02  d E =0.000000E+00

Currently Loaded Modulefiles:
  1) Anaconda3/5.1.0       3) vesta/3.3.8           5) intel/2016.1
  2) gnuplot/5.0.4         4) imagemagick/6.7.9-0   6) vasp/5.4.1.Feb16

Job script resource usage:
       JobID  MaxVMSize     MaxRSS 
------------ ---------- ---------- 
28532685.ba+    216888K      2569K 

Job step resource usage:
       JobID    JobName  AllocCPUS  MaxVMSize     MaxRSS    Elapsed ExitCode 
------------ ---------- ---------- ---------- ---------- ---------- -------- 
28532685        jobname          4                         00:00:08      0:0 
28532685.0    pmi_proxy          1    279832K       536K   00:00:05      0:0 

Job 28532685 ("jobname") completed on c16-11 at Fri Nov 8 11:57:10 CET 2019
