<?xml version="1.0" encoding="ISO-8859-1"?>
<modeling>
 <generator>
  <i name="program" type="string">vasp </i>
  <i name="version" type="string">5.4.4.18Apr17-6-g9f103f2a35  </i>
  <i name="subversion" type="string">(build Jun 30 2017 11:15:00) complex            parallel </i>
  <i name="platform" type="string">STALLO_VASP_5.4.4 </i>
  <i name="date" type="string">2019 11 08 </i>
  <i name="time" type="string">11:57:05 </i>
 </generator>
 <incar>
  <i type="string" name="PREC">normal    ! low/normal/accurate</i>
  <i type="string" name="ALGO"> Fast      ! Algorithm for electronic re</i>
  <i type="int" name="ISPIN">     1</i>
  <i type="int" name="NELMIN">     4</i>
  <i name="EDIFF">      0.00001000</i>
  <i type="int" name="NSW">     0</i>
  <i name="ENCUT">    250.00000000</i>
  <i type="logical" name="LREAL"> F  </i>
  <i type="int" name="ISMEAR">    -5</i>
  <i name="SIGMA">      0.20000000</i>
  <i type="logical" name="LWAVE"> F  </i>
  <v type="int" name="KPOINT_BSE">    -1     0     0     0</v>
 </incar>
 <structure name="primitive_cell" >
  <crystal>
   <varray name="basis" >
    <v>       3.19031573       0.00000000       0.00000000 </v>
    <v>      -1.59515786       2.76289447       0.00000000 </v>
    <v>       0.00000000       0.00000000      26.87900430 </v>
   </varray>
   <i name="volume">    236.92513614 </i>
   <varray name="rec_basis" >
    <v>       0.31344860       0.18096963       0.00000000 </v>
    <v>       0.00000000       0.36193927       0.00000000 </v>
    <v>       0.00000000       0.00000000       0.03720376 </v>
   </varray>
  </crystal>
  <varray name="positions" >
   <v>       0.33333300      -0.33333300       0.13838872 </v>
   <v>      -0.33333400       0.33333300       0.19660830 </v>
   <v>      -0.33333300       0.33333300       0.08016914 </v>
  </varray>
 </structure>
 <varray name="primitive_index" >
  <v type="int" >        1 </v>
  <v type="int" >        3 </v>
  <v type="int" >        2 </v>
 </varray>
 <kpoints>
  <generation param="Gamma">
   <v type="int" name="divisions">       8        8        1 </v>
   <v name="usershift">      0.00000000       0.00000000       0.00000000 </v>
   <v name="genvec1">      0.12500000       0.00000000       0.00000000 </v>
   <v name="genvec2">      0.00000000       0.12500000       0.00000000 </v>
   <v name="genvec3">      0.00000000       0.00000000       1.00000000 </v>
   <v name="shift">      0.00000000       0.00000000       0.00000000 </v>
  </generation>
  <varray name="kpointlist" >
   <v>       0.00000000       0.00000000       0.00000000 </v>
   <v>       0.12500000       0.00000000       0.00000000 </v>
   <v>       0.25000000       0.00000000       0.00000000 </v>
   <v>       0.37500000       0.00000000       0.00000000 </v>
   <v>       0.50000000       0.00000000       0.00000000 </v>
   <v>       0.12500000       0.12500000       0.00000000 </v>
   <v>       0.25000000       0.12500000       0.00000000 </v>
   <v>       0.37500000       0.12500000       0.00000000 </v>
   <v>       0.25000000       0.25000000       0.00000000 </v>
   <v>       0.37500000       0.25000000       0.00000000 </v>
  </varray>
  <varray name="weights" >
   <v>       0.01562500 </v>
   <v>       0.09375000 </v>
   <v>       0.09375000 </v>
   <v>       0.09375000 </v>
   <v>       0.04687500 </v>
   <v>       0.09375000 </v>
   <v>       0.18750000 </v>
   <v>       0.18750000 </v>
   <v>       0.09375000 </v>
   <v>       0.09375000 </v>
  </varray>
  <varray name="tetrahedronlist"  type="int" >
   <v type="int" >       12        2        2        2        6 </v>
   <v type="int" >       12        1        2        2        2 </v>
   <v type="int" >        6        1        1        2        2 </v>
   <v type="int" >        6        2        2        6        6 </v>
   <v type="int" >       12        3        6        6        7 </v>
   <v type="int" >       12        2        3        6        6 </v>
   <v type="int" >       12        2        2        3        6 </v>
   <v type="int" >       12        3        6        7        7 </v>
   <v type="int" >       12        3        3        6        7 </v>
   <v type="int" >       12        2        3        3        6 </v>
   <v type="int" >       12        4        7        7        8 </v>
   <v type="int" >       12        3        4        7        7 </v>
   <v type="int" >       12        3        3        4        7 </v>
   <v type="int" >       12        4        7        8        8 </v>
   <v type="int" >       12        4        4        7        8 </v>
   <v type="int" >       12        3        4        4        7 </v>
   <v type="int" >       12        5        8        8        8 </v>
   <v type="int" >       12        4        5        8        8 </v>
   <v type="int" >       12        4        4        5        8 </v>
   <v type="int" >        6        5        5        8        8 </v>
   <v type="int" >       12        4        5        5        8 </v>
   <v type="int" >       12        7        7        7        9 </v>
   <v type="int" >       12        6        7        7        7 </v>
   <v type="int" >        6        6        6        7        7 </v>
   <v type="int" >        6        7        7        9        9 </v>
   <v type="int" >       12        8        9        9       10 </v>
   <v type="int" >       12        7        8        9        9 </v>
   <v type="int" >       12        7        7        8        9 </v>
   <v type="int" >       12        8        9       10       10 </v>
   <v type="int" >       12        8        8        9       10 </v>
   <v type="int" >       12        7        8        8        9 </v>
   <v type="int" >        6        8        8       10       10 </v>
   <v type="int" >       12        8        8        8       10 </v>
   <v type="int" >        6       10       10       10       10 </v>
   <v type="int" >       12        9       10       10       10 </v>
   <v type="int" >        6        9        9       10       10 </v>
  </varray>
  <i name="volumeweight">      0.00260417 </i>
 </kpoints>
 <parameters>
  <separator name="general" >
   <i type="string" name="SYSTEM">unknown system</i>
   <i type="logical" name="LCOMPAT"> F  </i>
  </separator>
  <separator name="electronic" >
   <i type="string" name="PREC">normal</i>
   <i name="ENMAX">    250.00000000</i>
   <i name="ENAUG">    345.27800000</i>
   <i name="EDIFF">      0.00001000</i>
   <i type="int" name="IALGO">    68</i>
   <i type="int" name="IWAVPR">    10</i>
   <i type="int" name="NBANDS">    14</i>
   <i name="NELECT">     18.00000000</i>
   <i type="int" name="TURBO">     0</i>
   <i type="int" name="IRESTART">     0</i>
   <i type="int" name="NREBOOT">     0</i>
   <i type="int" name="NMIN">     0</i>
   <i name="EREF">      0.00000000</i>
   <separator name="electronic smearing" >
    <i type="int" name="ISMEAR">    -5</i>
    <i name="SIGMA">      0.20000000</i>
    <i name="KSPACING">      0.50000000</i>
    <i type="logical" name="KGAMMA"> T  </i>
   </separator>
   <separator name="electronic projectors" >
    <i type="logical" name="LREAL"> F  </i>
    <v name="ROPT">      0.00000000      0.00000000</v>
    <i type="int" name="LMAXPAW">  -100</i>
    <i type="int" name="LMAXMIX">     2</i>
    <i type="logical" name="NLSPLINE"> F  </i>
   </separator>
   <separator name="electronic startup" >
    <i type="int" name="ISTART">     0</i>
    <i type="int" name="ICHARG">     2</i>
    <i type="int" name="INIWAV">     1</i>
   </separator>
   <separator name="electronic spin" >
    <i type="int" name="ISPIN">     1</i>
    <i type="logical" name="LNONCOLLINEAR"> F  </i>
    <v name="MAGMOM">      1.00000000      1.00000000      1.00000000</v>
    <i name="NUPDOWN">     -1.00000000</i>
    <i type="logical" name="LSORBIT"> F  </i>
    <v name="SAXIS">      0.00000000      0.00000000      1.00000000</v>
    <i type="logical" name="LSPIRAL"> F  </i>
    <v name="QSPIRAL">      0.00000000      0.00000000      0.00000000</v>
    <i type="logical" name="LZEROZ"> F  </i>
   </separator>
   <separator name="electronic exchange-correlation" >
    <i type="logical" name="LASPH"> F  </i>
    <i type="logical" name="LMETAGGA"> F  </i>
   </separator>
   <separator name="electronic convergence" >
    <i type="int" name="NELM">    60</i>
    <i type="int" name="NELMDL">    -5</i>
    <i type="int" name="NELMIN">     4</i>
    <i name="ENINI">    250.00000000</i>
    <separator name="electronic convergence detail" >
     <i type="logical" name="LDIAG"> T  </i>
     <i type="logical" name="LSUBROT"> F  </i>
     <i name="WEIMIN">      0.00000000</i>
     <i name="EBREAK">      0.00000018</i>
     <i name="DEPER">      0.30000000</i>
     <i type="int" name="NRMM">     4</i>
     <i name="TIME">      0.40000000</i>
    </separator>
   </separator>
   <separator name="electronic mixer" >
    <i name="AMIX">      0.40000000</i>
    <i name="BMIX">      1.00000000</i>
    <i name="AMIN">      0.10000000</i>
    <i name="AMIX_MAG">      1.60000000</i>
    <i name="BMIX_MAG">      1.00000000</i>
    <separator name="electronic mixer details" >
     <i type="int" name="IMIX">     4</i>
     <i type="logical" name="MIXFIRST"> F  </i>
     <i type="int" name="MAXMIX">   -45</i>
     <i name="WC">    100.00000000</i>
     <i type="int" name="INIMIX">     1</i>
     <i type="int" name="MIXPRE">     1</i>
     <i type="int" name="MREMOVE">     5</i>
    </separator>
   </separator>
   <separator name="electronic dipolcorrection" >
    <i type="logical" name="LDIPOL"> F  </i>
    <i type="logical" name="LMONO"> F  </i>
    <i type="int" name="IDIPOL">     0</i>
    <i name="EPSILON">      1.00000000</i>
    <v name="DIPOL">   -100.00000000   -100.00000000   -100.00000000</v>
    <i name="EFIELD">      0.00000000</i>
   </separator>
  </separator>
  <separator name="grids" >
   <i type="int" name="NGX">    12</i>
   <i type="int" name="NGY">    12</i>
   <i type="int" name="NGZ">   108</i>
   <i type="int" name="NGXF">    24</i>
   <i type="int" name="NGYF">    24</i>
   <i type="int" name="NGZF">   216</i>
   <i type="logical" name="ADDGRID"> F  </i>
  </separator>
  <separator name="ionic" >
   <i type="int" name="NSW">     0</i>
   <i type="int" name="IBRION">    -1</i>
   <i type="int" name="MDALGO">     0</i>
   <i type="int" name="ISIF">     2</i>
   <i name="PSTRESS">      0.00000000</i>
   <i name="EDIFFG">      0.00010000</i>
   <i type="int" name="NFREE">     0</i>
   <i name="POTIM">      0.50000000</i>
   <i name="SMASS">     -3.00000000</i>
   <i name="SCALEE">      1.00000000</i>
  </separator>
  <separator name="ionic md" >
   <i name="TEBEG">      0.00010000</i>
   <i name="TEEND">      0.00010000</i>
   <i type="int" name="NBLOCK">     1</i>
   <i type="int" name="KBLOCK">     1</i>
   <i type="int" name="NPACO">   256</i>
   <i name="APACO">     16.00000000</i>
  </separator>
  <separator name="symmetry" >
   <i type="int" name="ISYM">     2</i>
   <i name="SYMPREC">      0.00001000</i>
  </separator>
  <separator name="dos" >
   <i type="int" name="LORBIT">     0</i>
   <v name="RWIGS">     -1.00000000     -1.00000000</v>
   <i type="int" name="NEDOS">   301</i>
   <i name="EMIN">     10.00000000</i>
   <i name="EMAX">    -10.00000000</i>
   <i name="EFERMI">      0.00000000</i>
  </separator>
  <separator name="writing" >
   <i type="int" name="NWRITE">     2</i>
   <i type="logical" name="LWAVE"> F  </i>
   <i type="logical" name="LDOWNSAMPLE"> F  </i>
   <i type="logical" name="LCHARG"> T  </i>
   <i type="logical" name="LPARD"> F  </i>
   <i type="logical" name="LVTOT"> F  </i>
   <i type="logical" name="LVHAR"> F  </i>
   <i type="logical" name="LELF"> F  </i>
   <i type="logical" name="LOPTICS"> F  </i>
   <v name="STM">      0.00000000      0.00000000      0.00000000      0.00000000      0.00000000      0.00000000      0.00000000</v>
  </separator>
  <separator name="performance" >
   <i type="int" name="NPAR">     2</i>
   <i type="int" name="NSIM">     4</i>
   <i type="int" name="NBLK">    -1</i>
   <i type="logical" name="LPLANE"> T  </i>
   <i type="logical" name="LSCALAPACK"> T  </i>
   <i type="logical" name="LSCAAWARE"> F  </i>
   <i type="logical" name="LSCALU"> F  </i>
   <i type="logical" name="LASYNC"> F  </i>
   <i type="logical" name="LORBITALREAL"> F  </i>
  </separator>
  <separator name="miscellaneous" >
   <i type="int" name="IDIOT">     3</i>
   <i type="int" name="ISPECIAL">     0</i>
   <i type="logical" name="LMUSIC"> F  </i>
   <v name="POMASS">     95.94000000     32.06600000</v>
   <v name="DARWINR">      0.00000000      0.00000000</v>
   <v name="DARWINV">      1.00000000      1.00000000</v>
   <i type="logical" name="LCORR"> T  </i>
  </separator>
  <i type="logical" name="GGA_COMPAT"> T  </i>
  <i type="logical" name="LBERRY"> F  </i>
  <i type="int" name="ICORELEVEL">     0</i>
  <i type="logical" name="LDAU"> F  </i>
  <i type="int" name="I_CONSTRAINED_M">     0</i>
  <separator name="electronic exchange-correlation" >
   <i type="string" name="GGA">--</i>
   <i type="int" name="VOSKOWN">     0</i>
   <i type="logical" name="LHFCALC"> F  </i>
   <i type="string" name="PRECFOCK"></i>
   <i type="logical" name="LSYMGRAD"> F  </i>
   <i type="logical" name="LHFONE"> F  </i>
   <i type="logical" name="LRHFCALC"> F  </i>
   <i type="logical" name="LTHOMAS"> F  </i>
   <i type="logical" name="LMODELHF"> F  </i>
   <i name="ENCUT4O">     -1.00000000</i>
   <i type="int" name="EXXOEP">     0</i>
   <i type="int" name="FOURORBIT">     0</i>
   <i name="AEXX">      0.00000000</i>
   <i name="HFALPHA">      0.00000000</i>
   <i name="MCALPHA">      0.00000000</i>
   <i name="ALDAX">      1.00000000</i>
   <i name="AGGAX">      1.00000000</i>
   <i name="ALDAC">      1.00000000</i>
   <i name="AGGAC">      1.00000000</i>
   <i type="int" name="NKREDX">     1</i>
   <i type="int" name="NKREDY">     1</i>
   <i type="int" name="NKREDZ">     1</i>
   <i type="logical" name="SHIFTRED"> F  </i>
   <i type="logical" name="ODDONLY"> F  </i>
   <i type="logical" name="EVENONLY"> F  </i>
   <i type="int" name="LMAXFOCK">     0</i>
   <i type="int" name="NMAXFOCKAE">     0</i>
   <i type="logical" name="LFOCKAEDFT"> F  </i>
   <i name="HFSCREEN">      0.00000000</i>
   <i name="HFSCREENC">      0.00000000</i>
   <i type="int" name="NBANDSGWLOW">     0</i>
  </separator>
  <separator name="vdW DFT" >
   <i type="logical" name="LUSE_VDW"> F  </i>
   <i name="Zab_VDW">     -0.84910000</i>
   <i name="PARAM1">      0.12340000</i>
   <i name="PARAM2">      1.00000000</i>
   <i name="PARAM3">      0.00000000</i>
  </separator>
  <separator name="model GW" >
   <i type="int" name="MODEL_GW">     0</i>
   <i name="MODEL_EPS0">     47.38502723</i>
   <i name="MODEL_ALPHA">      1.00000000</i>
  </separator>
  <separator name="linear response parameters" >
   <i type="logical" name="LEPSILON"> F  </i>
   <i type="logical" name="LRPA"> F  </i>
   <i type="logical" name="LNABLA"> F  </i>
   <i type="logical" name="LVEL"> F  </i>
   <i type="int" name="KINTER">     0</i>
   <i name="CSHIFT">      0.10000000</i>
   <i name="OMEGAMAX">     -1.00000000</i>
   <i name="DEG_THRESHOLD">      0.00200000</i>
   <i name="RTIME">     -0.10000000</i>
   <i name="WPLASMAI">      0.00000000</i>
   <v name="DFIELD">      0.00000000      0.00000000      0.00000000</v>
   <v name="WPLASMA">      0.00000000      0.00000000      0.00000000      0.00000000      0.00000000      0.00000000      0.00000000      0.00000000      0.00000000</v>
  </separator>
  <separator name="orbital magnetization" >
   <i type="logical" name="NUCIND"> F  </i>
   <v name="MAGPOS">      0.00000000      0.00000000      0.00000000</v>
   <i type="logical" name="LNICSALL"> T  </i>
   <i type="logical" name="ORBITALMAG"> F  </i>
   <i type="logical" name="LMAGBLOCH"> F  </i>
   <i type="logical" name="LCHIMAG"> F  </i>
   <i type="logical" name="LGAUGE"> T  </i>
   <i type="int" name="MAGATOM">     0</i>
   <v name="MAGDIPOL">      0.00000000      0.00000000      0.00000000</v>
   <v name="AVECCONST">      0.00000000      0.00000000      0.00000000</v>
  </separator>
  <separator name="response functions" >
   <i type="logical" name="LADDER"> F  </i>
   <i type="logical" name="LRPAFORCE"> F  </i>
   <i type="logical" name="LFXC"> F  </i>
   <i type="logical" name="LHARTREE"> T  </i>
   <i type="int" name="IBSE">     0</i>
   <v type="int" name="KPOINT">    -1     0     0     0</v>
   <i type="logical" name="LTCTE"> F  </i>
   <i type="logical" name="LTETE"> F  </i>
   <i type="logical" name="LTRIPLET"> F  </i>
   <i type="logical" name="LFXCEPS"> F  </i>
   <i type="logical" name="LFXHEG"> F  </i>
   <i type="int" name="NATURALO">     2</i>
   <i type="logical" name="L2ORDER"> F  </i>
   <i type="logical" name="LMP2LT"> F  </i>
   <i type="logical" name="LUSEW"> F  </i>
   <i name="ENCUTGW">     -2.00000000</i>
   <i name="ENCUTGWSOFT">     -2.00000000</i>
   <i name="ENCUTLF">     -1.00000000</i>
   <i type="int" name="LMAXMP2">    -1</i>
   <i name="SCISSOR">      0.00000000</i>
   <i type="int" name="NOMEGA">     0</i>
   <i type="int" name="NOMEGAR">     0</i>
   <i type="int" name="NBANDSGW">    -1</i>
   <i type="int" name="NBANDSO">    -1</i>
   <i type="int" name="NBANDSV">    -1</i>
   <i type="int" name="NELM">     1</i>
   <i type="int" name="NELMHF">     1</i>
   <i type="int" name="DIM">     3</i>
   <i type="int" name="ANTIRES">     0</i>
   <i name="OMEGAMAX">    -30.00000000</i>
   <i name="OMEGAMIN">    -30.00000000</i>
   <i name="OMEGATL">   -200.00000000</i>
   <i type="int" name="OMEGAGRID">   140</i>
   <i name="CSHIFT">     -0.10000000</i>
   <i type="logical" name="SELFENERGY"> F  </i>
   <i type="logical" name="LSPECTRAL"> F  </i>
   <i type="logical" name="LSPECTRALGW"> F  </i>
   <i type="logical" name="LSINGLES"> F  </i>
   <i type="logical" name="LFERMIGW"> F  </i>
   <i type="logical" name="ODDONLYGW"> F  </i>
   <i type="logical" name="EVENONLYGW"> F  </i>
   <i type="int" name="NKREDLFX">     1</i>
   <i type="int" name="NKREDLFY">     1</i>
   <i type="int" name="NKREDLFZ">     1</i>
   <i type="int" name="MAXMEM">  2800</i>
   <i type="int" name="TELESCOPE">     0</i>
   <i type="int" name="TAUPAR">     1</i>
   <i type="int" name="OMEGAPAR">    -1</i>
   <i name="LAMBDA">      1.00000000</i>
  </separator>
  <separator name="External order field" >
   <i name="OFIELD_KAPPA">      0.00000000</i>
   <v name="OFIELD_K">      0.00000000      0.00000000      0.00000000</v>
   <i name="OFIELD_Q6_NEAR">      0.00000000</i>
   <i name="OFIELD_Q6_FAR">      0.00000000</i>
   <i name="OFIELD_A">      0.00000000</i>
  </separator>
 </parameters>
 <atominfo>
  <atoms>       3 </atoms>
  <types>       2 </types>
  <array name="atoms" >
   <dimension dim="1">ion</dimension>
   <field type="string">element</field>
   <field type="int">atomtype</field>
   <set>
    <rc><c>Mo</c><c>   1</c></rc>
    <rc><c>S </c><c>   2</c></rc>
    <rc><c>S </c><c>   2</c></rc>
   </set>
  </array>
  <array name="atomtypes" >
   <dimension dim="1">type</dimension>
   <field type="int">atomspertype</field>
   <field type="string">element</field>
   <field>mass</field>
   <field>valence</field>
   <field type="string">pseudopotential</field>
   <set>
    <rc><c>   1</c><c>Mo</c><c>     95.94000000</c><c>      6.00000000</c><c> PAW_PBE Mo 08Apr2002                   </c></rc>
    <rc><c>   2</c><c>S </c><c>     32.06600000</c><c>      6.00000000</c><c>  PAW_PBE S 17Jan2003                   </c></rc>
   </set>
  </array>
 </atominfo>
 <structure name="initialpos" >
  <crystal>
   <varray name="basis" >
    <v>       3.19031573       0.00000000       0.00000000 </v>
    <v>      -1.59515786       2.76289447       0.00000000 </v>
    <v>       0.00000000       0.00000000      26.87900430 </v>
   </varray>
   <i name="volume">    236.92513614 </i>
   <varray name="rec_basis" >
    <v>       0.31344860       0.18096963       0.00000000 </v>
    <v>       0.00000000       0.36193927       0.00000000 </v>
    <v>       0.00000000       0.00000000       0.03720376 </v>
   </varray>
  </crystal>
  <varray name="positions" >
   <v>       0.33333300       0.66666700       0.13838872 </v>
   <v>       0.66666700       0.33333300       0.08016914 </v>
   <v>       0.66666600       0.33333300       0.19660830 </v>
  </varray>
 </structure>
 <calculation>
  <scstep>
   <time name="dav">    0.09    0.10</time>
   <time name="total">    0.11    0.62</time>
   <energy>
    <i name="alphaZ">     12.51390764 </i>
    <i name="ewald">   4286.25630342 </i>
    <i name="hartreedc">  -4967.71356794 </i>
    <i name="XCdc">    -36.31055464 </i>
    <i name="pawpsdc">    406.88651198 </i>
    <i name="pawaedc">   -329.34073203 </i>
    <i name="eentropy">      0.00000000 </i>
    <i name="bandstr">    -43.43056714 </i>
    <i name="atom">    771.06857575 </i>
    <i name="e_fr_energy">     99.92987704 </i>
    <i name="e_wo_entrp">     99.92987704 </i>
    <i name="e_0_energy">     99.92987704 </i>
   </energy>
  </scstep>
  <scstep>
   <time name="dav">    0.14    0.14</time>
   <time name="total">    0.14    0.14</time>
   <energy>
    <i name="e_fr_energy">    -11.61159418 </i>
    <i name="e_wo_entrp">    -11.61159418 </i>
    <i name="e_0_energy">    -11.61159418 </i>
   </energy>
  </scstep>
  <scstep>
   <time name="dav">    0.11    0.11</time>
   <time name="total">    0.11    0.11</time>
   <energy>
    <i name="e_fr_energy">    -23.16185248 </i>
    <i name="e_wo_entrp">    -23.16185248 </i>
    <i name="e_0_energy">    -23.16185248 </i>
   </energy>
  </scstep>
  <scstep>
   <time name="dav">    0.11    0.11</time>
   <time name="total">    0.11    0.11</time>
   <energy>
    <i name="e_fr_energy">    -23.36246069 </i>
    <i name="e_wo_entrp">    -23.36246069 </i>
    <i name="e_0_energy">    -23.36246069 </i>
   </energy>
  </scstep>
  <scstep>
   <time name="dav">    0.10    0.10</time>
   <time name="total">    0.11    0.11</time>
   <energy>
    <i name="e_fr_energy">    -23.36819587 </i>
    <i name="e_wo_entrp">    -23.36819587 </i>
    <i name="e_0_energy">    -23.36819587 </i>
   </energy>
  </scstep>
  <scstep>
   <time name="diag">    0.02    0.02</time>
   <time name="diis">    0.07    0.07</time>
   <time name="orth">    0.00    0.00</time>
   <time name="total">    0.11    0.11</time>
   <energy>
    <i name="e_fr_energy">    -22.20981840 </i>
    <i name="e_wo_entrp">    -22.20981840 </i>
    <i name="e_0_energy">    -22.20981840 </i>
   </energy>
  </scstep>
  <scstep>
   <time name="diag">    0.02    0.02</time>
   <time name="diis">    0.07    0.07</time>
   <time name="orth">    0.00    0.00</time>
   <time name="total">    0.11    0.11</time>
   <energy>
    <i name="e_fr_energy">    -21.82618368 </i>
    <i name="e_wo_entrp">    -21.82618368 </i>
    <i name="e_0_energy">    -21.82618368 </i>
   </energy>
  </scstep>
  <scstep>
   <time name="diag">    0.02    0.02</time>
   <time name="diis">    0.07    0.07</time>
   <time name="orth">    0.00    0.00</time>
   <time name="total">    0.12    0.13</time>
   <energy>
    <i name="e_fr_energy">    -21.76610516 </i>
    <i name="e_wo_entrp">    -21.76610516 </i>
    <i name="e_0_energy">    -21.76610516 </i>
   </energy>
  </scstep>
  <scstep>
   <time name="diag">    0.02    0.02</time>
   <time name="diis">    0.08    0.08</time>
   <time name="orth">    0.00    0.00</time>
   <time name="total">    0.12    0.12</time>
   <energy>
    <i name="e_fr_energy">    -21.76141660 </i>
    <i name="e_wo_entrp">    -21.76141660 </i>
    <i name="e_0_energy">    -21.76141660 </i>
   </energy>
  </scstep>
  <scstep>
   <time name="diag">    0.02    0.02</time>
   <time name="diis">    0.08    0.08</time>
   <time name="orth">    0.00    0.00</time>
   <time name="total">    0.12    0.12</time>
   <energy>
    <i name="e_fr_energy">    -21.76072890 </i>
    <i name="e_wo_entrp">    -21.76072890 </i>
    <i name="e_0_energy">    -21.76072890 </i>
   </energy>
  </scstep>
  <scstep>
   <time name="diag">    0.02    0.02</time>
   <time name="diis">    0.07    0.07</time>
   <time name="orth">    0.00    0.00</time>
   <time name="total">    0.12    0.12</time>
   <energy>
    <i name="e_fr_energy">    -21.76072831 </i>
    <i name="e_wo_entrp">    -21.76072831 </i>
    <i name="e_0_energy">    -21.76072831 </i>
   </energy>
  </scstep>
  <scstep>
   <time name="diag">    0.02    0.02</time>
   <time name="diis">    0.07    0.07</time>
   <time name="orth">    0.00    0.00</time>
   <time name="total">    0.12    0.12</time>
   <energy>
    <i name="e_fr_energy">    -21.76064399 </i>
    <i name="e_wo_entrp">    -21.76064399 </i>
    <i name="e_0_energy">    -21.76064399 </i>
   </energy>
  </scstep>
  <scstep>
   <time name="diag">    0.02    0.02</time>
   <time name="diis">    0.06    0.06</time>
   <time name="orth">    0.00    0.00</time>
   <time name="total">    0.11    0.11</time>
   <energy>
    <i name="e_fr_energy">    -21.76109242 </i>
    <i name="e_wo_entrp">    -21.76109242 </i>
    <i name="e_0_energy">    -21.76109242 </i>
   </energy>
  </scstep>
  <scstep>
   <time name="diag">    0.02    0.02</time>
   <time name="diis">    0.06    0.06</time>
   <time name="orth">    0.00    0.00</time>
   <time name="total">    0.11    0.11</time>
   <energy>
    <i name="e_fr_energy">    -21.76115300 </i>
    <i name="e_wo_entrp">    -21.76115300 </i>
    <i name="e_0_energy">    -21.76115300 </i>
   </energy>
  </scstep>
  <scstep>
   <time name="diag">    0.02    0.02</time>
   <time name="diis">    0.05    0.05</time>
   <time name="orth">    0.00    0.00</time>
   <time name="total">    0.10    0.10</time>
   <energy>
    <i name="e_fr_energy">    -21.76127696 </i>
    <i name="e_wo_entrp">    -21.76127696 </i>
    <i name="e_0_energy">    -21.76127696 </i>
   </energy>
  </scstep>
  <scstep>
   <time name="diag">    0.02    0.02</time>
   <time name="diis">    0.05    0.05</time>
   <time name="orth">    0.00    0.00</time>
   <time name="total">    0.10    0.10</time>
   <energy>
    <i name="e_fr_energy">    -21.76131304 </i>
    <i name="e_wo_entrp">    -21.76131304 </i>
    <i name="e_0_energy">    -21.76131304 </i>
   </energy>
  </scstep>
  <scstep>
   <time name="diag">    0.02    0.02</time>
   <time name="diis">    0.04    0.04</time>
   <time name="orth">    0.00    0.00</time>
   <time name="total">    0.09    0.09</time>
   <energy>
    <i name="e_fr_energy">    -21.76135119 </i>
    <i name="e_wo_entrp">    -21.76135119 </i>
    <i name="e_0_energy">    -21.76135119 </i>
   </energy>
  </scstep>
  <scstep>
   <time name="diag">    0.02    0.02</time>
   <time name="diis">    0.04    0.04</time>
   <time name="orth">    0.00    0.00</time>
   <time name="total">    0.08    0.08</time>
   <energy>
    <i name="alphaZ">     12.51390764 </i>
    <i name="ewald">   4286.25630342 </i>
    <i name="hartreedc">  -4980.57138004 </i>
    <i name="XCdc">    -35.17206654 </i>
    <i name="pawpsdc">    478.68571945 </i>
    <i name="pawaedc">   -402.87671367 </i>
    <i name="eentropy">      0.00000000 </i>
    <i name="bandstr">   -151.66570040 </i>
    <i name="atom">    771.06857575 </i>
    <i name="e_fr_energy">    -21.76135439 </i>
    <i name="e_wo_entrp">    -21.76135439 </i>
    <i name="e_0_energy">    -21.76135439 </i>
   </energy>
  </scstep>
  <structure>
   <crystal>
    <varray name="basis" >
     <v>       3.19031573       0.00000000       0.00000000 </v>
     <v>      -1.59515786       2.76289447       0.00000000 </v>
     <v>       0.00000000       0.00000000      26.87900430 </v>
    </varray>
    <i name="volume">    236.92513614 </i>
    <varray name="rec_basis" >
     <v>       0.31344860       0.18096963       0.00000000 </v>
     <v>       0.00000000       0.36193927       0.00000000 </v>
     <v>       0.00000000       0.00000000       0.03720376 </v>
    </varray>
   </crystal>
   <varray name="positions" >
    <v>       0.33333300       0.66666700       0.13838872 </v>
    <v>       0.66666700       0.33333300       0.08016914 </v>
    <v>       0.66666600       0.33333300       0.19660830 </v>
   </varray>
  </structure>
  <varray name="forces" >
   <v>       0.00000000      -0.00000000      -0.00000000 </v>
   <v>      -0.00000000      -0.00000000       0.10311758 </v>
   <v>       0.00000000       0.00000000      -0.10311758 </v>
  </varray>
  <varray name="stress" >
   <v>      -4.02946585       0.00000000       0.00000000 </v>
   <v>       0.00000000      -4.02946585       0.00000000 </v>
   <v>       0.00000000      -0.00000000      -5.96370982 </v>
  </varray>
  <energy>
   <i name="e_fr_energy">    -22.35226345 </i>
   <i name="e_wo_entrp">    -22.35226345 </i>
   <i name="e_0_energy">      0.00000000 </i>
  </energy>
  <time name="totalsc">    2.26    2.85</time>
  <eigenvalues>
   <array>
    <dimension dim="1">band</dimension>
    <dimension dim="2">kpoint</dimension>
    <dimension dim="3">spin</dimension>
    <field>eigene</field>
    <field>occ</field>
    <set>
     <set comment="spin 1">
      <set comment="kpoint 1">
       <r>  -17.4731    1.0000 </r>
       <r>  -16.2647    1.0000 </r>
       <r>   -8.9833    1.0000 </r>
       <r>   -6.0214    1.0000 </r>
       <r>   -6.0211    1.0000 </r>
       <r>   -5.1618    1.0000 </r>
       <r>   -4.9143    1.0000 </r>
       <r>   -4.9138    1.0000 </r>
       <r>   -3.4393    1.0000 </r>
       <r>   -0.6650    0.0000 </r>
       <r>   -0.6642    0.0000 </r>
       <r>   -0.4429    0.0000 </r>
       <r>   -0.4422    0.0000 </r>
       <r>    1.9618    0.0000 </r>
      </set>
      <set comment="kpoint 2">
       <r>  -17.2590    1.0000 </r>
       <r>  -16.1622    1.0000 </r>
       <r>   -8.7383    1.0000 </r>
       <r>   -6.4857    1.0000 </r>
       <r>   -5.9687    1.0000 </r>
       <r>   -5.7871    1.0000 </r>
       <r>   -5.2503    1.0000 </r>
       <r>   -4.4829    1.0000 </r>
       <r>   -3.5781    1.0000 </r>
       <r>   -0.9477    0.0000 </r>
       <r>   -0.8809    0.0000 </r>
       <r>   -0.6795    0.0000 </r>
       <r>   -0.3109    0.0000 </r>
       <r>    2.3258    0.0000 </r>
      </set>
      <set comment="kpoint 3">
       <r>  -16.6904    1.0000 </r>
       <r>  -15.8932    1.0000 </r>
       <r>   -8.3726    1.0000 </r>
       <r>   -7.2139    1.0000 </r>
       <r>   -6.9503    1.0000 </r>
       <r>   -5.8870    1.0000 </r>
       <r>   -5.2013    1.0000 </r>
       <r>   -4.7348    1.0000 </r>
       <r>   -4.1466    1.0000 </r>
       <r>   -1.2720    0.0000 </r>
       <r>   -1.0969    0.0000 </r>
       <r>   -0.5537    0.0000 </r>
       <r>    0.3042    0.0000 </r>
       <r>    3.1535    0.0000 </r>
      </set>
      <set comment="kpoint 4">
       <r>  -16.0154    1.0000 </r>
       <r>  -15.5846    1.0000 </r>
       <r>   -8.8117    1.0000 </r>
       <r>   -7.8192    1.0000 </r>
       <r>   -7.3452    1.0000 </r>
       <r>   -6.3857    1.0000 </r>
       <r>   -5.1438    1.0000 </r>
       <r>   -4.6115    1.0000 </r>
       <r>   -4.3408    1.0000 </r>
       <r>   -1.2794    0.0000 </r>
       <r>   -0.9998    0.0000 </r>
       <r>    0.1651    0.0000 </r>
       <r>    0.6967    0.0000 </r>
       <r>    3.7222    0.0000 </r>
      </set>
      <set comment="kpoint 5">
       <r>  -15.6871    1.0000 </r>
       <r>  -15.4412    1.0000 </r>
       <r>   -9.1448    1.0000 </r>
       <r>   -8.1853    1.0000 </r>
       <r>   -7.4707    1.0000 </r>
       <r>   -6.5663    1.0000 </r>
       <r>   -5.2824    1.0000 </r>
       <r>   -4.3843    1.0000 </r>
       <r>   -4.0592    1.0000 </r>
       <r>   -1.2577    0.0000 </r>
       <r>   -0.7432    0.0000 </r>
       <r>    0.4650    0.0000 </r>
       <r>    0.8125    0.0000 </r>
       <r>    2.7669    0.0000 </r>
      </set>
      <set comment="kpoint 6">
       <r>  -16.8663    1.0000 </r>
       <r>  -15.9751    1.0000 </r>
       <r>   -8.3909    1.0000 </r>
       <r>   -7.0510    1.0000 </r>
       <r>   -6.5315    1.0000 </r>
       <r>   -6.0647    1.0000 </r>
       <r>   -5.4487    1.0000 </r>
       <r>   -4.3481    1.0000 </r>
       <r>   -3.9508    1.0000 </r>
       <r>   -1.3471    0.0000 </r>
       <r>   -0.9695    0.0000 </r>
       <r>   -0.9573    0.0000 </r>
       <r>    0.2833    0.0000 </r>
       <r>    2.9206    0.0000 </r>
      </set>
      <set comment="kpoint 7">
       <r>  -16.2328    1.0000 </r>
       <r>  -15.6763    1.0000 </r>
       <r>   -8.4551    1.0000 </r>
       <r>   -7.4775    1.0000 </r>
       <r>   -7.2142    1.0000 </r>
       <r>   -6.5701    1.0000 </r>
       <r>   -5.3496    1.0000 </r>
       <r>   -4.7110    1.0000 </r>
       <r>   -4.2345    1.0000 </r>
       <r>   -1.4308    0.0000 </r>
       <r>   -0.9840    0.0000 </r>
       <r>   -0.4872    0.0000 </r>
       <r>    0.7888    0.0000 </r>
       <r>    3.9117    0.0000 </r>
      </set>
      <set comment="kpoint 8">
       <r>  -15.7024    1.0000 </r>
       <r>  -15.4323    1.0000 </r>
       <r>   -8.8573    1.0000 </r>
       <r>   -8.2412    1.0000 </r>
       <r>   -7.3433    1.0000 </r>
       <r>   -6.5877    1.0000 </r>
       <r>   -5.3345    1.0000 </r>
       <r>   -5.1924    1.0000 </r>
       <r>   -3.9078    1.0000 </r>
       <r>   -1.2388    0.0000 </r>
       <r>   -0.7287    0.0000 </r>
       <r>    0.1365    0.0000 </r>
       <r>    0.8226    0.0000 </r>
       <r>    3.2919    0.0000 </r>
      </set>
      <set comment="kpoint 9">
       <r>  -15.7173    1.0000 </r>
       <r>  -15.4234    1.0000 </r>
       <r>   -8.4963    1.0000 </r>
       <r>   -8.2910    1.0000 </r>
       <r>   -7.0166    1.0000 </r>
       <r>   -6.6360    1.0000 </r>
       <r>   -6.3168    1.0000 </r>
       <r>   -5.0593    1.0000 </r>
       <r>   -3.9375    1.0000 </r>
       <r>   -1.2897    0.0000 </r>
       <r>   -0.6779    0.0000 </r>
       <r>   -0.3612    0.0000 </r>
       <r>    1.1070    0.0000 </r>
       <r>    4.1233    0.0000 </r>
      </set>
      <set comment="kpoint 10">
       <r>  -15.4824    1.0000 </r>
       <r>  -15.3043    1.0000 </r>
       <r>   -8.6758    1.0000 </r>
       <r>   -8.3270    1.0000 </r>
       <r>   -7.3002    1.0000 </r>
       <r>   -6.6380    1.0000 </r>
       <r>   -6.4100    1.0000 </r>
       <r>   -5.4448    1.0000 </r>
       <r>   -3.5700    1.0000 </r>
       <r>   -1.6159    0.0000 </r>
       <r>   -0.3001    0.0000 </r>
       <r>   -0.1285    0.0000 </r>
       <r>    1.2503    0.0000 </r>
       <r>    3.5369    0.0000 </r>
      </set>
     </set>
    </set>
   </array>
  </eigenvalues>
  <separator name="orbital magnetization" >
   <v name="MAGDIPOLOUT">      0.00000000      0.00000000      0.00000000</v>
  </separator>
  <dos>
   <i name="efermi">     -3.41133361 </i>
   <total>
    <array>
     <dimension dim="1">gridpoints</dimension>
     <dimension dim="2">spin</dimension>
     <field>energy</field>
     <field>total</field>
     <field>integrated</field>
     <set>
      <set comment="spin 1">
       <r>   -19.4731     0.0000     0.0000 </r>
       <r>   -19.3878     0.0000     0.0000 </r>
       <r>   -19.3024     0.0000     0.0000 </r>
       <r>   -19.2171     0.0000     0.0000 </r>
       <r>   -19.1318     0.0000     0.0000 </r>
       <r>   -19.0465     0.0000     0.0000 </r>
       <r>   -18.9612     0.0000     0.0000 </r>
       <r>   -18.8758     0.0000     0.0000 </r>
       <r>   -18.7905     0.0000     0.0000 </r>
       <r>   -18.7052     0.0000     0.0000 </r>
       <r>   -18.6199     0.0000     0.0000 </r>
       <r>   -18.5345     0.0000     0.0000 </r>
       <r>   -18.4492     0.0000     0.0000 </r>
       <r>   -18.3639     0.0000     0.0000 </r>
       <r>   -18.2786     0.0000     0.0000 </r>
       <r>   -18.1933     0.0000     0.0000 </r>
       <r>   -18.1079     0.0000     0.0000 </r>
       <r>   -18.0226     0.0000     0.0000 </r>
       <r>   -17.9373     0.0000     0.0000 </r>
       <r>   -17.8520     0.0000     0.0000 </r>
       <r>   -17.7667     0.0000     0.0000 </r>
       <r>   -17.6813     0.0000     0.0000 </r>
       <r>   -17.5960     0.0000     0.0000 </r>
       <r>   -17.5107     0.0000     0.0000 </r>
       <r>   -17.4254     0.1952     0.0047 </r>
       <r>   -17.3400     0.5442     0.0362 </r>
       <r>   -17.2547     0.4794     0.0958 </r>
       <r>   -17.1694     0.5190     0.1384 </r>
       <r>   -17.0841     0.5585     0.1844 </r>
       <r>   -16.9988     0.5981     0.2337 </r>
       <r>   -16.9134     0.6376     0.2864 </r>
       <r>   -16.8281     0.6627     0.3422 </r>
       <r>   -16.7428     0.6698     0.3991 </r>
       <r>   -16.6575     0.6869     0.4567 </r>
       <r>   -16.5722     0.7200     0.5167 </r>
       <r>   -16.4868     0.7531     0.5796 </r>
       <r>   -16.4015     0.7862     0.6452 </r>
       <r>   -16.3162     0.8193     0.7137 </r>
       <r>   -16.2309     1.5254     0.7954 </r>
       <r>   -16.1455     2.0750     0.9795 </r>
       <r>   -16.0602     2.3701     1.1691 </r>
       <r>   -15.9749     2.6930     1.3845 </r>
       <r>   -15.8896     2.9084     1.6232 </r>
       <r>   -15.8043     3.2473     1.8858 </r>
       <r>   -15.7189     3.5861     2.1774 </r>
       <r>   -15.6336     4.2080     2.6373 </r>
       <r>   -15.5483     4.2458     2.9947 </r>
       <r>   -15.4630     3.8106     3.3833 </r>
       <r>   -15.3777     3.2478     3.7920 </r>
       <r>   -15.2923     0.0000     4.0000 </r>
       <r>   -15.2070     0.0000     4.0000 </r>
       <r>   -15.1217     0.0000     4.0000 </r>
       <r>   -15.0364     0.0000     4.0000 </r>
       <r>   -14.9510     0.0000     4.0000 </r>
       <r>   -14.8657     0.0000     4.0000 </r>
       <r>   -14.7804     0.0000     4.0000 </r>
       <r>   -14.6951     0.0000     4.0000 </r>
       <r>   -14.6098     0.0000     4.0000 </r>
       <r>   -14.5244     0.0000     4.0000 </r>
       <r>   -14.4391     0.0000     4.0000 </r>
       <r>   -14.3538     0.0000     4.0000 </r>
       <r>   -14.2685     0.0000     4.0000 </r>
       <r>   -14.1832     0.0000     4.0000 </r>
       <r>   -14.0978     0.0000     4.0000 </r>
       <r>   -14.0125     0.0000     4.0000 </r>
       <r>   -13.9272     0.0000     4.0000 </r>
       <r>   -13.8419     0.0000     4.0000 </r>
       <r>   -13.7566     0.0000     4.0000 </r>
       <r>   -13.6712     0.0000     4.0000 </r>
       <r>   -13.5859     0.0000     4.0000 </r>
       <r>   -13.5006     0.0000     4.0000 </r>
       <r>   -13.4153     0.0000     4.0000 </r>
       <r>   -13.3299     0.0000     4.0000 </r>
       <r>   -13.2446     0.0000     4.0000 </r>
       <r>   -13.1593     0.0000     4.0000 </r>
       <r>   -13.0740     0.0000     4.0000 </r>
       <r>   -12.9887     0.0000     4.0000 </r>
       <r>   -12.9033     0.0000     4.0000 </r>
       <r>   -12.8180     0.0000     4.0000 </r>
       <r>   -12.7327     0.0000     4.0000 </r>
       <r>   -12.6474     0.0000     4.0000 </r>
       <r>   -12.5621     0.0000     4.0000 </r>
       <r>   -12.4767     0.0000     4.0000 </r>
       <r>   -12.3914     0.0000     4.0000 </r>
       <r>   -12.3061     0.0000     4.0000 </r>
       <r>   -12.2208     0.0000     4.0000 </r>
       <r>   -12.1354     0.0000     4.0000 </r>
       <r>   -12.0501     0.0000     4.0000 </r>
       <r>   -11.9648     0.0000     4.0000 </r>
       <r>   -11.8795     0.0000     4.0000 </r>
       <r>   -11.7942     0.0000     4.0000 </r>
       <r>   -11.7088     0.0000     4.0000 </r>
       <r>   -11.6235     0.0000     4.0000 </r>
       <r>   -11.5382     0.0000     4.0000 </r>
       <r>   -11.4529     0.0000     4.0000 </r>
       <r>   -11.3676     0.0000     4.0000 </r>
       <r>   -11.2822     0.0000     4.0000 </r>
       <r>   -11.1969     0.0000     4.0000 </r>
       <r>   -11.1116     0.0000     4.0000 </r>
       <r>   -11.0263     0.0000     4.0000 </r>
       <r>   -10.9409     0.0000     4.0000 </r>
       <r>   -10.8556     0.0000     4.0000 </r>
       <r>   -10.7703     0.0000     4.0000 </r>
       <r>   -10.6850     0.0000     4.0000 </r>
       <r>   -10.5997     0.0000     4.0000 </r>
       <r>   -10.5143     0.0000     4.0000 </r>
       <r>   -10.4290     0.0000     4.0000 </r>
       <r>   -10.3437     0.0000     4.0000 </r>
       <r>   -10.2584     0.0000     4.0000 </r>
       <r>   -10.1731     0.0000     4.0000 </r>
       <r>   -10.0877     0.0000     4.0000 </r>
       <r>   -10.0024     0.0000     4.0000 </r>
       <r>    -9.9171     0.0000     4.0000 </r>
       <r>    -9.8318     0.0000     4.0000 </r>
       <r>    -9.7464     0.0000     4.0000 </r>
       <r>    -9.6611     0.0000     4.0000 </r>
       <r>    -9.5758     0.0000     4.0000 </r>
       <r>    -9.4905     0.0000     4.0000 </r>
       <r>    -9.4052     0.0000     4.0000 </r>
       <r>    -9.3198     0.0000     4.0000 </r>
       <r>    -9.2345     0.0000     4.0000 </r>
       <r>    -9.1492     0.0000     4.0000 </r>
       <r>    -9.0639     0.5004     4.0202 </r>
       <r>    -8.9786     1.0430     4.0855 </r>
       <r>    -8.8932     1.8374     4.2084 </r>
       <r>    -8.8079     2.6418     4.4083 </r>
       <r>    -8.7226     2.8596     4.6500 </r>
       <r>    -8.6373     3.7792     4.9707 </r>
       <r>    -8.5519     3.1102     5.2646 </r>
       <r>    -8.4666     5.3218     5.5441 </r>
       <r>    -8.3813     2.7405     5.9881 </r>
       <r>    -8.2960     5.2769     6.1939 </r>
       <r>    -8.2107     2.5071     6.5149 </r>
       <r>    -8.1253     1.3159     6.6463 </r>
       <r>    -8.0400     1.1808     6.7528 </r>
       <r>    -7.9547     1.0456     6.8478 </r>
       <r>    -7.8694     0.9104     6.9312 </r>
       <r>    -7.7841     0.8329     7.0042 </r>
       <r>    -7.6987     0.8377     7.0754 </r>
       <r>    -7.6134     0.8424     7.1471 </r>
       <r>    -7.5281     0.8472     7.2192 </r>
       <r>    -7.4428     2.0358     7.3126 </r>
       <r>    -7.3574     5.0169     7.6134 </r>
       <r>    -7.2721     5.1270     8.1500 </r>
       <r>    -7.1868     5.0228     8.5720 </r>
       <r>    -7.1015     3.1302     8.9198 </r>
       <r>    -7.0162     1.3478     9.1080 </r>
       <r>    -6.9308     1.1782     9.2150 </r>
       <r>    -6.8455     1.0821     9.3114 </r>
       <r>    -6.7602     0.9860     9.3996 </r>
       <r>    -6.6749     0.8900     9.4797 </r>
       <r>    -6.5896    12.1515    10.1244 </r>
       <r>    -6.5042     3.7190    10.6604 </r>
       <r>    -6.4189     2.2686    10.9179 </r>
       <r>    -6.3336     2.2431    11.2014 </r>
       <r>    -6.2483     1.8283    11.3647 </r>
       <r>    -6.1629     1.7171    11.5160 </r>
       <r>    -6.0776     1.6059    11.6577 </r>
       <r>    -5.9923     3.9673    11.8360 </r>
       <r>    -5.9070     2.1947    12.0738 </r>
       <r>    -5.8217     1.6216    12.2476 </r>
       <r>    -5.7363     0.8728    12.3417 </r>
       <r>    -5.6510     0.8662    12.4159 </r>
       <r>    -5.5657     0.8597    12.4896 </r>
       <r>    -5.4804     0.8531    12.5626 </r>
       <r>    -5.3951     4.1186    12.7647 </r>
       <r>    -5.3097     9.0331    13.3158 </r>
       <r>    -5.2244     6.6545    14.0127 </r>
       <r>    -5.1391     1.6999    14.3603 </r>
       <r>    -5.0538     1.4956    14.4962 </r>
       <r>    -4.9684     1.4530    14.6220 </r>
       <r>    -4.8831     1.4932    14.7454 </r>
       <r>    -4.7978     1.6785    14.8808 </r>
       <r>    -4.7125     5.7074    15.0748 </r>
       <r>    -4.6272     2.9490    15.4564 </r>
       <r>    -4.5418     2.2788    15.6607 </r>
       <r>    -4.4565     2.5120    15.8669 </r>
       <r>    -4.3712     0.4990    15.9942 </r>
       <r>    -4.2859     1.6141    16.0443 </r>
       <r>    -4.2006     4.1756    16.3119 </r>
       <r>    -4.1152     3.6811    16.6440 </r>
       <r>    -4.0299     3.3604    16.9449 </r>
       <r>    -3.9446     3.0380    17.2166 </r>
       <r>    -3.8593     2.0790    17.4323 </r>
       <r>    -3.7739     1.7637    17.5962 </r>
       <r>    -3.6886     1.4483    17.7333 </r>
       <r>    -3.6033     1.1330    17.8434 </r>
       <r>    -3.5180     0.7657    17.9699 </r>
       <r>    -3.4327     0.0000    18.0000 </r>
       <r>    -3.3473     0.0000    18.0000 </r>
       <r>    -3.2620     0.0000    18.0000 </r>
       <r>    -3.1767     0.0000    18.0000 </r>
       <r>    -3.0914     0.0000    18.0000 </r>
       <r>    -3.0061     0.0000    18.0000 </r>
       <r>    -2.9207     0.0000    18.0000 </r>
       <r>    -2.8354     0.0000    18.0000 </r>
       <r>    -2.7501     0.0000    18.0000 </r>
       <r>    -2.6648     0.0000    18.0000 </r>
       <r>    -2.5795     0.0000    18.0000 </r>
       <r>    -2.4941     0.0000    18.0000 </r>
       <r>    -2.4088     0.0000    18.0000 </r>
       <r>    -2.3235     0.0000    18.0000 </r>
       <r>    -2.2382     0.0000    18.0000 </r>
       <r>    -2.1528     0.0000    18.0000 </r>
       <r>    -2.0675     0.0000    18.0000 </r>
       <r>    -1.9822     0.0000    18.0000 </r>
       <r>    -1.8969     0.0000    18.0000 </r>
       <r>    -1.8116     0.0000    18.0000 </r>
       <r>    -1.7262     0.0000    18.0000 </r>
       <r>    -1.6409     0.0000    18.0000 </r>
       <r>    -1.5556     0.7319    18.0707 </r>
       <r>    -1.4703     0.9542    18.1426 </r>
       <r>    -1.3850     6.3213    18.4332 </r>
       <r>    -1.2996     8.5653    19.0855 </r>
       <r>    -1.2143     0.9280    19.7200 </r>
       <r>    -1.1290     0.7813    19.7929 </r>
       <r>    -1.0437     4.5695    19.9580 </r>
       <r>    -0.9583     4.4241    20.5661 </r>
       <r>    -0.8730     4.4349    20.9961 </r>
       <r>    -0.7877     4.8639    21.3928 </r>
       <r>    -0.7024     3.9347    21.8779 </r>
       <r>    -0.6171     3.1500    22.1827 </r>
       <r>    -0.5317     2.3301    22.4156 </r>
       <r>    -0.4464     2.5322    22.6242 </r>
       <r>    -0.3611     2.6405    22.8425 </r>
       <r>    -0.2758     1.9509    23.0948 </r>
       <r>    -0.1905     2.4719    23.2835 </r>
       <r>    -0.1051     2.0269    23.5272 </r>
       <r>    -0.0198     1.9618    23.6973 </r>
       <r>     0.0655     1.8966    23.8619 </r>
       <r>     0.1508     1.9601    24.0209 </r>
       <r>     0.2362     1.8553    24.1953 </r>
       <r>     0.3215     1.5733    24.3391 </r>
       <r>     0.4068     1.2003    24.4574 </r>
       <r>     0.4921     0.9780    24.5459 </r>
       <r>     0.5774     1.0782    24.6337 </r>
       <r>     0.6628     1.1784    24.7299 </r>
       <r>     0.7481     3.7285    24.8977 </r>
       <r>     0.8334     2.1007    25.3742 </r>
       <r>     0.9187     1.7649    25.5391 </r>
       <r>     1.0040     1.4290    25.6754 </r>
       <r>     1.0894     1.0932    25.7830 </r>
       <r>     1.1747     1.1584    25.8755 </r>
       <r>     1.2600     0.0000    26.0000 </r>
       <r>     1.3453     0.0000    26.0000 </r>
       <r>     1.4307     0.0000    26.0000 </r>
       <r>     1.5160     0.0000    26.0000 </r>
       <r>     1.6013     0.0000    26.0000 </r>
       <r>     1.6866     0.0000    26.0000 </r>
       <r>     1.7719     0.0000    26.0000 </r>
       <r>     1.8573     0.0000    26.0000 </r>
       <r>     1.9426     0.0000    26.0000 </r>
       <r>     2.0279     0.0935    26.0031 </r>
       <r>     2.1132     0.2143    26.0162 </r>
       <r>     2.1985     0.3350    26.0397 </r>
       <r>     2.2839     0.4558    26.0734 </r>
       <r>     2.3692     0.3253    26.1076 </r>
       <r>     2.4545     0.3451    26.1362 </r>
       <r>     2.5398     0.3648    26.1665 </r>
       <r>     2.6252     0.3846    26.1985 </r>
       <r>     2.7105     0.4044    26.2322 </r>
       <r>     2.7958     0.4654    26.2681 </r>
       <r>     2.8811     0.6070    26.3139 </r>
       <r>     2.9664     0.7320    26.3713 </r>
       <r>     3.0518     0.8427    26.4385 </r>
       <r>     3.1371     0.9535    26.5151 </r>
       <r>     3.2224     1.1119    26.6028 </r>
       <r>     3.3077     1.6664    26.7112 </r>
       <r>     3.3930     1.7091    26.8552 </r>
       <r>     3.4784     1.7517    27.0028 </r>
       <r>     3.5637     2.1132    27.1939 </r>
       <r>     3.6490     2.1532    27.3759 </r>
       <r>     3.7343     2.1062    27.5608 </r>
       <r>     3.8197     1.5349    27.7161 </r>
       <r>     3.9050     0.9637    27.8227 </r>
       <r>     3.9903     1.0156    27.9324 </r>
       <r>     4.0756     0.3643    27.9913 </r>
       <r>     4.1609     0.0000    28.0000 </r>
       <r>     4.2463     0.0000    28.0000 </r>
       <r>     4.3316     0.0000    28.0000 </r>
       <r>     4.4169     0.0000    28.0000 </r>
       <r>     4.5022     0.0000    28.0000 </r>
       <r>     4.5875     0.0000    28.0000 </r>
       <r>     4.6729     0.0000    28.0000 </r>
       <r>     4.7582     0.0000    28.0000 </r>
       <r>     4.8435     0.0000    28.0000 </r>
       <r>     4.9288     0.0000    28.0000 </r>
       <r>     5.0142     0.0000    28.0000 </r>
       <r>     5.0995     0.0000    28.0000 </r>
       <r>     5.1848     0.0000    28.0000 </r>
       <r>     5.2701     0.0000    28.0000 </r>
       <r>     5.3554     0.0000    28.0000 </r>
       <r>     5.4408     0.0000    28.0000 </r>
       <r>     5.5261     0.0000    28.0000 </r>
       <r>     5.6114     0.0000    28.0000 </r>
       <r>     5.6967     0.0000    28.0000 </r>
       <r>     5.7820     0.0000    28.0000 </r>
       <r>     5.8674     0.0000    28.0000 </r>
       <r>     5.9527     0.0000    28.0000 </r>
       <r>     6.0380     0.0000    28.0000 </r>
       <r>     6.1233     0.0000    28.0000 </r>
      </set>
     </set>
    </array>
   </total>
  </dos>
 </calculation>
 <structure name="finalpos" >
  <crystal>
   <varray name="basis" >
    <v>       3.19031573       0.00000000       0.00000000 </v>
    <v>      -1.59515786       2.76289447       0.00000000 </v>
    <v>       0.00000000       0.00000000      26.87900430 </v>
   </varray>
   <i name="volume">    236.92513614 </i>
   <varray name="rec_basis" >
    <v>       0.31344860       0.18096963       0.00000000 </v>
    <v>       0.00000000       0.36193927       0.00000000 </v>
    <v>       0.00000000       0.00000000       0.03720376 </v>
   </varray>
  </crystal>
  <varray name="positions" >
   <v>       0.33333300       0.66666700       0.13838872 </v>
   <v>       0.66666700       0.33333300       0.08016914 </v>
   <v>       0.66666600       0.33333300       0.19660830 </v>
  </varray>
 </structure>
</modeling>
