unknown system                          
   1.00000000000000     
     3.190316    0.000000    0.000000
    -1.595158    2.762894    0.000000
     0.000000    0.000000   14.879004
   Mo   S 
     2     4
Direct
  0.333333  0.666667  0.250000
  0.666667  0.333333  0.750000
  0.333333  0.666667  0.855174
  0.666667  0.333333  0.144826
  0.666666  0.333333  0.355174
  0.333334  0.666667  0.644826
 
   36   36  168
 0.39889     0.40166     0.41006     0.42435     0.44478     0.47143     0.50408     0.54211     0.58456     0.63020    
 0.67765     0.72539     0.77176     0.81503     0.85339     0.88518     0.90896     0.92367     0.92863     0.92365    
 0.90892     0.88512     0.85331     0.81493     0.77166     0.72529     0.67756     0.63012     0.58449     0.54204    
 0.50402     0.47138     0.44474     0.42433     0.41005     0.40165     0.40165     0.40166     0.40724     0.41860    
 0.43598     0.45958     0.48934     0.52484     0.56530     0.60959     0.65640     0.70425     0.75158     0.79670    
 0.83784     0.87322     0.90126     0.92067     0.93058     0.93055     0.92059     0.90115     0.87313     0.83778    
 0.79668     0.75156     0.70419     0.65629     0.60947     0.56519     0.52477     0.48930     0.45955     0.43596    
 0.41858     0.40723     0.41005     0.40724     0.41006     0.41860     0.43308     0.45371     0.48056     0.51340    
 0.55165     0.59435     0.64030     0.68807     0.73612     0.78281     0.82640     0.86511     0.89723     0.92129    
 0.93616     0.94118     0.93611     0.92120     0.89713     0.86503     0.82636     0.78278     0.73606     0.68798    
 0.64019     0.59425     0.55157     0.51335     0.48053     0.45368     0.43305     0.41858     0.42433     0.41859    
 0.41859     0.42434     0.43598     0.45371     0.47765     0.50772     0.54352     0.58430     0.62902     0.67638    
 0.72488     0.77288     0.81864     0.86039     0.89635     0.92490     0.94470     0.95484     0.95484     0.94470    
 0.92487     0.89629     0.86030     0.81853     0.77275     0.72476     0.67630     0.62896     0.58425     0.54347    
 0.50768     0.47762     0.45368     0.43596     0.44474     0.43597     0.43306     0.43597     0.44476     0.45958    
 0.48057     0.50773     0.54084     0.57934     0.62237     0.66879     0.71725     0.76616     0.81377     0.85827    
 0.89782     0.93067     0.95530     0.97056     0.97575     0.97060     0.95534     0.93067     0.89776     0.85815    
 0.81361     0.76601     0.71717     0.66877     0.62235     0.57930     0.54079     0.50769     0.48052     0.45954    
 0.47138     0.45956     0.45369     0.45369     0.45956     0.47140     0.48933     0.51340     0.54354     0.57938    
 0.62022     0.66511     0.71287     0.76204     0.81094     0.85773     0.90053     0.93745     0.96678     0.98714    
 0.99758     0.99759     0.98716     0.96678     0.93742     0.90047     0.85764     0.81083     0.76196     0.71284    
 0.66509     0.62016     0.57930     0.54349     0.51336     0.48929     0.50400     0.48930     0.48055     0.47764    
 0.48054     0.48931     0.50404     0.52480     0.55161     0.58432     0.62244     0.66517     0.71149     0.76013    
 0.80953     0.85790     0.90335     0.94392     0.97772      1.0031      1.0188      1.0242      1.0188      1.0030    
 0.97765     0.94389     0.90335     0.85788     0.80948     0.76008     0.71144     0.66508     0.62233     0.58426    
 0.55159     0.52477     0.54202     0.52477     0.51338     0.50772     0.50770     0.51338     0.52481     0.54206    
 0.56521     0.59427     0.62901     0.66885     0.71293     0.76018     0.80916     0.85820     0.90544     0.94893    
 0.98668      1.0168      1.0378      1.0485      1.0485      1.0377      1.0167     0.98661     0.94894     0.90546    
 0.85817     0.80909     0.76011     0.71285     0.66874     0.62894     0.59427     0.56522     0.58449     0.56519    
 0.55160     0.54352     0.54082     0.54349     0.55163     0.56528     0.58452     0.60949     0.64019     0.67631    
 0.71722     0.76205     0.80958     0.85826     0.90626     0.95170     0.99256      1.0268      1.0527      1.0688    
  1.0743      1.0689      1.0527      1.0268     0.99253     0.95170     0.90622     0.85814     0.80950     0.76201    
 0.71717     0.67625     0.64018     0.60952     0.63016     0.60948     0.59425     0.58430     0.57935     0.57931    
 0.58427     0.59434     0.60958     0.63018     0.65634     0.68799     0.72476     0.76603     0.81087     0.85795    
 0.90553     0.95173     0.99463      1.0322      1.0623      1.0833      1.0942      1.0943      1.0835      1.0623    
  1.0321     0.99463     0.95170     0.90540     0.85784     0.81088     0.76607     0.72472     0.68793     0.65633    
 0.67763     0.65632     0.64016     0.62897     0.62240     0.62019     0.62233     0.62899     0.64027     0.65638    
 0.67764     0.70426     0.73611     0.77276     0.81360     0.85764     0.90336     0.94897     0.99258      1.0322    
  1.0656      1.0910      1.1069      1.1123      1.1070      1.0911      1.0656      1.0322     0.99260     0.94891    
 0.90325     0.85763     0.81368     0.77276     0.73599     0.70419     0.72535     0.70422     0.68794     0.67626    
 0.66881     0.66515     0.66510     0.66876     0.67633     0.68802     0.70421     0.72537     0.75165     0.78284    
 0.81856     0.85814     0.90045     0.94388     0.98663      1.0268      1.0624      1.0911      1.1113      1.1217    
  1.1217      1.1113      1.0910      1.0623      1.0269     0.98669     0.94383     0.90040     0.85820     0.81859    
 0.78272     0.75150     0.77166     0.75158     0.73604     0.72472     0.71720     0.71293     0.71150     0.71286    
 0.71723     0.72483     0.73605     0.75151     0.77171     0.79675     0.82642     0.86034     0.89776     0.93740    
 0.97762      1.0167      1.0527      1.0835      1.1070      1.1218      1.1268      1.1218      1.1069      1.0833    
  1.0527      1.0168     0.97767     0.93734     0.89776     0.86039     0.82635     0.79659     0.81487     0.79667    
 0.78279     0.77274     0.76603     0.76204     0.76017     0.76013     0.76204     0.76616     0.77285     0.78275    
 0.79662     0.81495     0.83781     0.86507     0.89632     0.93068     0.96676      1.0030      1.0377      1.0688    
  1.0943      1.1124      1.1218      1.1218      1.1124      1.0942      1.0688      1.0378      1.0031     0.96673    
 0.93061     0.89636     0.86509     0.83772     0.85323     0.83775     0.82640     0.81857     0.81363     0.81088    
 0.80956     0.80913     0.80950     0.81094     0.81380     0.81866     0.82638     0.83778     0.85331     0.87312    
 0.89713     0.92487     0.95534     0.98714      1.0188      1.0485      1.0743      1.0942      1.1069      1.1113    
  1.1070      1.0943      1.0742      1.0485      1.0189     0.98715     0.95526     0.92488     0.89722     0.87313    
 0.88506     0.87310     0.86509     0.86038     0.85817     0.85764     0.85792     0.85822     0.85816     0.85787    
 0.85773     0.85830     0.86044     0.86513     0.87321     0.88512     0.90113     0.92116     0.94466     0.97057    
 0.99758      1.0242      1.0485      1.0688      1.0833      1.0910      1.0911      1.0834      1.0688      1.0485    
  1.0242     0.99763     0.97054     0.94465     0.92125     0.90120     0.90892     0.90114     0.89717     0.89636    
 0.89777     0.90043     0.90335     0.90552     0.90627     0.90544     0.90333     0.90051     0.89783     0.89640    
 0.89728     0.90128     0.90894     0.92056     0.93605     0.95477     0.97569     0.99756      1.0189      1.0378    
  1.0527      1.0622      1.0656      1.0623      1.0527      1.0377      1.0189     0.99765     0.97575     0.95478    
 0.93611     0.92066     0.92369     0.92060     0.92121     0.92490     0.93067     0.93738     0.94387     0.94900    
 0.95180     0.95176     0.94897     0.94392     0.93743     0.93067     0.92492     0.92133     0.92071     0.92368    
 0.93054     0.94112     0.95475     0.97048     0.98710      1.0031      1.0168      1.0268      1.0321      1.0322    
  1.0268      1.0167      1.0031     0.98719     0.97061     0.95480     0.94114     0.93060     0.92869     0.93057    
 0.93609     0.94468     0.95534     0.96678     0.97766     0.98669     0.99265     0.99471     0.99263     0.98674    
 0.97776     0.96680     0.95530     0.94471     0.93619     0.93062     0.92866     0.93058     0.93611     0.94461    
 0.95520     0.96670     0.97768     0.98669     0.99259     0.99467     0.99262     0.98666     0.97764     0.96677    
 0.95535     0.94470     0.93610     0.93059     0.92371     0.93060     0.94114     0.95480     0.97061     0.98721    
  1.0031      1.0168      1.0269      1.0322      1.0322      1.0269      1.0169      1.0032     0.98721     0.97060    
 0.95486     0.94120     0.93058     0.92368     0.92067     0.92126     0.92483     0.93057     0.93735     0.94386    
 0.94893     0.95174     0.95178     0.94900     0.94388     0.93740     0.93070     0.92494     0.92124     0.92063    
 0.90896     0.92069     0.93613     0.95479     0.97576     0.99768      1.0189      1.0378      1.0528      1.0624    
  1.0656      1.0623      1.0528      1.0379      1.0190     0.99768     0.97581     0.95488     0.93613     0.92061    
 0.90894     0.90124     0.89721     0.89632     0.89776     0.90045     0.90329     0.90542     0.90626     0.90553    
 0.90337     0.90047     0.89782     0.89642     0.89723     0.90120     0.88513     0.90126     0.92129     0.94468    
 0.97057     0.99767      1.0243      1.0486      1.0689      1.0835      1.0911      1.0910      1.0834      1.0689    
  1.0486      1.0243     0.99769     0.97069     0.94477     0.92124     0.90116     0.88512     0.87317     0.86508    
 0.86038     0.85825     0.85769     0.85785     0.85816     0.85823     0.85795     0.85769     0.85823     0.86045    
 0.86517     0.87317     0.85331     0.87320     0.89728     0.92492     0.95530     0.98720      1.0189      1.0486    
  1.0743      1.0944      1.1071      1.1114      1.1070      1.0943      1.0744      1.0486      1.0189     0.98725    
 0.95544     0.92496     0.89720     0.87315     0.85331     0.83775     0.82634     0.81861     0.81376     0.81092    
 0.80950     0.80914     0.80959     0.81093     0.81369     0.81865     0.82649     0.83784     0.81496     0.83781    
 0.86517     0.89643     0.93067     0.96678      1.0032      1.0378      1.0688      1.0943      1.1125      1.1219    
  1.1218      1.1124      1.0944      1.0689      1.0378      1.0031     0.96686     0.93077     0.89640     0.86512    
 0.83784     0.81495     0.79660     0.78272     0.77282     0.76613     0.76203     0.76014     0.76020     0.76209    
 0.76609     0.77281     0.78287     0.79677     0.77176     0.79669     0.82645     0.86047     0.89784     0.93741    
 0.97773      1.0169      1.0528      1.0834      1.1070      1.1219      1.1269      1.1218      1.1070      1.0835    
  1.0528      1.0168     0.97770     0.93748     0.89783     0.86040     0.82646     0.79677     0.77171     0.75150    
 0.73603     0.72481     0.71722     0.71287     0.71152     0.71297     0.71725     0.72479     0.73612     0.75167    
 0.72544     0.75160     0.78282     0.81869     0.85829     0.90049     0.94391     0.98676      1.0269      1.0623    
  1.0911      1.1114      1.1218      1.1218      1.1113      1.0911      1.0624      1.0269     0.98668     0.94393    
 0.90051     0.85819     0.81860     0.78288     0.75166     0.72537     0.70420     0.68801     0.67632     0.66876    
 0.66511     0.66518     0.66886     0.67632     0.68801     0.70431     0.67773     0.70429     0.73610     0.77286    
 0.81379     0.85773     0.90335     0.94900     0.99268      1.0322      1.0657      1.0911      1.1071      1.1124    
  1.1069      1.0911      1.0657      1.0322     0.99262     0.94901     0.90340     0.85768     0.81364     0.77279    
 0.73613     0.70427     0.67764     0.65638     0.64027     0.62899     0.62234     0.62021     0.62244     0.62902    
 0.64023     0.65640     0.63025     0.65643     0.68803     0.72483     0.76617     0.81099     0.85794     0.90550    
 0.95179     0.99471      1.0322      1.0624      1.0835      1.0944      1.0943      1.0834      1.0623      1.0322    
 0.99466     0.95176     0.90555     0.85797     0.81090     0.76605     0.72478     0.68800     0.65634     0.63018    
 0.60958     0.59434     0.58428     0.57933     0.57938     0.58434     0.59431     0.60955     0.58456     0.60960    
 0.64028     0.67635     0.71728     0.76212     0.80961     0.85825     0.90632     0.95179     0.99261      1.0268    
  1.0528      1.0689      1.0744      1.0689      1.0528      1.0269     0.99259     0.95171     0.90627     0.85826    
 0.80959     0.76205     0.71723     0.67632     0.64020     0.60949     0.58452     0.56528     0.55163     0.54351    
 0.54084     0.54356     0.55164     0.56525     0.54208     0.56529     0.59436     0.62903     0.66884     0.71296    
 0.76022     0.80920     0.85828     0.90556     0.94902     0.98668      1.0168      1.0378      1.0486      1.0486    
  1.0378      1.0169     0.98671     0.94894     0.90543     0.85819     0.80915     0.76017     0.71293     0.66884    
 0.62901     0.59427     0.56521     0.54206     0.52482     0.51339     0.50772     0.50775     0.51342     0.52482    
 0.50405     0.52484     0.55167     0.58434     0.62242     0.66518     0.71155     0.76020     0.80959     0.85799    
 0.90344     0.94397     0.97771      1.0031      1.0189      1.0242      1.0189      1.0031     0.97774     0.94391    
 0.90332     0.85787     0.80950     0.76011     0.71147     0.66516     0.62243     0.58431     0.55161     0.52479    
 0.50404     0.48932     0.48055     0.47766     0.48058     0.48934     0.47142     0.48934     0.51343     0.54356    
 0.57939     0.62025     0.66519     0.71295     0.76207     0.81094     0.85774     0.90056     0.93749     0.96683    
 0.98720     0.99762     0.99760     0.98716     0.96679     0.93743     0.90049     0.85768     0.81089     0.76199    
 0.71283     0.66508     0.62020     0.57936     0.54353     0.51339     0.48932     0.47140     0.45957     0.45370    
 0.45372     0.45959     0.44478     0.45959     0.48058     0.50775     0.54087     0.57939     0.62244     0.66887    
 0.71728     0.76612     0.81372     0.85824     0.89784     0.93073     0.95538     0.97063     0.97576     0.97056    
 0.95529     0.93064     0.89777     0.85821     0.81371     0.76610     0.71720     0.66875     0.62233     0.57931    
 0.54082     0.50772     0.48056     0.45958     0.44476     0.43597     0.43307     0.43599     0.42435     0.43599    
 0.45372     0.47767     0.50775     0.54355     0.58434     0.62906     0.67640     0.72487     0.77286     0.81863    
 0.86039     0.89636     0.92492     0.94473     0.95486     0.95483     0.94468     0.92486     0.89630     0.86033    
 0.81857     0.77280     0.72481     0.67632     0.62897     0.58426     0.54348     0.50769     0.47763     0.45370    
 0.43598     0.42434     0.41859     0.41860     0.41006     0.41860     0.43308     0.45372     0.48058     0.51342    
 0.55165     0.59434     0.64028     0.68808     0.73617     0.78288     0.82645     0.86511     0.89719     0.92124    
 0.93613     0.94118     0.93614     0.92125     0.89718     0.86504     0.82632     0.78272     0.73604     0.68800    
 0.64023     0.59430     0.55160     0.51336     0.48053     0.45368     0.43306     0.41859     0.41006     0.40724    
 0.40166     0.40725     0.41860     0.43599     0.45960     0.48935     0.52484     0.56527     0.60956     0.65639    
 0.70429     0.75166     0.79678     0.83787     0.87320     0.90120     0.92062     0.93056     0.93057     0.92064    
 0.90121     0.87315     0.83775     0.79661     0.75149     0.70416     0.65632     0.60952     0.56524     0.52479    
 0.48930     0.45955     0.43596     0.41858     0.40724     0.40166     0.40724     0.41023     0.41929     0.43460    
 0.45637     0.48461     0.51905     0.55906     0.60365     0.65158     0.70143     0.75162     0.80043     0.84601    
 0.88648     0.92004     0.94517     0.96072     0.96597     0.96070     0.94513     0.91998     0.88640     0.84592    
 0.80033     0.75152     0.70133     0.65150     0.60358     0.55900     0.51900     0.48456     0.45633     0.43458    
 0.41927     0.41023     0.41023     0.41023     0.41674     0.42987     0.44979     0.47657     0.51004     0.54971    
 0.59472     0.64389     0.69582     0.74895     0.80158     0.85184     0.89775     0.93734     0.96877     0.99057    
  1.0017      1.0017     0.99049     0.96866     0.93724     0.89770     0.85182     0.80156     0.74889     0.69571    
 0.64376     0.59461     0.54964     0.51000     0.47654     0.44977     0.42985     0.41673     0.41928     0.41577    
 0.41928     0.42987     0.44763     0.47263     0.50478     0.54370     0.58869     0.63870     0.69241     0.74826    
 0.80452     0.85931     0.91060     0.95629     0.99432      1.0229      1.0406      1.0466      1.0405      1.0228    
 0.99421     0.95621     0.91056     0.85928     0.80446     0.74816     0.69229     0.63860     0.58861     0.54365    
 0.50475     0.47261     0.44761     0.42985     0.43458     0.42701     0.42701     0.43459     0.44979     0.47264    
 0.50306     0.54079     0.58524     0.63555     0.69050     0.74864     0.80825     0.86737     0.92392     0.97568    
  1.0204      1.0561      1.0809      1.0936      1.0936      1.0809      1.0560      1.0204     0.97559     0.92381    
 0.86725     0.80814     0.74856     0.69045     0.63550     0.58520     0.54075     0.50303     0.47260     0.44976    
 0.45633     0.44421     0.44017     0.44421     0.45635     0.47657     0.50479     0.54080     0.58415     0.63410    
 0.68961     0.74936     0.81172     0.87476     0.93629     0.99399      1.0455      1.0883      1.1206      1.1407    
  1.1475      1.1407      1.1207      1.0884      1.0454     0.99386     0.93613     0.87461     0.81164     0.74933    
 0.68959     0.63406     0.58410     0.54075     0.50475     0.47653     0.48455     0.46754     0.45902     0.45901    
 0.46754     0.48458     0.51003     0.54370     0.58527     0.63413     0.68940     0.74991     0.81417     0.88035    
 0.94628      1.0095      1.0675      1.1177      1.1577      1.1856      1.1999      1.1999      1.1856      1.1577    
  1.1177      1.0675      1.0094     0.94616     0.88027     0.81414     0.74988     0.68934     0.63406     0.58521    
 0.54366     0.50999     0.51898     0.49693     0.48366     0.47921     0.48364     0.49695     0.51901     0.54967    
 0.58866     0.63557     0.68968     0.74996     0.81510     0.88341     0.95278      1.0208      1.0848      1.1420    
  1.1897      1.2257      1.2480      1.2556      1.2480      1.2256      1.1897      1.1419      1.0848      1.0208    
 0.95273     0.88336     0.81505     0.74987     0.68957     0.63550     0.58864     0.54964     0.55897     0.53199    
 0.51392     0.50484     0.50482     0.51391     0.53204     0.55902     0.59463     0.63862     0.69049     0.74941    
 0.81423     0.88345     0.95509      1.0268      1.0958      1.1593      1.2144      1.2585      1.2892      1.3050    
  1.3050      1.2891      1.2584      1.2144      1.1593      1.0958      1.0267     0.95501     0.88338     0.81415    
 0.74930     0.69042     0.63862     0.59464     0.60358     0.57198     0.54929     0.53561     0.53102     0.53558    
 0.54932     0.57206     0.60361     0.64378     0.69230     0.74858     0.81169     0.88035     0.95283      1.0268    
  1.0996      1.1683      1.2300      1.2817      1.3207      1.3450      1.3533      1.3451      1.3207      1.2817    
  1.2300      1.1684      1.0996      1.0267     0.95275     0.88033     0.81164     0.74851     0.69229     0.64381    
 0.65154     0.61583     0.58891     0.57092     0.56188     0.56184     0.57089     0.58899     0.61593     0.65155    
 0.69575     0.74817     0.80814     0.87463     0.94621      1.0208      1.0958      1.1684      1.2354      1.2938    
  1.3406      1.3733      1.3902      1.3902      1.3734      1.3406      1.2938      1.2354      1.1683      1.0957    
  1.0207     0.94622     0.87467     0.80809     0.74812     0.69575     0.70141     0.66226     0.63168     0.60983    
 0.59671     0.59228     0.59664     0.60984     0.63179     0.66232     0.70141     0.74896     0.80450     0.86726    
 0.93612      1.0094      1.0848      1.1593      1.2301      1.2938      1.3475      1.3880      1.4133      1.4219    
  1.4134      1.3880      1.3474      1.2938      1.2301      1.1593      1.0847      1.0094     0.93621     0.86725    
 0.80438     0.74889     0.75158     0.70979     0.67628     0.65120     0.63454     0.62618     0.62612     0.63448    
 0.65127     0.67636     0.70977     0.75159     0.80164     0.85934     0.92383     0.99385      1.0674      1.1419    
  1.2144      1.2817      1.3407      1.3881      1.4212      1.4383      1.4384      1.4213      1.3880      1.3406    
  1.2818      1.2144      1.1419      1.0674     0.99392     0.92387     0.85921     0.80149     0.80033     0.75681    
 0.72124     0.69370     0.67419     0.66254     0.65861     0.66247     0.67423     0.69382     0.72126     0.75674    
 0.80038     0.85189     0.91062     0.97562      1.0454      1.1176      1.1896      1.2584      1.3207      1.3734    
  1.4134      1.4384      1.4469      1.4384      1.4133      1.3733      1.3207      1.2585      1.1897      1.1176    
  1.0454     0.97568     0.91055     0.85173     0.84586     0.80161     0.76497     0.73591     0.71437     0.70019    
 0.69310     0.69305     0.70017     0.71450     0.73603     0.76493     0.80155     0.84594     0.89773     0.95624    
  1.0204      1.0884      1.1577      1.2256      1.2891      1.3450      1.3902      1.4220      1.4384      1.4385    
  1.4220      1.3901      1.3450      1.2892      1.2257      1.1576      1.0883      1.0204     0.95627     0.89764    
 0.88632     0.84242     0.80576     0.77622     0.75363     0.73781     0.72844     0.72528     0.72838     0.73787    
 0.75381     0.77630     0.80573     0.84244     0.88640     0.93723     0.99421      1.0560      1.1207      1.1856    
  1.2480      1.3049      1.3533      1.3902      1.4133      1.4213      1.4134      1.3902      1.3532      1.3049    
  1.2481      1.1856      1.1206      1.0560     0.99430     0.93724     0.91992     0.87752     0.84192     0.81298    
 0.79043     0.77400     0.76332     0.75802     0.75796     0.76327     0.77409     0.79057     0.81302     0.84195    
 0.87763     0.91998     0.96863      1.0227      1.0808      1.1407      1.1998      1.2556      1.3050      1.3450    
  1.3733      1.3880      1.3880      1.3734      1.3450      1.3049      1.2556      1.1999      1.1407      1.0808    
  1.0228     0.96871     0.94513     0.90537     0.87186     0.84458     0.82316     0.80721     0.79630     0.78995    
 0.78781     0.78986     0.79629     0.80729     0.82322     0.84460     0.87196     0.90550     0.94514     0.99045    
  1.0405      1.0935      1.1474      1.1998      1.2480      1.2892      1.3207      1.3406      1.3474      1.3406    
  1.3207      1.2891      1.2480      1.1999      1.1475      1.0935      1.0405     0.99056     0.96074     0.92468    
 0.89426     0.86960     0.85033     0.83593     0.82587     0.81958     0.81654     0.81650     0.81954     0.82592    
 0.83598     0.85032     0.86961     0.89438     0.92479     0.96072      1.0017      1.0465      1.0935      1.1406    
  1.1855      1.2257      1.2585      1.2817      1.2938      1.2938      1.2817      1.2584      1.2256      1.1856    
  1.1407      1.0935      1.0465      1.0017     0.96603     0.93458     0.90812     0.88692     0.87068     0.85880    
 0.85061     0.84546     0.84266     0.84175     0.84264     0.84551     0.85071     0.85881     0.87063     0.88694    
 0.90822     0.93462     0.96600      1.0017      1.0405      1.0808      1.1205      1.1576      1.1897      1.2144    
  1.2301      1.2355      1.2301      1.2144      1.1896      1.1577      1.1207      1.0809      1.0405      1.0017    
 0.96076     0.93461     0.91282     0.89576     0.88325     0.87469     0.86929     0.86625     0.86478     0.86419    
 0.86417     0.86479     0.86635     0.86938     0.87469     0.88324     0.89582     0.91288     0.93458     0.96072    
 0.99056      1.0228      1.0560      1.0882      1.1176      1.1419      1.1593      1.1684      1.1684      1.1593    
  1.1419      1.1176      1.0884      1.0561      1.0228     0.99053     0.94517     0.92477     0.90817     0.89575    
 0.88749     0.88283     0.88091     0.88082     0.88164     0.88250     0.88280     0.88243     0.88164     0.88090    
 0.88096     0.88282     0.88754     0.89584     0.90816     0.92468     0.94514     0.96875     0.99429      1.0204    
  1.0454      1.0674      1.0847      1.0957      1.0996      1.0958      1.0848      1.0675      1.0455      1.0205    
 0.99431     0.96871     0.91999     0.90548     0.89435     0.88691     0.88321     0.88282     0.88485     0.88831    
 0.89219     0.89547     0.89727     0.89719     0.89535     0.89218     0.88835     0.88485     0.88284     0.88333    
 0.88699     0.89429     0.90538     0.91997     0.93728     0.95626     0.97566     0.99396      1.0095      1.0207    
  1.0267      1.0268      1.0208      1.0095     0.99395     0.97574     0.95634     0.93729     0.88640     0.87762    
 0.87196     0.86962     0.87064     0.87467     0.88093     0.88831     0.89575     0.90214     0.90643     0.90787    
 0.90631     0.90208     0.89578     0.88830     0.88088     0.87473     0.87077     0.86966     0.87188     0.87757    
 0.88639     0.89766     0.91054     0.92389     0.93628     0.94625     0.95275     0.95507     0.95284     0.94627    
 0.93621     0.92393     0.91069     0.89776     0.84595     0.84247     0.84199     0.84464     0.85033     0.85880    
 0.86935     0.88086     0.89214     0.90207     0.90951     0.91344     0.91339     0.90947     0.90214     0.89219    
 0.88078     0.86928     0.85887     0.85042     0.84461     0.84195     0.84250     0.84593     0.85173     0.85921    
 0.86731     0.87473     0.88034     0.88341     0.88347     0.88040     0.87469     0.86731     0.85937     0.85190    
 0.80043     0.80163     0.80581     0.81307     0.82322     0.83596     0.85069     0.86634     0.88164     0.89536    
 0.90632     0.91340     0.91581     0.91337     0.90639     0.89548     0.88164     0.86623     0.85065     0.83602    
 0.82322     0.81300     0.80582     0.80170     0.80038     0.80149     0.80442     0.80818     0.81169     0.81417    
 0.81513     0.81427     0.81172     0.80816     0.80452     0.80166     0.75167     0.75683     0.76501     0.77633    
 0.79056     0.80727     0.82591     0.84553     0.86484     0.88249     0.89722     0.90785     0.91337     0.91333    
 0.90781     0.89729     0.88255     0.86477     0.84545     0.82593     0.80728     0.79045     0.77625     0.76506    
 0.75689     0.75160     0.74890     0.74819     0.74858     0.74933     0.74991     0.74998     0.74942     0.74859    
 0.74820     0.74901     0.70150     0.70985     0.72131     0.73604     0.75380     0.77409     0.79631     0.81958    
 0.84269     0.86423     0.88284     0.89728     0.90639     0.90945     0.90628     0.89722     0.88287     0.86421    
 0.84263     0.81959     0.79636     0.77404     0.75365     0.73596     0.72133     0.70983     0.70142     0.69580    
 0.69237     0.69047     0.68958     0.68940     0.68968     0.69051     0.69234     0.69582     0.65162     0.66236    
 0.67638     0.69382     0.71452     0.73792     0.76335     0.78993     0.81653     0.84176     0.86419     0.88250    
 0.89549     0.90217     0.90210     0.89538     0.88248     0.86419     0.84171     0.81650     0.78997     0.76337    
 0.73783     0.71439     0.69377     0.67634     0.66228     0.65156     0.64387     0.63868     0.63553     0.63408    
 0.63413     0.63558     0.63866     0.64385     0.60365     0.61595     0.63179     0.65129     0.67428     0.70026    
 0.72849     0.75806     0.78786     0.81653     0.84262     0.86474     0.88164     0.89224     0.89582     0.89220    
 0.88164     0.86478     0.84260     0.81645     0.78781     0.75806     0.72847     0.70019     0.67423     0.65125    
 0.63171     0.61584     0.60361     0.59470     0.58868     0.58523     0.58415     0.58528     0.58869     0.59467    
 0.55904     0.57208     0.58901     0.60989     0.63457     0.66257     0.69315     0.72535     0.75808     0.78999    
 0.81960     0.84545     0.86624     0.88082     0.88833     0.88834     0.88086     0.86631     0.84548     0.81952    
 0.78986     0.75799     0.72530     0.69310     0.66254     0.63457     0.60987     0.58892     0.57199     0.55901    
 0.54969     0.54369     0.54079     0.54081     0.54372     0.54969     0.51903     0.53207     0.54936     0.57097    
 0.59673     0.62621     0.65867     0.69313     0.72847     0.76339     0.79640     0.82597     0.85067     0.86929    
 0.88087     0.88480     0.88089     0.86933     0.85069     0.82592     0.79628     0.76327     0.72837     0.69303    
 0.65859     0.62618     0.59673     0.57094     0.54930     0.53202     0.51901     0.51002     0.50477     0.50307    
 0.50480     0.51004     0.48460     0.49698     0.51397     0.53566     0.56192     0.59234     0.62622     0.66256    
 0.70021     0.73788     0.77410     0.80733     0.83604     0.85885     0.87468     0.88278     0.88276     0.87464    
 0.85880     0.83598     0.80727     0.77405     0.73782     0.70013     0.66244     0.62611     0.59229     0.56189    