unknown system                          
   1.00000000000000     
     3.190316    0.000000    0.000000
    -1.595158    2.762894    0.000000
     0.000000    0.000000   14.879004
   Mo   S 
     2     4
Direct
  0.333333  0.666667  0.250000
  0.666667  0.333333  0.750000
  0.333333  0.666667  0.855174
  0.666667  0.333333  0.144826
  0.666666  0.333333  0.355174
  0.333334  0.666667  0.644826
 
   36   36  168
 0.39888907627E+00 0.40165816823E+00 0.41006138570E+00 0.42434886602E+00 0.44477583960E+00
 0.47142767699E+00 0.50407504567E+00 0.54210707441E+00 0.58455891956E+00 0.63020482008E+00
 0.67765242617E+00 0.72538552791E+00 0.77176189970E+00 0.81502655878E+00 0.85339233684E+00
 0.88517969009E+00 0.90896138109E+00 0.92366619663E+00 0.92863492354E+00 0.92364526023E+00
 0.90891931922E+00 0.88511717189E+00 0.85331212794E+00 0.81493389803E+00 0.77166357503E+00
 0.72528814798E+00 0.67756090969E+00 0.63012187796E+00 0.58448556754E+00 0.54204359382E+00
 0.50402169771E+00 0.47138481885E+00 0.44474356704E+00 0.42432661103E+00 0.41004788420E+00
 0.40165192356E+00 0.40165274845E+00 0.40165514060E+00 0.40724275424E+00 0.41859790522E+00
 0.43598280249E+00 0.45958181807E+00 0.48933865627E+00 0.52484181325E+00 0.56529792026E+00
 0.60959363357E+00 0.65639966928E+00 0.70425285167E+00 0.75158220908E+00 0.79670260607E+00
 0.83783855826E+00 0.87322433656E+00 0.90126274922E+00 0.92067441194E+00 0.93058469666E+00
 0.93055441339E+00 0.92059068021E+00 0.90115131772E+00 0.87312652492E+00 0.83778449308E+00
 0.79668358001E+00 0.75155760467E+00 0.70418752491E+00 0.65629243115E+00 0.60947251005E+00
 0.56519477900E+00 0.52477164439E+00 0.48929628326E+00 0.45955340735E+00 0.43595987861E+00
 0.41858092046E+00 0.40723383868E+00 0.41005041855E+00 0.40723715456E+00 0.41005581728E+00
 0.41859723786E+00 0.43307565686E+00 0.45370696867E+00 0.48055617744E+00 0.51339880346E+00
 0.55164563311E+00 0.59435400109E+00 0.64030134728E+00 0.68807252884E+00 0.73612379573E+00
 0.78281109831E+00 0.82640087314E+00 0.86511244424E+00 0.89723348247E+00 0.92128509683E+00
 0.93615874651E+00 0.94117812029E+00 0.93611449144E+00 0.92119998112E+00 0.89713189672E+00
 0.86503227741E+00 0.82635661128E+00 0.78277725996E+00 0.73606379624E+00 0.68797554353E+00
 0.64018668096E+00 0.59424997827E+00 0.55157033961E+00 0.51335273356E+00 0.48052614572E+00
 0.45368005487E+00 0.43305111742E+00 0.41858174491E+00 0.42432979389E+00 0.41858642848E+00
 0.41858737333E+00 0.42433964294E+00 0.43598404392E+00 0.45371374243E+00 0.47765291968E+00
 0.50771906502E+00 0.54351541098E+00 0.58429975453E+00 0.62902171239E+00 0.67638054304E+00
 0.72487897114E+00 0.77287765606E+00 0.81864442556E+00 0.86039398756E+00 0.89635426890E+00
 0.92489695008E+00 0.94469640673E+00 0.95483642581E+00 0.95484392689E+00 0.94470204607E+00
 0.92487264555E+00 0.89629205207E+00 0.86030228145E+00 0.81853048552E+00 0.77275206257E+00
 0.72476427014E+00 0.67629542360E+00 0.62896298832E+00 0.58425291131E+00 0.54347388207E+00
 0.50768191385E+00 0.47761592342E+00 0.45367687157E+00 0.43595751977E+00 0.44474356705E+00
 0.43596729364E+00 0.43305901821E+00 0.43596629902E+00 0.44475983349E+00 0.45958275874E+00
 0.48056969017E+00 0.50773469429E+00 0.54084407928E+00 0.57934262935E+00 0.62236753553E+00
 0.66879342893E+00 0.71725315820E+00 0.76616069989E+00 0.81377393989E+00 0.85827174075E+00
 0.89782033864E+00 0.93066834537E+00 0.95529623709E+00 0.97055786352E+00 0.97574518143E+00
 0.97060091892E+00 0.95533969160E+00 0.93066907094E+00 0.89775879124E+00 0.85814735780E+00
 0.81361123252E+00 0.76601490208E+00 0.71717201161E+00 0.66876817590E+00 0.62234872354E+00
 0.57930219109E+00 0.54079304286E+00 0.50768646507E+00 0.48052361135E+00 0.45954484838E+00
 0.47137559008E+00 0.45956008332E+00 0.45369401509E+00 0.45368739690E+00 0.45955916905E+00
 0.47140130817E+00 0.48932576023E+00 0.51340268620E+00 0.54354459378E+00 0.57938008450E+00
 0.62022104302E+00 0.66511434364E+00 0.71286909234E+00 0.76203764127E+00 0.81093611628E+00
 0.85773055971E+00 0.90052588353E+00 0.93744888304E+00 0.96678383950E+00 0.98714318715E+00
 0.99757525143E+00 0.99758746858E+00 0.98716072225E+00 0.96677958695E+00 0.93741960228E+00
 0.90047113353E+00 0.85763994121E+00 0.81082613071E+00 0.76195808733E+00 0.71283812870E+00
 0.66508727479E+00 0.62015749482E+00 0.57930069642E+00 0.54348629462E+00 0.51336196276E+00
 0.48928622954E+00 0.50400055679E+00 0.48929808868E+00 0.48054932167E+00 0.47763502374E+00
 0.48053564159E+00 0.48931068600E+00 0.50403767246E+00 0.52479559571E+00 0.55161366794E+00
 0.58432351222E+00 0.62243820938E+00 0.66517041695E+00 0.71149492888E+00 0.76013415203E+00
 0.80952934827E+00 0.85790063189E+00 0.90334760391E+00 0.94391984954E+00 0.97772161239E+00
 0.10031037354E+01 0.10188363622E+01 0.10241636163E+01 0.10188127529E+01 0.10030406549E+01
 0.97764743902E+00 0.94388630431E+00 0.90334689467E+00 0.85787883618E+00 0.80947677439E+00
 0.76008366525E+00 0.71144099406E+00 0.66507804548E+00 0.62232758263E+00 0.58425609472E+00
 0.55159401486E+00 0.52477246872E+00 0.54202082756E+00 0.52476727271E+00 0.51338265313E+00
 0.50771693870E+00 0.50770101083E+00 0.51337848147E+00 0.52481405343E+00 0.54206450154E+00
 0.56521134281E+00 0.59427247860E+00 0.62900900303E+00 0.66884544915E+00 0.71293404797E+00
 0.76017579534E+00 0.80916329479E+00 0.85820424344E+00 0.90544290000E+00 0.94893444319E+00
 0.98668431999E+00 0.10168083673E+01 0.10377770756E+01 0.10485422663E+01 0.10485390755E+01
 0.10377344833E+01 0.10167111628E+01 0.98660838783E+00 0.94893721624E+00 0.90546441295E+00
 0.85816749914E+00 0.80908773806E+00 0.76010643095E+00 0.71285166495E+00 0.66873767555E+00
 0.62893703950E+00 0.59427274408E+00 0.56521836896E+00 0.58448556718E+00 0.56519086795E+00
 0.55159557300E+00 0.54352271337E+00 0.54082001442E+00 0.54349362181E+00 0.55162781809E+00
 0.56527781322E+00 0.58452231847E+00 0.60949251207E+00 0.64019324943E+00 0.67631073284E+00
 0.71722048275E+00 0.76204513836E+00 0.80958268677E+00 0.85825935720E+00 0.90626474629E+00
 0.95169637338E+00 0.99256198743E+00 0.10268319763E+01 0.10526969864E+01 0.10688111195E+01
 0.10743214119E+01 0.10688638433E+01 0.10526967645E+01 0.10267682532E+01 0.99252988125E+00
 0.95170313877E+00 0.90621540683E+00 0.85814462723E+00 0.80949791564E+00 0.76201295425E+00
 0.71717201124E+00 0.67624660255E+00 0.64018414694E+00 0.60951732332E+00 0.63016434074E+00
 0.60948147469E+00 0.59425474055E+00 0.58429608573E+00 0.57934745384E+00 0.57931011006E+00
 0.58427239443E+00 0.59433588556E+00 0.60958187561E+00 0.63018432539E+00 0.65633597429E+00
 0.68799014047E+00 0.72476457246E+00 0.76602991816E+00 0.81087333209E+00 0.85794768226E+00
 0.90552568721E+00 0.95173417526E+00 0.99463185384E+00 0.10321546564E+01 0.10622746327E+01
 0.10833431223E+01 0.10942402942E+01 0.10943154585E+01 0.10834586708E+01 0.10622928318E+01
 0.10321222253E+01 0.99463063135E+00 0.95169996339E+00 0.90539918437E+00 0.85783637392E+00
 0.81087782302E+00 0.76606509894E+00 0.72472499036E+00 0.68793308115E+00 0.65633406973E+00
 0.67763431425E+00 0.65632007816E+00 0.64016364361E+00 0.62897289402E+00 0.62240383653E+00
 0.62018876348E+00 0.62233301337E+00 0.62898530073E+00 0.64027141101E+00 0.65638363626E+00
 0.67764343560E+00 0.70426235909E+00 0.73610621364E+00 0.77275897265E+00 0.81360240991E+00
 0.85763879460E+00 0.90336340020E+00 0.94896983411E+00 0.99257561965E+00 0.10321750169E+01
 0.10656305640E+01 0.10909983656E+01 0.11068601876E+01 0.11123252765E+01 0.11069760371E+01
 0.10910540188E+01 0.10655894726E+01 0.10321646883E+01 0.99260328548E+00 0.94891444978E+00
 0.90325234917E+00 0.85763071262E+00 0.81368463709E+00 0.77275524522E+00 0.73599292599E+00
 0.70418834996E+00 0.72534721303E+00 0.70422216058E+00 0.68793671801E+00 0.67626267885E+00
 0.66881426491E+00 0.66515283259E+00 0.66509687723E+00 0.66876246388E+00 0.67633266323E+00
 0.68801935299E+00 0.70421307569E+00 0.72536653360E+00 0.75164565586E+00 0.78284338935E+00
 0.81855511067E+00 0.85813603617E+00 0.90044716471E+00 0.94387526252E+00 0.98662740775E+00
 0.10268183851E+01 0.10623524145E+01 0.10910846048E+01 0.11112578741E+01 0.11217028587E+01
 0.11217479566E+01 0.11112848500E+01 0.10909949539E+01 0.10622762304E+01 0.10268729564E+01
 0.98669021782E+00 0.94382723868E+00 0.90040283977E+00 0.85819868876E+00 0.81858636668E+00
 0.78271819443E+00 0.75149936461E+00 0.77166357578E+00 0.75157628940E+00 0.73603679827E+00
 0.72471586500E+00 0.71719779576E+00 0.71292884737E+00 0.71149536207E+00 0.71286410244E+00
 0.71723073668E+00 0.72483044010E+00 0.73605443583E+00 0.75151278966E+00 0.77171265386E+00
 0.79675292562E+00 0.82642205919E+00 0.86033914566E+00 0.89776046457E+00 0.93739891973E+00
 0.97762398583E+00 0.10166986554E+01 0.10526985681E+01 0.10834698700E+01 0.11069882404E+01
 0.11217546468E+01 0.11268266896E+01 0.11217776260E+01 0.11069026317E+01 0.10833274736E+01
 0.10526967656E+01 0.10168226635E+01 0.97766857913E+00 0.93734009655E+00 0.89775879197E+00
 0.86038783303E+00 0.82635407613E+00 0.79659402063E+00 0.81487143292E+00 0.79667306268E+00
 0.78278623120E+00 0.77273518748E+00 0.76602786448E+00 0.76204479290E+00 0.76016855860E+00
 0.76012676475E+00 0.76203704050E+00 0.76615852689E+00 0.77285374828E+00 0.78275357014E+00
 0.79662229815E+00 0.81494894012E+00 0.83781456522E+00 0.86507079887E+00 0.89632172979E+00
 0.93067738843E+00 0.96676372242E+00 0.10030028271E+01 0.10376821008E+01 0.10688166748E+01
 0.10943033081E+01 0.11123663108E+01 0.11217809162E+01 0.11218243898E+01 0.11123877414E+01
 0.10942105289E+01 0.10687557400E+01 0.10377741843E+01 0.10031031205E+01 0.96672634960E+00
 0.93061433992E+00 0.89635770192E+00 0.86509474289E+00 0.83772120200E+00 0.85322914997E+00
 0.83775458480E+00 0.82640302901E+00 0.81857146790E+00 0.81362647313E+00 0.81087697892E+00
 0.80955789517E+00 0.80912561944E+00 0.80950443517E+00 0.81093965208E+00 0.81379794898E+00
 0.81866070646E+00 0.82638175404E+00 0.83777863538E+00 0.85331086521E+00 0.87311985424E+00
 0.89713021543E+00 0.92487357011E+00 0.95533584504E+00 0.98714452278E+00 0.10187787386E+01
 0.10484920512E+01 0.10742838330E+01 0.10942408419E+01 0.11069052632E+01 0.11113169403E+01
 0.11070165701E+01 0.10942827558E+01 0.10742384336E+01 0.10485163103E+01 0.10188745899E+01
 0.98715149234E+00 0.95525671365E+00 0.92487582950E+00 0.89721740897E+00 0.87312734865E+00
 0.88506448617E+00 0.87310041259E+00 0.86509280771E+00 0.86038189247E+00 0.85816811003E+00
 0.85764068733E+00 0.85792087749E+00 0.85821742199E+00 0.85816233705E+00 0.85787395880E+00
 0.85773273448E+00 0.85830417421E+00 0.86043702631E+00 0.86513462367E+00 0.87320502433E+00
 0.88512216764E+00 0.90112545141E+00 0.92116139120E+00 0.94466445731E+00 0.97057409073E+00
 0.99757605948E+00 0.10241640328E+01 0.10485447357E+01 0.10688068926E+01 0.10833284499E+01
 0.10909728559E+01 0.10910510515E+01 0.10834382698E+01 0.10688040719E+01 0.10485123474E+01
 0.10242163014E+01 0.99763092370E+00 0.97054049912E+00 0.94464617832E+00 0.92125266633E+00
 0.90120482656E+00 0.90891931871E+00 0.90114447473E+00 0.89717492962E+00 0.89636317885E+00
 0.89777486496E+00 0.90043496634E+00 0.90334576072E+00 0.90552016427E+00 0.90626735646E+00
 0.90543737279E+00 0.90332999101E+00 0.90051380703E+00 0.89783495746E+00 0.89639588774E+00
 0.89727815334E+00 0.90128157664E+00 0.90894031176E+00 0.92056334406E+00 0.93605434797E+00
 0.95477449359E+00 0.97569395374E+00 0.99756318104E+00 0.10188617170E+01 0.10378101300E+01
 0.10526985668E+01 0.10622277853E+01 0.10655571599E+01 0.10622977340E+01 0.10526969863E+01
 0.10377342777E+01 0.10188575035E+01 0.99765004428E+00 0.97574518091E+00 0.95477517987E+00
 0.93611195753E+00 0.92065541940E+00 0.92368687021E+00 0.92060191571E+00 0.92120622278E+00
 0.92489968172E+00 0.93067441314E+00 0.93738139784E+00 0.94387253354E+00 0.94900213228E+00
 0.95179528480E+00 0.95175759206E+00 0.94896677692E+00 0.94391673379E+00 0.93743082583E+00
 0.93066522409E+00 0.92492325393E+00 0.92132988767E+00 0.92071254772E+00 0.92367639004E+00
 0.93053641605E+00 0.94111628292E+00 0.95475053950E+00 0.97047979616E+00 0.98710291387E+00
 0.10031069038E+01 0.10168289999E+01 0.10268358395E+01 0.10321334067E+01 0.10321538035E+01
 0.10268279481E+01 0.10167439916E+01 0.10030621259E+01 0.98719402653E+00 0.97060720760E+00
 0.95479799891E+00 0.94113651065E+00 0.93059519905E+00 0.92869128251E+00 0.93057410641E+00
 0.93608658952E+00 0.94468175863E+00 0.95534277395E+00 0.96677732065E+00 0.97765921621E+00
 0.98668525345E+00 0.99264657996E+00 0.99470647682E+00 0.99263304098E+00 0.98674215195E+00
 0.97775661396E+00 0.96679716293E+00 0.95530310505E+00 0.94471388495E+00 0.93619115334E+00
 0.93062232919E+00 0.92866300758E+00 0.93057802601E+00 0.93611070650E+00 0.94461177170E+00
 0.95519650809E+00 0.96670125726E+00 0.97768034560E+00 0.98668647288E+00 0.99259266521E+00
 0.99467431654E+00 0.99261834607E+00 0.98666155378E+00 0.97764411244E+00 0.96677461064E+00
 0.95535259608E+00 0.94469958963E+00 0.93610492182E+00 0.93058552143E+00 0.92370780621E+00
 0.93060405417E+00 0.94113662477E+00 0.95479652261E+00 0.97061265725E+00 0.98721282923E+00
 0.10030957113E+01 0.10167883151E+01 0.10268762343E+01 0.10322012065E+01 0.10321807256E+01
 0.10268897377E+01 0.10168983025E+01 0.10031970219E+01 0.98721156336E+00 0.97059625868E+00
 0.95485856799E+00 0.94119894161E+00 0.93058071950E+00 0.92367639069E+00 0.92067051779E+00
 0.92125568511E+00 0.92483195937E+00 0.93057331234E+00 0.93735179487E+00 0.94385780753E+00
 0.94892822467E+00 0.95173502879E+00 0.95178362114E+00 0.94899881819E+00 0.94387823935E+00
 0.93739804425E+00 0.93070222086E+00 0.92493537625E+00 0.92124348674E+00 0.92063362686E+00
 0.90896138152E+00 0.92068502914E+00 0.93613078087E+00 0.95478915187E+00 0.97576289032E+00
 0.99767960219E+00 0.10189029441E+01 0.10377934516E+01 0.10527626428E+01 0.10623617332E+01
 0.10656155812E+01 0.10622837825E+01 0.10527610041E+01 0.10378885976E+01 0.10189607232E+01
 0.99767869443E+00 0.97581389829E+00 0.95488252141E+00 0.93613479386E+00 0.92060537466E+00
 0.90894031270E+00 0.90124370012E+00 0.89721319289E+00 0.89631863184E+00 0.89776046426E+00
 0.90045366266E+00 0.90328999512E+00 0.90541766136E+00 0.90626474709E+00 0.90553122926E+00
 0.90336874432E+00 0.90046954923E+00 0.89782033907E+00 0.89641664903E+00 0.89723094761E+00
 0.90119636127E+00 0.88512700620E+00 0.90125558425E+00 0.92129132257E+00 0.94467649358E+00
 0.97056968793E+00 0.99766748117E+00 0.10242666316E+01 0.10485776198E+01 0.10688793015E+01
 0.10835147508E+01 0.10911212318E+01 0.10910349387E+01 0.10833878736E+01 0.10688736088E+01
 0.10486277256E+01 0.10242660955E+01 0.99769157361E+00 0.97069055329E+00 0.94476656889E+00
 0.92123559241E+00 0.90116332867E+00 0.88512216834E+00 0.87317253922E+00 0.86508058034E+00
 0.86037519626E+00 0.85824778575E+00 0.85769147825E+00 0.85785253408E+00 0.85816103515E+00
 0.85823416301E+00 0.85795331626E+00 0.85768710383E+00 0.85822679094E+00 0.86044985593E+00
 0.86516512850E+00 0.87317082696E+00 0.85330935890E+00 0.87319817502E+00 0.89727660699E+00
 0.92492451064E+00 0.95529942916E+00 0.98719523966E+00 0.10189265178E+01 0.10485806597E+01
 0.10743142246E+01 0.10943639008E+01 0.11070949127E+01 0.11113868236E+01 0.11069670116E+01
 0.10943009851E+01 0.10743517838E+01 0.10485750406E+01 0.10188777458E+01 0.98725317411E+00
 0.95544244197E+00 0.92496486284E+00 0.89719517496E+00 0.87315233978E+00 0.85331086518E+00
 0.83775209901E+00 0.82633908205E+00 0.81861417686E+00 0.81375879239E+00 0.81091579375E+00
 0.80949970850E+00 0.80914052963E+00 0.80959118524E+00 0.81092688636E+00 0.81369096196E+00
 0.81864760951E+00 0.82648638537E+00 0.83783938199E+00 0.81496409156E+00 0.83780850390E+00
 0.86517310194E+00 0.89642586683E+00 0.93067374066E+00 0.96678097778E+00 0.10031586216E+01
 0.10378359470E+01 0.10688264867E+01 0.10942887110E+01 0.11124680262E+01 0.11219004011E+01
 0.11218488700E+01 0.11124274216E+01 0.10943634512E+01 0.10688833894E+01 0.10377605674E+01
 0.10030929467E+01 0.96685963006E+00 0.93076929993E+00 0.89639898467E+00 0.86512484241E+00
 0.83784110146E+00 0.81494893921E+00 0.79660172396E+00 0.78272185918E+00 0.77282144002E+00
 0.76613484689E+00 0.76202830932E+00 0.76013609515E+00 0.76019661865E+00 0.76209087766E+00
 0.76609049858E+00 0.77281200705E+00 0.78287356504E+00 0.79676589618E+00 0.77176189889E+00
 0.79669188067E+00 0.82644735641E+00 0.86047381594E+00 0.89783637292E+00 0.93740992039E+00
 0.97773313284E+00 0.10168859149E+01 0.10527629236E+01 0.10833991092E+01 0.11069792031E+01
 0.11218555469E+01 0.11269012136E+01 0.11218226013E+01 0.11070499903E+01 0.10835292933E+01
 0.10527610029E+01 0.10167679570E+01 0.97770025573E+00 0.93747795171E+00 0.89783495717E+00
 0.86040097610E+00 0.82646473275E+00 0.79677349913E+00 0.77171265231E+00 0.75149785489E+00
 0.73603280983E+00 0.72481084555E+00 0.71722048231E+00 0.71286807832E+00 0.71151607054E+00
 0.71296705698E+00 0.71725315738E+00 0.72478705236E+00 0.73612126213E+00 0.75167012007E+00
 0.72544459343E+00 0.75160095090E+00 0.78282005740E+00 0.81868535608E+00 0.85829240255E+00
 0.90048949327E+00 0.94390596286E+00 0.98676178412E+00 0.10269402029E+01 0.10623433569E+01
 0.10910656465E+01 0.11113602534E+01 0.11218258765E+01 0.11217788693E+01 0.11113277592E+01
 0.10911466900E+01 0.10624084111E+01 0.10268722810E+01 0.98668308649E+00 0.94393418979E+00
 0.90050730847E+00 0.85819242366E+00 0.81860164206E+00 0.78287510287E+00 0.75166058967E+00
 0.72536653195E+00 0.70420329336E+00 0.68800674355E+00 0.67632416020E+00 0.66876361748E+00
 0.66511135194E+00 0.66518263902E+00 0.66886022853E+00 0.67632466017E+00 0.68801346371E+00
 0.70431109333E+00 0.67772583188E+00 0.70428768501E+00 0.73609673713E+00 0.77286065544E+00
 0.81378912662E+00 0.85773159236E+00 0.90334659632E+00 0.94899955373E+00 0.99267882414E+00
 0.10322333962E+01 0.10656565665E+01 0.10911247123E+01 0.11070526080E+01 0.11124055589E+01
 0.11069385291E+01 0.10910685481E+01 0.10656889874E+01 0.10322223350E+01 0.99261599426E+00
 0.94900838716E+00 0.90340339629E+00 0.85768004863E+00 0.81364156532E+00 0.77279128340E+00
 0.73612784235E+00 0.70427214057E+00 0.67764343444E+00 0.65637843727E+00 0.64026665481E+00
 0.62898623658E+00 0.62234366272E+00 0.62021181444E+00 0.62244094126E+00 0.62902489504E+00
 0.64023047587E+00 0.65640049434E+00 0.63024728362E+00 0.65642713583E+00 0.68803360082E+00
 0.72483057081E+00 0.76617369833E+00 0.81098708562E+00 0.85794284646E+00 0.90549847361E+00
 0.95178836139E+00 0.99470742669E+00 0.10321909328E+01 0.10623599597E+01 0.10835303087E+01
 0.10943936400E+01 0.10943214361E+01 0.10834196024E+01 0.10623386338E+01 0.10322020604E+01
 0.99466401321E+00 0.95175673893E+00 0.90554540049E+00 0.85796910654E+00 0.81089718742E+00
 0.76605359701E+00 0.72478416920E+00 0.68800275182E+00 0.65634117289E+00 0.63018432514E+00
 0.60958061379E+00 0.59433770742E+00 0.58428104811E+00 0.57932839192E+00 0.57937735880E+00
 0.58433903453E+00 0.59431153708E+00 0.60955199470E+00 0.58455891988E+00 0.60960205047E+00
 0.64027818765E+00 0.67634793113E+00 0.71727902973E+00 0.76212406878E+00 0.80961046942E+00
 0.85825417536E+00 0.90631646111E+00 0.95179153653E+00 0.99260541807E+00 0.10268354986E+01
 0.10527629247E+01 0.10689345926E+01 0.10743972021E+01 0.10688863467E+01 0.10527626427E+01
 0.10268802634E+01 0.99259022063E+00 0.95170803610E+00 0.90626735730E+00 0.85826066145E+00
 0.80958741278E+00 0.76205386690E+00 0.71723073626E+00 0.67631923686E+00 0.64019800610E+00
 0.60949377412E+00 0.58452231916E+00 0.56527974776E+00 0.55163480850E+00 0.54350818383E+00
 0.54084407960E+00 0.54355786680E+00 0.55164309840E+00 0.56525145666E+00 0.54208430835E+00
 0.56529383000E+00 0.59435870443E+00 0.62903169799E+00 0.66883955830E+00 0.71295966458E+00
 0.76021894992E+00 0.80920146959E+00 0.85827704801E+00 0.90556370371E+00 0.94902231960E+00
 0.98667995121E+00 0.10167744130E+01 0.10377962481E+01 0.10486034269E+01 0.10486075381E+01
 0.10378362486E+01 0.10168526914E+01 0.98670801960E+00 0.94893775538E+00 0.90543183412E+00
 0.85818750438E+00 0.80914838664E+00 0.76016646458E+00 0.71293007087E+00 0.66884429516E+00
 0.62900806660E+00 0.59427065572E+00 0.56520940900E+00 0.54206450281E+00 0.52481836231E+00
 0.51338914868E+00 0.50771966232E+00 0.50774501509E+00 0.51342156993E+00 0.52481822200E+00
 0.50405390348E+00 0.52483801025E+00 0.55167092480E+00 0.58434283149E+00 0.62242259105E+00
 0.66518022069E+00 0.71154934544E+00 0.76019618333E+00 0.80958932759E+00 0.85798531057E+00
 0.90344114425E+00 0.94396502787E+00 0.97771198990E+00 0.10030961549E+01 0.10188646821E+01
 0.10242139472E+01 0.10188818025E+01 0.10031373215E+01 0.97773671743E+00 0.94391414305E+00
 0.90332461810E+00 0.85786819239E+00 0.80949605944E+00 0.76010609300E+00 0.71147422068E+00
 0.66515594286E+00 0.62242756015E+00 0.58431485669E+00 0.55160667558E+00 0.52479128772E+00
 0.50403767373E+00 0.48931653092E+00 0.48054854799E+00 0.47765610308E+00 0.48057985397E+00
 0.48933948060E+00 0.47141844647E+00 0.48934110842E+00 0.51342881045E+00 0.54356404530E+00
 0.57938780708E+00 0.62025261769E+00 0.66518945066E+00 0.71294612781E+00 0.76206919958E+00
 0.81093539232E+00 0.85774082308E+00 0.90055778943E+00 0.93748942580E+00 0.96683421348E+00
 0.98720446908E+00 0.99762402610E+00 0.99760480868E+00 0.98716198976E+00 0.96678655112E+00
 0.93743223804E+00 0.90049129997E+00 0.85768414177E+00 0.81088620834E+00 0.76199155635E+00
 0.71283088242E+00 0.66508453812E+00 0.62019799421E+00 0.57936180313E+00 0.54353002948E+00
 0.51339201699E+00 0.48931991597E+00 0.47140130892E+00 0.45956579414E+00 0.45370132912E+00
 0.45371619874E+00 0.45959187253E+00 0.44477583958E+00 0.45958846273E+00 0.48057932469E+00
 0.50775394113E+00 0.54087106768E+00 0.57938930160E+00 0.62244373325E+00 0.66887006036E+00
 0.71727902938E+00 0.76612349879E+00 0.81371572091E+00 0.85824107302E+00 0.89783637371E+00
 0.93072847189E+00 0.95538240711E+00 0.97063010782E+00 0.97576288986E+00 0.97056331167E+00
 0.95528641499E+00 0.93064053914E+00 0.89777486545E+00 0.85821305974E+00 0.81370945111E+00
 0.76609806558E+00 0.71719779499E+00 0.66874746386E+00 0.62233043198E+00 0.57931272705E+00
 0.54082001476E+00 0.50771604110E+00 0.48055678252E+00 0.45957613381E+00 0.44475983346E+00
 0.43597312507E+00 0.43307312252E+00 0.43598971359E+00 0.42435205042E+00 0.43598989722E+00
 0.45372079298E+00 0.47767189966E+00 0.50774938954E+00 0.54355163132E+00 0.58433964764E+00
 0.62905764876E+00 0.67639675424E+00 0.72486985016E+00 0.77285747087E+00 0.81862947394E+00
 0.86038826447E+00 0.89636021720E+00 0.92492132739E+00 0.94473236270E+00 0.95485789934E+00
 0.95483494818E+00 0.94467857433E+00 0.92486125558E+00 0.89630079917E+00 0.86032602412E+00
 0.81856828465E+00 0.77280083807E+00 0.72480778389E+00 0.67631855938E+00 0.62896970944E+00
 0.58425680667E+00 0.54348025962E+00 0.50769098922E+00 0.47763183989E+00 0.45369981014E+00
 0.43597721751E+00 0.42433964226E+00 0.41859405390E+00 0.41860026473E+00 0.41006392096E+00
 0.41860381518E+00 0.43308349707E+00 0.45372397695E+00 0.48058185993E+00 0.51341958037E+00
 0.55164724737E+00 0.59433593795E+00 0.64028072327E+00 0.68807606484E+00 0.73616760763E+00
 0.78287912253E+00 0.82644989092E+00 0.86511063522E+00 0.89719109386E+00 0.92123863832E+00
 0.93613331664E+00 0.94117823486E+00 0.93614041331E+00 0.92124783241E+00 0.89717746444E+00
 0.86504012250E+00 0.82631751585E+00 0.78272376571E+00 0.73603933433E+00 0.68799578354E+00
 0.64023451296E+00 0.59429720293E+00 0.55159810793E+00 0.51335988732E+00 0.48052564551E+00
 0.45368478590E+00 0.43306155348E+00 0.41859055662E+00 0.41005581638E+00 0.40724357869E+00
 0.40165899286E+00 0.40724719897E+00 0.41860299011E+00 0.43599225613E+00 0.45959702337E+00
 0.48935116351E+00 0.52483718508E+00 0.56527023815E+00 0.60955723643E+00 0.65638549761E+00
 0.70428686059E+00 0.75165919199E+00 0.79678144123E+00 0.83787179469E+00 0.87319734929E+00
 0.90120207411E+00 0.92062029078E+00 0.93056326978E+00 0.93057328174E+00 0.92064270083E+00
 0.90121086352E+00 0.87315392211E+00 0.83775375908E+00 0.79660977105E+00 0.75148837960E+00
 0.70416392119E+00 0.65631925373E+00 0.60952311269E+00 0.56523733077E+00 0.52479086332E+00
 0.48929726350E+00 0.45955002900E+00 0.43596038419E+00 0.41858407026E+00 0.40723632949E+00
 0.40165513998E+00 0.40724078102E+00 0.41023306874E+00 0.41928646437E+00 0.43460050098E+00
 0.45636582029E+00 0.48460724497E+00 0.51905066026E+00 0.55905843776E+00 0.60364997534E+00
 0.65158173845E+00 0.70142840612E+00 0.75161797877E+00 0.80042984545E+00 0.84601394644E+00
 0.88647897668E+00 0.92003971309E+00 0.94517031032E+00 0.96071881020E+00 0.96597389014E+00
 0.96069644549E+00 0.94512781431E+00 0.91997962573E+00 0.88640307638E+00 0.84592447648E+00
 0.80033128009E+00 0.75151707050E+00 0.70133233835E+00 0.65149576819E+00 0.60357606456E+00
 0.55899582447E+00 0.51899799483E+00 0.48456431298E+00 0.45633321352E+00 0.43457810669E+00
 0.41927294535E+00 0.41022678746E+00 0.41022763413E+00 0.41023015831E+00 0.41673618754E+00
 0.42986867932E+00 0.44978974432E+00 0.47656880275E+00 0.51004226723E+00 0.54971162510E+00
 0.59471674104E+00 0.64388551702E+00 0.69581854273E+00 0.74895321177E+00 0.80158067316E+00
 0.85184081748E+00 0.89775465080E+00 0.93733661415E+00 0.96876913825E+00 0.99057316541E+00
 0.10017208112E+01 0.10016898468E+01 0.99048821435E+00 0.96865742051E+00 0.93723988458E+00
 0.89770207577E+00 0.85182236235E+00 0.80155512557E+00 0.74888595913E+00 0.69570966155E+00
 0.64376398676E+00 0.59461418402E+00 0.54964198515E+00 0.50999983702E+00 0.47654017124E+00
 0.44976686829E+00 0.42985178710E+00 0.41672713019E+00 0.41927536555E+00 0.41576651101E+00
 0.41928080095E+00 0.42986780258E+00 0.44763049523E+00 0.47263271847E+00 0.50477920935E+00
 0.54370119347E+00 0.58869022349E+00 0.63870164228E+00 0.69240696592E+00 0.74825548204E+00
 0.80451843062E+00 0.85931009055E+00 0.91060425186E+00 0.95629167923E+00 0.99431734659E+00
 0.10228743485E+01 0.10405770027E+01 0.10465615811E+01 0.10405326180E+01 0.10227882662E+01
 0.99421328982E+00 0.95620798264E+00 0.91055715575E+00 0.85927579421E+00 0.80446034169E+00
 0.74816119012E+00 0.69229421627E+00 0.63859830272E+00 0.58861474546E+00 0.54365464100E+00
 0.50474892374E+00 0.47260602582E+00 0.44760639045E+00 0.42985252148E+00 0.43458115665E+00
 0.42701209810E+00 0.42701297221E+00 0.43459071731E+00 0.44979032309E+00 0.47263878706E+00
 0.50306253916E+00 0.54078562086E+00 0.58524243329E+00 0.63554562801E+00 0.69050303660E+00
 0.74864460118E+00 0.80824747471E+00 0.86737454334E+00 0.92392418823E+00 0.97568455403E+00
 0.10204249028E+01 0.10560605682E+01 0.10808557696E+01 0.10935801581E+01 0.10935885531E+01
 0.10808628362E+01 0.10560357672E+01 0.10203592792E+01 0.97558838584E+00 0.92380794476E+00
 0.86725040030E+00 0.80813654134E+00 0.74856265521E+00 0.69044520587E+00 0.63549797774E+00
 0.58520002679E+00 0.54074851128E+00 0.50302635985E+00 0.47260286358E+00 0.44976444042E+00
 0.45633321353E+00 0.44421453060E+00 0.44017312398E+00 0.44421316477E+00 0.45634896916E+00
 0.47656861274E+00 0.50479110247E+00 0.54079977722E+00 0.58414866703E+00 0.63409783649E+00
 0.68961004450E+00 0.74936064625E+00 0.81172108673E+00 0.87475788640E+00 0.93629177709E+00
 0.99398846860E+00 0.10454507244E+01 0.10883498417E+01 0.11206235398E+01 0.11406750358E+01
 0.11474953635E+01 0.11407203450E+01 0.11206695909E+01 0.10883518607E+01 0.10453891905E+01
 0.99386376410E+00 0.93612902591E+00 0.87461231054E+00 0.81164005317E+00 0.74933499336E+00
 0.68959044132E+00 0.63405708093E+00 0.58409852352E+00 0.54075326090E+00 0.50474650352E+00
 0.47653152499E+00 0.48455480620E+00 0.46754318614E+00 0.45901868366E+00 0.45901151507E+00
 0.46754147092E+00 0.48458032291E+00 0.51002846133E+00 0.54370292343E+00 0.58526821213E+00
 0.63413249733E+00 0.68940489380E+00 0.74991070482E+00 0.81417216078E+00 0.88035421042E+00
 0.94627558836E+00 0.10095099786E+01 0.10675038178E+01 0.11176965655E+01 0.11577048228E+01
 0.11855537401E+01 0.11998501499E+01 0.11998629815E+01 0.11855727011E+01 0.11577026245E+01
 0.11176705925E+01 0.10674530547E+01 0.10094214119E+01 0.94616404353E+00 0.88027116800E+00
 0.81413869336E+00 0.74988314653E+00 0.68934238795E+00 0.63405537374E+00 0.58521280815E+00
 0.54366426005E+00 0.50998948351E+00 0.51897574092E+00 0.49693441431E+00 0.48365848831E+00
 0.47921180967E+00 0.48364316291E+00 0.49694629433E+00 0.51901332506E+00 0.54966501418E+00
 0.58865626212E+00 0.63556561433E+00 0.68967639221E+00 0.74996335773E+00 0.81510322519E+00
 0.88340994997E+00 0.95278270831E+00 0.10207789070E+01 0.10847509661E+01 0.11419595420E+01
 0.11897260705E+01 0.12256840000E+01 0.12480197163E+01 0.12555928116E+01 0.12479953488E+01
 0.12256194163E+01 0.11896517199E+01 0.11419290578E+01 0.10847541572E+01 0.10207575380E+01
 0.95272727598E+00 0.88335767981E+00 0.81505062703E+00 0.74987352736E+00 0.68956818742E+00
 0.63550114010E+00 0.58863941955E+00 0.54964271941E+00 0.55897163933E+00 0.53199380898E+00
 0.51391958072E+00 0.50483868568E+00 0.50482102617E+00 0.51391298952E+00 0.53204052552E+00
 0.55901546425E+00 0.59462984623E+00 0.63861986904E+00 0.69048940690E+00 0.74940902202E+00
 0.81423054896E+00 0.88344670228E+00 0.95508990669E+00 0.10267554722E+01 0.10957629146E+01
 0.11592837048E+01 0.12144326804E+01 0.12584857193E+01 0.12891919534E+01 0.13049695473E+01
 0.13049664919E+01 0.12891481010E+01 0.12583851217E+01 0.12143548651E+01 0.11592882956E+01
 0.10957864925E+01 0.10267183845E+01 0.95501490677E+00 0.88338175253E+00 0.81415314676E+00
 0.74930300865E+00 0.69041797109E+00 0.63862237555E+00 0.59463899091E+00 0.60357606418E+00
 0.57197621799E+00 0.54928536525E+00 0.53561409623E+00 0.53101759329E+00 0.53558149820E+00
 0.54931588144E+00 0.57206349505E+00 0.60361067228E+00 0.64378295252E+00 0.69230060538E+00
 0.74857733891E+00 0.81168632463E+00 0.88035473101E+00 0.95282989445E+00 0.10268082143E+01
 0.10996012565E+01 0.11683420379E+01 0.12300485843E+01 0.12817354297E+01 0.13207395494E+01
 0.13450355554E+01 0.13533273004E+01 0.13450920629E+01 0.13207404980E+01 0.12816692923E+01
 0.12300159395E+01 0.11683512699E+01 0.10995532735E+01 0.10266941146E+01 0.95274953024E+00
 0.88032912986E+00 0.81164005278E+00 0.74851115013E+00 0.69229179642E+00 0.64381159517E+00
 0.65154088600E+00 0.61582803268E+00 0.58890855311E+00 0.57092054712E+00 0.56187650591E+00