   6   6   0   0
  0.2185851E+02  0.3190316E-09  0.3190316E-09  0.1487900E-08  0.5000000E-15
  1.000000000000000E-004
  CAR 
 unknown system                          
      8.32390917    -12.92957698  301      3.30277307      1.00000000
    -12.930  0.0000E+00  0.0000E+00
    -12.859  0.0000E+00  0.0000E+00
    -12.788  0.0000E+00  0.0000E+00
    -12.717  0.0000E+00  0.0000E+00
    -12.646  0.0000E+00  0.0000E+00
    -12.575  0.0000E+00  0.0000E+00
    -12.505  0.0000E+00  0.0000E+00
    -12.434  0.0000E+00  0.0000E+00
    -12.363  0.0000E+00  0.0000E+00
    -12.292  0.0000E+00  0.0000E+00
    -12.221  0.0000E+00  0.0000E+00
    -12.150  0.0000E+00  0.0000E+00
    -12.079  0.0000E+00  0.0000E+00
    -12.009  0.0000E+00  0.0000E+00
    -11.938  0.0000E+00  0.0000E+00
    -11.867  0.0000E+00  0.0000E+00
    -11.796  0.0000E+00  0.0000E+00
    -11.725  0.0000E+00  0.0000E+00
    -11.654  0.0000E+00  0.0000E+00
    -11.584  0.0000E+00  0.0000E+00
    -11.513  0.0000E+00  0.0000E+00
    -11.442  0.0000E+00  0.0000E+00
    -11.371  0.0000E+00  0.0000E+00
    -11.300  0.0000E+00  0.0000E+00
    -11.229  0.0000E+00  0.0000E+00
    -11.158  0.0000E+00  0.0000E+00
    -11.088  0.0000E+00  0.0000E+00
    -11.017  0.0000E+00  0.0000E+00
    -10.946  0.0000E+00  0.0000E+00
    -10.875  0.3685E+00  0.8426E-02
    -10.804  0.9479E+00  0.5505E-01
    -10.733  0.1527E+01  0.1427E+00
    -10.663  0.9949E+00  0.2299E+00
    -10.592  0.1061E+01  0.3027E+00
    -10.521  0.1126E+01  0.3801E+00
    -10.450  0.1192E+01  0.4623E+00
    -10.379  0.1258E+01  0.5490E+00
    -10.308  0.1319E+01  0.6404E+00
    -10.237  0.1331E+01  0.7343E+00
    -10.167  0.1343E+01  0.8290E+00
    -10.096  0.1380E+01  0.9252E+00
    -10.025  0.1435E+01  0.1025E+01
     -9.954  0.1490E+01  0.1128E+01
     -9.883  0.1545E+01  0.1236E+01
     -9.812  0.1600E+01  0.1347E+01
     -9.742  0.1655E+01  0.1463E+01
     -9.671  0.3337E+01  0.1615E+01
     -9.600  0.4395E+01  0.1928E+01
     -9.529  0.4591E+01  0.2237E+01
     -9.458  0.5087E+01  0.2580E+01
     -9.387  0.5556E+01  0.2959E+01
     -9.316  0.5978E+01  0.3366E+01
     -9.246  0.6541E+01  0.3809E+01
     -9.175  0.7105E+01  0.4293E+01
     -9.104  0.8481E+01  0.5079E+01
     -9.033  0.8338E+01  0.5674E+01
     -8.962  0.8676E+01  0.6277E+01
     -8.891  0.8283E+01  0.6917E+01
     -8.821  0.6277E+01  0.7614E+01
     -8.750  0.0000E+00  0.8000E+01
     -8.679  0.0000E+00  0.8000E+01
     -8.608  0.0000E+00  0.8000E+01
     -8.537  0.0000E+00  0.8000E+01
     -8.466  0.0000E+00  0.8000E+01
     -8.395  0.0000E+00  0.8000E+01
     -8.325  0.0000E+00  0.8000E+01
     -8.254  0.0000E+00  0.8000E+01
     -8.183  0.0000E+00  0.8000E+01
     -8.112  0.0000E+00  0.8000E+01
     -8.041  0.0000E+00  0.8000E+01
     -7.970  0.0000E+00  0.8000E+01
     -7.900  0.0000E+00  0.8000E+01
     -7.829  0.0000E+00  0.8000E+01
     -7.758  0.0000E+00  0.8000E+01
     -7.687  0.0000E+00  0.8000E+01
     -7.616  0.0000E+00  0.8000E+01
     -7.545  0.0000E+00  0.8000E+01
     -7.475  0.0000E+00  0.8000E+01
     -7.404  0.0000E+00  0.8000E+01
     -7.333  0.0000E+00  0.8000E+01
     -7.262  0.0000E+00  0.8000E+01
     -7.191  0.0000E+00  0.8000E+01
     -7.120  0.0000E+00  0.8000E+01
     -7.049  0.0000E+00  0.8000E+01
     -6.979  0.0000E+00  0.8000E+01
     -6.908  0.0000E+00  0.8000E+01
     -6.837  0.0000E+00  0.8000E+01
     -6.766  0.0000E+00  0.8000E+01
     -6.695  0.0000E+00  0.8000E+01
     -6.624  0.0000E+00  0.8000E+01
     -6.554  0.0000E+00  0.8000E+01
     -6.483  0.0000E+00  0.8000E+01
     -6.412  0.0000E+00  0.8000E+01
     -6.341  0.0000E+00  0.8000E+01
     -6.270  0.0000E+00  0.8000E+01
     -6.199  0.0000E+00  0.8000E+01
     -6.128  0.0000E+00  0.8000E+01
     -6.058  0.0000E+00  0.8000E+01
     -5.987  0.0000E+00  0.8000E+01
     -5.916  0.0000E+00  0.8000E+01
     -5.845  0.0000E+00  0.8000E+01
     -5.774  0.0000E+00  0.8000E+01
     -5.703  0.0000E+00  0.8000E+01
     -5.633  0.0000E+00  0.8000E+01
     -5.562  0.0000E+00  0.8000E+01
     -5.491  0.0000E+00  0.8000E+01
     -5.420  0.0000E+00  0.8000E+01
     -5.349  0.0000E+00  0.8000E+01
     -5.278  0.0000E+00  0.8000E+01
     -5.207  0.0000E+00  0.8000E+01
     -5.137  0.0000E+00  0.8000E+01
     -5.066  0.0000E+00  0.8000E+01
     -4.995  0.0000E+00  0.8000E+01
     -4.924  0.0000E+00  0.8000E+01
     -4.853  0.0000E+00  0.8000E+01
     -4.782  0.0000E+00  0.8000E+01
     -4.712  0.0000E+00  0.8000E+01
     -4.641  0.0000E+00  0.8000E+01
     -4.570  0.0000E+00  0.8000E+01
     -4.499  0.0000E+00  0.8000E+01
     -4.428  0.0000E+00  0.8000E+01
     -4.357  0.0000E+00  0.8000E+01
     -4.286  0.0000E+00  0.8000E+01
     -4.216  0.0000E+00  0.8000E+01
     -4.145  0.0000E+00  0.8000E+01
     -4.074  0.0000E+00  0.8000E+01
     -4.003  0.0000E+00  0.8000E+01
     -3.932  0.0000E+00  0.8000E+01
     -3.861  0.0000E+00  0.8000E+01
     -3.791  0.0000E+00  0.8000E+01
     -3.720  0.0000E+00  0.8000E+01
     -3.649  0.0000E+00  0.8000E+01
     -3.578  0.0000E+00  0.8000E+01
     -3.507  0.0000E+00  0.8000E+01
     -3.436  0.0000E+00  0.8000E+01
     -3.366  0.0000E+00  0.8000E+01
     -3.295  0.0000E+00  0.8000E+01
     -3.224  0.0000E+00  0.8000E+01
     -3.153  0.0000E+00  0.8000E+01
     -3.082  0.0000E+00  0.8000E+01
     -3.011  0.0000E+00  0.8000E+01
     -2.940  0.0000E+00  0.8000E+01
     -2.870  0.0000E+00  0.8000E+01
     -2.799  0.0000E+00  0.8000E+01
     -2.728  0.0000E+00  0.8000E+01
     -2.657  0.0000E+00  0.8000E+01
     -2.586  0.1728E+00  0.8002E+01
     -2.515  0.1053E+01  0.8045E+01
     -2.445  0.2055E+01  0.8154E+01
     -2.374  0.3251E+01  0.8341E+01
     -2.303  0.5078E+01  0.8624E+01
     -2.232  0.5533E+01  0.9001E+01
     -2.161  0.5983E+01  0.9410E+01
     -2.090  0.7534E+01  0.9978E+01
     -2.019  0.6420E+01  0.1047E+02
     -1.949  0.7327E+01  0.1090E+02
     -1.878  0.8245E+01  0.1162E+02
     -1.807  0.2092E+01  0.1197E+02
     -1.736  0.9349E+01  0.1255E+02
     -1.665  0.4792E+01  0.1304E+02
     -1.594  0.2683E+01  0.1326E+02
     -1.524  0.2456E+01  0.1344E+02
     -1.453  0.2228E+01  0.1361E+02
     -1.382  0.2002E+01  0.1376E+02
     -1.311  0.1775E+01  0.1389E+02
     -1.240  0.1670E+01  0.1401E+02
     -1.169  0.1678E+01  0.1413E+02
     -1.098  0.1685E+01  0.1425E+02
     -1.028  0.1693E+01  0.1437E+02
     -0.957  0.1758E+01  0.1449E+02
     -0.886  0.5168E+01  0.1471E+02
     -0.815  0.1067E+02  0.1526E+02
     -0.744  0.1210E+02  0.1615E+02
     -0.673  0.9843E+01  0.1686E+02
     -0.603  0.8222E+01  0.1753E+02
     -0.532  0.5018E+01  0.1800E+02
     -0.461  0.2641E+01  0.1825E+02
     -0.390  0.2375E+01  0.1843E+02
     -0.319  0.2203E+01  0.1859E+02
     -0.248  0.2043E+01  0.1874E+02
     -0.177  0.1883E+01  0.1888E+02
     -0.107  0.1367E+02  0.1909E+02
     -0.036  0.2133E+02  0.2047E+02
      0.035  0.7616E+01  0.2129E+02
      0.106  0.5226E+01  0.2175E+02
      0.177  0.5946E+01  0.2223E+02
      0.248  0.3788E+01  0.2256E+02
      0.318  0.3602E+01  0.2282E+02
      0.389  0.3416E+01  0.2307E+02
      0.460  0.3357E+01  0.2330E+02
      0.531  0.5043E+01  0.2360E+02
      0.602  0.5034E+01  0.2397E+02
      0.673  0.4264E+01  0.2432E+02
      0.743  0.2741E+01  0.2456E+02
      0.814  0.1794E+01  0.2470E+02
      0.885  0.1751E+01  0.2483E+02
      0.956  0.1714E+01  0.2495E+02
      1.027  0.1684E+01  0.2507E+02
      1.098  0.4094E+01  0.2523E+02
      1.169  0.1042E+02  0.2573E+02
      1.239  0.1816E+02  0.2678E+02
      1.310  0.1384E+02  0.2795E+02
      1.381  0.5195E+01  0.2861E+02
      1.452  0.3163E+01  0.2889E+02
      1.523  0.2956E+01  0.2910E+02
      1.594  0.2877E+01  0.2931E+02
      1.664  0.3004E+01  0.2951E+02
      1.735  0.3565E+01  0.2974E+02
      1.806  0.6316E+01  0.3007E+02
      1.877  0.8563E+01  0.3062E+02
      1.948  0.4895E+01  0.3111E+02
      2.019  0.4458E+01  0.3145E+02
      2.090  0.3207E+01  0.3173E+02
      2.160  0.1675E+01  0.3190E+02
      2.231  0.2437E+01  0.3202E+02
      2.302  0.5869E+01  0.3230E+02
      2.373  0.7881E+01  0.3288E+02
      2.444  0.7226E+01  0.3341E+02
      2.515  0.6689E+01  0.3390E+02
      2.585  0.6159E+01  0.3436E+02
      2.656  0.4337E+01  0.3475E+02
      2.727  0.3813E+01  0.3504E+02
      2.798  0.3289E+01  0.3529E+02
      2.869  0.2985E+01  0.3551E+02
      2.940  0.2464E+01  0.3570E+02
      3.011  0.9710E+00  0.3588E+02
      3.081  0.8481E+00  0.3594E+02
      3.152  0.3312E+00  0.3598E+02
      3.223  0.8776E-01  0.3600E+02
      3.294  0.2868E-03  0.3600E+02
      3.365  0.0000E+00  0.3600E+02
      3.436  0.0000E+00  0.3600E+02
      3.506  0.0000E+00  0.3600E+02
      3.577  0.0000E+00  0.3600E+02
      3.648  0.0000E+00  0.3600E+02
      3.719  0.0000E+00  0.3600E+02
      3.790  0.0000E+00  0.3600E+02
      3.861  0.0000E+00  0.3600E+02
      3.932  0.0000E+00  0.3600E+02
      4.002  0.0000E+00  0.3600E+02
      4.073  0.0000E+00  0.3600E+02
      4.144  0.0000E+00  0.3600E+02
      4.215  0.0000E+00  0.3600E+02
      4.286  0.0000E+00  0.3600E+02
      4.357  0.0000E+00  0.3600E+02
      4.427  0.0000E+00  0.3600E+02
      4.498  0.0000E+00  0.3600E+02
      4.569  0.0000E+00  0.3600E+02
      4.640  0.0000E+00  0.3600E+02
      4.711  0.0000E+00  0.3600E+02
      4.782  0.0000E+00  0.3600E+02
      4.853  0.0000E+00  0.3600E+02
      4.923  0.0000E+00  0.3600E+02
      4.994  0.1532E+01  0.3615E+02
      5.065  0.4874E+01  0.3637E+02
      5.136  0.8316E+01  0.3684E+02
      5.207  0.1249E+02  0.3757E+02
      5.278  0.2659E+02  0.3864E+02
      5.348  0.2300E+01  0.3943E+02
      5.419  0.1635E+01  0.3957E+02
      5.490  0.7614E+01  0.3982E+02
      5.561  0.1068E+02  0.4061E+02
      5.632  0.7665E+01  0.4134E+02
      5.703  0.7695E+01  0.4189E+02
      5.773  0.6999E+01  0.4240E+02
      5.844  0.5897E+01  0.4297E+02
      5.915  0.3125E+01  0.4323E+02
      5.986  0.2534E+01  0.4343E+02
      6.057  0.2061E+01  0.4360E+02
      6.128  0.1766E+01  0.4373E+02
      6.199  0.1726E+01  0.4386E+02
      6.269  0.1091E+01  0.4396E+02
      6.340  0.0000E+00  0.4400E+02
      6.411  0.0000E+00  0.4400E+02
      6.482  0.0000E+00  0.4400E+02
      6.553  0.0000E+00  0.4400E+02
      6.624  0.0000E+00  0.4400E+02
      6.694  0.0000E+00  0.4400E+02
      6.765  0.0000E+00  0.4400E+02
      6.836  0.0000E+00  0.4400E+02
      6.907  0.0000E+00  0.4400E+02
      6.978  0.0000E+00  0.4400E+02
      7.049  0.0000E+00  0.4400E+02
      7.120  0.0000E+00  0.4400E+02
      7.190  0.0000E+00  0.4400E+02
      7.261  0.0000E+00  0.4400E+02
      7.332  0.0000E+00  0.4400E+02
      7.403  0.0000E+00  0.4400E+02
      7.474  0.0000E+00  0.4400E+02
      7.545  0.0000E+00  0.4400E+02
      7.615  0.0000E+00  0.4400E+02
      7.686  0.0000E+00  0.4400E+02
      7.757  0.0000E+00  0.4400E+02
      7.828  0.0000E+00  0.4400E+02
      7.899  0.0000E+00  0.4400E+02
      7.970  0.0000E+00  0.4400E+02
      8.041  0.0000E+00  0.4400E+02
      8.111  0.0000E+00  0.4400E+02
      8.182  0.0000E+00  0.4400E+02
      8.253  0.0000E+00  0.4400E+02
      8.324  0.0000E+00  0.4400E+02
