 vasp.5.4.4.18Apr17-6-g9f103f2a35 (build Jun 30 2017 11:15:00) complex          
  
 executed on    STALLO_VASP_5.4.4 date 2019.11.08  11:37:20
 running on    4 total cores
 distrk:  each k-point on    4 cores,    1 groups
 distr:  one band on NCORES_PER_BAND=   2 cores,    2 groups


--------------------------------------------------------------------------------------------------------


 INCAR:
 POTCAR:   PAW_PBE Mo 08Apr2002                   
 POTCAR:    PAW_PBE S 17Jan2003                   
 POTCAR:   PAW_PBE Mo 08Apr2002                   
   VRHFIN =Mo: 4p5s4d                                                           
   LEXCH  = PE                                                                  
   EATOM  =   217.5180 eV,   15.9871 Ry                                         
                                                                                
   TITEL  = PAW_PBE Mo 08Apr2002                                                
   LULTRA =        F    use ultrasoft PP ?                                      
   IUNSCR =        1    unscreen: 0-lin 1-nonlin 2-no                           
   RPACOR =    2.200    partial core radius                                     
   POMASS =   95.940; ZVAL   =    6.000    mass and valenz                      
   RCORE  =    2.750    outmost cutoff radius                                   
   RWIGS  =    2.750; RWIGS  =    1.455    wigner-seitz radius (au A)           
   ENMAX  =  224.584; ENMIN  =  168.438 eV                                      
   RCLOC  =    2.111    cutoff for local pot                                    
   LCOR   =        T    correct aug charges                                     
   LPAW   =        T    paw PP                                                  
   EAUG   =  345.278                                                            
   DEXC   =    -.088                                                            
   RMAX   =    3.077    core radius for proj-oper                               
   RAUG   =    1.300    factor for augmentation sphere                          
   RDEP   =    2.815    radius for radial grids                                 
   QCUT   =   -4.063; QGAM   =    8.126    optimization parameters              
                                                                                
   Description                                                                  
     l     E      TYP  RCUT    TYP  RCUT                                        
     2   .000     23  2.500                                                     
     2   .000     23  2.500                                                     
     0   .000     23  2.600                                                     
     0  1.000     23  2.600                                                     
     1   .400     23  2.750                                                     
     1  2.000     23  2.750                                                     
     3   .000      7   .000                                                     
  local pseudopotential read in
  partial core-charges read in
  atomic valenz-charges read in
  non local Contribution for L=           2  read in
    real space projection operators read in
  non local Contribution for L=           2  read in
    real space projection operators read in
  non local Contribution for L=           0  read in
    real space projection operators read in
  non local Contribution for L=           0  read in
    real space projection operators read in
  non local Contribution for L=           1  read in
    real space projection operators read in
  non local Contribution for L=           1  read in
    real space projection operators read in
    PAW grid and wavefunctions read in
 
   number of l-projection  operators is LMAX  =           6
   number of lm-projection operators is LMMAX =          18
 
 POTCAR:    PAW_PBE S 17Jan2003                   
   VRHFIN =S : s2p4                                                             
   LEXCH  = PE                                                                  
   EATOM  =   276.8230 eV,   20.3459 Ry                                         
                                                                                
   TITEL  = PAW_PBE S 17Jan2003                                                 
   LULTRA =        F    use ultrasoft PP ?                                      
   IUNSCR =        1    unscreen: 0-lin 1-nonlin 2-no                           
   RPACOR =    1.500    partial core radius                                     
   POMASS =   32.066; ZVAL   =    6.000    mass and valenz                      
   RCORE  =    1.900    outmost cutoff radius                                   
   RWIGS  =    2.200; RWIGS  =    1.164    wigner-seitz radius (au A)           
   ENMAX  =  280.000; ENMIN  =  194.016 eV                                      
   ICORE  =        2    local potential                                         
   LCOR   =        T    correct aug charges                                     
   LPAW   =        T    paw PP                                                  
   EAUG   =  335.092                                                            
   DEXC   =     .000                                                            
   RMAX   =    2.867    core radius for proj-oper                               
   RAUG   =    1.300    factor for augmentation sphere                          
   RDEP   =    1.954    radius for radial grids                                 
   QCUT   =   -4.360; QGAM   =    8.721    optimization parameters              
                                                                                
   Description                                                                  
     l     E      TYP  RCUT    TYP  RCUT                                        
     0   .000     23  1.900                                                     
     0   .000     23  1.900                                                     
     1   .000     23  1.900                                                     
     1   .000     23  1.900                                                     
     2   .000     23  1.900                                                     
  local pseudopotential read in
  partial core-charges read in
  atomic valenz-charges read in
  non local Contribution for L=           0  read in
    real space projection operators read in
  non local Contribution for L=           0  read in
    real space projection operators read in
  non local Contribution for L=           1  read in
    real space projection operators read in
  non local Contribution for L=           1  read in
    real space projection operators read in
    PAW grid and wavefunctions read in
 
   number of l-projection  operators is LMAX  =           4
   number of lm-projection operators is LMMAX =           8
 
 PAW_PBE Mo 08Apr2002                   :
 energy of atom  1       EATOM= -217.5180
 kinetic energy error for atom=    0.0017 (will be added to EATOM!!)
  PAW_PBE S 17Jan2003                   :
 energy of atom  2       EATOM= -276.8230
 kinetic energy error for atom=    0.0020 (will be added to EATOM!!)
 
 
 POSCAR: MoS2_mp-2815_computed                   
  positions in direct lattice
  No initial velocities read in
 exchange correlation table for  LEXCH =        8
   RHO(1)=    0.500       N(1)  =     2000
   RHO(2)=  100.500       N(2)  =     4000
 


--------------------------------------------------------------------------------------------------------


 ion  position               nearest neighbor table
   1  0.333  0.667  0.250-   5 2.42   4 2.42   4 2.42   5 2.42   5 2.42   4 2.42
   2  0.667  0.333  0.750-   6 2.42   3 2.42   3 2.42   6 2.42   6 2.42   3 2.42
   3  0.333  0.667  0.855-   2 2.42   2 2.42   2 2.42
   4  0.667  0.333  0.145-   1 2.42   1 2.42   1 2.42
   5  0.667  0.333  0.355-   1 2.42   1 2.42   1 2.42
   6  0.333  0.667  0.645-   2 2.42   2 2.42   2 2.42
 
  LATTYP: Found a hexagonal cell.
 ALAT       =     3.1903157300
 C/A-ratio  =     4.6638030713
  
  Lattice vectors:
  
 A1 = (   3.1903157300,   0.0000000000,   0.0000000000)
 A2 = (  -1.5951578650,   2.7628944683,   0.0000000000)
 A3 = (   0.0000000000,   0.0000000000,  14.8790043000)


Analysis of symmetry for initial positions (statically):
=====================================================================
 Subroutine PRICEL returns:
 Original cell was already a primitive cell.
 

 Routine SETGRP: Setting up the symmetry group for a 
 hexagonal supercell.


 Subroutine GETGRP returns: Found 24 space group operations
 (whereof 12 operations were pure point group operations)
 out of a pool of 24 trial point group operations.


The static configuration has the point symmetry D_3d.
 The point group associated with its full space group is D_6h.


Analysis of symmetry for dynamics (positions and initial velocities):
=====================================================================
 Subroutine PRICEL returns:
 Original cell was already a primitive cell.
 

 Routine SETGRP: Setting up the symmetry group for a 
 hexagonal supercell.


 Subroutine GETGRP returns: Found 24 space group operations
 (whereof 12 operations were pure point group operations)
 out of a pool of 24 trial point group operations.


The dynamic configuration has the point symmetry D_3d.
 The point group associated with its full space group is D_6h.


 Subroutine INISYM returns: Found 24 space group operations
 (whereof 12 operations are pure point group operations),
 and found     1 'primitive' translations

 
 
 KPOINTS: k-density: 4.0                          

Automatic generation of k-mesh.
Space group operators:
 irot       det(A)        alpha          n_x          n_y          n_z        tau_x        tau_y        tau_z
    1     1.000000     0.000001     1.000000     0.000000     0.000000     0.000000     0.000000     0.000000
    2    -1.000000     0.000001     1.000000     0.000000     0.000000     0.000000     0.000000     0.000000
    3     1.000000   120.000000     0.000000     0.000000    -1.000000     0.000000     0.000000     0.000000
    4    -1.000000   120.000000     0.000000     0.000000    -1.000000     0.000000     0.000000     0.000000
    5     1.000000   120.000000     0.000000     0.000000     1.000000     0.000000     0.000000     0.000000
    6    -1.000000   120.000000     0.000000     0.000000     1.000000     0.000000     0.000000     0.000000
    7     1.000000   179.999999     1.000000    -0.000000     0.000000     0.000000     0.000000     0.000000
    8    -1.000000   179.999999     1.000000    -0.000000     0.000000     0.000000     0.000000     0.000000
    9     1.000000   180.000000     0.500000    -0.866025     0.000000     0.000000     0.000000     0.000000
   10    -1.000000   180.000000     0.500000    -0.866025     0.000000     0.000000     0.000000     0.000000
   11     1.000000   180.000000    -0.500000    -0.866025     0.000000     0.000000     0.000000     0.000000
   12    -1.000000   180.000000    -0.500000    -0.866025     0.000000     0.000000     0.000000     0.000000
   13     1.000000    60.000000     0.000000     0.000000    -1.000000     0.000001     0.000000     0.500000
   14    -1.000000    60.000000     0.000000     0.000000    -1.000000     0.000001     0.000000     0.500000
   15     1.000000   180.000000     0.000000     0.000000     1.000000     0.000000     0.000000     0.500000
   16    -1.000000   180.000000     0.000000     0.000000     1.000000     0.000000     0.000000     0.500000
   17     1.000000    60.000000     0.000000     0.000000     1.000000     0.000000     0.000000     0.500000
   18    -1.000000    60.000000     0.000000     0.000000     1.000000     0.000000     0.000000     0.500000
   19     1.000000   179.999999     0.866025    -0.500000     0.000000     0.000000     0.000000     0.500000
   20    -1.000000   179.999999     0.866025    -0.500000     0.000000     0.000000     0.000000     0.500000
   21     1.000000   180.000000     0.000000     1.000000     0.000000     0.000001     0.000000     0.500000
   22    -1.000000   180.000000     0.000000     1.000000     0.000000     0.000001     0.000000     0.500000
   23     1.000000   179.999999     0.866025     0.500000     0.000000     0.000000     0.000000     0.500000
   24    -1.000000   179.999999     0.866025     0.500000     0.000000     0.000000     0.000000     0.500000
 
 Subroutine IBZKPT returns following result:
 ===========================================
 
 Found     20 irreducible k-points:
 
 Following reciprocal coordinates:
            Coordinates               Weight
  0.000000  0.000000  0.000000      1.000000
  0.125000 -0.000000  0.000000      6.000000
  0.250000 -0.000000  0.000000      6.000000
  0.375000 -0.000000  0.000000      6.000000
  0.500000 -0.000000  0.000000      3.000000
  0.125000  0.125000  0.000000      6.000000
  0.250000  0.125000  0.000000     12.000000
  0.375000  0.125000  0.000000     12.000000
  0.250000  0.250000  0.000000      6.000000
  0.375000  0.250000  0.000000      6.000000
  0.000000  0.000000  0.500000      1.000000
  0.125000 -0.000000  0.500000      6.000000
  0.250000 -0.000000  0.500000      6.000000
  0.375000 -0.000000  0.500000      6.000000
  0.500000 -0.000000  0.500000      3.000000
  0.125000  0.125000  0.500000      6.000000
  0.250000  0.125000  0.500000     12.000000
  0.375000  0.125000  0.500000     12.000000
  0.250000  0.250000  0.500000      6.000000
  0.375000  0.250000  0.500000      6.000000
 
 Following cartesian coordinates:
            Coordinates               Weight
  0.000000  0.000000  0.000000      1.000000
  0.039181  0.022621  0.000000      6.000000
  0.078362  0.045242  0.000000      6.000000
  0.117543  0.067864  0.000000      6.000000
  0.156724  0.090485  0.000000      3.000000
  0.039181  0.067864  0.000000      6.000000
  0.078362  0.090485  0.000000     12.000000
  0.117543  0.113106  0.000000     12.000000
  0.078362  0.135727  0.000000      6.000000
  0.117543  0.158348  0.000000      6.000000
  0.000000  0.000000  0.033604      1.000000
  0.039181  0.022621  0.033604      6.000000
  0.078362  0.045242  0.033604      6.000000
  0.117543  0.067864  0.033604      6.000000
  0.156724  0.090485  0.033604      3.000000
  0.039181  0.067864  0.033604      6.000000
  0.078362  0.090485  0.033604     12.000000
  0.117543  0.113106  0.033604     12.000000
  0.078362  0.135727  0.033604      6.000000
  0.117543  0.158348  0.033604      6.000000
 
 TETIRR: Found    136 inequivalent tetrahedra from      768


--------------------------------------------------------------------------------------------------------




 Dimension of arrays:
   k-points           NKPTS =     20   k-points in BZ     NKDIM =     20   number of bands    NBANDS=     22
   number of dos      NEDOS =    301   number of ions     NIONS =      6
   non local maximal  LDIM  =      6   non local SUM 2l+1 LMDIM =     18
   total plane-waves  NPLWV =  27216
   max r-space proj   IRMAX =      1   max aug-charges    IRDMAX=  13521
   dimension x,y,z NGX =    18 NGY =   18 NGZ =   84
   dimension x,y,z NGXF=    36 NGYF=   36 NGZF=  168
   support grid    NGXF=    36 NGYF=   36 NGZF=  168
   ions per type =               2   4
   NGX,Y,Z   is equivalent  to a cutoff of   9.38,  9.38,  9.39 a.u.
   NGXF,Y,Z  is equivalent  to a cutoff of  18.76, 18.76, 18.77 a.u.

 SYSTEM =  unknown system                          
 POSCAR =  MoS2_mp-2815_computed                   

 Startparameter for this run:
   NWRITE =      2    write-flag & timer
   PREC   = normal    normal or accurate (medium, high low for compatibility)
   ISTART =      0    job   : 0-new  1-cont  2-samecut
   ICHARG =      2    charge: 1-file 2-atom 10-const
   ISPIN  =      1    spin polarized calculation?
   LNONCOLLINEAR =      F non collinear calculations
   LSORBIT =      F    spin-orbit coupling
   INIWAV =      1    electr: 0-lowe 1-rand  2-diag
   LASPH  =      F    aspherical Exc in radial PAW
   METAGGA=      F    non-selfconsistent MetaGGA calc.

 Electronic Relaxation 1
   ENCUT  =  500.0 eV  36.75 Ry    6.06 a.u.   5.82  5.82 27.13*2*pi/ulx,y,z
   ENINI  =  500.0     initial cutoff
   ENAUG  =  345.3 eV  augmentation charge cutoff
   NELM   =     60;   NELMIN=  4; NELMDL=  0     # of ELM steps 
   EDIFF  = 0.1E-04   stopping-criterion for ELM
   LREAL  =      F    real-space projection
   NLSPLINE    = F    spline interpolate recip. space projectors
   LCOMPAT=      F    compatible to vasp.4.4
   GGA_COMPAT  = T    GGA compatible to vasp.4.4-vasp.4.6
   LMAXPAW     = -100 max onsite density
   LMAXMIX     =    2 max onsite mixed and CHGCAR
   VOSKOWN=      0    Vosko Wilk Nusair interpolation
   ROPT   =    0.00000   0.00000
 Ionic relaxation
   EDIFFG = 0.1E-03   stopping-criterion for IOM
   NSW    =      0    number of steps for IOM
   NBLOCK =      1;   KBLOCK =      1    inner block; outer block 
   IBRION =     -1    ionic relax: 0-MD 1-quasi-New 2-CG
   NFREE  =      0    steps in history (QN), initial steepest desc. (CG)
   ISIF   =      2    stress and relaxation
   IWAVPR =     10    prediction:  0-non 1-charg 2-wave 3-comb
   ISYM   =      2    0-nonsym 1-usesym 2-fastsym
   LCORR  =      T    Harris-Foulkes like correction to forces

   POTIM  = 0.5000    time-step for ionic-motion
   TEIN   =    0.0    initial temperature
   TEBEG  =    0.0;   TEEND  =   0.0 temperature during run
   SMASS  =  -3.00    Nose mass-parameter (am)
   estimated Nose-frequenzy (Omega)   =  0.10E-29 period in steps =****** mass=  -0.233E-27a.u.
   SCALEE = 1.0000    scale energy and forces
   NPACO  =    256;   APACO  = 16.0  distance and # of slots for P.C.
   PSTRESS=    0.0 pullay stress

  Mass of Ions in am
   POMASS =  95.94 32.07
  Ionic Valenz
   ZVAL   =   6.00  6.00
  Atomic Wigner-Seitz radii
   RWIGS  =  -1.00 -1.00
  virtual crystal weights 
   VCA    =   1.00  1.00
   NELECT =      36.0000    total number of electrons
   NUPDOWN=      -1.0000    fix difference up-down

 DOS related values:
   EMIN   =  10.00;   EMAX   =-10.00  energy-range for DOS
   EFERMI =   0.00
   ISMEAR =    -5;   SIGMA  =   0.20  broadening in eV -4-tet -1-fermi 0-gaus

 Electronic relaxation 2 (details)
   IALGO  =     68    algorithm
   LDIAG  =      T    sub-space diagonalisation (order eigenvalues)
   LSUBROT=      F    optimize rotation matrix (better conditioning)
   TURBO    =      0    0=normal 1=particle mesh
   IRESTART =      0    0=no restart 2=restart with 2 vectors
   NREBOOT  =      0    no. of reboots
   NMIN     =      0    reboot dimension
   EREF     =   0.00    reference energy to select bands
   IMIX   =      4    mixing-type and parameters
     AMIX     =   0.40;   BMIX     =  1.00
     AMIX_MAG =   1.60;   BMIX_MAG =  1.00
     AMIN     =   0.10
     WC   =   100.;   INIMIX=   1;  MIXPRE=   1;  MAXMIX= -45

 Intra band minimization:
   WEIMIN = 0.0000     energy-eigenvalue tresh-hold
   EBREAK =  0.11E-06  absolut break condition
   DEPER  =   0.30     relativ break condition  

   TIME   =   0.40     timestep for ELM

  volume/ion in A,a.u.               =      21.86       147.51
  Fermi-wavevector in a.u.,A,eV,Ry     =   1.063943  2.010561 15.401453  1.131975
  Thomas-Fermi vector in A             =   2.199445
 
 Write flags
   LWAVE        =      F    write WAVECAR
   LDOWNSAMPLE  =      F    k-point downsampling of WAVECAR
   LCHARG       =      T    write CHGCAR
   LVTOT        =      F    write LOCPOT, total local potential
   LVHAR        =      F    write LOCPOT, Hartree potential only
   LELF         =      F    write electronic localiz. function (ELF)
   LORBIT       =      0    0 simple, 1 ext, 2 COOP (PROOUT), +10 PAW based schemes


 Dipole corrections
   LMONO  =      F    monopole corrections only (constant potential shift)
   LDIPOL =      F    correct potential (dipole corrections)
   IDIPOL =      0    1-x, 2-y, 3-z, 4-all directions 
   EPSILON=  1.0000000 bulk dielectric constant

 Exchange correlation treatment:
   GGA     =    --    GGA type
   LEXCH   =     8    internal setting for exchange type
   VOSKOWN=      0    Vosko Wilk Nusair interpolation
   LHFCALC =     F    Hartree Fock is set to
   LHFONE  =     F    Hartree Fock one center treatment
   AEXX    =    0.0000 exact exchange contribution

 Linear response parameters
   LEPSILON=     F    determine dielectric tensor
   LRPA    =     F    only Hartree local field effects (RPA)
   LNABLA  =     F    use nabla operator in PAW spheres
   LVEL    =     F    velocity operator in full k-point grid
   LINTERFAST=   F  fast interpolation
   KINTER  =     0    interpolate to denser k-point grid
   CSHIFT  =0.1000    complex shift for real part using Kramers Kronig
   OMEGAMAX=  -1.0    maximum frequency
   DEG_THRESHOLD= 0.2000000E-02 threshold for treating states as degnerate
   RTIME   =   -0.100 relaxation time in fs
  (WPLASMAI=    0.000 imaginary part of plasma frequency in eV, 0.658/RTIME)
   DFIELD  = 0.0000000 0.0000000 0.0000000 field for delta impulse in time
 
 Orbital magnetization related:
   ORBITALMAG=     F  switch on orbital magnetization
   LCHIMAG   =     F  perturbation theory with respect to B field
   DQ        =  0.001000  dq finite difference perturbation B field
   LLRAUG    =     F  two centre corrections for induced B field



--------------------------------------------------------------------------------------------------------


 Static calculation
 charge density and potential will be updated during run
 non-spin polarized calculation
 RMM-DIIS sequential band-by-band and
  variant of blocked Davidson during initial phase
 perform sub-space diagonalisation
    before iterative eigenvector-optimisation
 modified Broyden-mixing scheme, WC =      100.0
 initial mixing is a Kerker type mixing with AMIX =  0.4000 and BMIX =      1.0000
 Hartree-type preconditioning will be used
 using additional bands            4
 reciprocal scheme for non local part
 use partial core corrections
 calculate Harris-corrections to forces 
   (improved forces if not selfconsistent)
 use gradient corrections 
 use of overlap-Matrix (Vanderbilt PP)
 Fermi weights with tetrahedron method with Bloechl corrections


--------------------------------------------------------------------------------------------------------


  energy-cutoff  :      500.00
  volume of cell :      131.15
      direct lattice vectors                 reciprocal lattice vectors
     3.190315730  0.000000000  0.000000000     0.313448600  0.180969634  0.000000000
    -1.595157865  2.762894468  0.000000000     0.000000000  0.361939267  0.000000000
     0.000000000  0.000000000 14.879004300     0.000000000  0.000000000  0.067208798

  length of vectors
     3.190315730  3.190315730 14.879004300     0.361939267  0.361939267  0.067208798


 
 k-points in units of 2pi/SCALE and weight: k-density: 4.0                          
   0.00000000  0.00000000  0.00000000       0.008
   0.03918108  0.02262120  0.00000000       0.047
   0.07836215  0.04524241  0.00000000       0.047
   0.11754323  0.06786361  0.00000000       0.047
   0.15672430  0.09048482  0.00000000       0.023
   0.03918108  0.06786361  0.00000000       0.047
   0.07836215  0.09048482  0.00000000       0.094
   0.11754323  0.11310602  0.00000000       0.094
   0.07836215  0.13572723  0.00000000       0.047
   0.11754323  0.15834843  0.00000000       0.047
   0.00000000  0.00000000  0.03360440       0.008
   0.03918108  0.02262120  0.03360440       0.047
   0.07836215  0.04524241  0.03360440       0.047
   0.11754323  0.06786361  0.03360440       0.047
   0.15672430  0.09048482  0.03360440       0.023
   0.03918108  0.06786361  0.03360440       0.047
   0.07836215  0.09048482  0.03360440       0.094
   0.11754323  0.11310602  0.03360440       0.094
   0.07836215  0.13572723  0.03360440       0.047
   0.11754323  0.15834843  0.03360440       0.047
 
 k-points in reciprocal lattice and weights: k-density: 4.0                          
   0.00000000  0.00000000  0.00000000       0.008
   0.12500000 -0.00000000  0.00000000       0.047
   0.25000000 -0.00000000  0.00000000       0.047
   0.37500000 -0.00000000  0.00000000       0.047
   0.50000000 -0.00000000  0.00000000       0.023
   0.12500000  0.12500000  0.00000000       0.047
   0.25000000  0.12500000  0.00000000       0.094
   0.37500000  0.12500000  0.00000000       0.094
   0.25000000  0.25000000  0.00000000       0.047
   0.37500000  0.25000000  0.00000000       0.047
   0.00000000  0.00000000  0.50000000       0.008
   0.12500000 -0.00000000  0.50000000       0.047
   0.25000000 -0.00000000  0.50000000       0.047
   0.37500000 -0.00000000  0.50000000       0.047
   0.50000000 -0.00000000  0.50000000       0.023
   0.12500000  0.12500000  0.50000000       0.047
   0.25000000  0.12500000  0.50000000       0.094
   0.37500000  0.12500000  0.50000000       0.094
   0.25000000  0.25000000  0.50000000       0.047
   0.37500000  0.25000000  0.50000000       0.047
 
 position of ions in fractional coordinates (direct lattice) 
   0.33333300  0.66666700  0.25000000
   0.66666700  0.33333300  0.75000000
   0.33333300  0.66666700  0.85517400
   0.66666700  0.33333300  0.14482600
   0.66666600  0.33333300  0.35517400
   0.33333400  0.66666700  0.64482600
 
 position of ions in cartesian coordinates  (Angst):
  -0.00000160  1.84193057  3.71975108
   1.59515946  0.92096390 11.15925323
  -0.00000160  1.84193057 12.72413762
   1.59515946  0.92096390  2.15486668
   1.59515627  0.92096390  5.28463547
   0.00000160  1.84193057  9.59436883
 


--------------------------------------------------------------------------------------------------------


 k-point  1 :   0.0000 0.0000 0.0000  plane waves:    3313
 k-point  2 :   0.1250-0.0000 0.0000  plane waves:    3314
 k-point  3 :   0.2500-0.0000 0.0000  plane waves:    3328
 k-point  4 :   0.3750-0.0000 0.0000  plane waves:    3344
 k-point  5 :   0.5000-0.0000 0.0000  plane waves:    3328
 k-point  6 :   0.1250 0.1250 0.0000  plane waves:    3324
 k-point  7 :   0.2500 0.1250 0.0000  plane waves:    3331
 k-point  8 :   0.3750 0.1250 0.0000  plane waves:    3337
 k-point  9 :   0.2500 0.2500 0.0000  plane waves:    3322
 k-point 10 :   0.3750 0.2500 0.0000  plane waves:    3318
 k-point 11 :   0.0000 0.0000 0.5000  plane waves:    3318
 k-point 12 :   0.1250-0.0000 0.5000  plane waves:    3310
 k-point 13 :   0.2500-0.0000 0.5000  plane waves:    3330
 k-point 14 :   0.3750-0.0000 0.5000  plane waves:    3344
 k-point 15 :   0.5000-0.0000 0.5000  plane waves:    3356
 k-point 16 :   0.1250 0.1250 0.5000  plane waves:    3316
 k-point 17 :   0.2500 0.1250 0.5000  plane waves:    3338
 k-point 18 :   0.3750 0.1250 0.5000  plane waves:    3328
 k-point 19 :   0.2500 0.2500 0.5000  plane waves:    3330
 k-point 20 :   0.3750 0.2500 0.5000  plane waves:    3326

 maximum and minimum number of plane-waves per node :      1686     1647

 maximum number of plane-waves:      3356
 maximum index in each direction: 
   IXMAX=    5   IYMAX=    5   IZMAX=   27
   IXMIN=   -6   IYMIN=   -6   IZMIN=  -27


 parallel 3D FFT for wavefunctions:
    minimum data exchange during FFTs selected (reduces bandwidth)
 parallel 3D FFT for charge:
    minimum data exchange during FFTs selected (reduces bandwidth)


 total amount of memory used by VASP MPI-rank0    51787. kBytes
=======================================================================

   base      :      30000. kBytes
   nonl-proj :       9826. kBytes
   fftplans  :       2268. kBytes
   grid      :       3621. kBytes
   one-center:         46. kBytes
   wavefun   :       6026. kBytes
 
     INWAV:  cpu time    0.0010: real time    0.0003
 Broyden mixing: mesh for mixing (old mesh)
   NGX = 11   NGY = 11   NGZ = 55
  (NGX  = 36   NGY  = 36   NGZ  =168)
  gives a total of   6655 points

 initial charge density was supplied:
 charge density of overlapping atoms calculated
 number of electron      36.0000000 magnetization 
 keeping initial charge density in first step


--------------------------------------------------------------------------------------------------------


 Maximum index for augmentation-charges         3137 (set IRDMAX)


--------------------------------------------------------------------------------------------------------


 First call to EWALD:  gamma=   0.349
 Maximum number of real-space cells 5x 5x 1
 Maximum number of reciprocal cells 2x 2x 7

    FEWALD:  cpu time    0.0020: real time    0.0015


--------------------------------------- Iteration      1(   1)  ---------------------------------------


    POTLOK:  cpu time    0.0310: real time    0.0587
    SETDIJ:  cpu time    0.0050: real time    0.0054
     EDDAV:  cpu time    0.4689: real time    0.4749
 BZINTS: Fermi energy: 14.753072; 36.000000 electrons
         Band energy: 179.223893;  BLOECHL correction: -0.280079
       DOS:  cpu time    0.0040: real time    0.0045
    --------------------------------------------
      LOOP:  cpu time    0.5089: real time    0.5434

 eigenvalue-minimisations  :   880
 total energy-change (2. order) : 0.2124728E+03  (-0.1562290E+04)
 number of electron      36.0000000 magnetization 
 augmentation part       36.0000000 magnetization 

 Free energy of the ion-electron system (eV)
  ---------------------------------------------------
  alpha Z        PSCENC =        90.42577596
  Ewald energy   TEWEN  =     -1146.88905665
  -Hartree energ DENC   =      -535.10238363
  -exchange      EXHF   =         0.00000000
  -V(xc)+E(xc)   XCENC  =       -72.59368245
  PAW double counting   =       813.77302396     -658.68146406
  entropy T*S    EENTRO =         0.00000000
  eigenvalues    EBANDS =       179.22389264
  atomic energy  EATOM  =      1542.31672482
  Solvation  Ediel_sol  =         0.00000000
  ---------------------------------------------------
  free energy    TOTEN  =       212.47283061 eV

  energy without entropy =      212.47283061  energy(sigma->0) =      212.47283061


--------------------------------------------------------------------------------------------------------




--------------------------------------- Iteration      1(   2)  ---------------------------------------


     EDDAV:  cpu time    0.5799: real time    0.5821
 BZINTS: Fermi energy:  5.469977; 36.000000 electrons
         Band energy: -59.758485;  BLOECHL correction:  0.000000
       DOS:  cpu time    0.0000: real time    0.0011
    --------------------------------------------
      LOOP:  cpu time    0.5799: real time    0.5832

 eigenvalue-minimisations  :  1172
 total energy-change (2. order) :-0.2389824E+03  (-0.2318663E+03)
 number of electron      36.0000000 magnetization 
 augmentation part       36.0000000 magnetization 

 Free energy of the ion-electron system (eV)
  ---------------------------------------------------
  alpha Z        PSCENC =        90.42577596
  Ewald energy   TEWEN  =     -1146.88905665
  -Hartree energ DENC   =      -535.10238363
  -exchange      EXHF   =         0.00000000
  -V(xc)+E(xc)   XCENC  =       -72.59368245
  PAW double counting   =       813.77302396     -658.68146406
  entropy T*S    EENTRO =         0.00000000
  eigenvalues    EBANDS =       -59.75848511
  atomic energy  EATOM  =      1542.31672482
  Solvation  Ediel_sol  =         0.00000000
  ---------------------------------------------------
  free energy    TOTEN  =       -26.50954714 eV

  energy without entropy =      -26.50954714  energy(sigma->0) =      -26.50954714


--------------------------------------------------------------------------------------------------------




--------------------------------------- Iteration      1(   3)  ---------------------------------------


     EDDAV:  cpu time    0.5869: real time    0.5883
 BZINTS: Fermi energy:  3.985693; 36.000000 electrons
         Band energy: -79.453974;  BLOECHL correction:  0.000000
       DOS:  cpu time    0.0010: real time    0.0012
    --------------------------------------------
      LOOP:  cpu time    0.5879: real time    0.5896

 eigenvalue-minimisations  :  1186
 total energy-change (2. order) :-0.1969549E+02  (-0.1960155E+02)
 number of electron      36.0000000 magnetization 
 augmentation part       36.0000000 magnetization 

 Free energy of the ion-electron system (eV)
  ---------------------------------------------------
  alpha Z        PSCENC =        90.42577596
  Ewald energy   TEWEN  =     -1146.88905665
  -Hartree energ DENC   =      -535.10238363
  -exchange      EXHF   =         0.00000000
  -V(xc)+E(xc)   XCENC  =       -72.59368245
  PAW double counting   =       813.77302396     -658.68146406
  entropy T*S    EENTRO =         0.00000000
  eigenvalues    EBANDS =       -79.45397386
  atomic energy  EATOM  =      1542.31672482
  Solvation  Ediel_sol  =         0.00000000
  ---------------------------------------------------
  free energy    TOTEN  =       -46.20503589 eV

  energy without entropy =      -46.20503589  energy(sigma->0) =      -46.20503589


--------------------------------------------------------------------------------------------------------




--------------------------------------- Iteration      1(   4)  ---------------------------------------


     EDDAV:  cpu time    0.5929: real time    0.5937
 BZINTS: Fermi energy:  3.866344; 36.000000 electrons
         Band energy: -80.055710;  BLOECHL correction:  0.000000
       DOS:  cpu time    0.0010: real time    0.0011
    --------------------------------------------
      LOOP:  cpu time    0.5939: real time    0.5948

 eigenvalue-minimisations  :  1210
 total energy-change (2. order) :-0.6017365E+00  (-0.6007890E+00)
 number of electron      36.0000000 magnetization 
 augmentation part       36.0000000 magnetization 

 Free energy of the ion-electron system (eV)
  ---------------------------------------------------
  alpha Z        PSCENC =        90.42577596
  Ewald energy   TEWEN  =     -1146.88905665
  -Hartree energ DENC   =      -535.10238363
  -exchange      EXHF   =         0.00000000
  -V(xc)+E(xc)   XCENC  =       -72.59368245
  PAW double counting   =       813.77302396     -658.68146406
  entropy T*S    EENTRO =         0.00000000
  eigenvalues    EBANDS =       -80.05571033
  atomic energy  EATOM  =      1542.31672482
  Solvation  Ediel_sol  =         0.00000000
  ---------------------------------------------------
  free energy    TOTEN  =       -46.80677236 eV

  energy without entropy =      -46.80677236  energy(sigma->0) =      -46.80677236


--------------------------------------------------------------------------------------------------------




--------------------------------------- Iteration      1(   5)  ---------------------------------------


     EDDAV:  cpu time    0.5929: real time    0.5958
 BZINTS: Fermi energy:  3.866088; 36.000000 electrons
         Band energy: -80.070578;  BLOECHL correction:  0.000000
       DOS:  cpu time    0.0010: real time    0.0011
    CHARGE:  cpu time    0.0390: real time    0.0390
    MIXING:  cpu time    0.0010: real time    0.0012
    --------------------------------------------
      LOOP:  cpu time    0.6339: real time    0.6371

 eigenvalue-minimisations  :  1208
 total energy-change (2. order) :-0.1486738E-01  (-0.1486065E-01)
 number of electron      36.0000012 magnetization 
 augmentation part       -1.8904576 magnetization 

 Broyden mixing:
  rms(total) = 0.97361E+00    rms(broyden)= 0.97360E+00
  rms(prec ) = 0.12182E+01
  weight for this iteration     100.00

 Free energy of the ion-electron system (eV)
  ---------------------------------------------------
  alpha Z        PSCENC =        90.42577596
  Ewald energy   TEWEN  =     -1146.88905665
  -Hartree energ DENC   =      -535.10238363
  -exchange      EXHF   =         0.00000000
  -V(xc)+E(xc)   XCENC  =       -72.59368245
  PAW double counting   =       813.77302396     -658.68146406
  entropy T*S    EENTRO =         0.00000000
  eigenvalues    EBANDS =       -80.07057771
  atomic energy  EATOM  =      1542.31672482
  Solvation  Ediel_sol  =         0.00000000
  ---------------------------------------------------
  free energy    TOTEN  =       -46.82163974 eV

  energy without entropy =      -46.82163974  energy(sigma->0) =      -46.82163974


--------------------------------------------------------------------------------------------------------




--------------------------------------- Iteration      1(   6)  ---------------------------------------


    POTLOK:  cpu time    0.0270: real time    0.0275
    SETDIJ:  cpu time    0.0050: real time    0.0042
    EDDIAG:  cpu time    0.0970: real time    0.0976
  RMM-DIIS:  cpu time    0.3949: real time    0.3949
    ORTHCH:  cpu time    0.0110: real time    0.0112
 BZINTS: Fermi energy:  2.892957; 36.000000 electrons
         Band energy: -79.162588;  BLOECHL correction:  0.000000
       DOS:  cpu time    0.0020: real time    0.0013
    CHARGE:  cpu time    0.0390: real time    0.0391
    MIXING:  cpu time    0.0010: real time    0.0009
    --------------------------------------------
      LOOP:  cpu time    0.5769: real time    0.5766

 eigenvalue-minimisations  :   981
 total energy-change (2. order) : 0.2394240E+01  (-0.2431394E+01)
 number of electron      36.0000013 magnetization 
 augmentation part       -0.8645559 magnetization 

 Broyden mixing:
  rms(total) = 0.33526E+00    rms(broyden)= 0.33526E+00
  rms(prec ) = 0.49046E+00
  weight for this iteration     100.00

 eigenvalues of (default mixing * dielectric matrix)
  average eigenvalue GAMMA=   0.8763
  0.8763

 Free energy of the ion-electron system (eV)
  ---------------------------------------------------
  alpha Z        PSCENC =        90.42577596
  Ewald energy   TEWEN  =     -1146.88905665
  -Hartree energ DENC   =      -533.60699735
  -exchange      EXHF   =         0.00000000
  -V(xc)+E(xc)   XCENC  =       -70.82365585
  PAW double counting   =       847.82700614     -694.51460924
  entropy T*S    EENTRO =         0.00000000
  eigenvalues    EBANDS =       -79.16258751
  atomic energy  EATOM  =      1542.31672482
  Solvation  Ediel_sol  =         0.00000000
  ---------------------------------------------------
  free energy    TOTEN  =       -44.42739966 eV

  energy without entropy =      -44.42739966  energy(sigma->0) =      -44.42739966


--------------------------------------------------------------------------------------------------------




--------------------------------------- Iteration      1(   7)  ---------------------------------------


    POTLOK:  cpu time    0.0260: real time    0.0303
    SETDIJ:  cpu time    0.0050: real time    0.0042
    EDDIAG:  cpu time    0.0960: real time    0.0962
  RMM-DIIS:  cpu time    0.3899: real time    0.3891
    ORTHCH:  cpu time    0.0100: real time    0.0110
 BZINTS: Fermi energy:  3.209841; 36.000000 electrons
         Band energy: -73.422544;  BLOECHL correction:  0.000000
       DOS:  cpu time    0.0010: real time    0.0011
    CHARGE:  cpu time    0.0380: real time    0.0385
    MIXING:  cpu time    0.0020: real time    0.0009
    --------------------------------------------
      LOOP:  cpu time    0.5679: real time    0.5714

 eigenvalue-minimisations  :   970
 total energy-change (2. order) : 0.7321340E+00  (-0.1932991E+00)
 number of electron      36.0000013 magnetization 
 augmentation part       -1.1115130 magnetization 

 Broyden mixing:
  rms(total) = 0.17813E+00    rms(broyden)= 0.17813E+00
  rms(prec ) = 0.21291E+00
  weight for this iteration     100.00

 eigenvalues of (default mixing * dielectric matrix)
  average eigenvalue GAMMA=   1.4113
  0.7618  2.0607

 Free energy of the ion-electron system (eV)
  ---------------------------------------------------
  alpha Z        PSCENC =        90.42577596
  Ewald energy   TEWEN  =     -1146.88905665
  -Hartree energ DENC   =      -537.92814994
  -exchange      EXHF   =         0.00000000
  -V(xc)+E(xc)   XCENC  =       -71.01120377
  PAW double counting   =       881.18947109     -728.37628275
  entropy T*S    EENTRO =         0.00000000
  eigenvalues    EBANDS =       -73.42254438
  atomic energy  EATOM  =      1542.31672482
  Solvation  Ediel_sol  =         0.00000000
  ---------------------------------------------------
  free energy    TOTEN  =       -43.69526562 eV

  energy without entropy =      -43.69526562  energy(sigma->0) =      -43.69526562


--------------------------------------------------------------------------------------------------------




--------------------------------------- Iteration      1(   8)  ---------------------------------------


    POTLOK:  cpu time    0.0270: real time    0.0273
    SETDIJ:  cpu time    0.0040: real time    0.0042
    EDDIAG:  cpu time    0.0960: real time    0.0963
  RMM-DIIS:  cpu time    0.4029: real time    0.4017
    ORTHCH:  cpu time    0.0100: real time    0.0110
 BZINTS: Fermi energy:  3.375480; 36.000000 electrons
         Band energy: -68.472558;  BLOECHL correction:  0.000000
       DOS:  cpu time    0.0010: real time    0.0012
    CHARGE:  cpu time    0.0390: real time    0.0386
    MIXING:  cpu time    0.0010: real time    0.0016
    --------------------------------------------
      LOOP:  cpu time    0.5809: real time    0.5820

 eigenvalue-minimisations  :  1006
 total energy-change (2. order) : 0.6352125E-01  (-0.8926515E-01)
 number of electron      36.0000013 magnetization 
 augmentation part       -1.1692083 magnetization 

 Broyden mixing:
  rms(total) = 0.82711E-01    rms(broyden)= 0.82711E-01
  rms(prec ) = 0.11039E+00
  weight for this iteration     100.00

 eigenvalues of (default mixing * dielectric matrix)
  average eigenvalue GAMMA=   1.4908
  2.1248  1.5257  0.8220

 Free energy of the ion-electron system (eV)
  ---------------------------------------------------
  alpha Z        PSCENC =        90.42577596
  Ewald energy   TEWEN  =     -1146.88905665
  -Hartree energ DENC   =      -542.21101101
  -exchange      EXHF   =         0.00000000
  -V(xc)+E(xc)   XCENC  =       -70.62919022
  PAW double counting   =       931.69458913     -779.86701852
  entropy T*S    EENTRO =         0.00000000
  eigenvalues    EBANDS =       -68.47255789
  atomic energy  EATOM  =      1542.31672482
  Solvation  Ediel_sol  =         0.00000000
  ---------------------------------------------------
  free energy    TOTEN  =       -43.63174437 eV

  energy without entropy =      -43.63174437  energy(sigma->0) =      -43.63174437


--------------------------------------------------------------------------------------------------------




--------------------------------------- Iteration      1(   9)  ---------------------------------------


    POTLOK:  cpu time    0.0270: real time    0.0298
    SETDIJ:  cpu time    0.0050: real time    0.0042
    EDDIAG:  cpu time    0.0960: real time    0.0962
  RMM-DIIS:  cpu time    0.4169: real time    0.4165
    ORTHCH:  cpu time    0.0100: real time    0.0111
 BZINTS: Fermi energy:  3.238814; 36.000000 electrons
         Band energy: -68.910124;  BLOECHL correction:  0.000000
       DOS:  cpu time    0.0010: real time    0.0012
    CHARGE:  cpu time    0.0390: real time    0.0386
    MIXING:  cpu time    0.0020: real time    0.0010
    --------------------------------------------
      LOOP:  cpu time    0.5969: real time    0.5985

 eigenvalue-minimisations  :  1038
 total energy-change (2. order) : 0.9336990E-02  (-0.2934054E-01)
 number of electron      36.0000013 magnetization 
 augmentation part       -1.0439147 magnetization 

 Broyden mixing:
  rms(total) = 0.57515E-01    rms(broyden)= 0.57514E-01
  rms(prec ) = 0.80133E-01
  weight for this iteration     100.00

 eigenvalues of (default mixing * dielectric matrix)
  average eigenvalue GAMMA=   1.5317
  2.1523  2.1523  0.9112  0.9112

 Free energy of the ion-electron system (eV)
  ---------------------------------------------------
  alpha Z        PSCENC =        90.42577596
  Ewald energy   TEWEN  =     -1146.88905665
  -Hartree energ DENC   =      -541.85027330
  -exchange      EXHF   =         0.00000000
  -V(xc)+E(xc)   XCENC  =       -70.36800787
  PAW double counting   =       938.50343385     -786.85088022
  entropy T*S    EENTRO =         0.00000000
  eigenvalues    EBANDS =       -68.91012398
  atomic energy  EATOM  =      1542.31672482
  Solvation  Ediel_sol  =         0.00000000
  ---------------------------------------------------
  free energy    TOTEN  =       -43.62240738 eV

  energy without entropy =      -43.62240738  energy(sigma->0) =      -43.62240738


--------------------------------------------------------------------------------------------------------




--------------------------------------- Iteration      1(  10)  ---------------------------------------


    POTLOK:  cpu time    0.0260: real time    0.0272
    SETDIJ:  cpu time    0.0050: real time    0.0042
    EDDIAG:  cpu time    0.0960: real time    0.0962
  RMM-DIIS:  cpu time    0.4229: real time    0.4229
    ORTHCH:  cpu time    0.0100: real time    0.0111
 BZINTS: Fermi energy:  3.369563; 36.000000 electrons
         Band energy: -68.007748;  BLOECHL correction:  0.000000
       DOS:  cpu time    0.0020: real time    0.0012
    CHARGE:  cpu time    0.0380: real time    0.0385
    MIXING:  cpu time    0.0020: real time    0.0010
    --------------------------------------------
      LOOP:  cpu time    0.6019: real time    0.6024

 eigenvalue-minimisations  :  1049
 total energy-change (2. order) : 0.1611532E-01  (-0.6968940E-02)
 number of electron      36.0000013 magnetization 
 augmentation part       -1.1069095 magnetization 

 Broyden mixing:
  rms(total) = 0.89533E-02    rms(broyden)= 0.89530E-02
  rms(prec ) = 0.11543E-01
  weight for this iteration     100.00

 eigenvalues of (default mixing * dielectric matrix)
  average eigenvalue GAMMA=   1.4315
  2.4499  1.6328  0.8886  0.8886  1.2977

 Free energy of the ion-electron system (eV)
  ---------------------------------------------------
  alpha Z        PSCENC =        90.42577596
  Ewald energy   TEWEN  =     -1146.88905665
  -Hartree energ DENC   =      -542.64091140
  -exchange      EXHF   =         0.00000000
  -V(xc)+E(xc)   XCENC  =       -70.42511924
  PAW double counting   =       944.29917348     -792.68513072
  entropy T*S    EENTRO =         0.00000000
  eigenvalues    EBANDS =       -68.00774831
  atomic energy  EATOM  =      1542.31672482
  Solvation  Ediel_sol  =         0.00000000
  ---------------------------------------------------
  free energy    TOTEN  =       -43.60629206 eV

  energy without entropy =      -43.60629206  energy(sigma->0) =      -43.60629206


--------------------------------------------------------------------------------------------------------




--------------------------------------- Iteration      1(  11)  ---------------------------------------


    POTLOK:  cpu time    0.0270: real time    0.0296
    SETDIJ:  cpu time    0.0050: real time    0.0043
    EDDIAG:  cpu time    0.0970: real time    0.0973
  RMM-DIIS:  cpu time    0.4409: real time    0.4407
    ORTHCH:  cpu time    0.0100: real time    0.0111
 BZINTS: Fermi energy:  3.298587; 36.000000 electrons
         Band energy: -67.899740;  BLOECHL correction:  0.000000
       DOS:  cpu time    0.0010: real time    0.0011
    CHARGE:  cpu time    0.0400: real time    0.0393
    MIXING:  cpu time    0.0010: real time    0.0011
    --------------------------------------------
      LOOP:  cpu time    0.6219: real time    0.6245

 eigenvalue-minimisations  :  1104
 total energy-change (2. order) : 0.6802054E-04  (-0.3148852E-03)
 number of electron      36.0000013 magnetization 
 augmentation part       -1.0993795 magnetization 

 Broyden mixing:
  rms(total) = 0.30619E-02    rms(broyden)= 0.30619E-02
  rms(prec ) = 0.37438E-02
  weight for this iteration     100.00

 eigenvalues of (default mixing * dielectric matrix)
  average eigenvalue GAMMA=   1.6482
  2.6577  2.6577  1.8343  0.8914  0.8914  0.9568

 Free energy of the ion-electron system (eV)
  ---------------------------------------------------
  alpha Z        PSCENC =        90.42577596
  Ewald energy   TEWEN  =     -1146.88905665
  -Hartree energ DENC   =      -542.76846122
  -exchange      EXHF   =         0.00000000
  -V(xc)+E(xc)   XCENC  =       -70.39674201
  PAW double counting   =       944.55030063     -792.94502538
  entropy T*S    EENTRO =         0.00000000
  eigenvalues    EBANDS =       -67.89974019
  atomic energy  EATOM  =      1542.31672482
  Solvation  Ediel_sol  =         0.00000000
  ---------------------------------------------------
  free energy    TOTEN  =       -43.60622404 eV

  energy without entropy =      -43.60622404  energy(sigma->0) =      -43.60622404


--------------------------------------------------------------------------------------------------------




--------------------------------------- Iteration      1(  12)  ---------------------------------------


    POTLOK:  cpu time    0.0270: real time    0.0275
    SETDIJ:  cpu time    0.0050: real time    0.0043
    EDDIAG:  cpu time    0.0970: real time    0.0975
  RMM-DIIS:  cpu time    0.4459: real time    0.4449
    ORTHCH:  cpu time    0.0100: real time    0.0112
 BZINTS: Fermi energy:  3.302459; 36.000000 electrons
         Band energy: -67.726490;  BLOECHL correction:  0.000000
       DOS:  cpu time    0.0010: real time    0.0011
    CHARGE:  cpu time    0.0400: real time    0.0394
    MIXING:  cpu time    0.0010: real time    0.0012
    --------------------------------------------
      LOOP:  cpu time    0.6269: real time    0.6270

 eigenvalue-minimisations  :  1124
 total energy-change (2. order) :-0.1543913E-03  (-0.5833094E-04)
 number of electron      36.0000013 magnetization 
 augmentation part       -1.0977806 magnetization 

 Broyden mixing:
  rms(total) = 0.22560E-02    rms(broyden)= 0.22560E-02
  rms(prec ) = 0.28717E-02
  weight for this iteration     100.00

 eigenvalues of (default mixing * dielectric matrix)
  average eigenvalue GAMMA=   1.5929
  2.9638  2.3758  1.5527  1.5527  0.8943  0.8943  0.9169

 Free energy of the ion-electron system (eV)
  ---------------------------------------------------
  alpha Z        PSCENC =        90.42577596
  Ewald energy   TEWEN  =     -1146.88905665
  -Hartree energ DENC   =      -542.96496543
  -exchange      EXHF   =         0.00000000
  -V(xc)+E(xc)   XCENC  =       -70.38728648
  PAW double counting   =       944.23054571     -792.61162609
  entropy T*S    EENTRO =         0.00000000
  eigenvalues    EBANDS =       -67.72649028
  atomic energy  EATOM  =      1542.31672482
  Solvation  Ediel_sol  =         0.00000000
  ---------------------------------------------------
  free energy    TOTEN  =       -43.60637843 eV

  energy without entropy =      -43.60637843  energy(sigma->0) =      -43.60637843


--------------------------------------------------------------------------------------------------------




--------------------------------------- Iteration      1(  13)  ---------------------------------------


    POTLOK:  cpu time    0.0280: real time    0.0299
    SETDIJ:  cpu time    0.0040: real time    0.0043
    EDDIAG:  cpu time    0.0970: real time    0.0973
  RMM-DIIS:  cpu time    0.4559: real time    0.4557
    ORTHCH:  cpu time    0.0110: real time    0.0112
 BZINTS: Fermi energy:  3.304799; 36.000000 electrons
         Band energy: -67.717412;  BLOECHL correction:  0.000000
       DOS:  cpu time    0.0010: real time    0.0011
    CHARGE:  cpu time    0.0390: real time    0.0392
    MIXING:  cpu time    0.0020: real time    0.0012
    --------------------------------------------
      LOOP:  cpu time    0.6379: real time    0.6399

 eigenvalue-minimisations  :  1144
 total energy-change (2. order) :-0.5004906E-05  (-0.3582227E-04)
 number of electron      36.0000013 magnetization 
 augmentation part       -1.1014980 magnetization 

 Broyden mixing:
  rms(total) = 0.18689E-02    rms(broyden)= 0.18689E-02
  rms(prec ) = 0.25073E-02
  weight for this iteration     100.00

 eigenvalues of (default mixing * dielectric matrix)
  average eigenvalue GAMMA=   1.7422
  3.1870  2.6694  2.6694  1.6045  1.1482  0.8854  0.8854  0.8885

 Free energy of the ion-electron system (eV)
  ---------------------------------------------------
  alpha Z        PSCENC =        90.42577596
  Ewald energy   TEWEN  =     -1146.88905665
  -Hartree energ DENC   =      -542.96893321
  -exchange      EXHF   =         0.00000000
  -V(xc)+E(xc)   XCENC  =       -70.39129518
  PAW double counting   =       944.40958756     -792.79177483
  entropy T*S    EENTRO =         0.00000000
  eigenvalues    EBANDS =       -67.71741191
  atomic energy  EATOM  =      1542.31672482
  Solvation  Ediel_sol  =         0.00000000
  ---------------------------------------------------
  free energy    TOTEN  =       -43.60638343 eV

  energy without entropy =      -43.60638343  energy(sigma->0) =      -43.60638343


--------------------------------------------------------------------------------------------------------




--------------------------------------- Iteration      1(  14)  ---------------------------------------


    POTLOK:  cpu time    0.0270: real time    0.0278
    SETDIJ:  cpu time    0.0050: real time    0.0043
    EDDIAG:  cpu time    0.0970: real time    0.0975
  RMM-DIIS:  cpu time    0.3579: real time    0.3575
    ORTHCH:  cpu time    0.0110: real time    0.0112
 BZINTS: Fermi energy:  3.302971; 36.000000 electrons
         Band energy: -67.737445;  BLOECHL correction:  0.000000
       DOS:  cpu time    0.0010: real time    0.0011
    CHARGE:  cpu time    0.0390: real time    0.0392
    MIXING:  cpu time    0.0010: real time    0.0013
    --------------------------------------------
      LOOP:  cpu time    0.5389: real time    0.5398

 eigenvalue-minimisations  :   875
 total energy-change (2. order) : 0.1393020E-04  (-0.6512171E-05)
 number of electron      36.0000013 magnetization 
 augmentation part       -1.0998004 magnetization 

 Broyden mixing:
  rms(total) = 0.25555E-03    rms(broyden)= 0.25553E-03
  rms(prec ) = 0.29915E-03
  weight for this iteration     100.00

 eigenvalues of (default mixing * dielectric matrix)
  average eigenvalue GAMMA=   1.6086
  3.0388  2.7686  2.2402  1.3814  1.3814  0.8827  0.8827  0.9759  0.9257

 Free energy of the ion-electron system (eV)
  ---------------------------------------------------
  alpha Z        PSCENC =        90.42577596
  Ewald energy   TEWEN  =     -1146.88905665
  -Hartree energ DENC   =      -542.95119533
  -exchange      EXHF   =         0.00000000
  -V(xc)+E(xc)   XCENC  =       -70.38854202
  PAW double counting   =       944.25713138     -792.63976287
  entropy T*S    EENTRO =         0.00000000
  eigenvalues    EBANDS =       -67.73744479
  atomic energy  EATOM  =      1542.31672482
  Solvation  Ediel_sol  =         0.00000000
  ---------------------------------------------------
  free energy    TOTEN  =       -43.60636950 eV

  energy without entropy =      -43.60636950  energy(sigma->0) =      -43.60636950


--------------------------------------------------------------------------------------------------------




--------------------------------------- Iteration      1(  15)  ---------------------------------------


    POTLOK:  cpu time    0.0280: real time    0.0304
    SETDIJ:  cpu time    0.0050: real time    0.0043
    EDDIAG:  cpu time    0.0970: real time    0.0975
  RMM-DIIS:  cpu time    0.2860: real time    0.2861
    ORTHCH:  cpu time    0.0110: real time    0.0112
 BZINTS: Fermi energy:  3.302773; 36.000000 electrons
         Band energy: -67.731215;  BLOECHL correction:  0.000000
       DOS:  cpu time    0.0010: real time    0.0011
    --------------------------------------------
      LOOP:  cpu time    0.4279: real time    0.4305

 eigenvalue-minimisations  :   674
 total energy-change (2. order) :-0.3034011E-06  (-0.8466828E-06)
 number of electron      36.0000013 magnetization 
 augmentation part       -1.0998004 magnetization 

 Free energy of the ion-electron system (eV)
  ---------------------------------------------------
  alpha Z        PSCENC =        90.42577596
  Ewald energy   TEWEN  =     -1146.88905665
  -Hartree energ DENC   =      -542.95832685
  -exchange      EXHF   =         0.00000000
  -V(xc)+E(xc)   XCENC  =       -70.38847315
  PAW double counting   =       944.21835335     -792.60015185
  entropy T*S    EENTRO =         0.00000000
  eigenvalues    EBANDS =       -67.73121545
  atomic energy  EATOM  =      1542.31672482
  Solvation  Ediel_sol  =         0.00000000
  ---------------------------------------------------
  free energy    TOTEN  =       -43.60636981 eV

  energy without entropy =      -43.60636981  energy(sigma->0) =      -43.60636981


--------------------------------------------------------------------------------------------------------




 average (electrostatic) potential at core
  the test charge radii are     1.2296  0.9698
  (the norm of the test charge is              1.0000)
       1 -40.3320       2 -40.3320       3 -88.1708       4 -88.1708       5 -88.1708
       6 -88.1708
 
 
 
 E-fermi :   3.3028     XC(G=0):  -9.3244     alpha+bet : -9.6368


 k-point     1 :       0.0000    0.0000    0.0000
  band No.  band energies     occupation 
      1     -10.9296      2.00000
      2     -10.9106      2.00000
      3      -9.7292      2.00000
      4      -9.6952      2.00000
      5      -2.5234      2.00000
      6      -2.3619      2.00000
      7       0.5198      2.00000
      8       0.5198      2.00000
      9       0.5203      2.00000
     10       0.5203      2.00000
     11       1.1062      2.00000
     12       1.6248      2.00000
     13       1.6248      2.00000
     14       1.6266      2.00000
     15       1.6266      2.00000
     16       1.6746      2.00000
     17       2.9225      2.00000
     18       3.2982      2.00000
     19       5.8749      0.00000
     20       5.8881      0.00000
     21       5.9953      0.00000
     22       6.0832      0.00000

 k-point     2 :       0.1250   -0.0000    0.0000
  band No.  band energies     occupation 
      1     -10.7152      2.00000
      2     -10.6966      2.00000
      3      -9.6255      2.00000
      4      -9.5940      2.00000
      5      -2.2775      2.00000
      6      -2.1187      2.00000
      7       0.0553      2.00000
      8       0.0580      2.00000
      9       0.4566      2.00000
     10       0.6728      2.00000
     11       0.7539      2.00000
     12       0.7551      2.00000
     13       1.2887      2.00000
     14       1.2913      2.00000
     15       1.9307      2.00000
     16       2.2146      2.00000
     17       2.8433      2.00000
     18       3.0853      2.00000
     19       5.5149      0.00000
     20       5.6789      0.00000
     21       5.7089      0.00000
     22       5.7655      0.00000

 k-point     3 :       0.2500   -0.0000    0.0000
  band No.  band energies     occupation 
      1     -10.1455      2.00000
      2     -10.1288      2.00000
      3      -9.3531      2.00000
      4      -9.3287      2.00000
      5      -1.8876      2.00000
      6      -1.7768      2.00000
      7      -0.6914      2.00000
      8      -0.6479      2.00000
      9      -0.4611      2.00000
     10      -0.3597      2.00000
     11       0.6532      2.00000
     12       0.6567      2.00000
     13       1.3398      2.00000
     14       1.3434      2.00000
     15       1.7042      2.00000
     16       1.9129      2.00000
     17       2.3698      2.00000
     18       2.4183      2.00000
     19       5.1195      0.00000
     20       5.4384      0.00000
     21       5.4474      0.00000
     22       5.4689      0.00000

 k-point     4 :       0.3750   -0.0000    0.0000
  band No.  band energies     occupation 
      1      -9.4680      2.00000
      2      -9.4561      2.00000
      3      -9.0395      2.00000
      4      -9.0252      2.00000
      5      -2.2851      2.00000
      6      -2.2504      2.00000
      7      -1.2974      2.00000
      8      -1.2544      2.00000
      9      -0.8464      2.00000
     10      -0.7614      2.00000
     11       0.1556      2.00000
     12       0.1596      2.00000
     13       1.3421      2.00000
     14       1.4497      2.00000
     15       1.9279      2.00000
     16       1.9365      2.00000
     17       2.1735      2.00000
     18       2.2242      2.00000
     19       5.2593      0.00000
     20       5.2684      0.00000
     21       5.4543      0.00000
     22       5.6334      0.00000

 k-point     5 :       0.5000   -0.0000    0.0000
  band No.  band energies     occupation 
      1      -9.1370      2.00000
      2      -9.1305      2.00000
      3      -8.8923      2.00000
      4      -8.8858      2.00000
      5      -2.6135      2.00000
      6      -2.5866      2.00000
      7      -1.6527      2.00000
      8      -1.6282      2.00000
      9      -0.9682      2.00000
     10      -0.8923      2.00000
     11      -0.0250      2.00000
     12      -0.0208      2.00000
     13       1.2467      2.00000
     14       1.2662      2.00000
     15       2.1533      2.00000
     16       2.1654      2.00000
     17       2.4772      2.00000
     18       2.4810      2.00000
     19       5.2841      0.00000
     20       5.2879      0.00000
     21       5.7743      0.00000
     22       5.8365      0.00000

 k-point     6 :       0.1250    0.1250    0.0000
  band No.  band energies     occupation 
      1     -10.3218      2.00000
      2     -10.3044      2.00000
      3      -9.4360      2.00000
      4      -9.4093      2.00000
      5      -1.9208      2.00000
      6      -1.7811      2.00000
      7      -0.5135      2.00000
      8      -0.5009      2.00000
      9      -0.0650      2.00000
     10       0.0771      2.00000
     11       0.4641      2.00000
     12       0.4902      2.00000
     13       1.0931      2.00000
     14       1.0949      2.00000
     15       2.0959      2.00000
     16       2.2982      2.00000
     17       2.5521      2.00000
     18       2.6277      2.00000
     19       5.0624      0.00000
     20       5.3265      0.00000
     21       5.5335      0.00000
     22       5.5839      0.00000

 k-point     7 :       0.2500    0.1250    0.0000
  band No.  band energies     occupation 
      1      -9.6866      2.00000
      2      -9.6725      2.00000
      3      -9.1332      2.00000
      4      -9.1150      2.00000
      5      -1.9394      2.00000
      6      -1.8863      2.00000
      7      -0.9509      2.00000
      8      -0.9197      2.00000
      9      -0.7083      2.00000
     10      -0.6348      2.00000
     11      -0.0665      2.00000
     12       0.0082      2.00000
     13       1.1905      2.00000
     14       1.1963      2.00000
     15       1.7874      2.00000
     16       1.8737      2.00000
     17       2.3024      2.00000
     18       2.3122      2.00000
     19       4.9960      0.00000
     20       5.2123      0.00000
     21       5.5329      0.00000
     22       5.6250      0.00000

 k-point     8 :       0.3750    0.1250    0.0000
  band No.  band energies     occupation 
      1      -9.1529      2.00000
      2      -9.1452      2.00000
      3      -8.8843      2.00000
      4      -8.8759      2.00000
      5      -2.3263      2.00000
      6      -2.2993      2.00000
      7      -1.7020      2.00000
      8      -1.6929      2.00000
      9      -0.8377      2.00000
     10      -0.7672      2.00000
     11      -0.0671      2.00000
     12      -0.0247      2.00000
     13       1.2001      2.00000
     14       1.2165      2.00000
     15       1.3285      2.00000
     16       1.3668      2.00000
     17       2.6247      2.00000
     18       2.6431      2.00000
     19       5.2705      0.00000
     20       5.3347      0.00000
     21       5.7779      0.00000
     22       5.8544      0.00000

 k-point     9 :       0.2500    0.2500    0.0000
  band No.  band energies     occupation 
      1      -9.1683      2.00000
      2      -9.1596      2.00000
      3      -8.8760      2.00000
      4      -8.8661      2.00000
      5      -1.9670      2.00000
      6      -1.9385      2.00000
      7      -1.7534      2.00000
      8      -1.7422      2.00000
      9      -0.4879      2.00000
     10      -0.4635      2.00000
     11      -0.1390      2.00000
     12      -0.0508      2.00000
     13       0.2149      2.00000
     14       0.2375      2.00000
     15       1.4764      2.00000
     16       1.4871      2.00000
     17       2.6007      2.00000
     18       2.6104      2.00000
     19       5.1855      0.00000
     20       5.3137      0.00000
     21       5.8808      0.00000
     22       6.0920      0.00000

 k-point    10 :       0.3750    0.2500    0.0000
  band No.  band energies     occupation 
      1      -8.9306      2.00000
      2      -8.9275      2.00000
      3      -8.7535      2.00000
      4      -8.7503      2.00000
      5      -2.1376      2.00000
      6      -2.1268      2.00000
      7      -1.7916      2.00000
      8      -1.7754      2.00000
      9      -0.7778      2.00000
     10      -0.7406      2.00000
     11      -0.1068      2.00000
     12      -0.0859      2.00000
     13       0.1071      2.00000
     14       0.1581      2.00000
     15       1.0758      2.00000
     16       1.1157      2.00000
     17       2.9622      2.00000
     18       2.9834      2.00000
     19       4.9235      0.00000
     20       4.9325      0.00000
     21       6.1512      0.00000
     22       6.3239      0.00000

 k-point    11 :       0.0000    0.0000    0.5000
  band No.  band energies     occupation 
      1     -10.9202      2.00000
      2     -10.9202      2.00000
      3      -9.7121      2.00000
      4      -9.7121      2.00000
      5      -2.4454      2.00000
      6      -2.4454      2.00000
      7       0.5200      2.00000
      8       0.5200      2.00000
      9       0.5200      2.00000
     10       0.5200      2.00000
     11       1.3629      2.00000
     12       1.3629      2.00000
     13       1.6257      2.00000
     14       1.6257      2.00000
     15       1.6257      2.00000
     16       1.6257      2.00000
     17       3.1410      2.00000
     18       3.1410      2.00000
     19       5.8743      0.00000
     20       5.8753      0.00000
     21       6.0171      0.00000
     22       6.0841      0.00000

 k-point    12 :       0.1250   -0.0000    0.5000
  band No.  band energies     occupation 
      1     -10.7061      2.00000
      2     -10.7061      2.00000
      3      -9.6096      2.00000
      4      -9.6096      2.00000
      5      -2.2011      2.00000
      6      -2.2011      2.00000
      7       0.0564      2.00000
      8       0.0564      2.00000
      9       0.5714      2.00000
     10       0.5714      2.00000
     11       0.7545      2.00000
     12       0.7545      2.00000
     13       1.2900      2.00000
     14       1.2900      2.00000
     15       2.0429      2.00000
     16       2.0429      2.00000
     17       2.9903      2.00000
     18       2.9903      2.00000
     19       5.5767      0.00000
     20       5.6249      0.00000
     21       5.7321      0.00000
     22       5.8295      0.00000

 k-point    13 :       0.2500   -0.0000    0.5000
  band No.  band energies     occupation 
      1     -10.1373      2.00000
      2     -10.1373      2.00000
      3      -9.3408      2.00000
      4      -9.3408      2.00000
      5      -1.8340      2.00000
      6      -1.8340      2.00000
      7      -0.6753      2.00000
      8      -0.6753      2.00000
      9      -0.4024      2.00000
     10      -0.4024      2.00000
     11       0.6550      2.00000
     12       0.6550      2.00000
     13       1.3416      2.00000
     14       1.3416      2.00000
     15       1.8007      2.00000
     16       1.8007      2.00000
     17       2.3995      2.00000
     18       2.3995      2.00000
     19       5.2602      0.00000
     20       5.2641      0.00000
     21       5.4462      0.00000
     22       5.4545      0.00000

 k-point    14 :       0.3750   -0.0000    0.5000
  band No.  band energies     occupation 
      1      -9.4622      2.00000
      2      -9.4622      2.00000
      3      -9.0323      2.00000
      4      -9.0323      2.00000
      5      -2.2680      2.00000
      6      -2.2680      2.00000
      7      -1.2778      2.00000
      8      -1.2778      2.00000
      9      -0.8019      2.00000
     10      -0.8019      2.00000
     11       0.1576      2.00000
     12       0.1576      2.00000
     13       1.3938      2.00000
     14       1.3938      2.00000
     15       1.9322      2.00000
     16       1.9322      2.00000
     17       2.2008      2.00000
     18       2.2008      2.00000
     19       5.2638      0.00000
     20       5.2638      0.00000
     21       5.5373      0.00000
     22       5.5373      0.00000

 k-point    15 :       0.5000   -0.0000    0.5000
  band No.  band energies     occupation 
      1      -9.1338      2.00000
      2      -9.1338      2.00000
      3      -8.8890      2.00000
      4      -8.8890      2.00000
      5      -2.6002      2.00000
      6      -2.6002      2.00000
      7      -1.6413      2.00000
      8      -1.6413      2.00000
      9      -0.9292      2.00000
     10      -0.9292      2.00000
     11      -0.0230      2.00000
     12      -0.0230      2.00000
     13       1.2562      2.00000
     14       1.2562      2.00000
     15       2.1593      2.00000
     16       2.1593      2.00000
     17       2.4791      2.00000
     18       2.4791      2.00000
     19       5.2860      0.00000
     20       5.2860      0.00000
     21       5.8016      0.00000
     22       5.8017      0.00000

 k-point    16 :       0.1250    0.1250    0.5000
  band No.  band energies     occupation 
      1     -10.3132      2.00000
      2     -10.3132      2.00000
      3      -9.4226      2.00000
      4      -9.4226      2.00000
      5      -1.8538      2.00000
      6      -1.8538      2.00000
      7      -0.5089      2.00000
      8      -0.5089      2.00000
      9       0.0128      2.00000
     10       0.0128      2.00000
     11       0.4761      2.00000
     12       0.4761      2.00000
     13       1.0940      2.00000
     14       1.0940      2.00000
     15       2.1818      2.00000
     16       2.1818      2.00000
     17       2.6016      2.00000
     18       2.6016      2.00000
     19       5.1825      0.00000
     20       5.2404      0.00000
     21       5.5536      0.00000
     22       5.6217      0.00000

 k-point    17 :       0.2500    0.1250    0.5000
  band No.  band energies     occupation 
      1      -9.6796      2.00000
      2      -9.6796      2.00000
      3      -9.1240      2.00000
      4      -9.1240      2.00000
      5      -1.9132      2.00000
      6      -1.9132      2.00000
      7      -0.9372      2.00000
      8      -0.9372      2.00000
      9      -0.6715      2.00000
     10      -0.6715      2.00000
     11      -0.0265      2.00000
     12      -0.0265      2.00000
     13       1.1933      2.00000
     14       1.1933      2.00000
     15       1.8285      2.00000
     16       1.8285      2.00000
     17       2.3079      2.00000
     18       2.3079      2.00000
     19       5.1027      0.00000
     20       5.1029      0.00000
     21       5.5643      0.00000
     22       5.6186      0.00000

 k-point    18 :       0.3750    0.1250    0.5000
  band No.  band energies     occupation 
      1      -9.1491      2.00000
      2      -9.1491      2.00000
      3      -8.8800      2.00000
      4      -8.8800      2.00000
      5      -2.3129      2.00000
      6      -2.3129      2.00000
      7      -1.6977      2.00000
      8      -1.6976      2.00000
      9      -0.8032      2.00000
     10      -0.8032      2.00000
     11      -0.0445      2.00000
     12      -0.0445      2.00000
     13       1.2076      2.00000
     14       1.2076      2.00000
     15       1.3476      2.00000
     16       1.3476      2.00000
     17       2.6341      2.00000
     18       2.6341      2.00000
     19       5.3030      0.00000
     20       5.3030      0.00000
     21       5.8119      0.00000
     22       5.8120      0.00000

 k-point    19 :       0.2500    0.2500    0.5000
  band No.  band energies     occupation 
      1      -9.1641      2.00000
      2      -9.1641      2.00000
      3      -8.8710      2.00000
      4      -8.8710      2.00000
      5      -1.9529      2.00000
      6      -1.9529      2.00000
      7      -1.7477      2.00000
      8      -1.7477      2.00000
      9      -0.4795      2.00000
     10      -0.4795      2.00000
     11      -0.0907      2.00000
     12      -0.0907      2.00000
     13       0.2264      2.00000
     14       0.2264      2.00000
     15       1.4807      2.00000
     16       1.4807      2.00000
     17       2.6056      2.00000
     18       2.6056      2.00000
     19       5.2494      0.00000
     20       5.2495      0.00000
     21       5.8974      0.00000
     22       6.1470      0.00000

 k-point    20 :       0.3750    0.2500    0.5000
  band No.  band energies     occupation 
      1      -8.9291      2.00000
      2      -8.9291      2.00000
      3      -8.7519      2.00000
      4      -8.7519      2.00000
      5      -2.1323      2.00000
      6      -2.1323      2.00000
      7      -1.7833      2.00000
      8      -1.7833      2.00000
      9      -0.7602      2.00000
     10      -0.7602      2.00000
     11      -0.0991      2.00000
     12      -0.0991      2.00000
     13       0.1374      2.00000
     14       0.1374      2.00000
     15       1.0943      2.00000
     16       1.0943      2.00000
     17       2.9728      2.00000
     18       2.9728      2.00000
     19       4.9281      0.00000
     20       4.9281      0.00000
     21       6.2287      0.00000
     22       6.2406      0.00000


--------------------------------------------------------------------------------------------------------


 soft charge-density along one line, spin component           1
         0         1         2         3         4         5         6         7         8         9
 total charge-density along one line
 
 pseudopotential strength for first ion, spin component:           1
 -8.238  -0.000   0.000   0.000   0.000  -0.074   0.000  -0.000
 -0.000  -8.239   0.000  -0.000  -0.000   0.000  -0.074  -0.000
  0.000   0.000  -8.218  -0.000  -0.000  -0.000  -0.000  -0.075
  0.000  -0.000  -0.000  -8.239  -0.000  -0.000   0.000   0.000
  0.000  -0.000  -0.000  -0.000  -8.238  -0.000   0.000   0.000
 -0.074   0.000  -0.000  -0.000  -0.000   0.112  -0.000   0.000
  0.000  -0.074  -0.000   0.000   0.000  -0.000   0.112   0.000
 -0.000  -0.000  -0.075   0.000   0.000   0.000   0.000   0.112
 -0.000   0.000   0.000  -0.074   0.000   0.000  -0.000  -0.000
 -0.000   0.000   0.000   0.000  -0.074   0.000  -0.000  -0.000
  0.000  -0.000  -0.005   0.000  -0.000  -0.000   0.000   0.000
 -0.000   0.000   0.001  -0.000   0.000   0.000  -0.000  -0.000
 -0.000   0.000  -0.000  -0.000  -0.007   0.000  -0.000   0.000
 -0.000   0.000   0.000  -0.000  -0.000  -0.000  -0.000  -0.000
 -0.007  -0.000   0.000   0.000  -0.000  -0.000  -0.000  -0.000
  0.000  -0.000   0.000   0.000   0.004  -0.000   0.000  -0.000
  0.000  -0.000  -0.000   0.000   0.000  -0.000   0.000   0.000
  0.004   0.000  -0.000  -0.000   0.000   0.000  -0.000   0.000
 total augmentation occupancy for first ion, spin component:           1
  0.965   0.000  -0.000  -0.000  -0.000   0.600  -0.000  -0.000   0.000  -0.000  -0.000   0.000   0.000  -0.000  -0.065  -0.000
  0.000   0.907   0.000   0.000   0.000   0.000   0.838   0.000   0.000  -0.000   0.000  -0.000  -0.000  -0.000  -0.000   0.000
 -0.000   0.000   1.029   0.000   0.000  -0.000  -0.000   0.500  -0.000   0.000   0.111  -0.019  -0.000   0.000   0.000   0.000
  0.000   0.000  -0.000   0.907   0.000   0.000   0.000   0.000   0.838  -0.000   0.000  -0.000  -0.000  -0.000   0.000   0.000
 -0.000  -0.000   0.000  -0.000   0.965  -0.000   0.000   0.000   0.000   0.600   0.000  -0.000  -0.065  -0.000  -0.000   0.007
  0.600  -0.000  -0.000   0.000  -0.000   0.677  -0.000  -0.000  -0.000  -0.000   0.000  -0.000   0.000   0.000  -0.136  -0.000
 -0.000   0.838   0.000   0.000   0.000  -0.000   1.078   0.000   0.000   0.000   0.000   0.000   0.000  -0.000  -0.000  -0.000
 -0.000   0.000   0.500   0.000   0.000  -0.000  -0.000   0.475  -0.000   0.000   0.058  -0.021  -0.000   0.000   0.000   0.000
 -0.000   0.000   0.000   0.838   0.000  -0.000   0.000  -0.000   1.078   0.000   0.000   0.000  -0.000  -0.000  -0.000  -0.000
 -0.000  -0.000   0.000   0.000   0.600  -0.000   0.000   0.000  -0.000   0.677   0.000  -0.000  -0.136  -0.000  -0.000   0.023
 -0.000   0.000   0.111   0.000   0.000   0.000  -0.000   0.058  -0.000   0.000   1.207  -0.185   0.000   0.000   0.000   0.000
 -0.000  -0.000  -0.019   0.000  -0.000  -0.000   0.000  -0.021   0.000  -0.000  -0.185   0.042  -0.000  -0.000   0.000   0.000
  0.000  -0.000  -0.000   0.000  -0.065   0.000  -0.000  -0.000   0.000  -0.136   0.000  -0.000   0.217   0.000   0.000  -0.032
 -0.000  -0.000   0.000  -0.000  -0.000   0.000   0.000   0.000  -0.000  -0.000   0.000  -0.000  -0.000   0.264   0.000  -0.000
 -0.065  -0.000   0.000  -0.000  -0.000  -0.136   0.000   0.000   0.000  -0.000   0.000   0.000   0.000   0.000   0.217  -0.000
 -0.000   0.000   0.000   0.000   0.007  -0.000  -0.000   0.000  -0.000   0.023  -0.000   0.000  -0.032   0.000  -0.000   0.005
  0.000   0.000   0.000   0.000  -0.000  -0.000   0.000   0.000  -0.000  -0.000  -0.000  -0.000   0.000  -0.038  -0.000   0.000
  0.007   0.000  -0.000  -0.000   0.000   0.023   0.000  -0.000  -0.000   0.000   0.000  -0.000  -0.000   0.000  -0.032   0.000


------------------------ aborting loop because EDIFF is reached ----------------------------------------


    CHARGE:  cpu time    0.0400: real time    0.0397
    FORLOC:  cpu time    0.0030: real time    0.0031
    FORNL :  cpu time    0.1240: real time    0.1234
    STRESS:  cpu time    0.3769: real time    0.3776
    FORCOR:  cpu time    0.0310: real time    0.0309
    FORHAR:  cpu time    0.0070: real time    0.0067
    MIXING:  cpu time    0.0010: real time    0.0013
    OFIELD:  cpu time    0.0000: real time    0.0000

  DFT-D2 method for vdW energy calculation
  -------------------------------------------------------------------

  Parameters of vdW forcefield:
         C6(Jnm^6/mol)     R0(A)
   -----------------------------
   Mo      24.670          1.639
   S        5.570          1.683

  IVDW =   1
  VDW_RADIUS =    50.000 A
  VDW_S6 =     0.750
  VDW_SR =     1.000
  VDW_D =    20.000
  LVDW_EWALD = F

  Number of pair interactions contributing to vdW energy:   84128
  Edisp (eV):   -1.33129
    FORVDW:  cpu time    0.0210: real time    0.0277

  FORCE on cell =-STRESS in cart. coord.  units (eV):
  Direction    XX          YY          ZZ          XY          YZ          ZX
  --------------------------------------------------------------------------------------
  Alpha Z    90.42578    90.42578    90.42578
  Ewald     -12.90873   -12.90785 -1121.07429     0.00038     0.00000     0.00025
  Hartree   466.59250   466.59251  -390.20958     0.00003    -0.00000    -0.00001
  E(xc)    -140.61265  -140.61266  -141.80364    -0.00001    -0.00000    -0.00000
  Local   -1080.50983 -1080.51050   872.57966    -0.00043    -0.00000    -0.00011
  n-local   254.31673   251.56174   263.34765    -0.51215    -0.00029     0.00027
  augment   -51.13273   -51.13258   -53.33577     0.00014     0.00000    -0.00001
  Kinetic   471.81596   477.40707   479.57241   -14.80284    -0.00002    -0.00019
  Fock        0.00000     0.00000     0.00000     0.00000     0.00000     0.00000
  vdW         0.17103     0.17103    -0.86546     0.00000     0.00000    -0.00000
  -------------------------------------------------------------------------------------
  Total      -0.42371    -0.42371    -1.36324     0.00000    -0.00000     0.00000
  in kB      -5.17612    -5.17612   -16.65372     0.00000    -0.00000     0.00000
  external pressure =       -9.00 kB  Pullay stress =        0.00 kB


 VOLUME and BASIS-vectors are now :
 -----------------------------------------------------------------------------
  energy-cutoff  :      500.00
  volume of cell :      131.15
      direct lattice vectors                 reciprocal lattice vectors
     3.190315730  0.000000000  0.000000000     0.313448600  0.180969634  0.000000000
    -1.595157865  2.762894468  0.000000000     0.000000000  0.361939267  0.000000000
     0.000000000  0.000000000 14.879004300     0.000000000  0.000000000  0.067208798

  length of vectors
     3.190315730  3.190315730 14.879004300     0.361939267  0.361939267  0.067208798


 FORCES acting on ions
    electron-ion (+dipol)            ewald-force                    non-local-force                 convergence-correction
 -----------------------------------------------------------------------------------------------
   0.473E-04 -.345E-04 -.957E-05   0.928E-04 -.107E-03 0.288E-09   -.347E-17 -.347E-17 -.424E-21   0.301E-08 -.412E-08 -.238E-09
   0.659E-04 -.309E-04 -.957E-05   -.928E-04 0.107E-03 -.288E-09   -.139E-16 0.347E-17 0.106E-20   0.470E-08 -.333E-09 -.238E-09
   0.525E-03 -.305E-03 -.242E+03   0.865E-04 -.537E-04 0.247E+03   0.737E-17 0.781E-17 -.480E+01   0.755E-08 -.461E-08 0.599E-02
   -.117E-02 0.680E-03 0.242E+03   -.865E-04 0.537E-04 -.247E+03   -.173E-16 -.781E-17 0.480E+01   -.210E-07 0.124E-07 -.599E-02
   0.523E-03 0.689E-03 -.242E+03   -.638E-05 0.537E-04 0.247E+03   -.564E-17 -.867E-18 -.480E+01   0.103E-07 0.109E-07 0.599E-02
   -.121E-02 -.292E-03 0.242E+03   0.638E-05 -.537E-04 -.247E+03   0.191E-16 0.867E-18 0.480E+01   -.187E-07 -.608E-08 -.599E-02
 -----------------------------------------------------------------------------------------------
   -.122E-02 0.707E-03 -.106E-04   -.561E-14 0.109E-13 0.284E-13   -.139E-16 0.000E+00 0.000E+00   -.142E-07 0.820E-08 -.732E-09
 
 
 POSITION                                       TOTAL-FORCE (eV/Angst)
 -----------------------------------------------------------------------------------
     -0.00000      1.84193      3.71975         0.000000      0.000000      0.000000
      1.59516      0.92096     11.15925        -0.000000      0.000000      0.000000
     -0.00000      1.84193     12.72414         0.000000     -0.000000     -0.084278
      1.59516      0.92096      2.15487        -0.000000      0.000000      0.084278
      1.59516      0.92096      5.28464        -0.000000      0.000000     -0.084278
      0.00000      1.84193      9.59437         0.000000     -0.000000      0.084278
 -----------------------------------------------------------------------------------
    total drift:                               -0.001224      0.000707     -0.000011


--------------------------------------------------------------------------------------------------------



  FREE ENERGIE OF THE ION-ELECTRON SYSTEM (eV)
  ---------------------------------------------------
  free  energy   TOTEN  =       -44.93765682 eV

  energy  without entropy=      -44.93765682  energy(sigma->0) =      -44.93765682
 


--------------------------------------------------------------------------------------------------------


    POTLOK:  cpu time    0.0320: real time    0.0318


--------------------------------------------------------------------------------------------------------


     LOOP+:  cpu time    9.5395: real time    9.6934
    4ORBIT:  cpu time    0.0000: real time    0.0000
 BZINTS: Fermi energy:  3.302773; 36.000000 electrons
         Band energy: -67.731215;  BLOECHL correction:  0.000000

 total amount of memory used by VASP MPI-rank0    51787. kBytes
=======================================================================

   base      :      30000. kBytes
   nonl-proj :       9826. kBytes
   fftplans  :       2268. kBytes
   grid      :       3621. kBytes
   one-center:         46. kBytes
   wavefun   :       6026. kBytes
 
  
  
 General timing and accounting informations for this job:
 ========================================================
  
                  Total CPU time used (sec):       10.427
                            User time (sec):       10.310
                          System time (sec):        0.117
                         Elapsed time (sec):       11.380
  
                   Maximum memory used (kb):       43900.
                   Average memory used (kb):           0.
  
                          Minor page faults:        11264
                          Major page faults:          139
                 Voluntary context switches:         2524
