perl: warning: Setting locale failed.
perl: warning: Please check that your locale settings:
	LANGUAGE = (unset),
	LC_ALL = (unset),
	LC_CTYPE = "UTF-8",
	LANG = "en_US.iso885915"
    are supported and installed on your system.
perl: warning: Falling back to the standard locale ("C").
Starting job 28525014 ("jobname") on c16-2 at Thu Nov 7 21:11:36 CET 2019
 running on    4 total cores
 distrk:  each k-point on    4 cores,    1 groups
 distr:  one band on    2 cores,    2 groups
 using from now: INCAR     
 vasp.5.4.4.18Apr17-6-g9f103f2a35 (build Jun 30 2017 11:15:00) complex          
  
 POSCAR found type information on POSCAR  Mo S 
 POSCAR found :  2 types and       6 ions
 scaLAPACK will be used
 LDA part: xc-table for Pade appr. of Perdew
 POSCAR, INCAR and KPOINTS ok, starting setup
 FFT: planning ...
 WAVECAR not read
 WARNING: random wavefunctions but no delay for mixing, default for NELMDL
 entering main loop
       N       E                     dE             d eps       ncg     rms          rms(c)
DAV:   1     0.212472830613E+03    0.21247E+03   -0.15623E+04   880   0.137E+03
DAV:   2    -0.265095471362E+02   -0.23898E+03   -0.23187E+03  1172   0.277E+02
DAV:   3    -0.462050358909E+02   -0.19695E+02   -0.19602E+02  1186   0.771E+01
DAV:   4    -0.468067723581E+02   -0.60174E+00   -0.60079E+00  1210   0.144E+01
DAV:   5    -0.468216397351E+02   -0.14867E-01   -0.14861E-01  1208   0.228E+00    0.974E+00
RMM:   6    -0.444273996639E+02    0.23942E+01   -0.24314E+01   981   0.196E+01    0.335E+00
RMM:   7    -0.436952656196E+02    0.73213E+00   -0.19330E+00   970   0.559E+00    0.178E+00
RMM:   8    -0.436317443709E+02    0.63521E-01   -0.89265E-01  1006   0.335E+00    0.827E-01
RMM:   9    -0.436224073812E+02    0.93370E-02   -0.29341E-01  1038   0.226E+00    0.575E-01
RMM:  10    -0.436062920570E+02    0.16115E-01   -0.69689E-02  1049   0.113E+00    0.895E-02
RMM:  11    -0.436062240365E+02    0.68021E-04   -0.31489E-03  1104   0.242E-01    0.306E-02
RMM:  12    -0.436063784278E+02   -0.15439E-03   -0.58331E-04  1124   0.111E-01    0.226E-02
RMM:  13    -0.436063834327E+02   -0.50049E-05   -0.35822E-04  1144   0.770E-02    0.187E-02
RMM:  14    -0.436063695025E+02    0.13930E-04   -0.65122E-05   875   0.365E-02    0.256E-03
RMM:  15    -0.436063698059E+02   -0.30340E-06   -0.84668E-06   674   0.138E-02
 Error reading item 'IVDW' from file INCAR
   1 F= -.43606370E+02 E0= -.43606370E+02  d E =0.000000E+00

Currently Loaded Modulefiles:
  1) Anaconda3/5.1.0       3) vesta/3.3.8           5) intel/2016.1
  2) gnuplot/5.0.4         4) imagemagick/6.7.9-0   6) vasp/5.4.1.Feb16

Job script resource usage:
       JobID  MaxVMSize     MaxRSS 
------------ ---------- ---------- 
28525014.ba+    216888K      2394K 

Job step resource usage:
       JobID    JobName  AllocCPUS  MaxVMSize     MaxRSS    Elapsed ExitCode 
------------ ---------- ---------- ---------- ---------- ---------- -------- 
28525014        jobname          4                         00:00:14      0:0 
28525014.0    pmi_proxy          1    279832K       524K   00:00:13      0:0 

Job 28525014 ("jobname") completed on c16-2 at Thu Nov 7 21:11:49 CET 2019
