<?xml version="1.0" encoding="ISO-8859-1"?>
<modeling>
 <generator>
  <i name="program" type="string">vasp </i>
  <i name="version" type="string">5.4.4.18Apr17-6-g9f103f2a35  </i>
  <i name="subversion" type="string">(build Jun 30 2017 11:15:00) complex            parallel </i>
  <i name="platform" type="string">STALLO_VASP_5.4.4 </i>
  <i name="date" type="string">2019 11 08 </i>
  <i name="time" type="string">11:37:20 </i>
 </generator>
 <incar>
  <i type="string" name="PREC">normal    ! low/normal/accurate</i>
  <i type="string" name="ALGO"> Fast      ! Algorithm for electronic re</i>
  <i type="int" name="ISPIN">     1</i>
  <i type="int" name="NELMIN">     4</i>
  <i name="EDIFF">      0.00001000</i>
  <i type="int" name="NSW">     0</i>
  <i name="ENCUT">    500.00000000</i>
  <i type="logical" name="LREAL"> F  </i>
  <i type="int" name="ISMEAR">    -5</i>
  <i name="SIGMA">      0.20000000</i>
  <i type="logical" name="LWAVE"> F  </i>
  <v type="int" name="KPOINT_BSE">    -1     0     0     0</v>
 </incar>
 <structure name="primitive_cell" >
  <crystal>
   <varray name="basis" >
    <v>       3.19031573       0.00000000       0.00000000 </v>
    <v>      -1.59515786       2.76289447       0.00000000 </v>
    <v>       0.00000000       0.00000000      14.87900430 </v>
   </varray>
   <i name="volume">    131.15106795 </i>
   <varray name="rec_basis" >
    <v>       0.31344860       0.18096963       0.00000000 </v>
    <v>       0.00000000       0.36193927       0.00000000 </v>
    <v>       0.00000000       0.00000000       0.06720880 </v>
   </varray>
  </crystal>
  <varray name="positions" >
   <v>       0.33333300      -0.33333300       0.25000000 </v>
   <v>      -0.33333400       0.33333300       0.35517400 </v>
   <v>      -0.33333300       0.33333300       0.14482600 </v>
   <v>       0.33333300      -0.33333300      -0.14482600 </v>
   <v>       0.33333400      -0.33333300      -0.35517400 </v>
   <v>      -0.33333300       0.33333300      -0.25000000 </v>
  </varray>
 </structure>
 <varray name="primitive_index" >
  <v type="int" >        1 </v>
  <v type="int" >        5 </v>
  <v type="int" >        4 </v>
  <v type="int" >        3 </v>
  <v type="int" >        6 </v>
  <v type="int" >        2 </v>
 </varray>
 <kpoints>
  <generation param="Gamma">
   <v type="int" name="divisions">       8        8        2 </v>
   <v name="usershift">      0.00000000       0.00000000       0.00000000 </v>
   <v name="genvec1">      0.12500000       0.00000000       0.00000000 </v>
   <v name="genvec2">      0.00000000       0.12500000       0.00000000 </v>
   <v name="genvec3">      0.00000000       0.00000000       0.50000000 </v>
   <v name="shift">      0.00000000       0.00000000       0.00000000 </v>
  </generation>
  <varray name="kpointlist" >
   <v>       0.00000000       0.00000000       0.00000000 </v>
   <v>       0.12500000      -0.00000000       0.00000000 </v>
   <v>       0.25000000      -0.00000000       0.00000000 </v>
   <v>       0.37500000      -0.00000000       0.00000000 </v>
   <v>       0.50000000      -0.00000000       0.00000000 </v>
   <v>       0.12500000       0.12500000       0.00000000 </v>
   <v>       0.25000000       0.12500000       0.00000000 </v>
   <v>       0.37500000       0.12500000       0.00000000 </v>
   <v>       0.25000000       0.25000000       0.00000000 </v>
   <v>       0.37500000       0.25000000       0.00000000 </v>
   <v>       0.00000000       0.00000000       0.50000000 </v>
   <v>       0.12500000      -0.00000000       0.50000000 </v>
   <v>       0.25000000      -0.00000000       0.50000000 </v>
   <v>       0.37500000      -0.00000000       0.50000000 </v>
   <v>       0.50000000      -0.00000000       0.50000000 </v>
   <v>       0.12500000       0.12500000       0.50000000 </v>
   <v>       0.25000000       0.12500000       0.50000000 </v>
   <v>       0.37500000       0.12500000       0.50000000 </v>
   <v>       0.25000000       0.25000000       0.50000000 </v>
   <v>       0.37500000       0.25000000       0.50000000 </v>
  </varray>
  <varray name="weights" >
   <v>       0.00781250 </v>
   <v>       0.04687500 </v>
   <v>       0.04687500 </v>
   <v>       0.04687500 </v>
   <v>       0.02343750 </v>
   <v>       0.04687500 </v>
   <v>       0.09375000 </v>
   <v>       0.09375000 </v>
   <v>       0.04687500 </v>
   <v>       0.04687500 </v>
   <v>       0.00781250 </v>
   <v>       0.04687500 </v>
   <v>       0.04687500 </v>
   <v>       0.04687500 </v>
   <v>       0.02343750 </v>
   <v>       0.04687500 </v>
   <v>       0.09375000 </v>
   <v>       0.09375000 </v>
   <v>       0.04687500 </v>
   <v>       0.04687500 </v>
  </varray>
  <varray name="tetrahedronlist"  type="int" >
   <v type="int" >        8        2        2        6       12 </v>
   <v type="int" >        8        1        2        2       12 </v>
   <v type="int" >        4        1        2       11       12 </v>
   <v type="int" >        4        2        6       12       16 </v>
   <v type="int" >        8        2       12       12       16 </v>
   <v type="int" >        8        2       11       12       12 </v>
   <v type="int" >        8        3        6        7       16 </v>
   <v type="int" >        8        2        3        6       16 </v>
   <v type="int" >        4        2        3       12       16 </v>
   <v type="int" >        4        3        7       16       17 </v>
   <v type="int" >        8        3       13       16       17 </v>
   <v type="int" >        8        3       12       13       16 </v>
   <v type="int" >        8        4        7        8       17 </v>
   <v type="int" >        8        3        4        7       17 </v>
   <v type="int" >        4        3        4       13       17 </v>
   <v type="int" >        4        4        8       17       18 </v>
   <v type="int" >        8        4       14       17       18 </v>
   <v type="int" >        8        4       13       14       17 </v>
   <v type="int" >        8        5        8        8       18 </v>
   <v type="int" >        8        4        5        8       18 </v>
   <v type="int" >        4        4        5       14       18 </v>
   <v type="int" >        4        5        8       18       18 </v>
   <v type="int" >        4        5       15       18       18 </v>
   <v type="int" >        8        5       14       15       18 </v>
   <v type="int" >        8        4        7        8       18 </v>
   <v type="int" >        4        4        5       15       18 </v>
   <v type="int" >        4        4        7       17       18 </v>
   <v type="int" >        8        4       14       15       18 </v>
   <v type="int" >        8        3        6        7       17 </v>
   <v type="int" >        4        3        4       14       17 </v>
   <v type="int" >        4        3        6       16       17 </v>
   <v type="int" >        8        3       13       14       17 </v>
   <v type="int" >        4        2        2        6       16 </v>
   <v type="int" >        4        2        3       13       16 </v>
   <v type="int" >        4        2        2       12       16 </v>
   <v type="int" >        8        2       12       13       16 </v>
   <v type="int" >        4        1        2       12       12 </v>
   <v type="int" >        4        1       11       12       12 </v>
   <v type="int" >        8        3        6        7       13 </v>
   <v type="int" >        8        2        3        6       13 </v>
   <v type="int" >        4        2        6       12       13 </v>
   <v type="int" >        4        6        7       13       17 </v>
   <v type="int" >        8        6       13       16       17 </v>
   <v type="int" >        8        6       12       13       16 </v>
   <v type="int" >        8        7        7        9       17 </v>
   <v type="int" >        8        6        7        7       17 </v>
   <v type="int" >        4        6        7       16       17 </v>
   <v type="int" >        4        7        9       17       19 </v>
   <v type="int" >        8        7       17       17       19 </v>
   <v type="int" >        8        7       16       17       17 </v>
   <v type="int" >        8        8        9       10       19 </v>
   <v type="int" >        8        7        8        9       19 </v>
   <v type="int" >        4        7        8       17       19 </v>
   <v type="int" >        4        8       10       19       20 </v>
   <v type="int" >        8        8       18       19       20 </v>
   <v type="int" >        8        8       17       18       19 </v>
   <v type="int" >        8        8        9       10       20 </v>
   <v type="int" >        4        8        8       10       20 </v>
   <v type="int" >        4        8        8       18       20 </v>
   <v type="int" >        4        8        9       19       20 </v>
   <v type="int" >        8        8       18       18       20 </v>
   <v type="int" >        4        7        7        9       19 </v>
   <v type="int" >        4        7        8       18       19 </v>
   <v type="int" >        4        7        7       17       19 </v>
   <v type="int" >        8        7       17       18       19 </v>
   <v type="int" >        4        6        7       17       17 </v>
   <v type="int" >        4        3        6       13       17 </v>
   <v type="int" >        4        6       16       17       17 </v>
   <v type="int" >        4        2        6       13       16 </v>
   <v type="int" >        8        4        7        8       14 </v>
   <v type="int" >        8        3        4        7       14 </v>
   <v type="int" >        4        3        7       13       14 </v>
   <v type="int" >        4        7        8       14       18 </v>
   <v type="int" >        8        7       14       17       18 </v>
   <v type="int" >        8        7       13       14       17 </v>
   <v type="int" >        8        8        9       10       18 </v>
   <v type="int" >        8        7        8        9       18 </v>
   <v type="int" >        4        7        9       17       18 </v>
   <v type="int" >        4        9       10       18       20 </v>
   <v type="int" >        8        9       18       19       20 </v>
   <v type="int" >        8        9       17       18       19 </v>
   <v type="int" >        4       10       10       10       20 </v>
   <v type="int" >        8        9       10       10       20 </v>
   <v type="int" >        4        9       10       19       20 </v>
   <v type="int" >        4       10       10       20       20 </v>
   <v type="int" >        4       10       20       20       20 </v>
   <v type="int" >        8       10       19       20       20 </v>
   <v type="int" >        4        9       10       20       20 </v>
   <v type="int" >        4        8        9       18       20 </v>
   <v type="int" >        4        9       19       20       20 </v>
   <v type="int" >        4        7        9       18       19 </v>
   <v type="int" >        4        4        7       14       18 </v>
   <v type="int" >        4        3        7       14       17 </v>
   <v type="int" >        4        5        8        8       15 </v>
   <v type="int" >        8        4        5        8       15 </v>
   <v type="int" >        4        4        8       14       15 </v>
   <v type="int" >        4        8        8       15       18 </v>
   <v type="int" >        8        8       15       18       18 </v>
   <v type="int" >        8        8       14       15       18 </v>
   <v type="int" >        8        8        8       10       18 </v>
   <v type="int" >        4        8       10       18       18 </v>
   <v type="int" >        4        9       10       18       19 </v>
   <v type="int" >        8       10       18       19       20 </v>
   <v type="int" >        4       10       18       18       20 </v>
   <v type="int" >        4        9       10       10       19 </v>
   <v type="int" >        4       10       10       19       20 </v>
   <v type="int" >        4        8       10       18       19 </v>
   <v type="int" >        4        8       10       18       20 </v>
   <v type="int" >        4        5        8       15       18 </v>
   <v type="int" >        4        4        8       15       18 </v>
   <v type="int" >        8        4        5        8       14 </v>
   <v type="int" >        4        5        8       14       15 </v>
   <v type="int" >        4        7        8       14       17 </v>
   <v type="int" >        8        8       14       17       18 </v>
   <v type="int" >        8        7        8        9       17 </v>
   <v type="int" >        4        8        9       17       18 </v>
   <v type="int" >        4        7        9       17       17 </v>
   <v type="int" >        4        9       17       17       19 </v>
   <v type="int" >        4        8        9       17       19 </v>
   <v type="int" >        4        4        8       14       17 </v>
   <v type="int" >        4        5        8       14       18 </v>
   <v type="int" >        8        3        4        7       13 </v>
   <v type="int" >        4        4        7       13       14 </v>
   <v type="int" >        4        6        7       13       16 </v>
   <v type="int" >        8        7       13       16       17 </v>
   <v type="int" >        4        6        7        7       16 </v>
   <v type="int" >        4        7        7       16       17 </v>
   <v type="int" >        4        3        7       13       16 </v>
   <v type="int" >        4        4        7       13       17 </v>
   <v type="int" >        8        2        3        6       12 </v>
   <v type="int" >        4        3        6       12       13 </v>
   <v type="int" >        4        2        6       12       12 </v>
   <v type="int" >        4        6       12       12       16 </v>
   <v type="int" >        4        3        6       12       16 </v>
   <v type="int" >        4        1        2        2       11 </v>
   <v type="int" >        4        2        2       11       12 </v>
  </varray>
  <i name="volumeweight">      0.00130208 </i>
 </kpoints>
 <parameters>
  <separator name="general" >
   <i type="string" name="SYSTEM">unknown system</i>
   <i type="logical" name="LCOMPAT"> F  </i>
  </separator>
  <separator name="electronic" >
   <i type="string" name="PREC">normal</i>
   <i name="ENMAX">    500.00000000</i>
   <i name="ENAUG">    345.27800000</i>
   <i name="EDIFF">      0.00001000</i>
   <i type="int" name="IALGO">    68</i>
   <i type="int" name="IWAVPR">    10</i>
   <i type="int" name="NBANDS">    22</i>
   <i name="NELECT">     36.00000000</i>
   <i type="int" name="TURBO">     0</i>
   <i type="int" name="IRESTART">     0</i>
   <i type="int" name="NREBOOT">     0</i>
   <i type="int" name="NMIN">     0</i>
   <i name="EREF">      0.00000000</i>
   <separator name="electronic smearing" >
    <i type="int" name="ISMEAR">    -5</i>
    <i name="SIGMA">      0.20000000</i>
    <i name="KSPACING">      0.50000000</i>
    <i type="logical" name="KGAMMA"> T  </i>
   </separator>
   <separator name="electronic projectors" >
    <i type="logical" name="LREAL"> F  </i>
    <v name="ROPT">      0.00000000      0.00000000</v>
    <i type="int" name="LMAXPAW">  -100</i>
    <i type="int" name="LMAXMIX">     2</i>
    <i type="logical" name="NLSPLINE"> F  </i>
   </separator>
   <separator name="electronic startup" >
    <i type="int" name="ISTART">     0</i>
    <i type="int" name="ICHARG">     2</i>
    <i type="int" name="INIWAV">     1</i>
   </separator>
   <separator name="electronic spin" >
    <i type="int" name="ISPIN">     1</i>
    <i type="logical" name="LNONCOLLINEAR"> F  </i>
    <v name="MAGMOM">      1.00000000      1.00000000      1.00000000      1.00000000      1.00000000      1.00000000</v>
    <i name="NUPDOWN">     -1.00000000</i>
    <i type="logical" name="LSORBIT"> F  </i>
    <v name="SAXIS">      0.00000000      0.00000000      1.00000000</v>
    <i type="logical" name="LSPIRAL"> F  </i>
    <v name="QSPIRAL">      0.00000000      0.00000000      0.00000000</v>
    <i type="logical" name="LZEROZ"> F  </i>
   </separator>
   <separator name="electronic exchange-correlation" >
    <i type="logical" name="LASPH"> F  </i>
    <i type="logical" name="LMETAGGA"> F  </i>
   </separator>
   <separator name="electronic convergence" >
    <i type="int" name="NELM">    60</i>
    <i type="int" name="NELMDL">     0</i>
    <i type="int" name="NELMIN">     4</i>
    <i name="ENINI">    500.00000000</i>
    <separator name="electronic convergence detail" >
     <i type="logical" name="LDIAG"> T  </i>
     <i type="logical" name="LSUBROT"> F  </i>
     <i name="WEIMIN">      0.00000000</i>
     <i name="EBREAK">      0.00000011</i>
     <i name="DEPER">      0.30000000</i>
     <i type="int" name="NRMM">     4</i>
     <i name="TIME">      0.40000000</i>
    </separator>
   </separator>
   <separator name="electronic mixer" >
    <i name="AMIX">      0.40000000</i>
    <i name="BMIX">      1.00000000</i>
    <i name="AMIN">      0.10000000</i>
    <i name="AMIX_MAG">      1.60000000</i>
    <i name="BMIX_MAG">      1.00000000</i>
    <separator name="electronic mixer details" >
     <i type="int" name="IMIX">     4</i>
     <i type="logical" name="MIXFIRST"> F  </i>
     <i type="int" name="MAXMIX">   -45</i>
     <i name="WC">    100.00000000</i>
     <i type="int" name="INIMIX">     1</i>
     <i type="int" name="MIXPRE">     1</i>
     <i type="int" name="MREMOVE">     5</i>
    </separator>
   </separator>
   <separator name="electronic dipolcorrection" >
    <i type="logical" name="LDIPOL"> F  </i>
    <i type="logical" name="LMONO"> F  </i>
    <i type="int" name="IDIPOL">     0</i>
    <i name="EPSILON">      1.00000000</i>
    <v name="DIPOL">   -100.00000000   -100.00000000   -100.00000000</v>
    <i name="EFIELD">      0.00000000</i>
   </separator>
  </separator>
  <separator name="grids" >
   <i type="int" name="NGX">    18</i>
   <i type="int" name="NGY">    18</i>
   <i type="int" name="NGZ">    84</i>
   <i type="int" name="NGXF">    36</i>
   <i type="int" name="NGYF">    36</i>
   <i type="int" name="NGZF">   168</i>
   <i type="logical" name="ADDGRID"> F  </i>
  </separator>
  <separator name="ionic" >
   <i type="int" name="NSW">     0</i>
   <i type="int" name="IBRION">    -1</i>
   <i type="int" name="MDALGO">     0</i>
   <i type="int" name="ISIF">     2</i>
   <i name="PSTRESS">      0.00000000</i>
   <i name="EDIFFG">      0.00010000</i>
   <i type="int" name="NFREE">     0</i>
   <i name="POTIM">      0.50000000</i>
   <i name="SMASS">     -3.00000000</i>
   <i name="SCALEE">      1.00000000</i>
  </separator>
  <separator name="ionic md" >
   <i name="TEBEG">      0.00010000</i>
   <i name="TEEND">      0.00010000</i>
   <i type="int" name="NBLOCK">     1</i>
   <i type="int" name="KBLOCK">     1</i>
   <i type="int" name="NPACO">   256</i>
   <i name="APACO">     16.00000000</i>
  </separator>
  <separator name="symmetry" >
   <i type="int" name="ISYM">     2</i>
   <i name="SYMPREC">      0.00001000</i>
  </separator>
  <separator name="dos" >
   <i type="int" name="LORBIT">     0</i>
   <v name="RWIGS">     -1.00000000     -1.00000000</v>
   <i type="int" name="NEDOS">   301</i>
   <i name="EMIN">     10.00000000</i>
   <i name="EMAX">    -10.00000000</i>
   <i name="EFERMI">      0.00000000</i>
  </separator>
  <separator name="writing" >
   <i type="int" name="NWRITE">     2</i>
   <i type="logical" name="LWAVE"> F  </i>
   <i type="logical" name="LDOWNSAMPLE"> F  </i>
   <i type="logical" name="LCHARG"> T  </i>
   <i type="logical" name="LPARD"> F  </i>
   <i type="logical" name="LVTOT"> F  </i>
   <i type="logical" name="LVHAR"> F  </i>
   <i type="logical" name="LELF"> F  </i>
   <i type="logical" name="LOPTICS"> F  </i>
   <v name="STM">      0.00000000      0.00000000      0.00000000      0.00000000      0.00000000      0.00000000      0.00000000</v>
  </separator>
  <separator name="performance" >
   <i type="int" name="NPAR">     2</i>
   <i type="int" name="NSIM">     4</i>
   <i type="int" name="NBLK">    -1</i>
   <i type="logical" name="LPLANE"> T  </i>
   <i type="logical" name="LSCALAPACK"> T  </i>
   <i type="logical" name="LSCAAWARE"> F  </i>
   <i type="logical" name="LSCALU"> F  </i>
   <i type="logical" name="LASYNC"> F  </i>
   <i type="logical" name="LORBITALREAL"> F  </i>
  </separator>
  <separator name="miscellaneous" >
   <i type="int" name="IDIOT">     3</i>
   <i type="int" name="ISPECIAL">     0</i>
   <i type="logical" name="LMUSIC"> F  </i>
   <v name="POMASS">     95.94000000     32.06600000</v>
   <v name="DARWINR">      0.00000000      0.00000000</v>
   <v name="DARWINV">      1.00000000      1.00000000</v>
   <i type="logical" name="LCORR"> T  </i>
  </separator>
  <i type="logical" name="GGA_COMPAT"> T  </i>
  <i type="logical" name="LBERRY"> F  </i>
  <i type="int" name="ICORELEVEL">     0</i>
  <i type="logical" name="LDAU"> F  </i>
  <i type="int" name="I_CONSTRAINED_M">     0</i>
  <separator name="electronic exchange-correlation" >
   <i type="string" name="GGA">--</i>
   <i type="int" name="VOSKOWN">     0</i>
   <i type="logical" name="LHFCALC"> F  </i>
   <i type="string" name="PRECFOCK"></i>
   <i type="logical" name="LSYMGRAD"> F  </i>
   <i type="logical" name="LHFONE"> F  </i>
   <i type="logical" name="LRHFCALC"> F  </i>
   <i type="logical" name="LTHOMAS"> F  </i>
   <i type="logical" name="LMODELHF"> F  </i>
   <i name="ENCUT4O">     -1.00000000</i>
   <i type="int" name="EXXOEP">     0</i>
   <i type="int" name="FOURORBIT">     0</i>
   <i name="AEXX">      0.00000000</i>
   <i name="HFALPHA">      0.00000000</i>
   <i name="MCALPHA">      0.00000000</i>
   <i name="ALDAX">      1.00000000</i>
   <i name="AGGAX">      1.00000000</i>
   <i name="ALDAC">      1.00000000</i>
   <i name="AGGAC">      1.00000000</i>
   <i type="int" name="NKREDX">     1</i>
   <i type="int" name="NKREDY">     1</i>
   <i type="int" name="NKREDZ">     1</i>
   <i type="logical" name="SHIFTRED"> F  </i>
   <i type="logical" name="ODDONLY"> F  </i>
   <i type="logical" name="EVENONLY"> F  </i>
   <i type="int" name="LMAXFOCK">     0</i>
   <i type="int" name="NMAXFOCKAE">     0</i>
   <i type="logical" name="LFOCKAEDFT"> F  </i>
   <i name="HFSCREEN">      0.00000000</i>
   <i name="HFSCREENC">      0.00000000</i>
   <i type="int" name="NBANDSGWLOW">     0</i>
  </separator>
  <separator name="vdW DFT" >
   <i type="logical" name="LUSE_VDW"> F  </i>
   <i name="Zab_VDW">     -0.84910000</i>
   <i name="PARAM1">      0.12340000</i>
   <i name="PARAM2">      1.00000000</i>
   <i name="PARAM3">      0.00000000</i>
  </separator>
  <separator name="model GW" >
   <i type="int" name="MODEL_GW">     0</i>
   <i name="MODEL_EPS0">     13.11510680</i>
   <i name="MODEL_ALPHA">      1.00000000</i>
  </separator>
  <separator name="linear response parameters" >
   <i type="logical" name="LEPSILON"> F  </i>
   <i type="logical" name="LRPA"> F  </i>
   <i type="logical" name="LNABLA"> F  </i>
   <i type="logical" name="LVEL"> F  </i>
   <i type="int" name="KINTER">     0</i>
   <i name="CSHIFT">      0.10000000</i>
   <i name="OMEGAMAX">     -1.00000000</i>
   <i name="DEG_THRESHOLD">      0.00200000</i>
   <i name="RTIME">     -0.10000000</i>
   <i name="WPLASMAI">      0.00000000</i>
   <v name="DFIELD">      0.00000000      0.00000000      0.00000000</v>
   <v name="WPLASMA">      0.00000000      0.00000000      0.00000000      0.00000000      0.00000000      0.00000000      0.00000000      0.00000000      0.00000000</v>
  </separator>
  <separator name="orbital magnetization" >
   <i type="logical" name="NUCIND"> F  </i>
   <v name="MAGPOS">      0.00000000      0.00000000      0.00000000</v>
   <i type="logical" name="LNICSALL"> T  </i>
   <i type="logical" name="ORBITALMAG"> F  </i>
   <i type="logical" name="LMAGBLOCH"> F  </i>
   <i type="logical" name="LCHIMAG"> F  </i>
   <i type="logical" name="LGAUGE"> T  </i>
   <i type="int" name="MAGATOM">     0</i>
   <v name="MAGDIPOL">      0.00000000      0.00000000      0.00000000</v>
   <v name="AVECCONST">      0.00000000      0.00000000      0.00000000</v>
  </separator>
  <separator name="response functions" >
   <i type="logical" name="LADDER"> F  </i>
   <i type="logical" name="LRPAFORCE"> F  </i>
   <i type="logical" name="LFXC"> F  </i>
   <i type="logical" name="LHARTREE"> T  </i>
   <i type="int" name="IBSE">     0</i>
   <v type="int" name="KPOINT">    -1     0     0     0</v>
   <i type="logical" name="LTCTE"> F  </i>
   <i type="logical" name="LTETE"> F  </i>
   <i type="logical" name="LTRIPLET"> F  </i>
   <i type="logical" name="LFXCEPS"> F  </i>
   <i type="logical" name="LFXHEG"> F  </i>
   <i type="int" name="NATURALO">     2</i>
   <i type="logical" name="L2ORDER"> F  </i>
   <i type="logical" name="LMP2LT"> F  </i>
   <i type="logical" name="LUSEW"> F  </i>
   <i name="ENCUTGW">     -2.00000000</i>
   <i name="ENCUTGWSOFT">     -2.00000000</i>
   <i name="ENCUTLF">     -1.00000000</i>
   <i type="int" name="LMAXMP2">    -1</i>
   <i name="SCISSOR">      0.00000000</i>
   <i type="int" name="NOMEGA">     0</i>
   <i type="int" name="NOMEGAR">     0</i>
   <i type="int" name="NBANDSGW">    -1</i>
   <i type="int" name="NBANDSO">    -1</i>
   <i type="int" name="NBANDSV">    -1</i>
   <i type="int" name="NELM">     1</i>
   <i type="int" name="NELMHF">     1</i>
   <i type="int" name="DIM">     3</i>
   <i type="int" name="ANTIRES">     0</i>
   <i name="OMEGAMAX">    -30.00000000</i>
   <i name="OMEGAMIN">    -30.00000000</i>
   <i name="OMEGATL">   -200.00000000</i>
   <i type="int" name="OMEGAGRID">   140</i>
   <i name="CSHIFT">     -0.10000000</i>
   <i type="logical" name="SELFENERGY"> F  </i>
   <i type="logical" name="LSPECTRAL"> F  </i>
   <i type="logical" name="LSPECTRALGW"> F  </i>
   <i type="logical" name="LSINGLES"> F  </i>
   <i type="logical" name="LFERMIGW"> F  </i>
   <i type="logical" name="ODDONLYGW"> F  </i>
   <i type="logical" name="EVENONLYGW"> F  </i>
   <i type="int" name="NKREDLFX">     1</i>
   <i type="int" name="NKREDLFY">     1</i>
   <i type="int" name="NKREDLFZ">     1</i>
   <i type="int" name="MAXMEM">  2800</i>
   <i type="int" name="TELESCOPE">     0</i>
   <i type="int" name="TAUPAR">     1</i>
   <i type="int" name="OMEGAPAR">    -1</i>
   <i name="LAMBDA">      1.00000000</i>
  </separator>
  <separator name="External order field" >
   <i name="OFIELD_KAPPA">      0.00000000</i>
   <v name="OFIELD_K">      0.00000000      0.00000000      0.00000000</v>
   <i name="OFIELD_Q6_NEAR">      0.00000000</i>
   <i name="OFIELD_Q6_FAR">      0.00000000</i>
   <i name="OFIELD_A">      0.00000000</i>
  </separator>
 </parameters>
 <atominfo>
  <atoms>       6 </atoms>
  <types>       2 </types>
  <array name="atoms" >
   <dimension dim="1">ion</dimension>
   <field type="string">element</field>
   <field type="int">atomtype</field>
   <set>
    <rc><c>Mo</c><c>   1</c></rc>
    <rc><c>Mo</c><c>   1</c></rc>
    <rc><c>S </c><c>   2</c></rc>
    <rc><c>S </c><c>   2</c></rc>
    <rc><c>S </c><c>   2</c></rc>
    <rc><c>S </c><c>   2</c></rc>
   </set>
  </array>
  <array name="atomtypes" >
   <dimension dim="1">type</dimension>
   <field type="int">atomspertype</field>
   <field type="string">element</field>
   <field>mass</field>
   <field>valence</field>
   <field type="string">pseudopotential</field>
   <set>
    <rc><c>   2</c><c>Mo</c><c>     95.94000000</c><c>      6.00000000</c><c> PAW_PBE Mo 08Apr2002                   </c></rc>
    <rc><c>   4</c><c>S </c><c>     32.06600000</c><c>      6.00000000</c><c>  PAW_PBE S 17Jan2003                   </c></rc>
   </set>
  </array>
 </atominfo>
 <structure name="initialpos" >
  <crystal>
   <varray name="basis" >
    <v>       3.19031573       0.00000000       0.00000000 </v>
    <v>      -1.59515786       2.76289447       0.00000000 </v>
    <v>       0.00000000       0.00000000      14.87900430 </v>
   </varray>
   <i name="volume">    131.15106795 </i>
   <varray name="rec_basis" >
    <v>       0.31344860       0.18096963       0.00000000 </v>
    <v>       0.00000000       0.36193927       0.00000000 </v>
    <v>       0.00000000       0.00000000       0.06720880 </v>
   </varray>
  </crystal>
  <varray name="positions" >
   <v>       0.33333300       0.66666700       0.25000000 </v>
   <v>       0.66666700       0.33333300       0.75000000 </v>
   <v>       0.33333300       0.66666700       0.85517400 </v>
   <v>       0.66666700       0.33333300       0.14482600 </v>
   <v>       0.66666600       0.33333300       0.35517400 </v>
   <v>       0.33333400       0.66666700       0.64482600 </v>
  </varray>
 </structure>
 <calculation>
  <scstep>
   <time name="dav">    0.47    0.47</time>
   <time name="total">    0.51    0.54</time>
   <energy>
    <i name="alphaZ">     90.42577596 </i>
    <i name="ewald">  -1146.88905665 </i>
    <i name="hartreedc">   -535.10238363 </i>
    <i name="XCdc">    -72.59368245 </i>
    <i name="pawpsdc">    813.77302396 </i>
    <i name="pawaedc">   -658.68146406 </i>
    <i name="eentropy">      0.00000000 </i>
    <i name="bandstr">    179.22389264 </i>
    <i name="atom">   1542.31672482 </i>
    <i name="e_fr_energy">    212.47283061 </i>
    <i name="e_wo_entrp">    212.47283061 </i>
    <i name="e_0_energy">    212.47283061 </i>
   </energy>
  </scstep>
  <scstep>
   <time name="dav">    0.58    0.58</time>
   <time name="total">    0.58    0.58</time>
   <energy>
    <i name="e_fr_energy">    -26.50954714 </i>
    <i name="e_wo_entrp">    -26.50954714 </i>
    <i name="e_0_energy">    -26.50954714 </i>
   </energy>
  </scstep>
  <scstep>
   <time name="dav">    0.59    0.59</time>
   <time name="total">    0.59    0.59</time>
   <energy>
    <i name="e_fr_energy">    -46.20503589 </i>
    <i name="e_wo_entrp">    -46.20503589 </i>
    <i name="e_0_energy">    -46.20503589 </i>
   </energy>
  </scstep>
  <scstep>
   <time name="dav">    0.59    0.59</time>
   <time name="total">    0.59    0.59</time>
   <energy>
    <i name="e_fr_energy">    -46.80677236 </i>
    <i name="e_wo_entrp">    -46.80677236 </i>
    <i name="e_0_energy">    -46.80677236 </i>
   </energy>
  </scstep>
  <scstep>
   <time name="dav">    0.59    0.60</time>
   <time name="total">    0.63    0.64</time>
   <energy>
    <i name="e_fr_energy">    -46.82163974 </i>
    <i name="e_wo_entrp">    -46.82163974 </i>
    <i name="e_0_energy">    -46.82163974 </i>
   </energy>
  </scstep>
  <scstep>
   <time name="diag">    0.10    0.10</time>
   <time name="diis">    0.39    0.39</time>
   <time name="orth">    0.01    0.01</time>
   <time name="total">    0.58    0.58</time>
   <energy>
    <i name="e_fr_energy">    -44.42739966 </i>
    <i name="e_wo_entrp">    -44.42739966 </i>
    <i name="e_0_energy">    -44.42739966 </i>
   </energy>
  </scstep>
  <scstep>
   <time name="diag">    0.10    0.10</time>
   <time name="diis">    0.39    0.39</time>
   <time name="orth">    0.01    0.01</time>
   <time name="total">    0.57    0.57</time>
   <energy>
    <i name="e_fr_energy">    -43.69526562 </i>
    <i name="e_wo_entrp">    -43.69526562 </i>
    <i name="e_0_energy">    -43.69526562 </i>
   </energy>
  </scstep>
  <scstep>
   <time name="diag">    0.10    0.10</time>
   <time name="diis">    0.40    0.40</time>
   <time name="orth">    0.01    0.01</time>
   <time name="total">    0.58    0.58</time>
   <energy>
    <i name="e_fr_energy">    -43.63174437 </i>
    <i name="e_wo_entrp">    -43.63174437 </i>
    <i name="e_0_energy">    -43.63174437 </i>
   </energy>
  </scstep>
  <scstep>
   <time name="diag">    0.10    0.10</time>
   <time name="diis">    0.42    0.42</time>
   <time name="orth">    0.01    0.01</time>
   <time name="total">    0.60    0.60</time>
   <energy>
    <i name="e_fr_energy">    -43.62240738 </i>
    <i name="e_wo_entrp">    -43.62240738 </i>
    <i name="e_0_energy">    -43.62240738 </i>
   </energy>
  </scstep>
  <scstep>
   <time name="diag">    0.10    0.10</time>
   <time name="diis">    0.42    0.42</time>
   <time name="orth">    0.01    0.01</time>
   <time name="total">    0.60    0.60</time>
   <energy>
    <i name="e_fr_energy">    -43.60629206 </i>
    <i name="e_wo_entrp">    -43.60629206 </i>
    <i name="e_0_energy">    -43.60629206 </i>
   </energy>
  </scstep>
  <scstep>
   <time name="diag">    0.10    0.10</time>
   <time name="diis">    0.44    0.44</time>
   <time name="orth">    0.01    0.01</time>
   <time name="total">    0.62    0.62</time>
   <energy>
    <i name="e_fr_energy">    -43.60622404 </i>
    <i name="e_wo_entrp">    -43.60622404 </i>
    <i name="e_0_energy">    -43.60622404 </i>
   </energy>
  </scstep>
  <scstep>
   <time name="diag">    0.10    0.10</time>
   <time name="diis">    0.45    0.44</time>
   <time name="orth">    0.01    0.01</time>
   <time name="total">    0.63    0.63</time>
   <energy>
    <i name="e_fr_energy">    -43.60637843 </i>
    <i name="e_wo_entrp">    -43.60637843 </i>
    <i name="e_0_energy">    -43.60637843 </i>
   </energy>
  </scstep>
  <scstep>
   <time name="diag">    0.10    0.10</time>
   <time name="diis">    0.46    0.46</time>
   <time name="orth">    0.01    0.01</time>
   <time name="total">    0.64    0.64</time>
   <energy>
    <i name="e_fr_energy">    -43.60638343 </i>
    <i name="e_wo_entrp">    -43.60638343 </i>
    <i name="e_0_energy">    -43.60638343 </i>
   </energy>
  </scstep>
  <scstep>
   <time name="diag">    0.10    0.10</time>
   <time name="diis">    0.36    0.36</time>
   <time name="orth">    0.01    0.01</time>
   <time name="total">    0.54    0.54</time>
   <energy>
    <i name="e_fr_energy">    -43.60636950 </i>
    <i name="e_wo_entrp">    -43.60636950 </i>
    <i name="e_0_energy">    -43.60636950 </i>
   </energy>
  </scstep>
  <scstep>
   <time name="diag">    0.10    0.10</time>
   <time name="diis">    0.29    0.29</time>
   <time name="orth">    0.01    0.01</time>
   <time name="total">    0.43    0.43</time>
   <energy>
    <i name="alphaZ">     90.42577596 </i>
    <i name="ewald">  -1146.88905665 </i>
    <i name="hartreedc">   -542.95832685 </i>
    <i name="XCdc">    -70.38847315 </i>
    <i name="pawpsdc">    944.21835335 </i>
    <i name="pawaedc">   -792.60015185 </i>
    <i name="eentropy">      0.00000000 </i>
    <i name="bandstr">    -67.73121545 </i>
    <i name="atom">   1542.31672482 </i>
    <i name="e_fr_energy">    -43.60636981 </i>
    <i name="e_wo_entrp">    -43.60636981 </i>
    <i name="e_0_energy">    -43.60636981 </i>
   </energy>
  </scstep>
  <structure>
   <crystal>
    <varray name="basis" >
     <v>       3.19031573       0.00000000       0.00000000 </v>
     <v>      -1.59515786       2.76289447       0.00000000 </v>
     <v>       0.00000000       0.00000000      14.87900430 </v>
    </varray>
    <i name="volume">    131.15106795 </i>
    <varray name="rec_basis" >
     <v>       0.31344860       0.18096963       0.00000000 </v>
     <v>       0.00000000       0.36193927       0.00000000 </v>
     <v>       0.00000000       0.00000000       0.06720880 </v>
    </varray>
   </crystal>
   <varray name="positions" >
    <v>       0.33333300       0.66666700       0.25000000 </v>
    <v>       0.66666700       0.33333300       0.75000000 </v>
    <v>       0.33333300       0.66666700       0.85517400 </v>
    <v>       0.66666700       0.33333300       0.14482600 </v>
    <v>       0.66666600       0.33333300       0.35517400 </v>
    <v>       0.33333400       0.66666700       0.64482600 </v>
   </varray>
  </structure>
  <varray name="forces" >
   <v>       0.00000000       0.00000000       0.00000000 </v>
   <v>      -0.00000000       0.00000000       0.00000000 </v>
   <v>       0.00000000      -0.00000000      -0.08427820 </v>
   <v>      -0.00000000       0.00000000       0.08427820 </v>
   <v>      -0.00000000       0.00000000      -0.08427820 </v>
   <v>       0.00000000      -0.00000000       0.08427820 </v>
  </varray>
  <varray name="stress" >
   <v>      -5.17612257       0.00000000       0.00000000 </v>
   <v>       0.00000000      -5.17612257       0.00000000 </v>
   <v>       0.00000000      -0.00000000     -16.65371896 </v>
  </varray>
  <energy>
   <i name="e_fr_energy">    -44.93765682 </i>
   <i name="e_wo_entrp">    -44.93765682 </i>
   <i name="e_0_energy">      0.00000000 </i>
  </energy>
  <time name="totalsc">    9.54    9.69</time>
  <eigenvalues>
   <array>
    <dimension dim="1">band</dimension>
    <dimension dim="2">kpoint</dimension>
    <dimension dim="3">spin</dimension>
    <field>eigene</field>
    <field>occ</field>
    <set>
     <set comment="spin 1">
      <set comment="kpoint 1">
       <r>  -10.9296    1.0000 </r>
       <r>  -10.9106    1.0000 </r>
       <r>   -9.7292    1.0000 </r>
       <r>   -9.6952    1.0000 </r>
       <r>   -2.5234    1.0000 </r>
       <r>   -2.3619    1.0000 </r>
       <r>    0.5198    1.0000 </r>
       <r>    0.5198    1.0000 </r>
       <r>    0.5203    1.0000 </r>
       <r>    0.5203    1.0000 </r>
       <r>    1.1062    1.0000 </r>
       <r>    1.6248    1.0000 </r>
       <r>    1.6248    1.0000 </r>
       <r>    1.6266    1.0000 </r>
       <r>    1.6266    1.0000 </r>
       <r>    1.6746    1.0000 </r>
       <r>    2.9225    1.0000 </r>
       <r>    3.2982    1.0000 </r>
       <r>    5.8749    0.0000 </r>
       <r>    5.8881    0.0000 </r>
       <r>    5.9953    0.0000 </r>
       <r>    6.0832    0.0000 </r>
      </set>
      <set comment="kpoint 2">
       <r>  -10.7152    1.0000 </r>
       <r>  -10.6966    1.0000 </r>
       <r>   -9.6255    1.0000 </r>
       <r>   -9.5940    1.0000 </r>
       <r>   -2.2775    1.0000 </r>
       <r>   -2.1187    1.0000 </r>
       <r>    0.0553    1.0000 </r>
       <r>    0.0580    1.0000 </r>
       <r>    0.4566    1.0000 </r>
       <r>    0.6728    1.0000 </r>
       <r>    0.7539    1.0000 </r>
       <r>    0.7551    1.0000 </r>
       <r>    1.2887    1.0000 </r>
       <r>    1.2913    1.0000 </r>
       <r>    1.9307    1.0000 </r>
       <r>    2.2146    1.0000 </r>
       <r>    2.8433    1.0000 </r>
       <r>    3.0853    1.0000 </r>
       <r>    5.5149    0.0000 </r>
       <r>    5.6789    0.0000 </r>
       <r>    5.7089    0.0000 </r>
       <r>    5.7655    0.0000 </r>
      </set>
      <set comment="kpoint 3">
       <r>  -10.1455    1.0000 </r>
       <r>  -10.1288    1.0000 </r>
       <r>   -9.3531    1.0000 </r>
       <r>   -9.3287    1.0000 </r>
       <r>   -1.8876    1.0000 </r>
       <r>   -1.7768    1.0000 </r>
       <r>   -0.6914    1.0000 </r>
       <r>   -0.6479    1.0000 </r>
       <r>   -0.4611    1.0000 </r>
       <r>   -0.3597    1.0000 </r>
       <r>    0.6532    1.0000 </r>
       <r>    0.6567    1.0000 </r>
       <r>    1.3398    1.0000 </r>
       <r>    1.3434    1.0000 </r>
       <r>    1.7042    1.0000 </r>
       <r>    1.9129    1.0000 </r>
       <r>    2.3698    1.0000 </r>
       <r>    2.4183    1.0000 </r>
       <r>    5.1195    0.0000 </r>
       <r>    5.4384    0.0000 </r>
       <r>    5.4474    0.0000 </r>
       <r>    5.4689    0.0000 </r>
      </set>
      <set comment="kpoint 4">
       <r>   -9.4680    1.0000 </r>
       <r>   -9.4561    1.0000 </r>
       <r>   -9.0395    1.0000 </r>
       <r>   -9.0252    1.0000 </r>
       <r>   -2.2851    1.0000 </r>
       <r>   -2.2504    1.0000 </r>
       <r>   -1.2974    1.0000 </r>
       <r>   -1.2544    1.0000 </r>
       <r>   -0.8464    1.0000 </r>
       <r>   -0.7614    1.0000 </r>
       <r>    0.1556    1.0000 </r>
       <r>    0.1596    1.0000 </r>
       <r>    1.3421    1.0000 </r>
       <r>    1.4497    1.0000 </r>
       <r>    1.9279    1.0000 </r>
       <r>    1.9365    1.0000 </r>
       <r>    2.1735    1.0000 </r>
       <r>    2.2242    1.0000 </r>
       <r>    5.2593    0.0000 </r>
       <r>    5.2684    0.0000 </r>
       <r>    5.4543    0.0000 </r>
       <r>    5.6334    0.0000 </r>
      </set>
      <set comment="kpoint 5">
       <r>   -9.1370    1.0000 </r>
       <r>   -9.1305    1.0000 </r>
       <r>   -8.8923    1.0000 </r>
       <r>   -8.8858    1.0000 </r>
       <r>   -2.6135    1.0000 </r>
       <r>   -2.5866    1.0000 </r>
       <r>   -1.6527    1.0000 </r>
       <r>   -1.6282    1.0000 </r>
       <r>   -0.9682    1.0000 </r>
       <r>   -0.8923    1.0000 </r>
       <r>   -0.0250    1.0000 </r>
       <r>   -0.0208    1.0000 </r>
       <r>    1.2467    1.0000 </r>
       <r>    1.2662    1.0000 </r>
       <r>    2.1533    1.0000 </r>
       <r>    2.1654    1.0000 </r>
       <r>    2.4772    1.0000 </r>
       <r>    2.4810    1.0000 </r>
       <r>    5.2841    0.0000 </r>
       <r>    5.2879    0.0000 </r>
       <r>    5.7743    0.0000 </r>
       <r>    5.8365    0.0000 </r>
      </set>
      <set comment="kpoint 6">
       <r>  -10.3218    1.0000 </r>
       <r>  -10.3044    1.0000 </r>
       <r>   -9.4360    1.0000 </r>
       <r>   -9.4093    1.0000 </r>
       <r>   -1.9208    1.0000 </r>
       <r>   -1.7811    1.0000 </r>
       <r>   -0.5135    1.0000 </r>
       <r>   -0.5009    1.0000 </r>
       <r>   -0.0650    1.0000 </r>
       <r>    0.0771    1.0000 </r>
       <r>    0.4641    1.0000 </r>
       <r>    0.4902    1.0000 </r>
       <r>    1.0931    1.0000 </r>
       <r>    1.0949    1.0000 </r>
       <r>    2.0959    1.0000 </r>
       <r>    2.2982    1.0000 </r>
       <r>    2.5521    1.0000 </r>
       <r>    2.6277    1.0000 </r>
       <r>    5.0624    0.0000 </r>
       <r>    5.3265    0.0000 </r>
       <r>    5.5335    0.0000 </r>
       <r>    5.5839    0.0000 </r>
      </set>
      <set comment="kpoint 7">
       <r>   -9.6866    1.0000 </r>
       <r>   -9.6725    1.0000 </r>
       <r>   -9.1332    1.0000 </r>
       <r>   -9.1150    1.0000 </r>
       <r>   -1.9394    1.0000 </r>
       <r>   -1.8863    1.0000 </r>
       <r>   -0.9509    1.0000 </r>
       <r>   -0.9197    1.0000 </r>
       <r>   -0.7083    1.0000 </r>
       <r>   -0.6348    1.0000 </r>
       <r>   -0.0665    1.0000 </r>
       <r>    0.0082    1.0000 </r>
       <r>    1.1905    1.0000 </r>
       <r>    1.1963    1.0000 </r>
       <r>    1.7874    1.0000 </r>
       <r>    1.8737    1.0000 </r>
       <r>    2.3024    1.0000 </r>
       <r>    2.3122    1.0000 </r>
       <r>    4.9960    0.0000 </r>
       <r>    5.2123    0.0000 </r>
       <r>    5.5329    0.0000 </r>
       <r>    5.6250    0.0000 </r>
      </set>
      <set comment="kpoint 8">
       <r>   -9.1529    1.0000 </r>
       <r>   -9.1452    1.0000 </r>
       <r>   -8.8843    1.0000 </r>
       <r>   -8.8759    1.0000 </r>
       <r>   -2.3263    1.0000 </r>
       <r>   -2.2993    1.0000 </r>
       <r>   -1.7020    1.0000 </r>
       <r>   -1.6929    1.0000 </r>
       <r>   -0.8377    1.0000 </r>
       <r>   -0.7672    1.0000 </r>
       <r>   -0.0671    1.0000 </r>
       <r>   -0.0247    1.0000 </r>
       <r>    1.2001    1.0000 </r>
       <r>    1.2165    1.0000 </r>
       <r>    1.3285    1.0000 </r>
       <r>    1.3668    1.0000 </r>
       <r>    2.6247    1.0000 </r>
       <r>    2.6431    1.0000 </r>
       <r>    5.2705    0.0000 </r>
       <r>    5.3347    0.0000 </r>
       <r>    5.7779    0.0000 </r>
       <r>    5.8544    0.0000 </r>
      </set>
      <set comment="kpoint 9">
       <r>   -9.1683    1.0000 </r>
       <r>   -9.1596    1.0000 </r>
       <r>   -8.8760    1.0000 </r>
       <r>   -8.8661    1.0000 </r>
       <r>   -1.9670    1.0000 </r>
       <r>   -1.9385    1.0000 </r>
       <r>   -1.7534    1.0000 </r>
       <r>   -1.7422    1.0000 </r>
       <r>   -0.4879    1.0000 </r>
       <r>   -0.4635    1.0000 </r>
       <r>   -0.1390    1.0000 </r>
       <r>   -0.0508    1.0000 </r>
       <r>    0.2149    1.0000 </r>
       <r>    0.2375    1.0000 </r>
       <r>    1.4764    1.0000 </r>
       <r>    1.4871    1.0000 </r>
       <r>    2.6007    1.0000 </r>
       <r>    2.6104    1.0000 </r>
       <r>    5.1855    0.0000 </r>
       <r>    5.3137    0.0000 </r>
       <r>    5.8808    0.0000 </r>
       <r>    6.0920    0.0000 </r>
      </set>
      <set comment="kpoint 10">
       <r>   -8.9306    1.0000 </r>
       <r>   -8.9275    1.0000 </r>
       <r>   -8.7535    1.0000 </r>
       <r>   -8.7503    1.0000 </r>
       <r>   -2.1376    1.0000 </r>
       <r>   -2.1268    1.0000 </r>
       <r>   -1.7916    1.0000 </r>
       <r>   -1.7754    1.0000 </r>
       <r>   -0.7778    1.0000 </r>
       <r>   -0.7406    1.0000 </r>
       <r>   -0.1068    1.0000 </r>
       <r>   -0.0859    1.0000 </r>
       <r>    0.1071    1.0000 </r>
       <r>    0.1581    1.0000 </r>
       <r>    1.0758    1.0000 </r>
       <r>    1.1157    1.0000 </r>
       <r>    2.9622    1.0000 </r>
       <r>    2.9834    1.0000 </r>
       <r>    4.9235    0.0000 </r>
       <r>    4.9325    0.0000 </r>
       <r>    6.1512    0.0000 </r>
       <r>    6.3239    0.0000 </r>
      </set>
      <set comment="kpoint 11">
       <r>  -10.9202    1.0000 </r>
       <r>  -10.9202    1.0000 </r>
       <r>   -9.7121    1.0000 </r>
       <r>   -9.7121    1.0000 </r>
       <r>   -2.4454    1.0000 </r>
       <r>   -2.4454    1.0000 </r>
       <r>    0.5200    1.0000 </r>
       <r>    0.5200    1.0000 </r>
       <r>    0.5200    1.0000 </r>
       <r>    0.5200    1.0000 </r>
       <r>    1.3629    1.0000 </r>
       <r>    1.3629    1.0000 </r>
       <r>    1.6257    1.0000 </r>
       <r>    1.6257    1.0000 </r>
       <r>    1.6257    1.0000 </r>
       <r>    1.6257    1.0000 </r>
       <r>    3.1410    1.0000 </r>
       <r>    3.1410    1.0000 </r>
       <r>    5.8743    0.0000 </r>
       <r>    5.8753    0.0000 </r>
       <r>    6.0171    0.0000 </r>
       <r>    6.0841    0.0000 </r>
      </set>
      <set comment="kpoint 12">
       <r>  -10.7061    1.0000 </r>
       <r>  -10.7061    1.0000 </r>
       <r>   -9.6096    1.0000 </r>
       <r>   -9.6096    1.0000 </r>
       <r>   -2.2011    1.0000 </r>
       <r>   -2.2011    1.0000 </r>
       <r>    0.0564    1.0000 </r>
       <r>    0.0564    1.0000 </r>
       <r>    0.5714    1.0000 </r>
       <r>    0.5714    1.0000 </r>
       <r>    0.7545    1.0000 </r>
       <r>    0.7545    1.0000 </r>
       <r>    1.2900    1.0000 </r>
       <r>    1.2900    1.0000 </r>
       <r>    2.0429    1.0000 </r>
       <r>    2.0429    1.0000 </r>
       <r>    2.9903    1.0000 </r>
       <r>    2.9903    1.0000 </r>
       <r>    5.5767    0.0000 </r>
       <r>    5.6249    0.0000 </r>
       <r>    5.7321    0.0000 </r>
       <r>    5.8295    0.0000 </r>
      </set>
      <set comment="kpoint 13">
       <r>  -10.1373    1.0000 </r>
       <r>  -10.1373    1.0000 </r>
       <r>   -9.3408    1.0000 </r>
       <r>   -9.3408    1.0000 </r>
       <r>   -1.8340    1.0000 </r>
       <r>   -1.8340    1.0000 </r>
       <r>   -0.6753    1.0000 </r>
       <r>   -0.6753    1.0000 </r>
       <r>   -0.4024    1.0000 </r>
       <r>   -0.4024    1.0000 </r>
       <r>    0.6550    1.0000 </r>
       <r>    0.6550    1.0000 </r>
       <r>    1.3416    1.0000 </r>
       <r>    1.3416    1.0000 </r>
       <r>    1.8007    1.0000 </r>
       <r>    1.8007    1.0000 </r>
       <r>    2.3995    1.0000 </r>
       <r>    2.3995    1.0000 </r>
       <r>    5.2602    0.0000 </r>
       <r>    5.2641    0.0000 </r>
       <r>    5.4462    0.0000 </r>
       <r>    5.4545    0.0000 </r>
      </set>
      <set comment="kpoint 14">
       <r>   -9.4622    1.0000 </r>
       <r>   -9.4622    1.0000 </r>
       <r>   -9.0323    1.0000 </r>
       <r>   -9.0323    1.0000 </r>
       <r>   -2.2680    1.0000 </r>
       <r>   -2.2680    1.0000 </r>
       <r>   -1.2778    1.0000 </r>
       <r>   -1.2778    1.0000 </r>
       <r>   -0.8019    1.0000 </r>
       <r>   -0.8019    1.0000 </r>
       <r>    0.1576    1.0000 </r>
       <r>    0.1576    1.0000 </r>
       <r>    1.3938    1.0000 </r>
       <r>    1.3938    1.0000 </r>
       <r>    1.9322    1.0000 </r>
       <r>    1.9322    1.0000 </r>
       <r>    2.2008    1.0000 </r>
       <r>    2.2008    1.0000 </r>
       <r>    5.2638    0.0000 </r>
       <r>    5.2638    0.0000 </r>
       <r>    5.5373    0.0000 </r>
       <r>    5.5373    0.0000 </r>
      </set>
      <set comment="kpoint 15">
       <r>   -9.1338    1.0000 </r>
       <r>   -9.1338    1.0000 </r>
       <r>   -8.8890    1.0000 </r>
       <r>   -8.8890    1.0000 </r>
       <r>   -2.6002    1.0000 </r>
       <r>   -2.6002    1.0000 </r>
       <r>   -1.6413    1.0000 </r>
       <r>   -1.6413    1.0000 </r>
       <r>   -0.9292    1.0000 </r>
       <r>   -0.9292    1.0000 </r>
       <r>   -0.0230    1.0000 </r>
       <r>   -0.0230    1.0000 </r>
       <r>    1.2562    1.0000 </r>
       <r>    1.2562    1.0000 </r>
       <r>    2.1593    1.0000 </r>
       <r>    2.1593    1.0000 </r>
       <r>    2.4791    1.0000 </r>
       <r>    2.4791    1.0000 </r>
       <r>    5.2860    0.0000 </r>
       <r>    5.2860    0.0000 </r>
       <r>    5.8016    0.0000 </r>
       <r>    5.8017    0.0000 </r>
      </set>
      <set comment="kpoint 16">
       <r>  -10.3132    1.0000 </r>
       <r>  -10.3132    1.0000 </r>
       <r>   -9.4226    1.0000 </r>
       <r>   -9.4226    1.0000 </r>
       <r>   -1.8538    1.0000 </r>
       <r>   -1.8538    1.0000 </r>
       <r>   -0.5089    1.0000 </r>
       <r>   -0.5089    1.0000 </r>
       <r>    0.0128    1.0000 </r>
       <r>    0.0128    1.0000 </r>
       <r>    0.4761    1.0000 </r>
       <r>    0.4761    1.0000 </r>
       <r>    1.0940    1.0000 </r>
       <r>    1.0940    1.0000 </r>
       <r>    2.1818    1.0000 </r>
       <r>    2.1818    1.0000 </r>
       <r>    2.6016    1.0000 </r>
       <r>    2.6016    1.0000 </r>
       <r>    5.1825    0.0000 </r>
       <r>    5.2404    0.0000 </r>
       <r>    5.5536    0.0000 </r>
       <r>    5.6217    0.0000 </r>
      </set>
      <set comment="kpoint 17">
       <r>   -9.6796    1.0000 </r>
       <r>   -9.6796    1.0000 </r>
       <r>   -9.1240    1.0000 </r>
       <r>   -9.1240    1.0000 </r>
       <r>   -1.9132    1.0000 </r>
       <r>   -1.9132    1.0000 </r>
       <r>   -0.9372    1.0000 </r>
       <r>   -0.9372    1.0000 </r>
       <r>   -0.6715    1.0000 </r>
       <r>   -0.6715    1.0000 </r>
       <r>   -0.0265    1.0000 </r>
       <r>   -0.0265    1.0000 </r>
       <r>    1.1933    1.0000 </r>
       <r>    1.1933    1.0000 </r>
       <r>    1.8285    1.0000 </r>
       <r>    1.8285    1.0000 </r>
       <r>    2.3079    1.0000 </r>
       <r>    2.3079    1.0000 </r>
       <r>    5.1027    0.0000 </r>
       <r>    5.1029    0.0000 </r>
       <r>    5.5643    0.0000 </r>
       <r>    5.6186    0.0000 </r>
      </set>
      <set comment="kpoint 18">
       <r>   -9.1491    1.0000 </r>
       <r>   -9.1491    1.0000 </r>
       <r>   -8.8800    1.0000 </r>
       <r>   -8.8800    1.0000 </r>
       <r>   -2.3129    1.0000 </r>
       <r>   -2.3129    1.0000 </r>
       <r>   -1.6977    1.0000 </r>
       <r>   -1.6976    1.0000 </r>
       <r>   -0.8032    1.0000 </r>
       <r>   -0.8032    1.0000 </r>
       <r>   -0.0445    1.0000 </r>
       <r>   -0.0445    1.0000 </r>
       <r>    1.2076    1.0000 </r>
       <r>    1.2076    1.0000 </r>
       <r>    1.3476    1.0000 </r>
       <r>    1.3476    1.0000 </r>
       <r>    2.6341    1.0000 </r>
       <r>    2.6341    1.0000 </r>
       <r>    5.3030    0.0000 </r>
       <r>    5.3030    0.0000 </r>
       <r>    5.8119    0.0000 </r>
       <r>    5.8120    0.0000 </r>
      </set>
      <set comment="kpoint 19">
       <r>   -9.1641    1.0000 </r>
       <r>   -9.1641    1.0000 </r>
       <r>   -8.8710    1.0000 </r>
       <r>   -8.8710    1.0000 </r>
       <r>   -1.9529    1.0000 </r>
       <r>   -1.9529    1.0000 </r>
       <r>   -1.7477    1.0000 </r>
       <r>   -1.7477    1.0000 </r>
       <r>   -0.4795    1.0000 </r>
       <r>   -0.4795    1.0000 </r>
       <r>   -0.0907    1.0000 </r>
       <r>   -0.0907    1.0000 </r>
       <r>    0.2264    1.0000 </r>
       <r>    0.2264    1.0000 </r>
       <r>    1.4807    1.0000 </r>
       <r>    1.4807    1.0000 </r>
       <r>    2.6056    1.0000 </r>
       <r>    2.6056    1.0000 </r>
       <r>    5.2494    0.0000 </r>
       <r>    5.2495    0.0000 </r>
       <r>    5.8974    0.0000 </r>
       <r>    6.1470    0.0000 </r>
      </set>
      <set comment="kpoint 20">
       <r>   -8.9291    1.0000 </r>
       <r>   -8.9291    1.0000 </r>
       <r>   -8.7519    1.0000 </r>
       <r>   -8.7519    1.0000 </r>
       <r>   -2.1323    1.0000 </r>
       <r>   -2.1323    1.0000 </r>
       <r>   -1.7833    1.0000 </r>
       <r>   -1.7833    1.0000 </r>
       <r>   -0.7602    1.0000 </r>
       <r>   -0.7602    1.0000 </r>
       <r>   -0.0991    1.0000 </r>
       <r>   -0.0991    1.0000 </r>
       <r>    0.1374    1.0000 </r>
       <r>    0.1374    1.0000 </r>
       <r>    1.0943    1.0000 </r>
       <r>    1.0943    1.0000 </r>
       <r>    2.9728    1.0000 </r>
       <r>    2.9728    1.0000 </r>
       <r>    4.9281    0.0000 </r>
       <r>    4.9281    0.0000 </r>
       <r>    6.2287    0.0000 </r>
       <r>    6.2406    0.0000 </r>
      </set>
     </set>
    </set>
   </array>
  </eigenvalues>
  <separator name="orbital magnetization" >
   <v name="MAGDIPOLOUT">      0.00000000      0.00000000      0.00000000</v>
  </separator>
  <dos>
   <i name="efermi">      3.30277307 </i>
   <total>
    <array>
     <dimension dim="1">gridpoints</dimension>
     <dimension dim="2">spin</dimension>
     <field>energy</field>
     <field>total</field>
     <field>integrated</field>
     <set>
      <set comment="spin 1">
       <r>   -12.9296     0.0000     0.0000 </r>
       <r>   -12.8587     0.0000     0.0000 </r>
       <r>   -12.7879     0.0000     0.0000 </r>
       <r>   -12.7170     0.0000     0.0000 </r>
       <r>   -12.6462     0.0000     0.0000 </r>
       <r>   -12.5754     0.0000     0.0000 </r>
       <r>   -12.5045     0.0000     0.0000 </r>
       <r>   -12.4337     0.0000     0.0000 </r>
       <r>   -12.3628     0.0000     0.0000 </r>
       <r>   -12.2920     0.0000     0.0000 </r>
       <r>   -12.2211     0.0000     0.0000 </r>
       <r>   -12.1503     0.0000     0.0000 </r>
       <r>   -12.0794     0.0000     0.0000 </r>
       <r>   -12.0086     0.0000     0.0000 </r>
       <r>   -11.9377     0.0000     0.0000 </r>
       <r>   -11.8669     0.0000     0.0000 </r>
       <r>   -11.7961     0.0000     0.0000 </r>
       <r>   -11.7252     0.0000     0.0000 </r>
       <r>   -11.6544     0.0000     0.0000 </r>
       <r>   -11.5835     0.0000     0.0000 </r>
       <r>   -11.5127     0.0000     0.0000 </r>
       <r>   -11.4418     0.0000     0.0000 </r>
       <r>   -11.3710     0.0000     0.0000 </r>
       <r>   -11.3001     0.0000     0.0000 </r>
       <r>   -11.2293     0.0000     0.0000 </r>
       <r>   -11.1585     0.0000     0.0000 </r>
       <r>   -11.0876     0.0000     0.0000 </r>
       <r>   -11.0168     0.0000     0.0000 </r>
       <r>   -10.9459     0.0000     0.0000 </r>
       <r>   -10.8751     0.3685     0.0084 </r>
       <r>   -10.8042     0.9479     0.0551 </r>
       <r>   -10.7334     1.5272     0.1427 </r>
       <r>   -10.6625     0.9949     0.2299 </r>
       <r>   -10.5917     1.0606     0.3027 </r>
       <r>   -10.5208     1.1262     0.3801 </r>
       <r>   -10.4500     1.1919     0.4623 </r>
       <r>   -10.3792     1.2575     0.5490 </r>
       <r>   -10.3083     1.3192     0.6404 </r>
       <r>   -10.2375     1.3313     0.7343 </r>
       <r>   -10.1666     1.3431     0.8290 </r>
       <r>   -10.0958     1.3802     0.9252 </r>
       <r>   -10.0249     1.4351     1.0249 </r>
       <r>    -9.9541     1.4900     1.1285 </r>
       <r>    -9.8832     1.5449     1.2360 </r>
       <r>    -9.8124     1.5998     1.3474 </r>
       <r>    -9.7416     1.6547     1.4627 </r>
       <r>    -9.6707     3.3373     1.6153 </r>
       <r>    -9.5999     4.3951     1.9285 </r>
       <r>    -9.5290     4.5907     2.2372 </r>
       <r>    -9.4582     5.0870     2.5798 </r>
       <r>    -9.3873     5.5561     2.9589 </r>
       <r>    -9.3165     5.9778     3.3658 </r>
       <r>    -9.2456     6.5411     3.8092 </r>
       <r>    -9.1748     7.1045     4.2926 </r>
       <r>    -9.1039     8.4810     5.0790 </r>
       <r>    -9.0331     8.3381     5.6745 </r>
       <r>    -8.9623     8.6763     6.2766 </r>
       <r>    -8.8914     8.2827     6.9173 </r>
       <r>    -8.8206     6.2769     7.6138 </r>
       <r>    -8.7497     0.0000     8.0000 </r>
       <r>    -8.6789     0.0000     8.0000 </r>
       <r>    -8.6080     0.0000     8.0000 </r>
       <r>    -8.5372     0.0000     8.0000 </r>
       <r>    -8.4663     0.0000     8.0000 </r>
       <r>    -8.3955     0.0000     8.0000 </r>
       <r>    -8.3247     0.0000     8.0000 </r>
       <r>    -8.2538     0.0000     8.0000 </r>
       <r>    -8.1830     0.0000     8.0000 </r>
       <r>    -8.1121     0.0000     8.0000 </r>
       <r>    -8.0413     0.0000     8.0000 </r>
       <r>    -7.9704     0.0000     8.0000 </r>
       <r>    -7.8996     0.0000     8.0000 </r>
       <r>    -7.8287     0.0000     8.0000 </r>
       <r>    -7.7579     0.0000     8.0000 </r>
       <r>    -7.6871     0.0000     8.0000 </r>
       <r>    -7.6162     0.0000     8.0000 </r>
       <r>    -7.5454     0.0000     8.0000 </r>
       <r>    -7.4745     0.0000     8.0000 </r>
       <r>    -7.4037     0.0000     8.0000 </r>
       <r>    -7.3328     0.0000     8.0000 </r>
       <r>    -7.2620     0.0000     8.0000 </r>
       <r>    -7.1911     0.0000     8.0000 </r>
       <r>    -7.1203     0.0000     8.0000 </r>
       <r>    -7.0494     0.0000     8.0000 </r>
       <r>    -6.9786     0.0000     8.0000 </r>
       <r>    -6.9078     0.0000     8.0000 </r>
       <r>    -6.8369     0.0000     8.0000 </r>
       <r>    -6.7661     0.0000     8.0000 </r>
       <r>    -6.6952     0.0000     8.0000 </r>
       <r>    -6.6244     0.0000     8.0000 </r>
       <r>    -6.5535     0.0000     8.0000 </r>
       <r>    -6.4827     0.0000     8.0000 </r>
       <r>    -6.4118     0.0000     8.0000 </r>
       <r>    -6.3410     0.0000     8.0000 </r>
       <r>    -6.2702     0.0000     8.0000 </r>
       <r>    -6.1993     0.0000     8.0000 </r>
       <r>    -6.1285     0.0000     8.0000 </r>
       <r>    -6.0576     0.0000     8.0000 </r>
       <r>    -5.9868     0.0000     8.0000 </r>
       <r>    -5.9159     0.0000     8.0000 </r>
       <r>    -5.8451     0.0000     8.0000 </r>
       <r>    -5.7742     0.0000     8.0000 </r>
       <r>    -5.7034     0.0000     8.0000 </r>
       <r>    -5.6325     0.0000     8.0000 </r>
       <r>    -5.5617     0.0000     8.0000 </r>
       <r>    -5.4909     0.0000     8.0000 </r>
       <r>    -5.4200     0.0000     8.0000 </r>
       <r>    -5.3492     0.0000     8.0000 </r>
       <r>    -5.2783     0.0000     8.0000 </r>
       <r>    -5.2075     0.0000     8.0000 </r>
       <r>    -5.1366     0.0000     8.0000 </r>
       <r>    -5.0658     0.0000     8.0000 </r>
       <r>    -4.9949     0.0000     8.0000 </r>
       <r>    -4.9241     0.0000     8.0000 </r>
       <r>    -4.8533     0.0000     8.0000 </r>
       <r>    -4.7824     0.0000     8.0000 </r>
       <r>    -4.7116     0.0000     8.0000 </r>
       <r>    -4.6407     0.0000     8.0000 </r>
       <r>    -4.5699     0.0000     8.0000 </r>
       <r>    -4.4990     0.0000     8.0000 </r>
       <r>    -4.4282     0.0000     8.0000 </r>
       <r>    -4.3573     0.0000     8.0000 </r>
       <r>    -4.2865     0.0000     8.0000 </r>
       <r>    -4.2156     0.0000     8.0000 </r>
       <r>    -4.1448     0.0000     8.0000 </r>
       <r>    -4.0740     0.0000     8.0000 </r>
       <r>    -4.0031     0.0000     8.0000 </r>
       <r>    -3.9323     0.0000     8.0000 </r>
       <r>    -3.8614     0.0000     8.0000 </r>
       <r>    -3.7906     0.0000     8.0000 </r>
       <r>    -3.7197     0.0000     8.0000 </r>
       <r>    -3.6489     0.0000     8.0000 </r>
       <r>    -3.5780     0.0000     8.0000 </r>
       <r>    -3.5072     0.0000     8.0000 </r>
       <r>    -3.4364     0.0000     8.0000 </r>
       <r>    -3.3655     0.0000     8.0000 </r>
       <r>    -3.2947     0.0000     8.0000 </r>
       <r>    -3.2238     0.0000     8.0000 </r>
       <r>    -3.1530     0.0000     8.0000 </r>
       <r>    -3.0821     0.0000     8.0000 </r>
       <r>    -3.0113     0.0000     8.0000 </r>
       <r>    -2.9404     0.0000     8.0000 </r>
       <r>    -2.8696     0.0000     8.0000 </r>
       <r>    -2.7987     0.0000     8.0000 </r>
       <r>    -2.7279     0.0000     8.0000 </r>
       <r>    -2.6571     0.0000     8.0000 </r>
       <r>    -2.5862     0.1728     8.0016 </r>
       <r>    -2.5154     1.0529     8.0450 </r>
       <r>    -2.4445     2.0545     8.1538 </r>
       <r>    -2.3737     3.2513     8.3407 </r>
       <r>    -2.3028     5.0779     8.6240 </r>
       <r>    -2.2320     5.5331     9.0013 </r>
       <r>    -2.1611     5.9830     9.4096 </r>
       <r>    -2.0903     7.5342     9.9776 </r>
       <r>    -2.0195     6.4201    10.4718 </r>
       <r>    -1.9486     7.3267    10.9003 </r>
       <r>    -1.8778     8.2446    11.6245 </r>
       <r>    -1.8069     2.0925    11.9704 </r>
       <r>    -1.7361     9.3491    12.5530 </r>
       <r>    -1.6652     4.7925    13.0376 </r>
       <r>    -1.5944     2.6831    13.2596 </r>
       <r>    -1.5235     2.4557    13.4416 </r>
       <r>    -1.4527     2.2285    13.6075 </r>
       <r>    -1.3818     2.0015    13.7573 </r>
       <r>    -1.3110     1.7748    13.8911 </r>
       <r>    -1.2402     1.6704    14.0113 </r>
       <r>    -1.1693     1.6778    14.1299 </r>
       <r>    -1.0985     1.6854    14.2491 </r>
       <r>    -1.0276     1.6929    14.3687 </r>
       <r>    -0.9568     1.7585    14.4892 </r>
       <r>    -0.8859     5.1681    14.7137 </r>
       <r>    -0.8151    10.6669    15.2629 </r>
       <r>    -0.7442    12.1003    16.1481 </r>
       <r>    -0.6734     9.8428    16.8601 </r>
       <r>    -0.6026     8.2221    17.5266 </r>
       <r>    -0.5317     5.0185    17.9957 </r>
       <r>    -0.4609     2.6410    18.2492 </r>
       <r>    -0.3900     2.3748    18.4263 </r>
       <r>    -0.3192     2.2028    18.5881 </r>
       <r>    -0.2483     2.0428    18.7385 </r>
       <r>    -0.1775     1.8831    18.8776 </r>
       <r>    -0.1066    13.6724    19.0918 </r>
       <r>    -0.0358    21.3343    20.4733 </r>
       <r>     0.0350     7.6159    21.2930 </r>
       <r>     0.1059     5.2259    21.7503 </r>
       <r>     0.1767     5.9463    22.2328 </r>
       <r>     0.2476     3.7876    22.5588 </r>
       <r>     0.3184     3.6016    22.8205 </r>
       <r>     0.3893     3.4155    23.0691 </r>
       <r>     0.4601     3.3572    23.3047 </r>
       <r>     0.5310     5.0432    23.6029 </r>
       <r>     0.6018     5.0337    23.9682 </r>
       <r>     0.6727     4.2637    24.3160 </r>
       <r>     0.7435     2.7411    24.5641 </r>
       <r>     0.8143     1.7940    24.7016 </r>
       <r>     0.8852     1.7506    24.8271 </r>
       <r>     0.9560     1.7140    24.9498 </r>
       <r>     1.0269     1.6840    25.0701 </r>
       <r>     1.0977     4.0935    25.2322 </r>
       <r>     1.1686    10.4207    25.7306 </r>
       <r>     1.2394    18.1628    26.7776 </r>
       <r>     1.3103    13.8397    27.9466 </r>
       <r>     1.3811     5.1954    28.6124 </r>
       <r>     1.4519     3.1635    28.8859 </r>
       <r>     1.5228     2.9564    29.1002 </r>
       <r>     1.5936     2.8772    29.3068 </r>
       <r>     1.6645     3.0038    29.5118 </r>
       <r>     1.7353     3.5654    29.7387 </r>
       <r>     1.8062     6.3161    30.0701 </r>
       <r>     1.8770     8.5632    30.6198 </r>
       <r>     1.9479     4.8952    31.1137 </r>
       <r>     2.0187     4.4576    31.4498 </r>
       <r>     2.0896     3.2066    31.7262 </r>
       <r>     2.1604     1.6747    31.8958 </r>
       <r>     2.2312     2.4367    32.0165 </r>
       <r>     2.3021     5.8689    32.3009 </r>
       <r>     2.3729     7.8807    32.8780 </r>
       <r>     2.4438     7.2263    33.4100 </r>
       <r>     2.5146     6.6893    33.9039 </r>
       <r>     2.5855     6.1594    34.3575 </r>
       <r>     2.6563     4.3372    34.7478 </r>
       <r>     2.7272     3.8134    35.0365 </r>
       <r>     2.7980     3.2891    35.2881 </r>
       <r>     2.8688     2.9851    35.5056 </r>
       <r>     2.9397     2.4635    35.7033 </r>
       <r>     3.0105     0.9710    35.8788 </r>
       <r>     3.0814     0.8481    35.9442 </r>
       <r>     3.1522     0.3312    35.9839 </r>
       <r>     3.2231     0.0878    35.9978 </r>
       <r>     3.2939     0.0003    36.0000 </r>
       <r>     3.3648     0.0000    36.0000 </r>
       <r>     3.4356     0.0000    36.0000 </r>
       <r>     3.5065     0.0000    36.0000 </r>
       <r>     3.5773     0.0000    36.0000 </r>
       <r>     3.6481     0.0000    36.0000 </r>
       <r>     3.7190     0.0000    36.0000 </r>
       <r>     3.7898     0.0000    36.0000 </r>
       <r>     3.8607     0.0000    36.0000 </r>
       <r>     3.9315     0.0000    36.0000 </r>
       <r>     4.0024     0.0000    36.0000 </r>
       <r>     4.0732     0.0000    36.0000 </r>
       <r>     4.1441     0.0000    36.0000 </r>
       <r>     4.2149     0.0000    36.0000 </r>
       <r>     4.2857     0.0000    36.0000 </r>
       <r>     4.3566     0.0000    36.0000 </r>
       <r>     4.4274     0.0000    36.0000 </r>
       <r>     4.4983     0.0000    36.0000 </r>
       <r>     4.5691     0.0000    36.0000 </r>
       <r>     4.6400     0.0000    36.0000 </r>
       <r>     4.7108     0.0000    36.0000 </r>
       <r>     4.7817     0.0000    36.0000 </r>
       <r>     4.8525     0.0000    36.0000 </r>
       <r>     4.9234     0.0000    36.0000 </r>
       <r>     4.9942     1.5320    36.1528 </r>
       <r>     5.0650     4.8741    36.3711 </r>
       <r>     5.1359     8.3155    36.8412 </r>
       <r>     5.2067    12.4904    37.5732 </r>
       <r>     5.2776    26.5923    38.6414 </r>
       <r>     5.3484     2.2999    39.4308 </r>
       <r>     5.4193     1.6354    39.5668 </r>
       <r>     5.4901     7.6137    39.8223 </r>
       <r>     5.5610    10.6768    40.6052 </r>
       <r>     5.6318     7.6649    41.3405 </r>
       <r>     5.7026     7.6952    41.8878 </r>
       <r>     5.7735     6.9993    42.4026 </r>
       <r>     5.8443     5.8975    42.9750 </r>
       <r>     5.9152     3.1251    43.2334 </r>
       <r>     5.9860     2.5339    43.4339 </r>
       <r>     6.0569     2.0605    43.5955 </r>
       <r>     6.1277     1.7658    43.7290 </r>
       <r>     6.1986     1.7263    43.8609 </r>
       <r>     6.2694     1.0909    43.9605 </r>
       <r>     6.3403     0.0000    44.0000 </r>
       <r>     6.4111     0.0000    44.0000 </r>
       <r>     6.4819     0.0000    44.0000 </r>
       <r>     6.5528     0.0000    44.0000 </r>
       <r>     6.6236     0.0000    44.0000 </r>
       <r>     6.6945     0.0000    44.0000 </r>
       <r>     6.7653     0.0000    44.0000 </r>
       <r>     6.8362     0.0000    44.0000 </r>
       <r>     6.9070     0.0000    44.0000 </r>
       <r>     6.9779     0.0000    44.0000 </r>
       <r>     7.0487     0.0000    44.0000 </r>
       <r>     7.1195     0.0000    44.0000 </r>
       <r>     7.1904     0.0000    44.0000 </r>
       <r>     7.2612     0.0000    44.0000 </r>
       <r>     7.3321     0.0000    44.0000 </r>
       <r>     7.4029     0.0000    44.0000 </r>
       <r>     7.4738     0.0000    44.0000 </r>
       <r>     7.5446     0.0000    44.0000 </r>
       <r>     7.6155     0.0000    44.0000 </r>
       <r>     7.6863     0.0000    44.0000 </r>
       <r>     7.7571     0.0000    44.0000 </r>
       <r>     7.8280     0.0000    44.0000 </r>
       <r>     7.8988     0.0000    44.0000 </r>
       <r>     7.9697     0.0000    44.0000 </r>
       <r>     8.0405     0.0000    44.0000 </r>
       <r>     8.1114     0.0000    44.0000 </r>
       <r>     8.1822     0.0000    44.0000 </r>
       <r>     8.2531     0.0000    44.0000 </r>
       <r>     8.3239     0.0000    44.0000 </r>
      </set>
     </set>
    </array>
   </total>
  </dos>
 </calculation>
 <structure name="finalpos" >
  <crystal>
   <varray name="basis" >
    <v>       3.19031573       0.00000000       0.00000000 </v>
    <v>      -1.59515786       2.76289447       0.00000000 </v>
    <v>       0.00000000       0.00000000      14.87900430 </v>
   </varray>
   <i name="volume">    131.15106795 </i>
   <varray name="rec_basis" >
    <v>       0.31344860       0.18096963       0.00000000 </v>
    <v>       0.00000000       0.36193927       0.00000000 </v>
    <v>       0.00000000       0.00000000       0.06720880 </v>
   </varray>
  </crystal>
  <varray name="positions" >
   <v>       0.33333300       0.66666700       0.25000000 </v>
   <v>       0.66666700       0.33333300       0.75000000 </v>
   <v>       0.33333300       0.66666700       0.85517400 </v>
   <v>       0.66666700       0.33333300       0.14482600 </v>
   <v>       0.66666600       0.33333300       0.35517400 </v>
   <v>       0.33333400       0.66666700       0.64482600 </v>
  </varray>
 </structure>
</modeling>
