    3    3    1    1
  0.7897505E+02  0.3190316E-09  0.3190316E-09  0.2687900E-08  0.5000000E-15
  1.000000000000000E-004
  CAR 
 unknown system                          
     18     10     14
 
  0.0000000E+00  0.0000000E+00  0.0000000E+00  0.1562500E-01
    1      -17.463525   1.000000
    2      -16.255462   1.000000
    3       -8.984399   1.000000
    4       -6.023629   1.000000
    5       -6.023623   1.000000
    6       -5.162288   1.000000
    7       -4.918084   1.000000
    8       -4.918052   1.000000
    9       -3.441899   1.000000
   10       -0.670400   0.000000
   11       -0.670370   0.000000
   12       -0.446654   0.000000
   13       -0.446640   0.000000
   14        1.992102   0.000000
 
  0.1250000E+00  0.0000000E+00  0.0000000E+00  0.9375000E-01
    1      -17.249375   1.000000
    2      -16.153074   1.000000
    3       -8.739867   1.000000
    4       -6.487046   1.000000
    5       -5.970370   1.000000
    6       -5.789206   1.000000
    7       -5.253812   1.000000
    8       -4.484806   1.000000
    9       -3.580321   1.000000
   10       -0.950416   0.000000
   11       -0.884619   0.000000
   12       -0.683241   0.000000
   13       -0.315591   0.000000
   14        2.365047   0.000000
 
  0.2500000E+00  0.0000000E+00  0.0000000E+00  0.9375000E-01
    1      -16.680636   1.000000
    2      -15.884314   1.000000
    3       -8.373778   1.000000
    4       -7.213599   1.000000
    5       -6.951217   1.000000
    6       -5.888839   1.000000
    7       -5.202122   1.000000
    8       -4.736387   1.000000
    9       -4.148283   1.000000
   10       -1.274526   0.000000
   11       -1.097967   0.000000
   12       -0.555863   0.000000
   13        0.301382   0.000000
   14        3.189610   0.000000
 
  0.3750000E+00  0.0000000E+00  0.0000000E+00  0.9375000E-01
    1      -16.005524   1.000000
    2      -15.575887   1.000000
    3       -8.811027   1.000000
    4       -7.818589   1.000000
    5       -7.346433   1.000000
    6       -6.386175   1.000000
    7       -5.145690   1.000000
    8       -4.611610   1.000000
    9       -4.343485   1.000000
   10       -1.279407   0.000000
   11       -1.000531   0.000000
   12        0.162656   0.000000
   13        0.694710   0.000000
   14        3.701501   0.000000
 
  0.5000000E+00  0.0000000E+00  0.0000000E+00  0.4687500E-01
    1      -15.677270   1.000000
    2      -15.432564   1.000000
    3       -9.143677   1.000000
    4       -8.183510   1.000000
    5       -7.472740   1.000000
    6       -6.566752   1.000000
    7       -5.284545   1.000000
    8       -4.384528   1.000000
    9       -4.062701   1.000000
   10       -1.257091   0.000000
   11       -0.741142   0.000000
   12        0.461244   0.000000
   13        0.810137   0.000000
   14        2.740539   0.000000
 
  0.1250000E+00  0.1250000E+00  0.0000000E+00  0.9375000E-01
    1      -16.856563   1.000000
    2      -15.966066   1.000000
    3       -8.392603   1.000000
    4       -7.051037   1.000000
    5       -6.532530   1.000000
    6       -6.067653   1.000000
    7       -5.449734   1.000000
    8       -4.350331   1.000000
    9       -3.952214   1.000000
   10       -1.349658   0.000000
   11       -0.971481   0.000000
   12       -0.959686   0.000000
   13        0.279260   0.000000
   14        2.965623   0.000000
 
  0.2500000E+00  0.1250000E+00  0.0000000E+00  0.1875000E+00
    1      -16.222976   1.000000
    2      -15.667531   1.000000
    3       -8.455356   1.000000
    4       -7.477754   1.000000
    5       -7.214611   1.000000
    6       -6.571953   1.000000
    7       -5.350289   1.000000
    8       -4.712543   1.000000
    9       -4.235853   1.000000
   10       -1.433001   0.000000
   11       -0.984523   0.000000
   12       -0.489713   0.000000
   13        0.787095   0.000000
   14        3.928893   0.000000
 
  0.3750000E+00  0.1250000E+00  0.0000000E+00  0.1875000E+00
    1      -15.692503   1.000000
    2      -15.423615   1.000000
    3       -8.856323   1.000000
    4       -8.240783   1.000000
    5       -7.344998   1.000000
    6       -6.588761   1.000000
    7       -5.335114   1.000000
    8       -5.194367   1.000000
    9       -3.908983   1.000000
   10       -1.238241   0.000000
   11       -0.727929   0.000000
   12        0.131971   0.000000
   13        0.820797   0.000000
   14        3.267379   0.000000
 
  0.2500000E+00  0.2500000E+00  0.0000000E+00  0.9375000E-01
    1      -15.707464   1.000000
    2      -15.414618   1.000000
    3       -8.495942   1.000000
    4       -8.291583   1.000000
    5       -7.017827   1.000000
    6       -6.637064   1.000000
    7       -6.317934   1.000000
    8       -5.060916   1.000000
    9       -3.937816   1.000000
   10       -1.289248   0.000000
   11       -0.678217   0.000000
   12       -0.366572   0.000000
   13        1.108849   0.000000
   14        4.099730   0.000000
 
  0.3750000E+00  0.2500000E+00  0.0000000E+00  0.9375000E-01
    1      -15.472579   1.000000
    2      -15.295461   1.000000
    3       -8.676009   1.000000
    4       -8.326919   1.000000
    5       -7.302181   1.000000
    6       -6.639582   1.000000
    7       -6.409416   1.000000
    8       -5.447206   1.000000
    9       -3.570386   1.000000
   10       -1.614898   0.000000
   11       -0.308207   0.000000
   12       -0.127613   0.000000
   13        1.254153   0.000000
   14        3.510319   0.000000
