 vasp.5.4.4.18Apr17-6-g9f103f2a35 (build Jun 30 2017 11:15:00) complex          
  
 executed on    STALLO_VASP_5.4.4 date 2019.11.08  12:00:18
 running on    4 total cores
 distrk:  each k-point on    4 cores,    1 groups
 distr:  one band on NCORES_PER_BAND=   2 cores,    2 groups


--------------------------------------------------------------------------------------------------------


 INCAR:
 POTCAR:   PAW_PBE Mo 08Apr2002                   
 POTCAR:    PAW_PBE S 17Jan2003                   
 POTCAR:   PAW_PBE Mo 08Apr2002                   
   VRHFIN =Mo: 4p5s4d                                                           
   LEXCH  = PE                                                                  
   EATOM  =   217.5180 eV,   15.9871 Ry                                         
                                                                                
   TITEL  = PAW_PBE Mo 08Apr2002                                                
   LULTRA =        F    use ultrasoft PP ?                                      
   IUNSCR =        1    unscreen: 0-lin 1-nonlin 2-no                           
   RPACOR =    2.200    partial core radius                                     
   POMASS =   95.940; ZVAL   =    6.000    mass and valenz                      
   RCORE  =    2.750    outmost cutoff radius                                   
   RWIGS  =    2.750; RWIGS  =    1.455    wigner-seitz radius (au A)           
   ENMAX  =  224.584; ENMIN  =  168.438 eV                                      
   RCLOC  =    2.111    cutoff for local pot                                    
   LCOR   =        T    correct aug charges                                     
   LPAW   =        T    paw PP                                                  
   EAUG   =  345.278                                                            
   DEXC   =    -.088                                                            
   RMAX   =    3.077    core radius for proj-oper                               
   RAUG   =    1.300    factor for augmentation sphere                          
   RDEP   =    2.815    radius for radial grids                                 
   QCUT   =   -4.063; QGAM   =    8.126    optimization parameters              
                                                                                
   Description                                                                  
     l     E      TYP  RCUT    TYP  RCUT                                        
     2   .000     23  2.500                                                     
     2   .000     23  2.500                                                     
     0   .000     23  2.600                                                     
     0  1.000     23  2.600                                                     
     1   .400     23  2.750                                                     
     1  2.000     23  2.750                                                     
     3   .000      7   .000                                                     
  local pseudopotential read in
  partial core-charges read in
  atomic valenz-charges read in
  non local Contribution for L=           2  read in
    real space projection operators read in
  non local Contribution for L=           2  read in
    real space projection operators read in
  non local Contribution for L=           0  read in
    real space projection operators read in
  non local Contribution for L=           0  read in
    real space projection operators read in
  non local Contribution for L=           1  read in
    real space projection operators read in
  non local Contribution for L=           1  read in
    real space projection operators read in
    PAW grid and wavefunctions read in
 
   number of l-projection  operators is LMAX  =           6
   number of lm-projection operators is LMMAX =          18
 
 POTCAR:    PAW_PBE S 17Jan2003                   
   VRHFIN =S : s2p4                                                             
   LEXCH  = PE                                                                  
   EATOM  =   276.8230 eV,   20.3459 Ry                                         
                                                                                
   TITEL  = PAW_PBE S 17Jan2003                                                 
   LULTRA =        F    use ultrasoft PP ?                                      
   IUNSCR =        1    unscreen: 0-lin 1-nonlin 2-no                           
   RPACOR =    1.500    partial core radius                                     
   POMASS =   32.066; ZVAL   =    6.000    mass and valenz                      
   RCORE  =    1.900    outmost cutoff radius                                   
   RWIGS  =    2.200; RWIGS  =    1.164    wigner-seitz radius (au A)           
   ENMAX  =  280.000; ENMIN  =  194.016 eV                                      
   ICORE  =        2    local potential                                         
   LCOR   =        T    correct aug charges                                     
   LPAW   =        T    paw PP                                                  
   EAUG   =  335.092                                                            
   DEXC   =     .000                                                            
   RMAX   =    2.867    core radius for proj-oper                               
   RAUG   =    1.300    factor for augmentation sphere                          
   RDEP   =    1.954    radius for radial grids                                 
   QCUT   =   -4.360; QGAM   =    8.721    optimization parameters              
                                                                                
   Description                                                                  
     l     E      TYP  RCUT    TYP  RCUT                                        
     0   .000     23  1.900                                                     
     0   .000     23  1.900                                                     
     1   .000     23  1.900                                                     
     1   .000     23  1.900                                                     
     2   .000     23  1.900                                                     
  local pseudopotential read in
  partial core-charges read in
  atomic valenz-charges read in
  non local Contribution for L=           0  read in
    real space projection operators read in
  non local Contribution for L=           0  read in
    real space projection operators read in
  non local Contribution for L=           1  read in
    real space projection operators read in
  non local Contribution for L=           1  read in
    real space projection operators read in
    PAW grid and wavefunctions read in
 
   number of l-projection  operators is LMAX  =           4
   number of lm-projection operators is LMMAX =           8
 
 WARNING: PSMAXN for non-local potential too small
          PSMAXN should be >   14.4904333269122       NTYP=           1
 PAW_PBE Mo 08Apr2002                   :
 energy of atom  1       EATOM= -217.5180
 kinetic energy error for atom=    0.0002 (will be added to EATOM!!)
  PAW_PBE S 17Jan2003                   :
 energy of atom  2       EATOM= -276.8230
 kinetic energy error for atom=    0.0005 (will be added to EATOM!!)
 
 
 POSCAR: MoS2_mp-2815_computed                   
  positions in cartesian coordinates
  velocities in cartesian coordinates
  No initial velocities read in
 exchange correlation table for  LEXCH =        8
   RHO(1)=    0.500       N(1)  =     2000
   RHO(2)=  100.500       N(2)  =     4000
 


--------------------------------------------------------------------------------------------------------


 ion  position               nearest neighbor table
   1  0.333  0.667  0.138-   3 2.42   2 2.42   2 2.42   3 2.42   3 2.42   2 2.42
   2  0.667  0.333  0.080-   1 2.42   1 2.42   1 2.42
   3  0.667  0.333  0.197-   1 2.42   1 2.42   1 2.42
 
  LATTYP: Found a hexagonal cell.
 ALAT       =     3.1903157300
 C/A-ratio  =     8.4251862746
  
  Lattice vectors:
  
 A1 = (   3.1903157300,   0.0000000000,   0.0000000000)
 A2 = (  -1.5951578650,   2.7628944683,   0.0000000000)
 A3 = (   0.0000000000,   0.0000000000,  26.8790043000)


Analysis of symmetry for initial positions (statically):
=====================================================================
 Subroutine PRICEL returns:
 Original cell was already a primitive cell.
 

 Routine SETGRP: Setting up the symmetry group for a 
 hexagonal supercell.


 Subroutine GETGRP returns: Found 12 space group operations
 (whereof  6 operations were pure point group operations)
 out of a pool of 24 trial point group operations.


The static configuration has the point symmetry C_3v.
 The point group associated with its full space group is D_3h.


Analysis of symmetry for dynamics (positions and initial velocities):
=====================================================================
 Subroutine PRICEL returns:
 Original cell was already a primitive cell.
 

 Routine SETGRP: Setting up the symmetry group for a 
 hexagonal supercell.


 Subroutine GETGRP returns: Found 12 space group operations
 (whereof  6 operations were pure point group operations)
 out of a pool of 24 trial point group operations.


The dynamic configuration has the point symmetry C_3v.
 The point group associated with its full space group is D_3h.


 Subroutine INISYM returns: Found 12 space group operations
 (whereof  6 operations are pure point group operations),
 and found     1 'primitive' translations

 
 
 KPOINTS: k-density: 4.0                          

Automatic generation of k-mesh.
Space group operators:
 irot       det(A)        alpha          n_x          n_y          n_z        tau_x        tau_y        tau_z
    1     1.000000     0.000001     1.000000     0.000000     0.000000     0.000000     0.000000     0.000000
    2     1.000000   120.000000     0.000000     0.000000    -1.000000     0.000000     0.000000     0.000000
    3     1.000000   120.000000     0.000000     0.000000     1.000000     0.000000     0.000000     0.000000
    4    -1.000000   179.999999     1.000000    -0.000000     0.000000     0.000000     0.000000     0.000000
    5    -1.000000   180.000000     0.500000    -0.866025     0.000000     0.000000     0.000000     0.000000
    6    -1.000000   180.000000    -0.500000    -0.866025     0.000000     0.000000     0.000000     0.000000
    7    -1.000000    60.000000     0.000000     0.000000    -1.000000    -0.000000     0.000000     0.276777
    8    -1.000000   180.000000     0.000000     0.000000     1.000000     0.000000     0.000000     0.276777
    9    -1.000000    60.000000     0.000000     0.000000     1.000000     0.000000     0.000001     0.276777
   10     1.000000   180.000000     0.866025    -0.500000     0.000000     0.000000     0.000000     0.276777
   11     1.000000   180.000000     0.000000     1.000000     0.000000     0.000000     0.000000     0.276777
   12     1.000000   179.999999     0.866025     0.500000     0.000000    -0.000000     0.000001     0.276777
 
 Subroutine IBZKPT returns following result:
 ===========================================
 
 Found     10 irreducible k-points:
 
 Following reciprocal coordinates:
            Coordinates               Weight
  0.000000  0.000000  0.000000      1.000000
  0.125000  0.000000  0.000000      6.000000
  0.250000  0.000000  0.000000      6.000000
  0.375000  0.000000  0.000000      6.000000
  0.500000  0.000000  0.000000      3.000000
  0.125000  0.125000  0.000000      6.000000
  0.250000  0.125000  0.000000     12.000000
  0.375000  0.125000  0.000000     12.000000
  0.250000  0.250000  0.000000      6.000000
  0.375000  0.250000  0.000000      6.000000
 
 Following cartesian coordinates:
            Coordinates               Weight
  0.000000  0.000000  0.000000      1.000000
  0.039181  0.022621  0.000000      6.000000
  0.078362  0.045242  0.000000      6.000000
  0.117543  0.067864  0.000000      6.000000
  0.156724  0.090485  0.000000      3.000000
  0.039181  0.067864  0.000000      6.000000
  0.078362  0.090485  0.000000     12.000000
  0.117543  0.113106  0.000000     12.000000
  0.078362  0.135727  0.000000      6.000000
  0.117543  0.158348  0.000000      6.000000
 
 TETIRR: Found     36 inequivalent tetrahedra from      384


--------------------------------------------------------------------------------------------------------




 Dimension of arrays:
   k-points           NKPTS =     10   k-points in BZ     NKDIM =     10   number of bands    NBANDS=     14
   number of dos      NEDOS =    301   number of ions     NIONS =      3
   non local maximal  LDIM  =      6   non local SUM 2l+1 LMDIM =     18
   total plane-waves  NPLWV = 110592
   max r-space proj   IRMAX =      1   max aug-charges    IRDMAX=  30165
   dimension x,y,z NGX =    24 NGY =   24 NGZ =  192
   dimension x,y,z NGXF=    48 NGYF=   48 NGZF=  384
   support grid    NGXF=    48 NGYF=   48 NGZF=  384
   ions per type =               1   2
   NGX,Y,Z   is equivalent  to a cutoff of  12.51, 12.51, 11.88 a.u.
   NGXF,Y,Z  is equivalent  to a cutoff of  25.01, 25.01, 23.75 a.u.

 SYSTEM =  unknown system                          
 POSCAR =  MoS2_mp-2815_computed                   

 Startparameter for this run:
   NWRITE =      2    write-flag & timer
   PREC   = normal    normal or accurate (medium, high low for compatibility)
   ISTART =      0    job   : 0-new  1-cont  2-samecut
   ICHARG =      2    charge: 1-file 2-atom 10-const
   ISPIN  =      1    spin polarized calculation?
   LNONCOLLINEAR =      F non collinear calculations
   LSORBIT =      F    spin-orbit coupling
   INIWAV =      1    electr: 0-lowe 1-rand  2-diag
   LASPH  =      F    aspherical Exc in radial PAW
   METAGGA=      F    non-selfconsistent MetaGGA calc.

 Electronic Relaxation 1
   ENCUT  =  800.0 eV  58.80 Ry    7.67 a.u.   7.36  7.36 61.99*2*pi/ulx,y,z
   ENINI  =  800.0     initial cutoff
   ENAUG  =  345.3 eV  augmentation charge cutoff
   NELM   =     60;   NELMIN=  4; NELMDL= -5     # of ELM steps 
   EDIFF  = 0.1E-04   stopping-criterion for ELM
   LREAL  =      F    real-space projection
   NLSPLINE    = F    spline interpolate recip. space projectors
   LCOMPAT=      F    compatible to vasp.4.4
   GGA_COMPAT  = T    GGA compatible to vasp.4.4-vasp.4.6
   LMAXPAW     = -100 max onsite density
   LMAXMIX     =    2 max onsite mixed and CHGCAR
   VOSKOWN=      0    Vosko Wilk Nusair interpolation
   ROPT   =    0.00000   0.00000
 Ionic relaxation
   EDIFFG = 0.1E-03   stopping-criterion for IOM
   NSW    =      0    number of steps for IOM
   NBLOCK =      1;   KBLOCK =      1    inner block; outer block 
   IBRION =     -1    ionic relax: 0-MD 1-quasi-New 2-CG
   NFREE  =      0    steps in history (QN), initial steepest desc. (CG)
   ISIF   =      2    stress and relaxation
   IWAVPR =     10    prediction:  0-non 1-charg 2-wave 3-comb
   ISYM   =      2    0-nonsym 1-usesym 2-fastsym
   LCORR  =      T    Harris-Foulkes like correction to forces

   POTIM  = 0.5000    time-step for ionic-motion
   TEIN   =    0.0    initial temperature
   TEBEG  =    0.0;   TEEND  =   0.0 temperature during run
   SMASS  =  -3.00    Nose mass-parameter (am)
   estimated Nose-frequenzy (Omega)   =  0.10E-29 period in steps =****** mass=  -0.233E-27a.u.
   SCALEE = 1.0000    scale energy and forces
   NPACO  =    256;   APACO  = 16.0  distance and # of slots for P.C.
   PSTRESS=    0.0 pullay stress

  Mass of Ions in am
   POMASS =  95.94 32.07
  Ionic Valenz
   ZVAL   =   6.00  6.00
  Atomic Wigner-Seitz radii
   RWIGS  =  -1.00 -1.00
  virtual crystal weights 
   VCA    =   1.00  1.00
   NELECT =      18.0000    total number of electrons
   NUPDOWN=      -1.0000    fix difference up-down

 DOS related values:
   EMIN   =  10.00;   EMAX   =-10.00  energy-range for DOS
   EFERMI =   0.00
   ISMEAR =    -5;   SIGMA  =   0.20  broadening in eV -4-tet -1-fermi 0-gaus

 Electronic relaxation 2 (details)
   IALGO  =     68    algorithm
   LDIAG  =      T    sub-space diagonalisation (order eigenvalues)
   LSUBROT=      F    optimize rotation matrix (better conditioning)
   TURBO    =      0    0=normal 1=particle mesh
   IRESTART =      0    0=no restart 2=restart with 2 vectors
   NREBOOT  =      0    no. of reboots
   NMIN     =      0    reboot dimension
   EREF     =   0.00    reference energy to select bands
   IMIX   =      4    mixing-type and parameters
     AMIX     =   0.40;   BMIX     =  1.00
     AMIX_MAG =   1.60;   BMIX_MAG =  1.00
     AMIN     =   0.10
     WC   =   100.;   INIMIX=   1;  MIXPRE=   1;  MAXMIX= -45

 Intra band minimization:
   WEIMIN = 0.0000     energy-eigenvalue tresh-hold
   EBREAK =  0.18E-06  absolut break condition
   DEPER  =   0.30     relativ break condition  

   TIME   =   0.40     timestep for ELM

  volume/ion in A,a.u.               =      78.98       532.95
  Fermi-wavevector in a.u.,A,eV,Ry     =   0.693365  1.310270  6.541070  0.480755
  Thomas-Fermi vector in A             =   1.775558
 
 Write flags
   LWAVE        =      F    write WAVECAR
   LDOWNSAMPLE  =      F    k-point downsampling of WAVECAR
   LCHARG       =      T    write CHGCAR
   LVTOT        =      F    write LOCPOT, total local potential
   LVHAR        =      F    write LOCPOT, Hartree potential only
   LELF         =      F    write electronic localiz. function (ELF)
   LORBIT       =      0    0 simple, 1 ext, 2 COOP (PROOUT), +10 PAW based schemes


 Dipole corrections
   LMONO  =      F    monopole corrections only (constant potential shift)
   LDIPOL =      F    correct potential (dipole corrections)
   IDIPOL =      0    1-x, 2-y, 3-z, 4-all directions 
   EPSILON=  1.0000000 bulk dielectric constant

 Exchange correlation treatment:
   GGA     =    --    GGA type
   LEXCH   =     8    internal setting for exchange type
   VOSKOWN=      0    Vosko Wilk Nusair interpolation
   LHFCALC =     F    Hartree Fock is set to
   LHFONE  =     F    Hartree Fock one center treatment
   AEXX    =    0.0000 exact exchange contribution

 Linear response parameters
   LEPSILON=     F    determine dielectric tensor
   LRPA    =     F    only Hartree local field effects (RPA)
   LNABLA  =     F    use nabla operator in PAW spheres
   LVEL    =     F    velocity operator in full k-point grid
   LINTERFAST=   F  fast interpolation
   KINTER  =     0    interpolate to denser k-point grid
   CSHIFT  =0.1000    complex shift for real part using Kramers Kronig
   OMEGAMAX=  -1.0    maximum frequency
   DEG_THRESHOLD= 0.2000000E-02 threshold for treating states as degnerate
   RTIME   =   -0.100 relaxation time in fs
  (WPLASMAI=    0.000 imaginary part of plasma frequency in eV, 0.658/RTIME)
   DFIELD  = 0.0000000 0.0000000 0.0000000 field for delta impulse in time
 
 Orbital magnetization related:
   ORBITALMAG=     F  switch on orbital magnetization
   LCHIMAG   =     F  perturbation theory with respect to B field
   DQ        =  0.001000  dq finite difference perturbation B field
   LLRAUG    =     F  two centre corrections for induced B field



--------------------------------------------------------------------------------------------------------


 Static calculation
 charge density and potential will be updated during run
 non-spin polarized calculation
 RMM-DIIS sequential band-by-band and
  variant of blocked Davidson during initial phase
 perform sub-space diagonalisation
    before iterative eigenvector-optimisation
 modified Broyden-mixing scheme, WC =      100.0
 initial mixing is a Kerker type mixing with AMIX =  0.4000 and BMIX =      1.0000
 Hartree-type preconditioning will be used
 using additional bands            5
 reciprocal scheme for non local part
 use partial core corrections
 calculate Harris-corrections to forces 
   (improved forces if not selfconsistent)
 use gradient corrections 
 use of overlap-Matrix (Vanderbilt PP)
 Fermi weights with tetrahedron method with Bloechl corrections


--------------------------------------------------------------------------------------------------------


  energy-cutoff  :      800.00
  volume of cell :      236.93
      direct lattice vectors                 reciprocal lattice vectors
     3.190315730  0.000000000  0.000000000     0.313448600  0.180969634  0.000000000
    -1.595157865  2.762894468  0.000000000     0.000000000  0.361939267  0.000000000
     0.000000000  0.000000000 26.879004300     0.000000000  0.000000000  0.037203759

  length of vectors
     3.190315730  3.190315730 26.879004300     0.361939267  0.361939267  0.037203759


 
 k-points in units of 2pi/SCALE and weight: k-density: 4.0                          
   0.00000000  0.00000000  0.00000000       0.016
   0.03918108  0.02262120  0.00000000       0.094
   0.07836215  0.04524241  0.00000000       0.094
   0.11754323  0.06786361  0.00000000       0.094
   0.15672430  0.09048482  0.00000000       0.047
   0.03918108  0.06786361  0.00000000       0.094
   0.07836215  0.09048482  0.00000000       0.188
   0.11754323  0.11310602  0.00000000       0.188
   0.07836215  0.13572723  0.00000000       0.094
   0.11754323  0.15834843  0.00000000       0.094
 
 k-points in reciprocal lattice and weights: k-density: 4.0                          
   0.00000000  0.00000000  0.00000000       0.016
   0.12500000  0.00000000  0.00000000       0.094
   0.25000000  0.00000000  0.00000000       0.094
   0.37500000  0.00000000  0.00000000       0.094
   0.50000000  0.00000000  0.00000000       0.047
   0.12500000  0.12500000  0.00000000       0.094
   0.25000000  0.12500000  0.00000000       0.188
   0.37500000  0.12500000  0.00000000       0.188
   0.25000000  0.25000000  0.00000000       0.094
   0.37500000  0.25000000  0.00000000       0.094
 
 position of ions in fractional coordinates (direct lattice) 
   0.33333300  0.66666700  0.13838872
   0.66666700  0.33333300  0.08016914
   0.66666600  0.33333300  0.19660830
 
 position of ions in cartesian coordinates  (Angst):
  -0.00000160  1.84193057  3.71975108
   1.59515946  0.92096390  2.15486668
   1.59515627  0.92096390  5.28463547
 


--------------------------------------------------------------------------------------------------------


 k-point  1 :   0.0000 0.0000 0.0000  plane waves:   12309
 k-point  2 :   0.1250 0.0000 0.0000  plane waves:   12231
 k-point  3 :   0.2500 0.0000 0.0000  plane waves:   12189
 k-point  4 :   0.3750 0.0000 0.0000  plane waves:   12136
 k-point  5 :   0.5000 0.0000 0.0000  plane waves:   12144
 k-point  6 :   0.1250 0.1250 0.0000  plane waves:   12191
 k-point  7 :   0.2500 0.1250 0.0000  plane waves:   12166
 k-point  8 :   0.3750 0.1250 0.0000  plane waves:   12163
 k-point  9 :   0.2500 0.2500 0.0000  plane waves:   12161
 k-point 10 :   0.3750 0.2500 0.0000  plane waves:   12136

 maximum and minimum number of plane-waves per node :      6166     6047

 maximum number of plane-waves:     12309
 maximum index in each direction: 
   IXMAX=    7   IYMAX=    7   IZMAX=   61
   IXMIN=   -7   IYMIN=   -7   IZMIN=  -61


 parallel 3D FFT for wavefunctions:
    minimum data exchange during FFTs selected (reduces bandwidth)
 parallel 3D FFT for charge:
    minimum data exchange during FFTs selected (reduces bandwidth)


 total amount of memory used by VASP MPI-rank0    78803. kBytes
=======================================================================

   base      :      30000. kBytes
   nonl-proj :      18054. kBytes
   fftplans  :       9135. kBytes
   grid      :      14648. kBytes
   one-center:         31. kBytes
   wavefun   :       6935. kBytes
 
     INWAV:  cpu time    0.0010: real time    0.0000
 Broyden mixing: mesh for mixing (old mesh)
   NGX = 15   NGY = 15   NGZ =123
  (NGX  = 48   NGY  = 48   NGZ  =384)
  gives a total of  27675 points

 initial charge density was supplied:
 charge density of overlapping atoms calculated
 number of electron      18.0000000 magnetization 
 keeping initial charge density in first step


--------------------------------------------------------------------------------------------------------


 Maximum index for augmentation-charges         7329 (set IRDMAX)


--------------------------------------------------------------------------------------------------------


 First call to EWALD:  gamma=   0.286
 Maximum number of real-space cells 6x 6x 1
 Maximum number of reciprocal cells 2x 2x10

    FEWALD:  cpu time    0.0010: real time    0.0015


--------------------------------------- Iteration      1(   1)  ---------------------------------------


    POTLOK:  cpu time    0.1300: real time    0.1585
    SETDIJ:  cpu time    0.0040: real time    0.0046
     EDDAV:  cpu time    0.5979: real time    0.6016
 BZINTS: Fermi energy:  7.511701; 18.000000 electrons
         Band energy:  16.788734;  BLOECHL correction: -0.357089
       DOS:  cpu time    0.0010: real time    0.0011
    --------------------------------------------
      LOOP:  cpu time    0.7329: real time    0.7659

 eigenvalue-minimisations  :   280
 total energy-change (2. order) : 0.1602434E+03  (-0.7234339E+03)
 number of electron      18.0000000 magnetization 
 augmentation part       18.0000000 magnetization 

 Free energy of the ion-electron system (eV)
  ---------------------------------------------------
  alpha Z        PSCENC =        12.51390764
  Ewald energy   TEWEN  =      4286.25630342
  -Hartree energ DENC   =     -4967.71356795
  -exchange      EXHF   =         0.00000000
  -V(xc)+E(xc)   XCENC  =       -36.31055728
  PAW double counting   =       406.88651198     -329.34073203
  entropy T*S    EENTRO =         0.00000000
  eigenvalues    EBANDS =        16.78873390
  atomic energy  EATOM  =       771.16276121
  Solvation  Ediel_sol  =         0.00000000
  ---------------------------------------------------
  free energy    TOTEN  =       160.24336089 eV

  energy without entropy =      160.24336089  energy(sigma->0) =      160.24336089


--------------------------------------------------------------------------------------------------------




--------------------------------------- Iteration      1(   2)  ---------------------------------------


     EDDAV:  cpu time    0.9029: real time    0.9040
 BZINTS: Fermi energy: -1.851300; 18.000000 electrons
         Band energy:-146.793753;  BLOECHL correction:  0.000000
       DOS:  cpu time    0.0000: real time    0.0002
    --------------------------------------------
      LOOP:  cpu time    0.9029: real time    0.9043

 eigenvalue-minimisations  :   488
 total energy-change (2. order) :-0.1635825E+03  (-0.1535658E+03)
 number of electron      18.0000000 magnetization 
 augmentation part       18.0000000 magnetization 

 Free energy of the ion-electron system (eV)
  ---------------------------------------------------
  alpha Z        PSCENC =        12.51390764
  Ewald energy   TEWEN  =      4286.25630342
  -Hartree energ DENC   =     -4967.71356795
  -exchange      EXHF   =         0.00000000
  -V(xc)+E(xc)   XCENC  =       -36.31055728
  PAW double counting   =       406.88651198     -329.34073203
  entropy T*S    EENTRO =         0.00000000
  eigenvalues    EBANDS =      -146.79375331
  atomic energy  EATOM  =       771.16276121
  Solvation  Ediel_sol  =         0.00000000
  ---------------------------------------------------
  free energy    TOTEN  =        -3.33912632 eV

  energy without entropy =       -3.33912632  energy(sigma->0) =       -3.33912632


--------------------------------------------------------------------------------------------------------




--------------------------------------- Iteration      1(   3)  ---------------------------------------


     EDDAV:  cpu time    0.7649: real time    0.7675
 BZINTS: Fermi energy: -3.294960; 18.000000 electrons
         Band energy:-166.391231;  BLOECHL correction:  0.000000
       DOS:  cpu time    0.0000: real time    0.0002
    --------------------------------------------
      LOOP:  cpu time    0.7649: real time    0.7678

 eigenvalue-minimisations  :   394
 total energy-change (2. order) :-0.1959748E+02  (-0.1940282E+02)
 number of electron      18.0000000 magnetization 
 augmentation part       18.0000000 magnetization 

 Free energy of the ion-electron system (eV)
  ---------------------------------------------------
  alpha Z        PSCENC =        12.51390764
  Ewald energy   TEWEN  =      4286.25630342
  -Hartree energ DENC   =     -4967.71356795
  -exchange      EXHF   =         0.00000000
  -V(xc)+E(xc)   XCENC  =       -36.31055728
  PAW double counting   =       406.88651198     -329.34073203
  entropy T*S    EENTRO =         0.00000000
  eigenvalues    EBANDS =      -166.39123133
  atomic energy  EATOM  =       771.16276121
  Solvation  Ediel_sol  =         0.00000000
  ---------------------------------------------------
  free energy    TOTEN  =       -22.93660434 eV

  energy without entropy =      -22.93660434  energy(sigma->0) =      -22.93660434


--------------------------------------------------------------------------------------------------------




--------------------------------------- Iteration      1(   4)  ---------------------------------------


     EDDAV:  cpu time    0.7269: real time    0.7263
 BZINTS: Fermi energy: -3.328406; 18.000000 electrons
         Band energy:-166.852690;  BLOECHL correction:  0.000000
       DOS:  cpu time    0.0000: real time    0.0002
    --------------------------------------------
      LOOP:  cpu time    0.7269: real time    0.7265

 eigenvalue-minimisations  :   368
 total energy-change (2. order) :-0.4614588E+00  (-0.4586344E+00)
 number of electron      18.0000000 magnetization 
 augmentation part       18.0000000 magnetization 

 Free energy of the ion-electron system (eV)
  ---------------------------------------------------
  alpha Z        PSCENC =        12.51390764
  Ewald energy   TEWEN  =      4286.25630342
  -Hartree energ DENC   =     -4967.71356795
  -exchange      EXHF   =         0.00000000
  -V(xc)+E(xc)   XCENC  =       -36.31055728
  PAW double counting   =       406.88651198     -329.34073203
  entropy T*S    EENTRO =         0.00000000
  eigenvalues    EBANDS =      -166.85269018
  atomic energy  EATOM  =       771.16276121
  Solvation  Ediel_sol  =         0.00000000
  ---------------------------------------------------
  free energy    TOTEN  =       -23.39806318 eV

  energy without entropy =      -23.39806318  energy(sigma->0) =      -23.39806318


--------------------------------------------------------------------------------------------------------




--------------------------------------- Iteration      1(   5)  ---------------------------------------


     EDDAV:  cpu time    0.7269: real time    0.7306
 BZINTS: Fermi energy: -3.369223; 18.000000 electrons
         Band energy:-166.864270;  BLOECHL correction:  0.000000
       DOS:  cpu time    0.0010: real time    0.0002
    CHARGE:  cpu time    0.0540: real time    0.0540
    MIXING:  cpu time    0.0030: real time    0.0039
    --------------------------------------------
      LOOP:  cpu time    0.7849: real time    0.7887

 eigenvalue-minimisations  :   372
 total energy-change (2. order) :-0.1157986E-01  (-0.1157699E-01)
 number of electron      18.0000001 magnetization 
 augmentation part       -0.9447224 magnetization 

 Broyden mixing:
  rms(total) = 0.68885E+00    rms(broyden)= 0.68885E+00
  rms(prec ) = 0.74612E+00
  weight for this iteration     100.00

 Free energy of the ion-electron system (eV)
  ---------------------------------------------------
  alpha Z        PSCENC =        12.51390764
  Ewald energy   TEWEN  =      4286.25630342
  -Hartree energ DENC   =     -4967.71356795
  -exchange      EXHF   =         0.00000000
  -V(xc)+E(xc)   XCENC  =       -36.31055728
  PAW double counting   =       406.88651198     -329.34073203
  entropy T*S    EENTRO =         0.00000000
  eigenvalues    EBANDS =      -166.86427004
  atomic energy  EATOM  =       771.16276121
  Solvation  Ediel_sol  =         0.00000000
  ---------------------------------------------------
  free energy    TOTEN  =       -23.40964304 eV

  energy without entropy =      -23.40964304  energy(sigma->0) =      -23.40964304


--------------------------------------------------------------------------------------------------------




--------------------------------------- Iteration      1(   6)  ---------------------------------------


    POTLOK:  cpu time    0.1190: real time    0.1199
    SETDIJ:  cpu time    0.0060: real time    0.0052
    EDDIAG:  cpu time    0.1120: real time    0.1121
  RMM-DIIS:  cpu time    0.5299: real time    0.5296
    ORTHCH:  cpu time    0.0090: real time    0.0095
 BZINTS: Fermi energy: -4.362404; 18.000000 electrons
         Band energy:-167.358803;  BLOECHL correction:  0.000000
       DOS:  cpu time    0.0000: real time    0.0002
    CHARGE:  cpu time    0.0540: real time    0.0537
    MIXING:  cpu time    0.0040: real time    0.0036
    --------------------------------------------
      LOOP:  cpu time    0.8339: real time    0.8339

 eigenvalue-minimisations  :   296
 total energy-change (2. order) : 0.1160485E+01  (-0.5430559E+00)
 number of electron      18.0000001 magnetization 
 augmentation part       -0.3983182 magnetization 

 Broyden mixing:
  rms(total) = 0.26130E+00    rms(broyden)= 0.26130E+00
  rms(prec ) = 0.30695E+00
  weight for this iteration     100.00

 eigenvalues of (default mixing * dielectric matrix)
  average eigenvalue GAMMA=   0.8341
  0.8341

 Free energy of the ion-electron system (eV)
  ---------------------------------------------------
  alpha Z        PSCENC =        12.51390764
  Ewald energy   TEWEN  =      4286.25630342
  -Hartree energ DENC   =     -4966.05591746
  -exchange      EXHF   =         0.00000000
  -V(xc)+E(xc)   XCENC  =       -35.42318185
  PAW double counting   =       423.88463270     -347.22886096
  entropy T*S    EENTRO =         0.00000000
  eigenvalues    EBANDS =      -167.35880289
  atomic energy  EATOM  =       771.16276121
  Solvation  Ediel_sol  =         0.00000000
  ---------------------------------------------------
  free energy    TOTEN  =       -22.24915819 eV

  energy without entropy =      -22.24915819  energy(sigma->0) =      -22.24915819


--------------------------------------------------------------------------------------------------------




--------------------------------------- Iteration      1(   7)  ---------------------------------------


    POTLOK:  cpu time    0.1090: real time    0.1133
    SETDIJ:  cpu time    0.0050: real time    0.0051
    EDDIAG:  cpu time    0.1110: real time    0.1115
  RMM-DIIS:  cpu time    0.5129: real time    0.5119
    ORTHCH:  cpu time    0.0090: real time    0.0096
 BZINTS: Fermi energy: -3.801584; 18.000000 electrons
         Band energy:-161.216403;  BLOECHL correction:  0.000000
       DOS:  cpu time    0.0000: real time    0.0002
    CHARGE:  cpu time    0.0540: real time    0.0538
    MIXING:  cpu time    0.0040: real time    0.0037
    --------------------------------------------
      LOOP:  cpu time    0.8049: real time    0.8091

 eigenvalue-minimisations  :   292
 total energy-change (2. order) : 0.3849361E+00  (-0.5514717E-01)
 number of electron      18.0000001 magnetization 
 augmentation part       -0.5981751 magnetization 

 Broyden mixing:
  rms(total) = 0.14981E+00    rms(broyden)= 0.14981E+00
  rms(prec ) = 0.15815E+00
  weight for this iteration     100.00

 eigenvalues of (default mixing * dielectric matrix)
  average eigenvalue GAMMA=   1.3611
  0.6662  2.0559

 Free energy of the ion-electron system (eV)
  ---------------------------------------------------
  alpha Z        PSCENC =        12.51390764
  Ewald energy   TEWEN  =      4286.25630342
  -Hartree energ DENC   =     -4971.43844653
  -exchange      EXHF   =         0.00000000
  -V(xc)+E(xc)   XCENC  =       -35.56636383
  PAW double counting   =       441.26563525     -364.84161663
  entropy T*S    EENTRO =         0.00000000
  eigenvalues    EBANDS =      -161.21640261
  atomic energy  EATOM  =       771.16276121
  Solvation  Ediel_sol  =         0.00000000
  ---------------------------------------------------
  free energy    TOTEN  =       -21.86422207 eV

  energy without entropy =      -21.86422207  energy(sigma->0) =      -21.86422207


--------------------------------------------------------------------------------------------------------




--------------------------------------- Iteration      1(   8)  ---------------------------------------


    POTLOK:  cpu time    0.1090: real time    0.1093
    SETDIJ:  cpu time    0.0050: real time    0.0051
    EDDIAG:  cpu time    0.1110: real time    0.1114
  RMM-DIIS:  cpu time    0.5479: real time    0.5474
    ORTHCH:  cpu time    0.0090: real time    0.0096
 BZINTS: Fermi energy: -3.707500; 18.000000 electrons
         Band energy:-157.006028;  BLOECHL correction:  0.000000
       DOS:  cpu time    0.0010: real time    0.0002
    CHARGE:  cpu time    0.0530: real time    0.0538
    MIXING:  cpu time    0.0040: real time    0.0046
    --------------------------------------------
      LOOP:  cpu time    0.8399: real time    0.8414

 eigenvalue-minimisations  :   309
 total energy-change (2. order) : 0.5986727E-01  (-0.2325249E-01)
 number of electron      18.0000001 magnetization 
 augmentation part       -0.5513520 magnetization 

 Broyden mixing:
  rms(total) = 0.35553E-01    rms(broyden)= 0.35553E-01
  rms(prec ) = 0.37900E-01
  weight for this iteration     100.00

 eigenvalues of (default mixing * dielectric matrix)
  average eigenvalue GAMMA=   1.5003
  1.9180  1.9180  0.6649

 Free energy of the ion-electron system (eV)
  ---------------------------------------------------
  alpha Z        PSCENC =        12.51390764
  Ewald energy   TEWEN  =      4286.25630342
  -Hartree energ DENC   =     -4975.34418314
  -exchange      EXHF   =         0.00000000
  -V(xc)+E(xc)   XCENC  =       -35.29520094
  PAW double counting   =       464.74032724     -388.83224188
  entropy T*S    EENTRO =         0.00000000
  eigenvalues    EBANDS =      -157.00602836
  atomic energy  EATOM  =       771.16276121
  Solvation  Ediel_sol  =         0.00000000
  ---------------------------------------------------
  free energy    TOTEN  =       -21.80435481 eV

  energy without entropy =      -21.80435481  energy(sigma->0) =      -21.80435481


--------------------------------------------------------------------------------------------------------




--------------------------------------- Iteration      1(   9)  ---------------------------------------


    POTLOK:  cpu time    0.1100: real time    0.1127
    SETDIJ:  cpu time    0.0050: real time    0.0051
    EDDIAG:  cpu time    0.1110: real time    0.1115
  RMM-DIIS:  cpu time    0.5959: real time    0.5951
    ORTHCH:  cpu time    0.0090: real time    0.0095
 BZINTS: Fermi energy: -3.634845; 18.000000 electrons
         Band energy:-155.681316;  BLOECHL correction:  0.000000
       DOS:  cpu time    0.0000: real time    0.0002
    CHARGE:  cpu time    0.0540: real time    0.0537
    MIXING:  cpu time    0.0040: real time    0.0041
    --------------------------------------------
      LOOP:  cpu time    0.8889: real time    0.8919

 eigenvalue-minimisations  :   335
 total energy-change (2. order) : 0.4834083E-02  (-0.8881459E-03)
 number of electron      18.0000001 magnetization 
 augmentation part       -0.5460009 magnetization 

 Broyden mixing:
  rms(total) = 0.96314E-02    rms(broyden)= 0.96314E-02
  rms(prec ) = 0.11891E-01
  weight for this iteration     100.00

 eigenvalues of (default mixing * dielectric matrix)
  average eigenvalue GAMMA=   1.5075
  0.6674  1.0484  2.4347  1.8796

 Free energy of the ion-electron system (eV)
  ---------------------------------------------------
  alpha Z        PSCENC =        12.51390764
  Ewald energy   TEWEN  =      4286.25630342
  -Hartree energ DENC   =     -4976.63777690
  -exchange      EXHF   =         0.00000000
  -V(xc)+E(xc)   XCENC  =       -35.24062787
  PAW double counting   =       470.16124357     -394.33401620
  entropy T*S    EENTRO =         0.00000000
  eigenvalues    EBANDS =      -155.68131560
  atomic energy  EATOM  =       771.16276121
  Solvation  Ediel_sol  =         0.00000000
  ---------------------------------------------------
  free energy    TOTEN  =       -21.79952072 eV

  energy without entropy =      -21.79952072  energy(sigma->0) =      -21.79952072


--------------------------------------------------------------------------------------------------------




--------------------------------------- Iteration      1(  10)  ---------------------------------------


    POTLOK:  cpu time    0.1080: real time    0.1087
    SETDIJ:  cpu time    0.0060: real time    0.0052
    EDDIAG:  cpu time    0.1110: real time    0.1114
  RMM-DIIS:  cpu time    0.5989: real time    0.5982
    ORTHCH:  cpu time    0.0090: real time    0.0095
 BZINTS: Fermi energy: -3.577385; 18.000000 electrons
         Band energy:-154.553525;  BLOECHL correction:  0.000000
       DOS:  cpu time    0.0000: real time    0.0002
    CHARGE:  cpu time    0.0540: real time    0.0537
    MIXING:  cpu time    0.0050: real time    0.0043
    --------------------------------------------
      LOOP:  cpu time    0.8919: real time    0.8912

 eigenvalue-minimisations  :   338
 total energy-change (2. order) : 0.7499423E-03  (-0.1720105E-03)
 number of electron      18.0000001 magnetization 
 augmentation part       -0.5506938 magnetization 

 Broyden mixing:
  rms(total) = 0.44348E-02    rms(broyden)= 0.44348E-02
  rms(prec ) = 0.60808E-02
  weight for this iteration     100.00

 eigenvalues of (default mixing * dielectric matrix)
  average eigenvalue GAMMA=   1.6651
  0.6680  1.0369  2.1687  2.2258  2.2258

 Free energy of the ion-electron system (eV)
  ---------------------------------------------------
  alpha Z        PSCENC =        12.51390764
  Ewald energy   TEWEN  =      4286.25630342
  -Hartree energ DENC   =     -4977.75592072
  -exchange      EXHF   =         0.00000000
  -V(xc)+E(xc)   XCENC  =       -35.21986719
  PAW double counting   =       472.38630341     -396.58873323
  entropy T*S    EENTRO =         0.00000000
  eigenvalues    EBANDS =      -154.55352532
  atomic energy  EATOM  =       771.16276121
  Solvation  Ediel_sol  =         0.00000000
  ---------------------------------------------------
  free energy    TOTEN  =       -21.79877078 eV

  energy without entropy =      -21.79877078  energy(sigma->0) =      -21.79877078


--------------------------------------------------------------------------------------------------------




--------------------------------------- Iteration      1(  11)  ---------------------------------------


    POTLOK:  cpu time    0.1070: real time    0.1104
    SETDIJ:  cpu time    0.0060: real time    0.0053
    EDDIAG:  cpu time    0.1110: real time    0.1115
  RMM-DIIS:  cpu time    0.5679: real time    0.5674
    ORTHCH:  cpu time    0.0090: real time    0.0096
 BZINTS: Fermi energy: -3.520553; 18.000000 electrons
         Band energy:-153.438283;  BLOECHL correction:  0.000000
       DOS:  cpu time    0.0000: real time    0.0002
    CHARGE:  cpu time    0.0560: real time    0.0559
    MIXING:  cpu time    0.0050: real time    0.0045
    --------------------------------------------
      LOOP:  cpu time    0.8619: real time    0.8647

 eigenvalue-minimisations  :   318
 total energy-change (2. order) : 0.9247857E-04  (-0.1662086E-03)
 number of electron      18.0000001 magnetization 
 augmentation part       -0.5468407 magnetization 

 Broyden mixing:
  rms(total) = 0.55569E-02    rms(broyden)= 0.55569E-02
  rms(prec ) = 0.64071E-02
  weight for this iteration     100.00

 eigenvalues of (default mixing * dielectric matrix)
  average eigenvalue GAMMA=   1.6720
  2.9221  2.6760  0.6687  0.9299  1.4176  1.4176

 Free energy of the ion-electron system (eV)
  ---------------------------------------------------
  alpha Z        PSCENC =        12.51390764
  Ewald energy   TEWEN  =      4286.25630342
  -Hartree energ DENC   =     -4978.89428257
  -exchange      EXHF   =         0.00000000
  -V(xc)+E(xc)   XCENC  =       -35.20611465
  PAW double counting   =       471.83217858     -396.02514889
  entropy T*S    EENTRO =         0.00000000
  eigenvalues    EBANDS =      -153.43828304
  atomic energy  EATOM  =       771.16276121
  Solvation  Ediel_sol  =         0.00000000
  ---------------------------------------------------
  free energy    TOTEN  =       -21.79867830 eV

  energy without entropy =      -21.79867830  energy(sigma->0) =      -21.79867830


--------------------------------------------------------------------------------------------------------




--------------------------------------- Iteration      1(  12)  ---------------------------------------


    POTLOK:  cpu time    0.1090: real time    0.1091
    SETDIJ:  cpu time    0.0050: real time    0.0052
    EDDIAG:  cpu time    0.1110: real time    0.1115
  RMM-DIIS:  cpu time    0.5459: real time    0.5449
    ORTHCH:  cpu time    0.0090: real time    0.0096
 BZINTS: Fermi energy: -3.484637; 18.000000 electrons
         Band energy:-152.767884;  BLOECHL correction:  0.000000
       DOS:  cpu time    0.0000: real time    0.0002
    CHARGE:  cpu time    0.0560: real time    0.0558
    MIXING:  cpu time    0.0050: real time    0.0046
    --------------------------------------------
      LOOP:  cpu time    0.8409: real time    0.8409

 eigenvalue-minimisations  :   303
 total energy-change (2. order) : 0.2161666E-03  (-0.5469139E-04)
 number of electron      18.0000001 magnetization 
 augmentation part       -0.5496985 magnetization 

 Broyden mixing:
  rms(total) = 0.17602E-02    rms(broyden)= 0.17602E-02
  rms(prec ) = 0.23515E-02
  weight for this iteration     100.00

 eigenvalues of (default mixing * dielectric matrix)
  average eigenvalue GAMMA=   1.9375
  3.8194  2.7104  2.7104  0.6687  0.9611  1.4622  1.2305

 Free energy of the ion-electron system (eV)
  ---------------------------------------------------
  alpha Z        PSCENC =        12.51390764
  Ewald energy   TEWEN  =      4286.25630342
  -Hartree energ DENC   =     -4979.57025507
  -exchange      EXHF   =         0.00000000
  -V(xc)+E(xc)   XCENC  =       -35.20283813
  PAW double counting   =       472.00064650     -396.19110341
  entropy T*S    EENTRO =         0.00000000
  eigenvalues    EBANDS =      -152.76788430
  atomic energy  EATOM  =       771.16276121
  Solvation  Ediel_sol  =         0.00000000
  ---------------------------------------------------
  free energy    TOTEN  =       -21.79846213 eV

  energy without entropy =      -21.79846213  energy(sigma->0) =      -21.79846213


--------------------------------------------------------------------------------------------------------




--------------------------------------- Iteration      1(  13)  ---------------------------------------


    POTLOK:  cpu time    0.1130: real time    0.1150
    SETDIJ:  cpu time    0.0060: real time    0.0052
    EDDIAG:  cpu time    0.1110: real time    0.1116
  RMM-DIIS:  cpu time    0.5089: real time    0.5083
    ORTHCH:  cpu time    0.0090: real time    0.0095
 BZINTS: Fermi energy: -3.446247; 18.000000 electrons
         Band energy:-152.056958;  BLOECHL correction:  0.000000
       DOS:  cpu time    0.0000: real time    0.0002
    CHARGE:  cpu time    0.0560: real time    0.0557
    MIXING:  cpu time    0.0050: real time    0.0048
    --------------------------------------------
      LOOP:  cpu time    0.8089: real time    0.8104

 eigenvalue-minimisations  :   288
 total energy-change (2. order) :-0.2783454E-03  (-0.1526111E-04)
 number of electron      18.0000001 magnetization 
 augmentation part       -0.5480785 magnetization 

 Broyden mixing:
  rms(total) = 0.20019E-02    rms(broyden)= 0.20019E-02
  rms(prec ) = 0.22560E-02
  weight for this iteration     100.00

 eigenvalues of (default mixing * dielectric matrix)
  average eigenvalue GAMMA=   1.9027
  4.7465  2.7038  2.3863  1.4179  1.4179  0.6688  0.9400  0.9400

 Free energy of the ion-electron system (eV)
  ---------------------------------------------------
  alpha Z        PSCENC =        12.51390764
  Ewald energy   TEWEN  =      4286.25630342
  -Hartree energ DENC   =     -4980.28316389
  -exchange      EXHF   =         0.00000000
  -V(xc)+E(xc)   XCENC  =       -35.19600704
  PAW double counting   =       471.95117407     -396.14675827
  entropy T*S    EENTRO =         0.00000000
  eigenvalues    EBANDS =      -152.05695762
  atomic energy  EATOM  =       771.16276121
  Solvation  Ediel_sol  =         0.00000000
  ---------------------------------------------------
  free energy    TOTEN  =       -21.79874048 eV

  energy without entropy =      -21.79874048  energy(sigma->0) =      -21.79874048


--------------------------------------------------------------------------------------------------------




--------------------------------------- Iteration      1(  14)  ---------------------------------------


    POTLOK:  cpu time    0.1130: real time    0.1137
    SETDIJ:  cpu time    0.0060: real time    0.0053
    EDDIAG:  cpu time    0.1110: real time    0.1116
  RMM-DIIS:  cpu time    0.4749: real time    0.4745
    ORTHCH:  cpu time    0.0100: real time    0.0097
 BZINTS: Fermi energy: -3.437279; 18.000000 electrons
         Band energy:-151.897500;  BLOECHL correction:  0.000000
       DOS:  cpu time    0.0000: real time    0.0002
    CHARGE:  cpu time    0.0560: real time    0.0559
    MIXING:  cpu time    0.0050: real time    0.0051
    --------------------------------------------
      LOOP:  cpu time    0.7759: real time    0.7759

 eigenvalue-minimisations  :   258
 total energy-change (2. order) :-0.3480839E-04  (-0.2648837E-05)
 number of electron      18.0000001 magnetization 
 augmentation part       -0.5492240 magnetization 

 Broyden mixing:
  rms(total) = 0.49868E-03    rms(broyden)= 0.49868E-03
  rms(prec ) = 0.68751E-03
  weight for this iteration     100.00

 eigenvalues of (default mixing * dielectric matrix)
  average eigenvalue GAMMA=   2.1591
  6.4440  2.9532  2.3871  2.3871  1.5063  0.6688  1.1858  0.9499  0.9499

 Free energy of the ion-electron system (eV)
  ---------------------------------------------------
  alpha Z        PSCENC =        12.51390764
  Ewald energy   TEWEN  =      4286.25630342
  -Hartree energ DENC   =     -4980.44511804
  -exchange      EXHF   =         0.00000000
  -V(xc)+E(xc)   XCENC  =       -35.19812420
  PAW double counting   =       471.76708459     -395.95808985
  entropy T*S    EENTRO =         0.00000000
  eigenvalues    EBANDS =      -151.89750006
  atomic energy  EATOM  =       771.16276121
  Solvation  Ediel_sol  =         0.00000000
  ---------------------------------------------------
  free energy    TOTEN  =       -21.79877529 eV

  energy without entropy =      -21.79877529  energy(sigma->0) =      -21.79877529


--------------------------------------------------------------------------------------------------------




--------------------------------------- Iteration      1(  15)  ---------------------------------------


    POTLOK:  cpu time    0.1150: real time    0.1177
    SETDIJ:  cpu time    0.0060: real time    0.0052
    EDDIAG:  cpu time    0.1110: real time    0.1113
  RMM-DIIS:  cpu time    0.4059: real time    0.4058
    ORTHCH:  cpu time    0.0100: real time    0.0097
 BZINTS: Fermi energy: -3.428139; 18.000000 electrons
         Band energy:-151.742118;  BLOECHL correction:  0.000000
       DOS:  cpu time    0.0000: real time    0.0002
    CHARGE:  cpu time    0.0560: real time    0.0558
    MIXING:  cpu time    0.0050: real time    0.0053
    --------------------------------------------
      LOOP:  cpu time    0.7089: real time    0.7111

 eigenvalue-minimisations  :   201
 total energy-change (2. order) :-0.1101308E-03  (-0.1117674E-05)
 number of electron      18.0000001 magnetization 
 augmentation part       -0.5490135 magnetization 

 Broyden mixing:
  rms(total) = 0.27942E-03    rms(broyden)= 0.27942E-03
  rms(prec ) = 0.37350E-03
  weight for this iteration     100.00

 eigenvalues of (default mixing * dielectric matrix)
  average eigenvalue GAMMA=   2.1411
  6.4826  3.5652  2.6155  1.7673  1.7673  1.5404  0.6688  1.0558  1.0147  0.9329

 Free energy of the ion-electron system (eV)
  ---------------------------------------------------
  alpha Z        PSCENC =        12.51390764
  Ewald energy   TEWEN  =      4286.25630342
  -Hartree energ DENC   =     -4980.60069226
  -exchange      EXHF   =         0.00000000
  -V(xc)+E(xc)   XCENC  =       -35.19797705
  PAW double counting   =       471.79211380     -395.98318429
  entropy T*S    EENTRO =         0.00000000
  eigenvalues    EBANDS =      -151.74211790
  atomic energy  EATOM  =       771.16276121
  Solvation  Ediel_sol  =         0.00000000
  ---------------------------------------------------
  free energy    TOTEN  =       -21.79888542 eV

  energy without entropy =      -21.79888542  energy(sigma->0) =      -21.79888542


--------------------------------------------------------------------------------------------------------




--------------------------------------- Iteration      1(  16)  ---------------------------------------


    POTLOK:  cpu time    0.1160: real time    0.1165
    SETDIJ:  cpu time    0.0060: real time    0.0054
    EDDIAG:  cpu time    0.1120: real time    0.1117
  RMM-DIIS:  cpu time    0.3829: real time    0.3836
    ORTHCH:  cpu time    0.0100: real time    0.0097
 BZINTS: Fermi energy: -3.424194; 18.000000 electrons
         Band energy:-151.679627;  BLOECHL correction:  0.000000
       DOS:  cpu time    0.0000: real time    0.0002
    CHARGE:  cpu time    0.0560: real time    0.0557
    MIXING:  cpu time    0.0050: real time    0.0056
    --------------------------------------------
      LOOP:  cpu time    0.6879: real time    0.6883

 eigenvalue-minimisations  :   185
 total energy-change (2. order) :-0.3378153E-04  (-0.4538906E-06)
 number of electron      18.0000001 magnetization 
 augmentation part       -0.5491414 magnetization 

 Broyden mixing:
  rms(total) = 0.17044E-03    rms(broyden)= 0.17044E-03
  rms(prec ) = 0.21691E-03
  weight for this iteration     100.00

 eigenvalues of (default mixing * dielectric matrix)
  average eigenvalue GAMMA=   2.2947
  7.2982  3.8898  2.9779  2.6116  2.1582  1.5516  0.6688  1.1230  1.0629  0.9771
  0.9221

 Free energy of the ion-electron system (eV)
  ---------------------------------------------------
  alpha Z        PSCENC =        12.51390764
  Ewald energy   TEWEN  =      4286.25630342
  -Hartree energ DENC   =     -4980.66229244
  -exchange      EXHF   =         0.00000000
  -V(xc)+E(xc)   XCENC  =       -35.19784396
  PAW double counting   =       471.84911326     -396.04124109
  entropy T*S    EENTRO =         0.00000000
  eigenvalues    EBANDS =      -151.67962725
  atomic energy  EATOM  =       771.16276121
  Solvation  Ediel_sol  =         0.00000000
  ---------------------------------------------------
  free energy    TOTEN  =       -21.79891920 eV

  energy without entropy =      -21.79891920  energy(sigma->0) =      -21.79891920


--------------------------------------------------------------------------------------------------------




--------------------------------------- Iteration      1(  17)  ---------------------------------------


    POTLOK:  cpu time    0.1150: real time    0.1181
    SETDIJ:  cpu time    0.0060: real time    0.0055
    EDDIAG:  cpu time    0.1120: real time    0.1119
  RMM-DIIS:  cpu time    0.3449: real time    0.3446
    ORTHCH:  cpu time    0.0090: real time    0.0096
 BZINTS: Fermi energy: -3.422440; 18.000000 electrons
         Band energy:-151.641887;  BLOECHL correction:  0.000000
       DOS:  cpu time    0.0000: real time    0.0002
    CHARGE:  cpu time    0.0560: real time    0.0556
    MIXING:  cpu time    0.0060: real time    0.0058
    --------------------------------------------
      LOOP:  cpu time    0.6489: real time    0.6513

 eigenvalue-minimisations  :   164
 total energy-change (2. order) :-0.4279714E-04  (-0.3289706E-06)
 number of electron      18.0000001 magnetization 
 augmentation part       -0.5491552 magnetization 

 Broyden mixing:
  rms(total) = 0.13743E-03    rms(broyden)= 0.13743E-03
  rms(prec ) = 0.15903E-03
  weight for this iteration     100.00

 eigenvalues of (default mixing * dielectric matrix)
  average eigenvalue GAMMA=   2.3183
  7.7163  4.9656  2.9158  2.4714  2.1350  1.4902  1.4902  0.6688  1.0517  1.0517
  0.9316  0.9316

 Free energy of the ion-electron system (eV)
  ---------------------------------------------------
  alpha Z        PSCENC =        12.51390764
  Ewald energy   TEWEN  =      4286.25630342
  -Hartree energ DENC   =     -4980.70090558
  -exchange      EXHF   =         0.00000000
  -V(xc)+E(xc)   XCENC  =       -35.19798546
  PAW double counting   =       471.80450065     -395.99565714
  entropy T*S    EENTRO =         0.00000000
  eigenvalues    EBANDS =      -151.64188674
  atomic energy  EATOM  =       771.16276121
  Solvation  Ediel_sol  =         0.00000000
  ---------------------------------------------------
  free energy    TOTEN  =       -21.79896200 eV

  energy without entropy =      -21.79896200  energy(sigma->0) =      -21.79896200


--------------------------------------------------------------------------------------------------------




--------------------------------------- Iteration      1(  18)  ---------------------------------------


    POTLOK:  cpu time    0.1130: real time    0.1133
    SETDIJ:  cpu time    0.0060: real time    0.0055
    EDDIAG:  cpu time    0.1110: real time    0.1116
  RMM-DIIS:  cpu time    0.3000: real time    0.2993
    ORTHCH:  cpu time    0.0090: real time    0.0096
 BZINTS: Fermi energy: -3.422582; 18.000000 electrons
         Band energy:-151.642944;  BLOECHL correction:  0.000000
       DOS:  cpu time    0.0000: real time    0.0002
    --------------------------------------------
      LOOP:  cpu time    0.5389: real time    0.5394

 eigenvalue-minimisations  :    86
 total energy-change (2. order) :-0.7562230E-05  (-0.4477311E-07)
 number of electron      18.0000001 magnetization 
 augmentation part       -0.5491552 magnetization 

 Free energy of the ion-electron system (eV)
  ---------------------------------------------------
  alpha Z        PSCENC =        12.51390764
  Ewald energy   TEWEN  =      4286.25630342
  -Hartree energ DENC   =     -4980.69967250
  -exchange      EXHF   =         0.00000000
  -V(xc)+E(xc)   XCENC  =       -35.19796802
  PAW double counting   =       471.81339565     -396.00475273
  entropy T*S    EENTRO =         0.00000000
  eigenvalues    EBANDS =      -151.64294423
  atomic energy  EATOM  =       771.16276121
  Solvation  Ediel_sol  =         0.00000000
  ---------------------------------------------------
  free energy    TOTEN  =       -21.79896956 eV

  energy without entropy =      -21.79896956  energy(sigma->0) =      -21.79896956


--------------------------------------------------------------------------------------------------------




 average (electrostatic) potential at core
  the test charge radii are     1.2296  0.9698
  (the norm of the test charge is              1.0000)
       1 -46.8733       2 -94.7155       3 -94.7155
 
 
 
 E-fermi :  -3.4226     XC(G=0):  -2.8694     alpha+bet : -2.6672


 k-point     1 :       0.0000    0.0000    0.0000
  band No.  band energies     occupation 
      1     -17.4635      2.00000
      2     -16.2555      2.00000
      3      -8.9844      2.00000
      4      -6.0236      2.00000
      5      -6.0236      2.00000
      6      -5.1623      2.00000
      7      -4.9181      2.00000
      8      -4.9181      2.00000
      9      -3.4419      2.00000
     10      -0.6704      0.00000
     11      -0.6704      0.00000
     12      -0.4467      0.00000
     13      -0.4466      0.00000
     14       1.9921      0.00000

 k-point     2 :       0.1250    0.0000    0.0000
  band No.  band energies     occupation 
      1     -17.2494      2.00000
      2     -16.1531      2.00000
      3      -8.7399      2.00000
      4      -6.4870      2.00000
      5      -5.9704      2.00000
      6      -5.7892      2.00000
      7      -5.2538      2.00000
      8      -4.4848      2.00000
      9      -3.5803      2.00000
     10      -0.9504      0.00000
     11      -0.8846      0.00000
     12      -0.6832      0.00000
     13      -0.3156      0.00000
     14       2.3650      0.00000

 k-point     3 :       0.2500    0.0000    0.0000
  band No.  band energies     occupation 
      1     -16.6806      2.00000
      2     -15.8843      2.00000
      3      -8.3738      2.00000
      4      -7.2136      2.00000
      5      -6.9512      2.00000
      6      -5.8888      2.00000
      7      -5.2021      2.00000
      8      -4.7364      2.00000
      9      -4.1483      2.00000
     10      -1.2745      0.00000
     11      -1.0980      0.00000
     12      -0.5559      0.00000
     13       0.3014      0.00000
     14       3.1896      0.00000

 k-point     4 :       0.3750    0.0000    0.0000
  band No.  band energies     occupation 
      1     -16.0055      2.00000
      2     -15.5759      2.00000
      3      -8.8110      2.00000
      4      -7.8186      2.00000
      5      -7.3464      2.00000
      6      -6.3862      2.00000
      7      -5.1457      2.00000
      8      -4.6116      2.00000
      9      -4.3435      2.00000
     10      -1.2794      0.00000
     11      -1.0005      0.00000
     12       0.1627      0.00000
     13       0.6947      0.00000
     14       3.7015      0.00000

 k-point     5 :       0.5000    0.0000    0.0000
  band No.  band energies     occupation 
      1     -15.6773      2.00000
      2     -15.4326      2.00000
      3      -9.1437      2.00000
      4      -8.1835      2.00000
      5      -7.4727      2.00000
      6      -6.5668      2.00000
      7      -5.2845      2.00000
      8      -4.3845      2.00000
      9      -4.0627      2.00000
     10      -1.2571      0.00000
     11      -0.7411      0.00000
     12       0.4612      0.00000
     13       0.8101      0.00000
     14       2.7405      0.00000

 k-point     6 :       0.1250    0.1250    0.0000
  band No.  band energies     occupation 
      1     -16.8566      2.00000
      2     -15.9661      2.00000
      3      -8.3926      2.00000
      4      -7.0510      2.00000
      5      -6.5325      2.00000
      6      -6.0677      2.00000
      7      -5.4497      2.00000
      8      -4.3503      2.00000
      9      -3.9522      2.00000
     10      -1.3497      0.00000
     11      -0.9715      0.00000
     12      -0.9597      0.00000
     13       0.2793      0.00000
     14       2.9656      0.00000

 k-point     7 :       0.2500    0.1250    0.0000
  band No.  band energies     occupation 
      1     -16.2230      2.00000
      2     -15.6675      2.00000
      3      -8.4554      2.00000
      4      -7.4778      2.00000
      5      -7.2146      2.00000
      6      -6.5720      2.00000
      7      -5.3503      2.00000
      8      -4.7125      2.00000
      9      -4.2359      2.00000
     10      -1.4330      0.00000
     11      -0.9845      0.00000
     12      -0.4897      0.00000
     13       0.7871      0.00000
     14       3.9289      0.00000

 k-point     8 :       0.3750    0.1250    0.0000
  band No.  band energies     occupation 
      1     -15.6925      2.00000
      2     -15.4236      2.00000
      3      -8.8563      2.00000
      4      -8.2408      2.00000
      5      -7.3450      2.00000
      6      -6.5888      2.00000
      7      -5.3351      2.00000
      8      -5.1944      2.00000
      9      -3.9090      2.00000
     10      -1.2382      0.00000
     11      -0.7279      0.00000
     12       0.1320      0.00000
     13       0.8208      0.00000
     14       3.2674      0.00000

 k-point     9 :       0.2500    0.2500    0.0000
  band No.  band energies     occupation 
      1     -15.7075      2.00000
      2     -15.4146      2.00000
      3      -8.4959      2.00000
      4      -8.2916      2.00000
      5      -7.0178      2.00000
      6      -6.6371      2.00000
      7      -6.3179      2.00000
      8      -5.0609      2.00000
      9      -3.9378      2.00000
     10      -1.2892      0.00000
     11      -0.6782      0.00000
     12      -0.3666      0.00000
     13       1.1088      0.00000
     14       4.0997      0.00000

 k-point    10 :       0.3750    0.2500    0.0000
  band No.  band energies     occupation 
      1     -15.4726      2.00000
      2     -15.2955      2.00000
      3      -8.6760      2.00000
      4      -8.3269      2.00000
      5      -7.3022      2.00000
      6      -6.6396      2.00000
      7      -6.4094      2.00000
      8      -5.4472      2.00000
      9      -3.5704      2.00000
     10      -1.6149      0.00000
     11      -0.3082      0.00000
     12      -0.1276      0.00000
     13       1.2542      0.00000
     14       3.5103      0.00000


--------------------------------------------------------------------------------------------------------


 soft charge-density along one line, spin component           1
         0         1         2         3         4         5         6         7         8         9
 total charge-density along one line
 
 pseudopotential strength for first ion, spin component:           1
 -9.986  -0.000  -0.000  -0.000  -0.000   0.102   0.000   0.000
 -0.000  -9.987   0.000  -0.000  -0.000   0.000   0.102  -0.000
 -0.000   0.000  -9.966  -0.000  -0.000   0.000  -0.000   0.101
 -0.000  -0.000  -0.000  -9.987  -0.000   0.000   0.000   0.000
 -0.000  -0.000  -0.000  -0.000  -9.986   0.000   0.000   0.000
  0.102   0.000   0.000   0.000   0.000   0.098  -0.000   0.000
  0.000   0.102  -0.000   0.000   0.000  -0.000   0.098  -0.000
  0.000  -0.000   0.101   0.000   0.000   0.000  -0.000   0.098
  0.000   0.000   0.000   0.102   0.000  -0.000  -0.000  -0.000
  0.000   0.000   0.000   0.000   0.102  -0.000  -0.000  -0.000
  0.000   0.000  -0.005   0.000  -0.000  -0.000  -0.000   0.000
 -0.000  -0.000   0.001  -0.000   0.000   0.000   0.000  -0.000
 -0.000   0.000  -0.000  -0.000  -0.007   0.000   0.000   0.000
 -0.000   0.000  -0.000  -0.000   0.000  -0.000  -0.000  -0.000
 -0.007  -0.000   0.000   0.000  -0.000  -0.000  -0.000  -0.000
  0.000  -0.000   0.000   0.000   0.004  -0.000  -0.000  -0.000
  0.000  -0.000   0.000   0.000  -0.000  -0.000   0.000  -0.000
  0.004   0.000  -0.000  -0.000   0.000   0.000  -0.000   0.000
 total augmentation occupancy for first ion, spin component:           1
  0.965   0.000  -0.000  -0.000  -0.000   0.595  -0.000  -0.000   0.000  -0.000  -0.000   0.000   0.000   0.000  -0.065  -0.000
  0.000   0.907  -0.000   0.000   0.000   0.000   0.833  -0.000   0.000  -0.000   0.000   0.000   0.000   0.000   0.000   0.000
 -0.000   0.000   1.029   0.000   0.000  -0.000   0.000   0.495   0.000   0.000   0.111  -0.019  -0.000  -0.000   0.000   0.000
 -0.000   0.000   0.000   0.907   0.000   0.000   0.000   0.000   0.833  -0.000   0.000   0.000  -0.000  -0.000  -0.000   0.000
 -0.000  -0.000   0.000   0.000   0.965   0.000  -0.000   0.000   0.000   0.595   0.000  -0.000  -0.065   0.000  -0.000   0.007
  0.595   0.000  -0.000   0.000  -0.000   0.670   0.000  -0.000   0.000  -0.000   0.000   0.000   0.000   0.000  -0.136  -0.000
 -0.000   0.833   0.000   0.000  -0.000   0.000   1.069   0.000   0.000   0.000   0.000   0.000  -0.000   0.000   0.000  -0.000
 -0.000  -0.000   0.495   0.000   0.000  -0.000   0.000   0.470   0.000   0.000   0.058  -0.021  -0.000   0.000   0.000   0.000
 -0.000   0.000   0.000   0.833   0.000   0.000   0.000  -0.000   1.069  -0.000   0.000   0.000   0.000  -0.000   0.000   0.000
 -0.000   0.000   0.000   0.000   0.595  -0.000   0.000   0.000   0.000   0.670   0.000   0.000  -0.136   0.000  -0.000   0.023
 -0.000   0.000   0.111   0.000   0.000   0.000   0.000   0.058   0.000   0.000   1.207  -0.186   0.000   0.000  -0.000   0.000
  0.000   0.000  -0.019  -0.000  -0.000   0.000   0.000  -0.021   0.000   0.000  -0.186   0.042   0.000   0.000  -0.000   0.000
  0.000   0.000  -0.000   0.000  -0.065   0.000   0.000  -0.000  -0.000  -0.136   0.000  -0.000   0.217  -0.000   0.000  -0.032
  0.000   0.000  -0.000   0.000   0.000   0.000   0.000   0.000  -0.000   0.000   0.000  -0.000   0.000   0.264   0.000   0.000
 -0.065  -0.000   0.000  -0.000  -0.000  -0.136  -0.000   0.000   0.000  -0.000  -0.000  -0.000   0.000   0.000   0.217  -0.000
 -0.000   0.000   0.000   0.000   0.007  -0.000   0.000   0.000   0.000   0.023   0.000   0.000  -0.032   0.000  -0.000   0.005
  0.000  -0.000  -0.000   0.000   0.000   0.000  -0.000   0.000  -0.000   0.000   0.000  -0.000   0.000  -0.038   0.000   0.000
  0.007   0.000  -0.000   0.000   0.000   0.023  -0.000  -0.000   0.000   0.000   0.000   0.000  -0.000   0.000  -0.032   0.000


------------------------ aborting loop because EDIFF is reached ----------------------------------------


    CHARGE:  cpu time    0.0550: real time    0.0555
    FORLOC:  cpu time    0.0100: real time    0.0098
    FORNL :  cpu time    0.0860: real time    0.0859
    STRESS:  cpu time    0.4479: real time    0.4493
    FORCOR:  cpu time    0.1320: real time    0.1307
    FORHAR:  cpu time    0.0310: real time    0.0309
    MIXING:  cpu time    0.0050: real time    0.0061
    OFIELD:  cpu time    0.0000: real time    0.0000

  DFT-D2 method for vdW energy calculation
  -------------------------------------------------------------------

  Parameters of vdW forcefield:
         C6(Jnm^6/mol)     R0(A)
   -----------------------------
   Mo      24.670          1.639
   S        5.570          1.683

  IVDW =   1
  VDW_RADIUS =    50.000 A
  VDW_S6 =     0.750
  VDW_SR =     1.000
  VDW_D =    20.000
  LVDW_EWALD = F

  Number of pair interactions contributing to vdW energy:   12957
  Edisp (eV):   -0.59091
    FORVDW:  cpu time    0.0120: real time    0.0149

  FORCE on cell =-STRESS in cart. coord.  units (eV):
  Direction    XX          YY          ZZ          XY          YZ          ZX
  --------------------------------------------------------------------------------------
  Alpha Z    12.51391    12.51391    12.51391
  Ewald    4853.12264  4853.12308 -5419.98957     0.00019     0.00000     0.00012
  Hartree  4942.42657  4942.42658 -4904.14984     0.00002    -0.00000    -0.00000
  E(xc)     -70.30230   -70.30231   -70.90730    -0.00000     0.00000    -0.00000
  Local  -10076.21932-10076.21959 10037.50467    -0.00016    -0.00000    -0.00006
  n-local   127.16672   125.79004   131.68567    -0.25740    -0.00001    -0.00001
  augment   -25.56243   -25.56242   -26.66524     0.00002     0.00000    -0.00000
  Kinetic   235.85776   238.65872   239.77612    -7.40903     0.00001     0.00001
  Fock        0.00000     0.00000     0.00000     0.00000     0.00000     0.00000
  vdW         0.16041     0.16041    -0.13425     0.00000     0.00000    -0.00000
  -------------------------------------------------------------------------------------
  Total      -0.12381    -0.12381    -0.36583     0.00000     0.00000    -0.00000
  in kB      -0.83728    -0.83728    -2.47391     0.00000     0.00000    -0.00000
  external pressure =       -1.38 kB  Pullay stress =        0.00 kB


 VOLUME and BASIS-vectors are now :
 -----------------------------------------------------------------------------
  energy-cutoff  :      800.00
  volume of cell :      236.93
      direct lattice vectors                 reciprocal lattice vectors
     3.190315730  0.000000000  0.000000000     0.313448600  0.180969634  0.000000000
    -1.595157865  2.762894468  0.000000000     0.000000000  0.361939267  0.000000000
     0.000000000  0.000000000 26.879004300     0.000000000  0.000000000  0.037203759

  length of vectors
     3.190315730  3.190315730 26.879004300     0.361939267  0.361939267  0.037203759


 FORCES acting on ions
    electron-ion (+dipol)            ewald-force                    non-local-force                 convergence-correction
 -----------------------------------------------------------------------------------------------
   -.116E-04 -.547E-06 -.133E-04   0.931E-04 -.108E-03 0.307E-06   0.104E-16 0.694E-17 -.508E-20   0.766E-09 -.153E-08 0.415E-07
   -.854E-03 0.495E-03 0.579E+03   -.864E-04 0.538E-04 -.584E+03   -.104E-16 0.347E-17 0.480E+01   -.135E-07 0.698E-08 0.228E-02
   0.865E-03 0.495E-03 -.579E+03   -.674E-05 0.538E-04 0.584E+03   0.867E-18 -.173E-17 -.480E+01   0.120E-07 0.699E-08 -.228E-02
 -----------------------------------------------------------------------------------------------
   -.856E-06 0.989E-03 0.217E-05   0.897E-14 0.972E-14 -.114E-12   0.867E-18 0.867E-17 0.888E-15   -.716E-09 0.124E-07 0.106E-06
 
 
 POSITION                                       TOTAL-FORCE (eV/Angst)
 -----------------------------------------------------------------------------------
     -0.00000      1.84193      3.71975         0.000000     -0.000000      0.000000
      1.59516      0.92096      2.15487        -0.000000      0.000000      0.114942
      1.59516      0.92096      5.28464        -0.000000      0.000000     -0.114942
 -----------------------------------------------------------------------------------
    total drift:                               -0.000001      0.000989      0.000002


--------------------------------------------------------------------------------------------------------



  FREE ENERGIE OF THE ION-ELECTRON SYSTEM (eV)
  ---------------------------------------------------
  free  energy   TOTEN  =       -22.38987862 eV

  energy  without entropy=      -22.38987862  energy(sigma->0) =      -22.38987862
 


--------------------------------------------------------------------------------------------------------


    POTLOK:  cpu time    0.1190: real time    0.1189


--------------------------------------------------------------------------------------------------------


     LOOP+:  cpu time   15.9376: real time   17.0696
    4ORBIT:  cpu time    0.0000: real time    0.0000
 BZINTS: Fermi energy: -3.422582; 18.000000 electrons
         Band energy:-151.642944;  BLOECHL correction:  0.000000

 total amount of memory used by VASP MPI-rank0    78803. kBytes
=======================================================================

   base      :      30000. kBytes
   nonl-proj :      18054. kBytes
   fftplans  :       9135. kBytes
   grid      :      14648. kBytes
   one-center:         31. kBytes
   wavefun   :       6935. kBytes
 
  
  
 General timing and accounting informations for this job:
 ========================================================
  
                  Total CPU time used (sec):       17.763
                            User time (sec):       17.078
                          System time (sec):        0.685
                         Elapsed time (sec):       19.261
  
                   Maximum memory used (kb):       81280.
                   Average memory used (kb):           0.
  
                          Minor page faults:        20786
                          Major page faults:          164
                 Voluntary context switches:         2756
