perl: warning: Setting locale failed.
perl: warning: Please check that your locale settings:
	LANGUAGE = (unset),
	LC_ALL = (unset),
	LC_CTYPE = "UTF-8",
	LANG = "en_US.iso885915"
    are supported and installed on your system.
perl: warning: Falling back to the standard locale ("C").
Starting job 28532697 ("jobname") on c15-7 at Fri Nov 8 12:00:17 CET 2019
 running on    4 total cores
 distrk:  each k-point on    4 cores,    1 groups
 distr:  one band on    2 cores,    2 groups
 using from now: INCAR     
 vasp.5.4.4.18Apr17-6-g9f103f2a35 (build Jun 30 2017 11:15:00) complex          
  
 POSCAR found type information on POSCAR  Mo S 
 POSCAR found :  2 types and       3 ions
 scaLAPACK will be used
 WARNING: PSMAXN for non-local potential too small
 LDA part: xc-table for Pade appr. of Perdew
 POSCAR, INCAR and KPOINTS ok, starting setup
 FFT: planning ...
 WAVECAR not read
 entering main loop
       N       E                     dE             d eps       ncg     rms          rms(c)
DAV:   1     0.160243360891E+03    0.16024E+03   -0.72343E+03   280   0.128E+03
DAV:   2    -0.333912631822E+01   -0.16358E+03   -0.15357E+03   488   0.196E+02
DAV:   3    -0.229366043375E+02   -0.19597E+02   -0.19403E+02   394   0.823E+01
DAV:   4    -0.233980631803E+02   -0.46146E+00   -0.45863E+00   368   0.155E+01
DAV:   5    -0.234096430445E+02   -0.11580E-01   -0.11577E-01   372   0.243E+00    0.689E+00
RMM:   6    -0.222491581919E+02    0.11605E+01   -0.54306E+00   296   0.125E+01    0.261E+00
RMM:   7    -0.218642220719E+02    0.38494E+00   -0.55147E-01   292   0.341E+00    0.150E+00
RMM:   8    -0.218043548050E+02    0.59867E-01   -0.23252E-01   309   0.252E+00    0.356E-01
RMM:   9    -0.217995207219E+02    0.48341E-02   -0.88815E-03   335   0.614E-01    0.963E-02
RMM:  10    -0.217987707796E+02    0.74994E-03   -0.17201E-03   338   0.223E-01    0.443E-02
RMM:  11    -0.217986783010E+02    0.92479E-04   -0.16621E-03   318   0.194E-01    0.556E-02
RMM:  12    -0.217984621344E+02    0.21617E-03   -0.54691E-04   303   0.132E-01    0.176E-02
RMM:  13    -0.217987404799E+02   -0.27835E-03   -0.15261E-04   288   0.722E-02    0.200E-02
RMM:  14    -0.217987752882E+02   -0.34808E-04   -0.26488E-05   258   0.288E-02    0.499E-03
RMM:  15    -0.217988854190E+02   -0.11013E-03   -0.11177E-05   201   0.177E-02    0.279E-03
RMM:  16    -0.217989192005E+02   -0.33782E-04   -0.45389E-06   185   0.948E-03    0.170E-03
RMM:  17    -0.217989619977E+02   -0.42797E-04   -0.32897E-06   164   0.798E-03    0.137E-03
RMM:  18    -0.217989695599E+02   -0.75622E-05   -0.44773E-07    86   0.405E-03
   1 F= -.22389879E+02 E0= -.22389879E+02  d E =0.000000E+00

Currently Loaded Modulefiles:
  1) Anaconda3/5.1.0       3) vesta/3.3.8           5) intel/2016.1
  2) gnuplot/5.0.4         4) imagemagick/6.7.9-0   6) vasp/5.4.1.Feb16

Job script resource usage:
       JobID  MaxVMSize     MaxRSS 
------------ ---------- ---------- 
28532697.ba+    216888K      2320K 

Job step resource usage:
       JobID    JobName  AllocCPUS  MaxVMSize     MaxRSS    Elapsed ExitCode 
------------ ---------- ---------- ---------- ---------- ---------- -------- 
28532697        jobname          4                         00:00:22      0:0 
28532697.0    pmi_proxy          1    279832K       521K   00:00:20      0:0 

Job 28532697 ("jobname") completed on c15-7 at Fri Nov 8 12:00:37 CET 2019
