   6   6   0   0
  0.2185851E+02  0.3190316E-09  0.3190316E-09  0.1487900E-08  0.5000000E-15
  1.000000000000000E-004
  CAR 
 unknown system                          
      8.32968379    -12.92953759  301      3.30719274      1.00000000
    -12.930  0.0000E+00  0.0000E+00
    -12.859  0.0000E+00  0.0000E+00
    -12.788  0.0000E+00  0.0000E+00
    -12.717  0.0000E+00  0.0000E+00
    -12.646  0.0000E+00  0.0000E+00
    -12.575  0.0000E+00  0.0000E+00
    -12.504  0.0000E+00  0.0000E+00
    -12.433  0.0000E+00  0.0000E+00
    -12.363  0.0000E+00  0.0000E+00
    -12.292  0.0000E+00  0.0000E+00
    -12.221  0.0000E+00  0.0000E+00
    -12.150  0.0000E+00  0.0000E+00
    -12.079  0.0000E+00  0.0000E+00
    -12.008  0.0000E+00  0.0000E+00
    -11.937  0.0000E+00  0.0000E+00
    -11.867  0.0000E+00  0.0000E+00
    -11.796  0.0000E+00  0.0000E+00
    -11.725  0.0000E+00  0.0000E+00
    -11.654  0.0000E+00  0.0000E+00
    -11.583  0.0000E+00  0.0000E+00
    -11.512  0.0000E+00  0.0000E+00
    -11.441  0.0000E+00  0.0000E+00
    -11.371  0.0000E+00  0.0000E+00
    -11.300  0.0000E+00  0.0000E+00
    -11.229  0.0000E+00  0.0000E+00
    -11.158  0.0000E+00  0.0000E+00
    -11.087  0.0000E+00  0.0000E+00
    -11.016  0.0000E+00  0.0000E+00
    -10.945  0.0000E+00  0.0000E+00
    -10.874  0.3730E+00  0.8629E-02
    -10.804  0.9525E+00  0.5559E-01
    -10.733  0.1532E+01  0.1436E+00
    -10.662  0.9955E+00  0.2305E+00
    -10.591  0.1061E+01  0.3033E+00
    -10.520  0.1127E+01  0.3809E+00
    -10.449  0.1192E+01  0.4630E+00
    -10.378  0.1258E+01  0.5499E+00
    -10.308  0.1319E+01  0.6413E+00
    -10.237  0.1331E+01  0.7353E+00
    -10.166  0.1343E+01  0.8300E+00
    -10.095  0.1381E+01  0.9262E+00
    -10.024  0.1436E+01  0.1026E+01
     -9.953  0.1491E+01  0.1130E+01
     -9.882  0.1546E+01  0.1237E+01
     -9.812  0.1600E+01  0.1349E+01
     -9.741  0.1655E+01  0.1464E+01
     -9.670  0.3370E+01  0.1618E+01
     -9.599  0.4359E+01  0.1932E+01
     -9.528  0.4597E+01  0.2241E+01
     -9.457  0.5095E+01  0.2585E+01
     -9.386  0.5561E+01  0.2964E+01
     -9.315  0.5986E+01  0.3372E+01
     -9.245  0.6550E+01  0.3816E+01
     -9.174  0.7113E+01  0.4300E+01
     -9.103  0.8479E+01  0.5088E+01
     -9.032  0.8340E+01  0.5684E+01
     -8.961  0.8683E+01  0.6286E+01
     -8.890  0.9536E+01  0.6928E+01
     -8.819  0.6223E+01  0.7621E+01
     -8.749  0.0000E+00  0.8000E+01
     -8.678  0.0000E+00  0.8000E+01
     -8.607  0.0000E+00  0.8000E+01
     -8.536  0.0000E+00  0.8000E+01
     -8.465  0.0000E+00  0.8000E+01
     -8.394  0.0000E+00  0.8000E+01
     -8.323  0.0000E+00  0.8000E+01
     -8.253  0.0000E+00  0.8000E+01
     -8.182  0.0000E+00  0.8000E+01
     -8.111  0.0000E+00  0.8000E+01
     -8.040  0.0000E+00  0.8000E+01
     -7.969  0.0000E+00  0.8000E+01
     -7.898  0.0000E+00  0.8000E+01
     -7.827  0.0000E+00  0.8000E+01
     -7.756  0.0000E+00  0.8000E+01
     -7.686  0.0000E+00  0.8000E+01
     -7.615  0.0000E+00  0.8000E+01
     -7.544  0.0000E+00  0.8000E+01
     -7.473  0.0000E+00  0.8000E+01
     -7.402  0.0000E+00  0.8000E+01
     -7.331  0.0000E+00  0.8000E+01
     -7.260  0.0000E+00  0.8000E+01
     -7.190  0.0000E+00  0.8000E+01
     -7.119  0.0000E+00  0.8000E+01
     -7.048  0.0000E+00  0.8000E+01
     -6.977  0.0000E+00  0.8000E+01
     -6.906  0.0000E+00  0.8000E+01
     -6.835  0.0000E+00  0.8000E+01
     -6.764  0.0000E+00  0.8000E+01
     -6.693  0.0000E+00  0.8000E+01
     -6.623  0.0000E+00  0.8000E+01
     -6.552  0.0000E+00  0.8000E+01
     -6.481  0.0000E+00  0.8000E+01
     -6.410  0.0000E+00  0.8000E+01
     -6.339  0.0000E+00  0.8000E+01
     -6.268  0.0000E+00  0.8000E+01
     -6.197  0.0000E+00  0.8000E+01
     -6.127  0.0000E+00  0.8000E+01
     -6.056  0.0000E+00  0.8000E+01
     -5.985  0.0000E+00  0.8000E+01
     -5.914  0.0000E+00  0.8000E+01
     -5.843  0.0000E+00  0.8000E+01
     -5.772  0.0000E+00  0.8000E+01
     -5.701  0.0000E+00  0.8000E+01
     -5.631  0.0000E+00  0.8000E+01
     -5.560  0.0000E+00  0.8000E+01
     -5.489  0.0000E+00  0.8000E+01
     -5.418  0.0000E+00  0.8000E+01
     -5.347  0.0000E+00  0.8000E+01
     -5.276  0.0000E+00  0.8000E+01
     -5.205  0.0000E+00  0.8000E+01
     -5.134  0.0000E+00  0.8000E+01
     -5.064  0.0000E+00  0.8000E+01
     -4.993  0.0000E+00  0.8000E+01
     -4.922  0.0000E+00  0.8000E+01
     -4.851  0.0000E+00  0.8000E+01
     -4.780  0.0000E+00  0.8000E+01
     -4.709  0.0000E+00  0.8000E+01
     -4.638  0.0000E+00  0.8000E+01
     -4.568  0.0000E+00  0.8000E+01
     -4.497  0.0000E+00  0.8000E+01
     -4.426  0.0000E+00  0.8000E+01
     -4.355  0.0000E+00  0.8000E+01
     -4.284  0.0000E+00  0.8000E+01
     -4.213  0.0000E+00  0.8000E+01
     -4.142  0.0000E+00  0.8000E+01
     -4.072  0.0000E+00  0.8000E+01
     -4.001  0.0000E+00  0.8000E+01
     -3.930  0.0000E+00  0.8000E+01
     -3.859  0.0000E+00  0.8000E+01
     -3.788  0.0000E+00  0.8000E+01
     -3.717  0.0000E+00  0.8000E+01
     -3.646  0.0000E+00  0.8000E+01
     -3.575  0.0000E+00  0.8000E+01
     -3.505  0.0000E+00  0.8000E+01
     -3.434  0.0000E+00  0.8000E+01
     -3.363  0.0000E+00  0.8000E+01
     -3.292  0.0000E+00  0.8000E+01
     -3.221  0.0000E+00  0.8000E+01
     -3.150  0.0000E+00  0.8000E+01
     -3.079  0.0000E+00  0.8000E+01
     -3.009  0.0000E+00  0.8000E+01
     -2.938  0.0000E+00  0.8000E+01
     -2.867  0.0000E+00  0.8000E+01
     -2.796  0.0000E+00  0.8000E+01
     -2.725  0.0000E+00  0.8000E+01
     -2.654  0.0000E+00  0.8000E+01
     -2.583  0.2106E+00  0.8002E+01
     -2.513  0.1092E+01  0.8048E+01
     -2.442  0.2103E+01  0.8160E+01
     -2.371  0.3308E+01  0.8351E+01
     -2.300  0.5188E+01  0.8640E+01
     -2.229  0.5556E+01  0.9019E+01
     -2.158  0.6002E+01  0.9429E+01
     -2.087  0.7482E+01  0.1000E+02
     -2.016  0.6369E+01  0.1049E+02
     -1.946  0.7852E+01  0.1092E+02
     -1.875  0.7903E+01  0.1165E+02
     -1.804  0.1852E+01  0.1198E+02
     -1.733  0.9004E+01  0.1258E+02
     -1.662  0.4509E+01  0.1305E+02
     -1.591  0.2672E+01  0.1327E+02
     -1.520  0.2445E+01  0.1345E+02
     -1.450  0.2218E+01  0.1362E+02
     -1.379  0.1991E+01  0.1376E+02
     -1.308  0.1764E+01  0.1390E+02
     -1.237  0.1671E+01  0.1402E+02
     -1.166  0.1678E+01  0.1414E+02
     -1.095  0.1686E+01  0.1425E+02
     -1.024  0.1693E+01  0.1437E+02
     -0.954  0.1800E+01  0.1450E+02
     -0.883  0.5415E+01  0.1473E+02
     -0.812  0.1091E+02  0.1530E+02
     -0.741  0.1208E+02  0.1619E+02
     -0.670  0.9841E+01  0.1690E+02
     -0.599  0.8061E+01  0.1756E+02
     -0.528  0.4855E+01  0.1801E+02
     -0.457  0.2625E+01  0.1826E+02
     -0.387  0.2364E+01  0.1843E+02
     -0.316  0.2195E+01  0.1860E+02
     -0.245  0.2035E+01  0.1875E+02
     -0.174  0.1875E+01  0.1888E+02
     -0.103  0.1556E+02  0.1915E+02
     -0.032  0.2102E+02  0.2055E+02
      0.039  0.7483E+01  0.2132E+02
      0.109  0.6274E+01  0.2177E+02
      0.180  0.5792E+01  0.2226E+02
      0.251  0.3777E+01  0.2257E+02
      0.322  0.3591E+01  0.2283E+02
      0.393  0.3405E+01  0.2308E+02
      0.464  0.3479E+01  0.2332E+02
      0.535  0.5172E+01  0.2362E+02
      0.606  0.5036E+01  0.2399E+02
      0.676  0.4176E+01  0.2433E+02
      0.747  0.2656E+01  0.2457E+02
      0.818  0.1791E+01  0.2471E+02
      0.889  0.1748E+01  0.2483E+02
      0.960  0.1712E+01  0.2496E+02
      1.031  0.1683E+01  0.2508E+02
      1.102  0.4592E+01  0.2525E+02
      1.172  0.1085E+02  0.2577E+02
      1.243  0.1793E+02  0.2685E+02
      1.314  0.1343E+02  0.2800E+02
      1.385  0.4941E+01  0.2863E+02
      1.456  0.3141E+01  0.2890E+02
      1.527  0.2951E+01  0.2911E+02
      1.598  0.2873E+01  0.2932E+02
      1.668  0.3023E+01  0.2952E+02
      1.739  0.3652E+01  0.2975E+02
      1.810  0.6565E+01  0.3010E+02
      1.881  0.8555E+01  0.3066E+02
      1.952  0.4892E+01  0.3113E+02
      2.023  0.4405E+01  0.3147E+02
      2.094  0.3102E+01  0.3174E+02
      2.165  0.1613E+01  0.3190E+02
      2.235  0.2595E+01  0.3203E+02
      2.306  0.7036E+01  0.3233E+02
      2.377  0.7825E+01  0.3291E+02
      2.448  0.7197E+01  0.3344E+02
      2.519  0.6653E+01  0.3393E+02
      2.590  0.6140E+01  0.3438E+02
      2.661  0.4304E+01  0.3477E+02
      2.731  0.3781E+01  0.3505E+02
      2.802  0.3256E+01  0.3530E+02
      2.873  0.2978E+01  0.3552E+02
      2.944  0.2414E+01  0.3571E+02
      3.015  0.9685E+00  0.3588E+02
      3.086  0.8310E+00  0.3595E+02
      3.157  0.3115E+00  0.3599E+02
      3.227  0.7775E-01  0.3600E+02
      3.298  0.0000E+00  0.3600E+02
      3.369  0.0000E+00  0.3600E+02
      3.440  0.0000E+00  0.3600E+02
      3.511  0.0000E+00  0.3600E+02
      3.582  0.0000E+00  0.3600E+02
      3.653  0.0000E+00  0.3600E+02
      3.724  0.0000E+00  0.3600E+02
      3.794  0.0000E+00  0.3600E+02
      3.865  0.0000E+00  0.3600E+02
      3.936  0.0000E+00  0.3600E+02
      4.007  0.0000E+00  0.3600E+02
      4.078  0.0000E+00  0.3600E+02
      4.149  0.0000E+00  0.3600E+02
      4.220  0.0000E+00  0.3600E+02
      4.290  0.0000E+00  0.3600E+02
      4.361  0.0000E+00  0.3600E+02
      4.432  0.0000E+00  0.3600E+02
      4.503  0.0000E+00  0.3600E+02
      4.574  0.0000E+00  0.3600E+02
      4.645  0.0000E+00  0.3600E+02
      4.716  0.0000E+00  0.3600E+02
      4.786  0.0000E+00  0.3600E+02
      4.857  0.0000E+00  0.3600E+02
      4.928  0.7460E+01  0.3603E+02
      4.999  0.1665E+01  0.3616E+02
      5.070  0.5132E+01  0.3639E+02
      5.141  0.8764E+01  0.3689E+02
      5.212  0.1284E+02  0.3766E+02
      5.283  0.2652E+02  0.3878E+02
      5.353  0.2257E+01  0.3945E+02
      5.424  0.1632E+01  0.3959E+02
      5.495  0.7808E+01  0.3988E+02
      5.566  0.9026E+01  0.4063E+02
      5.637  0.1031E+02  0.4128E+02
      5.708  0.7197E+01  0.4188E+02
      5.779  0.7067E+01  0.4236E+02
      5.849  0.5484E+01  0.4289E+02
      5.920  0.3347E+01  0.4320E+02
      5.991  0.2638E+01  0.4341E+02
      6.062  0.2115E+01  0.4358E+02
      6.133  0.1886E+01  0.4372E+02
      6.204  0.1833E+01  0.4386E+02
      6.275  0.1002E+01  0.4396E+02
      6.345  0.0000E+00  0.4400E+02
      6.416  0.0000E+00  0.4400E+02
      6.487  0.0000E+00  0.4400E+02
      6.558  0.0000E+00  0.4400E+02
      6.629  0.0000E+00  0.4400E+02
      6.700  0.0000E+00  0.4400E+02
      6.771  0.0000E+00  0.4400E+02
      6.842  0.0000E+00  0.4400E+02
      6.912  0.0000E+00  0.4400E+02
      6.983  0.0000E+00  0.4400E+02
      7.054  0.0000E+00  0.4400E+02
      7.125  0.0000E+00  0.4400E+02
      7.196  0.0000E+00  0.4400E+02
      7.267  0.0000E+00  0.4400E+02
      7.338  0.0000E+00  0.4400E+02
      7.408  0.0000E+00  0.4400E+02
      7.479  0.0000E+00  0.4400E+02
      7.550  0.0000E+00  0.4400E+02
      7.621  0.0000E+00  0.4400E+02
      7.692  0.0000E+00  0.4400E+02
      7.763  0.0000E+00  0.4400E+02
      7.834  0.0000E+00  0.4400E+02
      7.904  0.0000E+00  0.4400E+02
      7.975  0.0000E+00  0.4400E+02
      8.046  0.0000E+00  0.4400E+02
      8.117  0.0000E+00  0.4400E+02
      8.188  0.0000E+00  0.4400E+02
      8.259  0.0000E+00  0.4400E+02
      8.330  0.0000E+00  0.4400E+02
