       N       E                     dE             d eps       ncg     rms          rms(c)
DAV:   1     0.260311416674E+03    0.26031E+03   -0.19185E+04   880   0.189E+03
DAV:   2    -0.200565710793E+02   -0.28037E+03   -0.27291E+03  1126   0.316E+02
DAV:   3    -0.460776783874E+02   -0.26021E+02   -0.25884E+02  1220   0.887E+01
DAV:   4    -0.468021866005E+02   -0.72451E+00   -0.72327E+00  1182   0.160E+01
DAV:   5    -0.468244894861E+02   -0.22303E-01   -0.22297E-01  1242   0.277E+00    0.974E+00
RMM:   6    -0.444418785932E+02    0.23826E+01   -0.24289E+01   984   0.197E+01    0.338E+00
RMM:   7    -0.436991228010E+02    0.74276E+00   -0.19579E+00   958   0.568E+00    0.179E+00
RMM:   8    -0.436372949774E+02    0.61828E-01   -0.91536E-01  1005   0.339E+00    0.847E-01
RMM:   9    -0.436259418916E+02    0.11353E-01   -0.29800E-01  1041   0.229E+00    0.573E-01
RMM:  10    -0.436100485531E+02    0.15893E-01   -0.67923E-02  1047   0.113E+00    0.870E-02
RMM:  11    -0.436100042612E+02    0.44292E-04   -0.29732E-03  1111   0.237E-01    0.302E-02
RMM:  12    -0.436101448518E+02   -0.14059E-03   -0.50945E-04  1123   0.116E-01    0.200E-02
RMM:  13    -0.436101512319E+02   -0.63801E-05   -0.29188E-04  1141   0.711E-02    0.173E-02
RMM:  14    -0.436101397633E+02    0.11469E-04   -0.59941E-05   861   0.367E-02    0.238E-03
RMM:  15    -0.436101400301E+02   -0.26684E-06   -0.75093E-06   680   0.133E-02
   1 F= -.44941427E+02 E0= -.44941427E+02  d E =0.000000E+00
