 vasp.5.4.4.18Apr17-6-g9f103f2a35 (build Jun 30 2017 11:15:00) complex          
  
 executed on    STALLO_VASP_5.4.4 date 2019.11.08  11:38:06
 running on    4 total cores
 distrk:  each k-point on    4 cores,    1 groups
 distr:  one band on NCORES_PER_BAND=   2 cores,    2 groups


--------------------------------------------------------------------------------------------------------


 INCAR:
 POTCAR:   PAW_PBE Mo 08Apr2002                   
 POTCAR:    PAW_PBE S 17Jan2003                   
 POTCAR:   PAW_PBE Mo 08Apr2002                   
   VRHFIN =Mo: 4p5s4d                                                           
   LEXCH  = PE                                                                  
   EATOM  =   217.5180 eV,   15.9871 Ry                                         
                                                                                
   TITEL  = PAW_PBE Mo 08Apr2002                                                
   LULTRA =        F    use ultrasoft PP ?                                      
   IUNSCR =        1    unscreen: 0-lin 1-nonlin 2-no                           
   RPACOR =    2.200    partial core radius                                     
   POMASS =   95.940; ZVAL   =    6.000    mass and valenz                      
   RCORE  =    2.750    outmost cutoff radius                                   
   RWIGS  =    2.750; RWIGS  =    1.455    wigner-seitz radius (au A)           
   ENMAX  =  224.584; ENMIN  =  168.438 eV                                      
   RCLOC  =    2.111    cutoff for local pot                                    
   LCOR   =        T    correct aug charges                                     
   LPAW   =        T    paw PP                                                  
   EAUG   =  345.278                                                            
   DEXC   =    -.088                                                            
   RMAX   =    3.077    core radius for proj-oper                               
   RAUG   =    1.300    factor for augmentation sphere                          
   RDEP   =    2.815    radius for radial grids                                 
   QCUT   =   -4.063; QGAM   =    8.126    optimization parameters              
                                                                                
   Description                                                                  
     l     E      TYP  RCUT    TYP  RCUT                                        
     2   .000     23  2.500                                                     
     2   .000     23  2.500                                                     
     0   .000     23  2.600                                                     
     0  1.000     23  2.600                                                     
     1   .400     23  2.750                                                     
     1  2.000     23  2.750                                                     
     3   .000      7   .000                                                     
  local pseudopotential read in
  partial core-charges read in
  atomic valenz-charges read in
  non local Contribution for L=           2  read in
    real space projection operators read in
  non local Contribution for L=           2  read in
    real space projection operators read in
  non local Contribution for L=           0  read in
    real space projection operators read in
  non local Contribution for L=           0  read in
    real space projection operators read in
  non local Contribution for L=           1  read in
    real space projection operators read in
  non local Contribution for L=           1  read in
    real space projection operators read in
    PAW grid and wavefunctions read in
 
   number of l-projection  operators is LMAX  =           6
   number of lm-projection operators is LMMAX =          18
 
 POTCAR:    PAW_PBE S 17Jan2003                   
   VRHFIN =S : s2p4                                                             
   LEXCH  = PE                                                                  
   EATOM  =   276.8230 eV,   20.3459 Ry                                         
                                                                                
   TITEL  = PAW_PBE S 17Jan2003                                                 
   LULTRA =        F    use ultrasoft PP ?                                      
   IUNSCR =        1    unscreen: 0-lin 1-nonlin 2-no                           
   RPACOR =    1.500    partial core radius                                     
   POMASS =   32.066; ZVAL   =    6.000    mass and valenz                      
   RCORE  =    1.900    outmost cutoff radius                                   
   RWIGS  =    2.200; RWIGS  =    1.164    wigner-seitz radius (au A)           
   ENMAX  =  280.000; ENMIN  =  194.016 eV                                      
   ICORE  =        2    local potential                                         
   LCOR   =        T    correct aug charges                                     
   LPAW   =        T    paw PP                                                  
   EAUG   =  335.092                                                            
   DEXC   =     .000                                                            
   RMAX   =    2.867    core radius for proj-oper                               
   RAUG   =    1.300    factor for augmentation sphere                          
   RDEP   =    1.954    radius for radial grids                                 
   QCUT   =   -4.360; QGAM   =    8.721    optimization parameters              
                                                                                
   Description                                                                  
     l     E      TYP  RCUT    TYP  RCUT                                        
     0   .000     23  1.900                                                     
     0   .000     23  1.900                                                     
     1   .000     23  1.900                                                     
     1   .000     23  1.900                                                     
     2   .000     23  1.900                                                     
  local pseudopotential read in
  partial core-charges read in
  atomic valenz-charges read in
  non local Contribution for L=           0  read in
    real space projection operators read in
  non local Contribution for L=           0  read in
    real space projection operators read in
  non local Contribution for L=           1  read in
    real space projection operators read in
  non local Contribution for L=           1  read in
    real space projection operators read in
    PAW grid and wavefunctions read in
 
   number of l-projection  operators is LMAX  =           4
   number of lm-projection operators is LMMAX =           8
 
 WARNING: PSMAXN for non-local potential too small
          PSMAXN should be >   14.0303017386150       NTYP=           1
 PAW_PBE Mo 08Apr2002                   :
 energy of atom  1       EATOM= -217.5180
 kinetic energy error for atom=    0.0003 (will be added to EATOM!!)
  PAW_PBE S 17Jan2003                   :
 energy of atom  2       EATOM= -276.8230
 kinetic energy error for atom=    0.0006 (will be added to EATOM!!)
 
 
 POSCAR: MoS2_mp-2815_computed                   
  positions in direct lattice
  No initial velocities read in
 exchange correlation table for  LEXCH =        8
   RHO(1)=    0.500       N(1)  =     2000
   RHO(2)=  100.500       N(2)  =     4000
 


--------------------------------------------------------------------------------------------------------


 ion  position               nearest neighbor table
   1  0.333  0.667  0.250-   5 2.42   4 2.42   4 2.42   5 2.42   5 2.42   4 2.42
   2  0.667  0.333  0.750-   6 2.42   3 2.42   3 2.42   6 2.42   6 2.42   3 2.42
   3  0.333  0.667  0.855-   2 2.42   2 2.42   2 2.42
   4  0.667  0.333  0.145-   1 2.42   1 2.42   1 2.42
   5  0.667  0.333  0.355-   1 2.42   1 2.42   1 2.42
   6  0.333  0.667  0.645-   2 2.42   2 2.42   2 2.42
 
  LATTYP: Found a hexagonal cell.
 ALAT       =     3.1903157300
 C/A-ratio  =     4.6638030713
  
  Lattice vectors:
  
 A1 = (   3.1903157300,   0.0000000000,   0.0000000000)
 A2 = (  -1.5951578650,   2.7628944683,   0.0000000000)
 A3 = (   0.0000000000,   0.0000000000,  14.8790043000)


Analysis of symmetry for initial positions (statically):
=====================================================================
 Subroutine PRICEL returns:
 Original cell was already a primitive cell.
 

 Routine SETGRP: Setting up the symmetry group for a 
 hexagonal supercell.


 Subroutine GETGRP returns: Found 24 space group operations
 (whereof 12 operations were pure point group operations)
 out of a pool of 24 trial point group operations.


The static configuration has the point symmetry D_3d.
 The point group associated with its full space group is D_6h.


Analysis of symmetry for dynamics (positions and initial velocities):
=====================================================================
 Subroutine PRICEL returns:
 Original cell was already a primitive cell.
 

 Routine SETGRP: Setting up the symmetry group for a 
 hexagonal supercell.


 Subroutine GETGRP returns: Found 24 space group operations
 (whereof 12 operations were pure point group operations)
 out of a pool of 24 trial point group operations.


The dynamic configuration has the point symmetry D_3d.
 The point group associated with its full space group is D_6h.


 Subroutine INISYM returns: Found 24 space group operations
 (whereof 12 operations are pure point group operations),
 and found     1 'primitive' translations

 
 
 KPOINTS: k-density: 4.0                          

Automatic generation of k-mesh.
Space group operators:
 irot       det(A)        alpha          n_x          n_y          n_z        tau_x        tau_y        tau_z
    1     1.000000     0.000001     1.000000     0.000000     0.000000     0.000000     0.000000     0.000000
    2    -1.000000     0.000001     1.000000     0.000000     0.000000     0.000000     0.000000     0.000000
    3     1.000000   120.000000     0.000000     0.000000    -1.000000     0.000000     0.000000     0.000000
    4    -1.000000   120.000000     0.000000     0.000000    -1.000000     0.000000     0.000000     0.000000
    5     1.000000   120.000000     0.000000     0.000000     1.000000     0.000000     0.000000     0.000000
    6    -1.000000   120.000000     0.000000     0.000000     1.000000     0.000000     0.000000     0.000000
    7     1.000000   179.999999     1.000000    -0.000000     0.000000     0.000000     0.000000     0.000000
    8    -1.000000   179.999999     1.000000    -0.000000     0.000000     0.000000     0.000000     0.000000
    9     1.000000   180.000000     0.500000    -0.866025     0.000000     0.000000     0.000000     0.000000
   10    -1.000000   180.000000     0.500000    -0.866025     0.000000     0.000000     0.000000     0.000000
   11     1.000000   180.000000    -0.500000    -0.866025     0.000000     0.000000     0.000000     0.000000
   12    -1.000000   180.000000    -0.500000    -0.866025     0.000000     0.000000     0.000000     0.000000
   13     1.000000    60.000000     0.000000     0.000000    -1.000000     0.000001     0.000000     0.500000
   14    -1.000000    60.000000     0.000000     0.000000    -1.000000     0.000001     0.000000     0.500000
   15     1.000000   180.000000     0.000000     0.000000     1.000000     0.000000     0.000000     0.500000
   16    -1.000000   180.000000     0.000000     0.000000     1.000000     0.000000     0.000000     0.500000
   17     1.000000    60.000000     0.000000     0.000000     1.000000     0.000000     0.000000     0.500000
   18    -1.000000    60.000000     0.000000     0.000000     1.000000     0.000000     0.000000     0.500000
   19     1.000000   179.999999     0.866025    -0.500000     0.000000     0.000000     0.000000     0.500000
   20    -1.000000   179.999999     0.866025    -0.500000     0.000000     0.000000     0.000000     0.500000
   21     1.000000   180.000000     0.000000     1.000000     0.000000     0.000001     0.000000     0.500000
   22    -1.000000   180.000000     0.000000     1.000000     0.000000     0.000001     0.000000     0.500000
   23     1.000000   179.999999     0.866025     0.500000     0.000000     0.000000     0.000000     0.500000
   24    -1.000000   179.999999     0.866025     0.500000     0.000000     0.000000     0.000000     0.500000
 
 Subroutine IBZKPT returns following result:
 ===========================================
 
 Found     20 irreducible k-points:
 
 Following reciprocal coordinates:
            Coordinates               Weight
  0.000000  0.000000  0.000000      1.000000
  0.125000 -0.000000  0.000000      6.000000
  0.250000 -0.000000  0.000000      6.000000
  0.375000 -0.000000  0.000000      6.000000
  0.500000 -0.000000  0.000000      3.000000
  0.125000  0.125000  0.000000      6.000000
  0.250000  0.125000  0.000000     12.000000
  0.375000  0.125000  0.000000     12.000000
  0.250000  0.250000  0.000000      6.000000
  0.375000  0.250000  0.000000      6.000000
  0.000000  0.000000  0.500000      1.000000
  0.125000 -0.000000  0.500000      6.000000
  0.250000 -0.000000  0.500000      6.000000
  0.375000 -0.000000  0.500000      6.000000
  0.500000 -0.000000  0.500000      3.000000
  0.125000  0.125000  0.500000      6.000000
  0.250000  0.125000  0.500000     12.000000
  0.375000  0.125000  0.500000     12.000000
  0.250000  0.250000  0.500000      6.000000
  0.375000  0.250000  0.500000      6.000000
 
 Following cartesian coordinates:
            Coordinates               Weight
  0.000000  0.000000  0.000000      1.000000
  0.039181  0.022621  0.000000      6.000000
  0.078362  0.045242  0.000000      6.000000
  0.117543  0.067864  0.000000      6.000000
  0.156724  0.090485  0.000000      3.000000
  0.039181  0.067864  0.000000      6.000000
  0.078362  0.090485  0.000000     12.000000
  0.117543  0.113106  0.000000     12.000000
  0.078362  0.135727  0.000000      6.000000
  0.117543  0.158348  0.000000      6.000000
  0.000000  0.000000  0.033604      1.000000
  0.039181  0.022621  0.033604      6.000000
  0.078362  0.045242  0.033604      6.000000
  0.117543  0.067864  0.033604      6.000000
  0.156724  0.090485  0.033604      3.000000
  0.039181  0.067864  0.033604      6.000000
  0.078362  0.090485  0.033604     12.000000
  0.117543  0.113106  0.033604     12.000000
  0.078362  0.135727  0.033604      6.000000
  0.117543  0.158348  0.033604      6.000000
 
 TETIRR: Found    136 inequivalent tetrahedra from      768


--------------------------------------------------------------------------------------------------------




 Dimension of arrays:
   k-points           NKPTS =     20   k-points in BZ     NKDIM =     20   number of bands    NBANDS=     22
   number of dos      NEDOS =    301   number of ions     NIONS =      6
   non local maximal  LDIM  =      6   non local SUM 2l+1 LMDIM =     18
   total plane-waves  NPLWV =  57600
   max r-space proj   IRMAX =      1   max aug-charges    IRDMAX=  28394
   dimension x,y,z NGX =    24 NGY =   24 NGZ =  100
   dimension x,y,z NGXF=    48 NGYF=   48 NGZF=  200
   support grid    NGXF=    48 NGYF=   48 NGZF=  200
   ions per type =               2   4
   NGX,Y,Z   is equivalent  to a cutoff of  12.51, 12.51, 11.17 a.u.
   NGXF,Y,Z  is equivalent  to a cutoff of  25.01, 25.01, 22.35 a.u.

 SYSTEM =  unknown system                          
 POSCAR =  MoS2_mp-2815_computed                   

 Startparameter for this run:
   NWRITE =      2    write-flag & timer
   PREC   = normal    normal or accurate (medium, high low for compatibility)
   ISTART =      0    job   : 0-new  1-cont  2-samecut
   ICHARG =      2    charge: 1-file 2-atom 10-const
   ISPIN  =      1    spin polarized calculation?
   LNONCOLLINEAR =      F non collinear calculations
   LSORBIT =      F    spin-orbit coupling
   INIWAV =      1    electr: 0-lowe 1-rand  2-diag
   LASPH  =      F    aspherical Exc in radial PAW
   METAGGA=      F    non-selfconsistent MetaGGA calc.

 Electronic Relaxation 1
   ENCUT  =  750.0 eV  55.12 Ry    7.42 a.u.   7.12  7.12 33.22*2*pi/ulx,y,z
   ENINI  =  750.0     initial cutoff
   ENAUG  =  345.3 eV  augmentation charge cutoff
   NELM   =     60;   NELMIN=  4; NELMDL=  0     # of ELM steps 
   EDIFF  = 0.1E-04   stopping-criterion for ELM
   LREAL  =      F    real-space projection
   NLSPLINE    = F    spline interpolate recip. space projectors
   LCOMPAT=      F    compatible to vasp.4.4
   GGA_COMPAT  = T    GGA compatible to vasp.4.4-vasp.4.6
   LMAXPAW     = -100 max onsite density
   LMAXMIX     =    2 max onsite mixed and CHGCAR
   VOSKOWN=      0    Vosko Wilk Nusair interpolation
   ROPT   =    0.00000   0.00000
 Ionic relaxation
   EDIFFG = 0.1E-03   stopping-criterion for IOM
   NSW    =      0    number of steps for IOM
   NBLOCK =      1;   KBLOCK =      1    inner block; outer block 
   IBRION =     -1    ionic relax: 0-MD 1-quasi-New 2-CG
   NFREE  =      0    steps in history (QN), initial steepest desc. (CG)
   ISIF   =      2    stress and relaxation
   IWAVPR =     10    prediction:  0-non 1-charg 2-wave 3-comb
   ISYM   =      2    0-nonsym 1-usesym 2-fastsym
   LCORR  =      T    Harris-Foulkes like correction to forces

   POTIM  = 0.5000    time-step for ionic-motion
   TEIN   =    0.0    initial temperature
   TEBEG  =    0.0;   TEEND  =   0.0 temperature during run
   SMASS  =  -3.00    Nose mass-parameter (am)
   estimated Nose-frequenzy (Omega)   =  0.10E-29 period in steps =****** mass=  -0.233E-27a.u.
   SCALEE = 1.0000    scale energy and forces
   NPACO  =    256;   APACO  = 16.0  distance and # of slots for P.C.
   PSTRESS=    0.0 pullay stress

  Mass of Ions in am
   POMASS =  95.94 32.07
  Ionic Valenz
   ZVAL   =   6.00  6.00
  Atomic Wigner-Seitz radii
   RWIGS  =  -1.00 -1.00
  virtual crystal weights 
   VCA    =   1.00  1.00
   NELECT =      36.0000    total number of electrons
   NUPDOWN=      -1.0000    fix difference up-down

 DOS related values:
   EMIN   =  10.00;   EMAX   =-10.00  energy-range for DOS
   EFERMI =   0.00
   ISMEAR =    -5;   SIGMA  =   0.20  broadening in eV -4-tet -1-fermi 0-gaus

 Electronic relaxation 2 (details)
   IALGO  =     68    algorithm
   LDIAG  =      T    sub-space diagonalisation (order eigenvalues)
   LSUBROT=      F    optimize rotation matrix (better conditioning)
   TURBO    =      0    0=normal 1=particle mesh
   IRESTART =      0    0=no restart 2=restart with 2 vectors
   NREBOOT  =      0    no. of reboots
   NMIN     =      0    reboot dimension
   EREF     =   0.00    reference energy to select bands
   IMIX   =      4    mixing-type and parameters
     AMIX     =   0.40;   BMIX     =  1.00
     AMIX_MAG =   1.60;   BMIX_MAG =  1.00
     AMIN     =   0.10
     WC   =   100.;   INIMIX=   1;  MIXPRE=   1;  MAXMIX= -45

 Intra band minimization:
   WEIMIN = 0.0000     energy-eigenvalue tresh-hold
   EBREAK =  0.11E-06  absolut break condition
   DEPER  =   0.30     relativ break condition  

   TIME   =   0.40     timestep for ELM

  volume/ion in A,a.u.               =      21.86       147.51
  Fermi-wavevector in a.u.,A,eV,Ry     =   1.063943  2.010561 15.401453  1.131975
  Thomas-Fermi vector in A             =   2.199445
 
 Write flags
   LWAVE        =      F    write WAVECAR
   LDOWNSAMPLE  =      F    k-point downsampling of WAVECAR
   LCHARG       =      T    write CHGCAR
   LVTOT        =      F    write LOCPOT, total local potential
   LVHAR        =      F    write LOCPOT, Hartree potential only
   LELF         =      F    write electronic localiz. function (ELF)
   LORBIT       =      0    0 simple, 1 ext, 2 COOP (PROOUT), +10 PAW based schemes


 Dipole corrections
   LMONO  =      F    monopole corrections only (constant potential shift)
   LDIPOL =      F    correct potential (dipole corrections)
   IDIPOL =      0    1-x, 2-y, 3-z, 4-all directions 
   EPSILON=  1.0000000 bulk dielectric constant

 Exchange correlation treatment:
   GGA     =    --    GGA type
   LEXCH   =     8    internal setting for exchange type
   VOSKOWN=      0    Vosko Wilk Nusair interpolation
   LHFCALC =     F    Hartree Fock is set to
   LHFONE  =     F    Hartree Fock one center treatment
   AEXX    =    0.0000 exact exchange contribution

 Linear response parameters
   LEPSILON=     F    determine dielectric tensor
   LRPA    =     F    only Hartree local field effects (RPA)
   LNABLA  =     F    use nabla operator in PAW spheres
   LVEL    =     F    velocity operator in full k-point grid
   LINTERFAST=   F  fast interpolation
   KINTER  =     0    interpolate to denser k-point grid
   CSHIFT  =0.1000    complex shift for real part using Kramers Kronig
   OMEGAMAX=  -1.0    maximum frequency
   DEG_THRESHOLD= 0.2000000E-02 threshold for treating states as degnerate
   RTIME   =   -0.100 relaxation time in fs
  (WPLASMAI=    0.000 imaginary part of plasma frequency in eV, 0.658/RTIME)
   DFIELD  = 0.0000000 0.0000000 0.0000000 field for delta impulse in time
 
 Orbital magnetization related:
   ORBITALMAG=     F  switch on orbital magnetization
   LCHIMAG   =     F  perturbation theory with respect to B field
   DQ        =  0.001000  dq finite difference perturbation B field
   LLRAUG    =     F  two centre corrections for induced B field



--------------------------------------------------------------------------------------------------------


 Static calculation
 charge density and potential will be updated during run
 non-spin polarized calculation
 RMM-DIIS sequential band-by-band and
  variant of blocked Davidson during initial phase
 perform sub-space diagonalisation
    before iterative eigenvector-optimisation
 modified Broyden-mixing scheme, WC =      100.0
 initial mixing is a Kerker type mixing with AMIX =  0.4000 and BMIX =      1.0000
 Hartree-type preconditioning will be used
 using additional bands            4
 reciprocal scheme for non local part
 use partial core corrections
 calculate Harris-corrections to forces 
   (improved forces if not selfconsistent)
 use gradient corrections 
 use of overlap-Matrix (Vanderbilt PP)
 Fermi weights with tetrahedron method with Bloechl corrections


--------------------------------------------------------------------------------------------------------


  energy-cutoff  :      750.00
  volume of cell :      131.15
      direct lattice vectors                 reciprocal lattice vectors
     3.190315730  0.000000000  0.000000000     0.313448600  0.180969634  0.000000000
    -1.595157865  2.762894468  0.000000000     0.000000000  0.361939267  0.000000000
     0.000000000  0.000000000 14.879004300     0.000000000  0.000000000  0.067208798

  length of vectors
     3.190315730  3.190315730 14.879004300     0.361939267  0.361939267  0.067208798


 
 k-points in units of 2pi/SCALE and weight: k-density: 4.0                          
   0.00000000  0.00000000  0.00000000       0.008
   0.03918108  0.02262120  0.00000000       0.047
   0.07836215  0.04524241  0.00000000       0.047
   0.11754323  0.06786361  0.00000000       0.047
   0.15672430  0.09048482  0.00000000       0.023
   0.03918108  0.06786361  0.00000000       0.047
   0.07836215  0.09048482  0.00000000       0.094
   0.11754323  0.11310602  0.00000000       0.094
   0.07836215  0.13572723  0.00000000       0.047
   0.11754323  0.15834843  0.00000000       0.047
   0.00000000  0.00000000  0.03360440       0.008
   0.03918108  0.02262120  0.03360440       0.047
   0.07836215  0.04524241  0.03360440       0.047
   0.11754323  0.06786361  0.03360440       0.047
   0.15672430  0.09048482  0.03360440       0.023
   0.03918108  0.06786361  0.03360440       0.047
   0.07836215  0.09048482  0.03360440       0.094
   0.11754323  0.11310602  0.03360440       0.094
   0.07836215  0.13572723  0.03360440       0.047
   0.11754323  0.15834843  0.03360440       0.047
 
 k-points in reciprocal lattice and weights: k-density: 4.0                          
   0.00000000  0.00000000  0.00000000       0.008
   0.12500000 -0.00000000  0.00000000       0.047
   0.25000000 -0.00000000  0.00000000       0.047
   0.37500000 -0.00000000  0.00000000       0.047
   0.50000000 -0.00000000  0.00000000       0.023
   0.12500000  0.12500000  0.00000000       0.047
   0.25000000  0.12500000  0.00000000       0.094
   0.37500000  0.12500000  0.00000000       0.094
   0.25000000  0.25000000  0.00000000       0.047
   0.37500000  0.25000000  0.00000000       0.047
   0.00000000  0.00000000  0.50000000       0.008
   0.12500000 -0.00000000  0.50000000       0.047
   0.25000000 -0.00000000  0.50000000       0.047
   0.37500000 -0.00000000  0.50000000       0.047
   0.50000000 -0.00000000  0.50000000       0.023
   0.12500000  0.12500000  0.50000000       0.047
   0.25000000  0.12500000  0.50000000       0.094
   0.37500000  0.12500000  0.50000000       0.094
   0.25000000  0.25000000  0.50000000       0.047
   0.37500000  0.25000000  0.50000000       0.047
 
 position of ions in fractional coordinates (direct lattice) 
   0.33333300  0.66666700  0.25000000
   0.66666700  0.33333300  0.75000000
   0.33333300  0.66666700  0.85517400
   0.66666700  0.33333300  0.14482600
   0.66666600  0.33333300  0.35517400
   0.33333400  0.66666700  0.64482600
 
 position of ions in cartesian coordinates  (Angst):
  -0.00000160  1.84193057  3.71975108
   1.59515946  0.92096390 11.15925323
  -0.00000160  1.84193057 12.72413762
   1.59515946  0.92096390  2.15486668
   1.59515627  0.92096390  5.28463547
   0.00000160  1.84193057  9.59436883
 


--------------------------------------------------------------------------------------------------------


 k-point  1 :   0.0000 0.0000 0.0000  plane waves:    6109
 k-point  2 :   0.1250-0.0000 0.0000  plane waves:    6071
 k-point  3 :   0.2500-0.0000 0.0000  plane waves:    6112
 k-point  4 :   0.3750-0.0000 0.0000  plane waves:    6114
 k-point  5 :   0.5000-0.0000 0.0000  plane waves:    6132
 k-point  6 :   0.1250 0.1250 0.0000  plane waves:    6087
 k-point  7 :   0.2500 0.1250 0.0000  plane waves:    6104
 k-point  8 :   0.3750 0.1250 0.0000  plane waves:    6128
 k-point  9 :   0.2500 0.2500 0.0000  plane waves:    6137
 k-point 10 :   0.3750 0.2500 0.0000  plane waves:    6167
 k-point 11 :   0.0000 0.0000 0.5000  plane waves:    6090
 k-point 12 :   0.1250-0.0000 0.5000  plane waves:    6086
 k-point 13 :   0.2500-0.0000 0.5000  plane waves:    6116
 k-point 14 :   0.3750-0.0000 0.5000  plane waves:    6110
 k-point 15 :   0.5000-0.0000 0.5000  plane waves:    6140
 k-point 16 :   0.1250 0.1250 0.5000  plane waves:    6088
 k-point 17 :   0.2500 0.1250 0.5000  plane waves:    6114
 k-point 18 :   0.3750 0.1250 0.5000  plane waves:    6134
 k-point 19 :   0.2500 0.2500 0.5000  plane waves:    6128
 k-point 20 :   0.3750 0.2500 0.5000  plane waves:    6146

 maximum and minimum number of plane-waves per node :      3085     3016

 maximum number of plane-waves:      6167
 maximum index in each direction: 
   IXMAX=    7   IYMAX=    7   IZMAX=   33
   IXMIN=   -7   IYMIN=   -7   IZMIN=  -33


 parallel 3D FFT for wavefunctions:
    minimum data exchange during FFTs selected (reduces bandwidth)
 parallel 3D FFT for charge:
    minimum data exchange during FFTs selected (reduces bandwidth)


 total amount of memory used by VASP MPI-rank0    71490. kBytes
=======================================================================

   base      :      30000. kBytes
   nonl-proj :      18048. kBytes
   fftplans  :       4775. kBytes
   grid      :       7653. kBytes
   one-center:         46. kBytes
   wavefun   :      10968. kBytes
 
     INWAV:  cpu time    0.0010: real time    0.0003
 Broyden mixing: mesh for mixing (old mesh)
   NGX = 15   NGY = 15   NGZ = 67
  (NGX  = 48   NGY  = 48   NGZ  =200)
  gives a total of  15075 points

 initial charge density was supplied:
 charge density of overlapping atoms calculated
 number of electron      36.0000000 magnetization 
 keeping initial charge density in first step


--------------------------------------------------------------------------------------------------------


 Maximum index for augmentation-charges         6867 (set IRDMAX)


--------------------------------------------------------------------------------------------------------


 First call to EWALD:  gamma=   0.349
 Maximum number of real-space cells 5x 5x 1
 Maximum number of reciprocal cells 2x 2x 7

    FEWALD:  cpu time    0.0020: real time    0.0014


--------------------------------------- Iteration      1(   1)  ---------------------------------------


    POTLOK:  cpu time    0.0620: real time    0.2513
    SETDIJ:  cpu time    0.0060: real time    0.0065
     EDDAV:  cpu time    0.9838: real time    0.9898
 BZINTS: Fermi energy: 16.524504; 36.000000 electrons
         Band energy: 227.054420;  BLOECHL correction: -0.322687
       DOS:  cpu time    0.0040: real time    0.0040
    --------------------------------------------
      LOOP:  cpu time    1.0558: real time    1.2517

 eigenvalue-minimisations  :   880
 total energy-change (2. order) : 0.2603114E+03  (-0.1918498E+04)
 number of electron      36.0000000 magnetization 
 augmentation part       36.0000000 magnetization 

 Free energy of the ion-electron system (eV)
  ---------------------------------------------------
  alpha Z        PSCENC =        90.42577596
  Ewald energy   TEWEN  =     -1146.88905665
  -Hartree energ DENC   =      -535.10238363
  -exchange      EXHF   =         0.00000000
  -V(xc)+E(xc)   XCENC  =       -72.59367936
  PAW double counting   =       813.77302396     -658.68146406
  entropy T*S    EENTRO =         0.00000000
  eigenvalues    EBANDS =       227.05442008
  atomic energy  EATOM  =      1542.32478036
  Solvation  Ediel_sol  =         0.00000000
  ---------------------------------------------------
  free energy    TOTEN  =       260.31141667 eV

  energy without entropy =      260.31141667  energy(sigma->0) =      260.31141667


--------------------------------------------------------------------------------------------------------




--------------------------------------- Iteration      1(   2)  ---------------------------------------


     EDDAV:  cpu time    1.1668: real time    1.1688
 BZINTS: Fermi energy:  5.436057; 36.000000 electrons
         Band energy: -53.313568;  BLOECHL correction:  0.000000
       DOS:  cpu time    0.0010: real time    0.0011
    --------------------------------------------
      LOOP:  cpu time    1.1678: real time    1.1699

 eigenvalue-minimisations  :  1126
 total energy-change (2. order) :-0.2803680E+03  (-0.2729139E+03)
 number of electron      36.0000000 magnetization 
 augmentation part       36.0000000 magnetization 

 Free energy of the ion-electron system (eV)
  ---------------------------------------------------
  alpha Z        PSCENC =        90.42577596
  Ewald energy   TEWEN  =     -1146.88905665
  -Hartree energ DENC   =      -535.10238363
  -exchange      EXHF   =         0.00000000
  -V(xc)+E(xc)   XCENC  =       -72.59367936
  PAW double counting   =       813.77302396     -658.68146406
  entropy T*S    EENTRO =         0.00000000
  eigenvalues    EBANDS =       -53.31356768
  atomic energy  EATOM  =      1542.32478036
  Solvation  Ediel_sol  =         0.00000000
  ---------------------------------------------------
  free energy    TOTEN  =       -20.05657108 eV

  energy without entropy =      -20.05657108  energy(sigma->0) =      -20.05657108


--------------------------------------------------------------------------------------------------------




--------------------------------------- Iteration      1(   3)  ---------------------------------------


     EDDAV:  cpu time    1.2858: real time    1.2883
 BZINTS: Fermi energy:  4.100015; 36.000000 electrons
         Band energy: -79.334675;  BLOECHL correction:  0.000000
       DOS:  cpu time    0.0010: real time    0.0012
    --------------------------------------------
      LOOP:  cpu time    1.2868: real time    1.2894

 eigenvalue-minimisations  :  1220
 total energy-change (2. order) :-0.2602111E+02  (-0.2588352E+02)
 number of electron      36.0000000 magnetization 
 augmentation part       36.0000000 magnetization 

 Free energy of the ion-electron system (eV)
  ---------------------------------------------------
  alpha Z        PSCENC =        90.42577596
  Ewald energy   TEWEN  =     -1146.88905665
  -Hartree energ DENC   =      -535.10238363
  -exchange      EXHF   =         0.00000000
  -V(xc)+E(xc)   XCENC  =       -72.59367936
  PAW double counting   =       813.77302396     -658.68146406
  entropy T*S    EENTRO =         0.00000000
  eigenvalues    EBANDS =       -79.33467498
  atomic energy  EATOM  =      1542.32478036
  Solvation  Ediel_sol  =         0.00000000
  ---------------------------------------------------
  free energy    TOTEN  =       -46.07767839 eV

  energy without entropy =      -46.07767839  energy(sigma->0) =      -46.07767839


--------------------------------------------------------------------------------------------------------




--------------------------------------- Iteration      1(   4)  ---------------------------------------


     EDDAV:  cpu time    1.2378: real time    1.2394
 BZINTS: Fermi energy:  3.909759; 36.000000 electrons
         Band energy: -80.059183;  BLOECHL correction:  0.000000
       DOS:  cpu time    0.0010: real time    0.0012
    --------------------------------------------
      LOOP:  cpu time    1.2388: real time    1.2406

 eigenvalue-minimisations  :  1182
 total energy-change (2. order) :-0.7245082E+00  (-0.7232717E+00)
 number of electron      36.0000000 magnetization 
 augmentation part       36.0000000 magnetization 

 Free energy of the ion-electron system (eV)
  ---------------------------------------------------
  alpha Z        PSCENC =        90.42577596
  Ewald energy   TEWEN  =     -1146.88905665
  -Hartree energ DENC   =      -535.10238363
  -exchange      EXHF   =         0.00000000
  -V(xc)+E(xc)   XCENC  =       -72.59367936
  PAW double counting   =       813.77302396     -658.68146406
  entropy T*S    EENTRO =         0.00000000
  eigenvalues    EBANDS =       -80.05918320
  atomic energy  EATOM  =      1542.32478036
  Solvation  Ediel_sol  =         0.00000000
  ---------------------------------------------------
  free energy    TOTEN  =       -46.80218660 eV

  energy without entropy =      -46.80218660  energy(sigma->0) =      -46.80218660


--------------------------------------------------------------------------------------------------------




--------------------------------------- Iteration      1(   5)  ---------------------------------------


     EDDAV:  cpu time    1.2878: real time    1.3052
 BZINTS: Fermi energy:  3.917311; 36.000000 electrons
         Band energy: -80.081486;  BLOECHL correction:  0.000000
       DOS:  cpu time    0.0010: real time    0.0012
    CHARGE:  cpu time    0.0800: real time    0.0801
    MIXING:  cpu time    0.0030: real time    0.0023
    --------------------------------------------
      LOOP:  cpu time    1.3718: real time    1.3887

 eigenvalue-minimisations  :  1242
 total energy-change (2. order) :-0.2230289E-01  (-0.2229658E-01)
 number of electron      35.9999999 magnetization 
 augmentation part       -1.8895279 magnetization 

 Broyden mixing:
  rms(total) = 0.97380E+00    rms(broyden)= 0.97380E+00
  rms(prec ) = 0.12184E+01
  weight for this iteration     100.00

 Free energy of the ion-electron system (eV)
  ---------------------------------------------------
  alpha Z        PSCENC =        90.42577596
  Ewald energy   TEWEN  =     -1146.88905665
  -Hartree energ DENC   =      -535.10238363
  -exchange      EXHF   =         0.00000000
  -V(xc)+E(xc)   XCENC  =       -72.59367936
  PAW double counting   =       813.77302396     -658.68146406
  entropy T*S    EENTRO =         0.00000000
  eigenvalues    EBANDS =       -80.08148608
  atomic energy  EATOM  =      1542.32478036
  Solvation  Ediel_sol  =         0.00000000
  ---------------------------------------------------
  free energy    TOTEN  =       -46.82448949 eV

  energy without entropy =      -46.82448949  energy(sigma->0) =      -46.82448949


--------------------------------------------------------------------------------------------------------




--------------------------------------- Iteration      1(   6)  ---------------------------------------


    POTLOK:  cpu time    0.0570: real time    0.0602
    SETDIJ:  cpu time    0.0060: real time    0.0056
    EDDIAG:  cpu time    0.1760: real time    0.1764
  RMM-DIIS:  cpu time    0.9319: real time    0.9316
    ORTHCH:  cpu time    0.0130: real time    0.0137
 BZINTS: Fermi energy:  2.883380; 36.000000 electrons
         Band energy: -79.184506;  BLOECHL correction:  0.000000
       DOS:  cpu time    0.0010: real time    0.0011
    CHARGE:  cpu time    0.0790: real time    0.0787
    MIXING:  cpu time    0.0030: real time    0.0027
    --------------------------------------------
      LOOP:  cpu time    1.2668: real time    1.2700

 eigenvalue-minimisations  :   984
 total energy-change (2. order) : 0.2382611E+01  (-0.2428880E+01)
 number of electron      36.0000000 magnetization 
 augmentation part       -0.8577993 magnetization 

 Broyden mixing:
  rms(total) = 0.33765E+00    rms(broyden)= 0.33765E+00
  rms(prec ) = 0.49460E+00
  weight for this iteration     100.00

 eigenvalues of (default mixing * dielectric matrix)
  average eigenvalue GAMMA=   0.8729
  0.8729

 Free energy of the ion-electron system (eV)
  ---------------------------------------------------
  alpha Z        PSCENC =        90.42577596
  Ewald energy   TEWEN  =     -1146.88905665
  -Hartree energ DENC   =      -533.60871728
  -exchange      EXHF   =         0.00000000
  -V(xc)+E(xc)   XCENC  =       -70.82262710
  PAW double counting   =       847.65311863     -694.34064630
  entropy T*S    EENTRO =         0.00000000
  eigenvalues    EBANDS =       -79.18450622
  atomic energy  EATOM  =      1542.32478036
  Solvation  Ediel_sol  =         0.00000000
  ---------------------------------------------------
  free energy    TOTEN  =       -44.44187859 eV

  energy without entropy =      -44.44187859  energy(sigma->0) =      -44.44187859


--------------------------------------------------------------------------------------------------------




--------------------------------------- Iteration      1(   7)  ---------------------------------------


    POTLOK:  cpu time    0.0540: real time    0.0562
    SETDIJ:  cpu time    0.0060: real time    0.0056
    EDDIAG:  cpu time    0.1760: real time    0.1762
  RMM-DIIS:  cpu time    0.9139: real time    0.9134
    ORTHCH:  cpu time    0.0130: real time    0.0137
 BZINTS: Fermi energy:  3.216064; 36.000000 electrons
         Band energy: -73.428595;  BLOECHL correction:  0.000000
       DOS:  cpu time    0.0020: real time    0.0010
    CHARGE:  cpu time    0.0790: real time    0.0793
    MIXING:  cpu time    0.0020: real time    0.0021
    --------------------------------------------
      LOOP:  cpu time    1.2458: real time    1.2474

 eigenvalue-minimisations  :   958
 total energy-change (2. order) : 0.7427558E+00  (-0.1957914E+00)
 number of electron      36.0000000 magnetization 
 augmentation part       -1.1107129 magnetization 

 Broyden mixing:
  rms(total) = 0.17877E+00    rms(broyden)= 0.17877E+00
  rms(prec ) = 0.21356E+00
  weight for this iteration     100.00

 eigenvalues of (default mixing * dielectric matrix)
  average eigenvalue GAMMA=   1.4086
  0.7576  2.0596

 Free energy of the ion-electron system (eV)
  ---------------------------------------------------
  alpha Z        PSCENC =        90.42577596
  Ewald energy   TEWEN  =     -1146.88905665
  -Hartree energ DENC   =      -537.93339642
  -exchange      EXHF   =         0.00000000
  -V(xc)+E(xc)   XCENC  =       -71.01589481
  PAW double counting   =       880.81468033     -727.99741641
  entropy T*S    EENTRO =         0.00000000
  eigenvalues    EBANDS =       -73.42859516
  atomic energy  EATOM  =      1542.32478036
  Solvation  Ediel_sol  =         0.00000000
  ---------------------------------------------------
  free energy    TOTEN  =       -43.69912280 eV

  energy without entropy =      -43.69912280  energy(sigma->0) =      -43.69912280


--------------------------------------------------------------------------------------------------------




--------------------------------------- Iteration      1(   8)  ---------------------------------------


    POTLOK:  cpu time    0.0560: real time    0.0589
    SETDIJ:  cpu time    0.0060: real time    0.0058
    EDDIAG:  cpu time    0.1700: real time    0.1697
  RMM-DIIS:  cpu time    1.0018: real time    1.0013
    ORTHCH:  cpu time    0.0120: real time    0.0126
 BZINTS: Fermi energy:  3.386221; 36.000000 electrons
         Band energy: -68.470468;  BLOECHL correction:  0.000000
       DOS:  cpu time    0.0010: real time    0.0011
    CHARGE:  cpu time    0.0740: real time    0.0742
    MIXING:  cpu time    0.0030: real time    0.0025
    --------------------------------------------
      LOOP:  cpu time    1.3238: real time    1.3261

 eigenvalue-minimisations  :  1005
 total energy-change (2. order) : 0.6182782E-01  (-0.9153648E-01)
 number of electron      36.0000000 magnetization 
 augmentation part       -1.1702922 magnetization 

 Broyden mixing:
  rms(total) = 0.84713E-01    rms(broyden)= 0.84713E-01
  rms(prec ) = 0.11338E+00
  weight for this iteration     100.00

 eigenvalues of (default mixing * dielectric matrix)
  average eigenvalue GAMMA=   1.4753
  2.1158  1.4897  0.8205

 Free energy of the ion-electron system (eV)
  ---------------------------------------------------
  alpha Z        PSCENC =        90.42577596
  Ewald energy   TEWEN  =     -1146.88905665
  -Hartree energ DENC   =      -542.22724469
  -exchange      EXHF   =         0.00000000
  -V(xc)+E(xc)   XCENC  =       -70.62981093
  PAW double counting   =       931.14581231     -779.31708351
  entropy T*S    EENTRO =         0.00000000
  eigenvalues    EBANDS =       -68.47046783
  atomic energy  EATOM  =      1542.32478036
  Solvation  Ediel_sol  =         0.00000000
  ---------------------------------------------------
  free energy    TOTEN  =       -43.63729498 eV

  energy without entropy =      -43.63729498  energy(sigma->0) =      -43.63729498


--------------------------------------------------------------------------------------------------------




--------------------------------------- Iteration      1(   9)  ---------------------------------------


    POTLOK:  cpu time    0.0530: real time    0.0565
    SETDIJ:  cpu time    0.0070: real time    0.0055
    EDDIAG:  cpu time    0.1630: real time    0.1642
  RMM-DIIS:  cpu time    0.9749: real time    0.9734
    ORTHCH:  cpu time    0.0120: real time    0.0129
 BZINTS: Fermi energy:  3.241329; 36.000000 electrons
         Band energy: -68.942827;  BLOECHL correction:  0.000000
       DOS:  cpu time    0.0020: real time    0.0011
    CHARGE:  cpu time    0.0750: real time    0.0757
    MIXING:  cpu time    0.0020: real time    0.0021
    --------------------------------------------
      LOOP:  cpu time    1.2888: real time    1.2914

 eigenvalue-minimisations  :  1041
 total energy-change (2. order) : 0.1135309E-01  (-0.2980013E-01)
 number of electron      36.0000000 magnetization 
 augmentation part       -1.0427552 magnetization 

 Broyden mixing:
  rms(total) = 0.57304E-01    rms(broyden)= 0.57304E-01
  rms(prec ) = 0.79785E-01
  weight for this iteration     100.00

 eigenvalues of (default mixing * dielectric matrix)
  average eigenvalue GAMMA=   1.5255
  2.1462  2.1462  0.9048  0.9048

 Free energy of the ion-electron system (eV)
  ---------------------------------------------------
  alpha Z        PSCENC =        90.42577596
  Ewald energy   TEWEN  =     -1146.88905665
  -Hartree energ DENC   =      -541.83175610
  -exchange      EXHF   =         0.00000000
  -V(xc)+E(xc)   XCENC  =       -70.37032012
  PAW double counting   =       937.59903585     -785.94157424
  entropy T*S    EENTRO =         0.00000000
  eigenvalues    EBANDS =       -68.94282696
  atomic energy  EATOM  =      1542.32478036
  Solvation  Ediel_sol  =         0.00000000
  ---------------------------------------------------
  free energy    TOTEN  =       -43.62594189 eV

  energy without entropy =      -43.62594189  energy(sigma->0) =      -43.62594189


--------------------------------------------------------------------------------------------------------




--------------------------------------- Iteration      1(  10)  ---------------------------------------


    POTLOK:  cpu time    0.0540: real time    0.0570
    SETDIJ:  cpu time    0.0060: real time    0.0055
    EDDIAG:  cpu time    0.1680: real time    0.1679
  RMM-DIIS:  cpu time    1.0068: real time    1.0064
    ORTHCH:  cpu time    0.0130: real time    0.0137
 BZINTS: Fermi energy:  3.307976; 36.000000 electrons
         Band energy: -68.029708;  BLOECHL correction:  0.000000
       DOS:  cpu time    0.0010: real time    0.0011
    CHARGE:  cpu time    0.0790: real time    0.0794
    MIXING:  cpu time    0.0030: real time    0.0024
    --------------------------------------------
      LOOP:  cpu time    1.3308: real time    1.3332

 eigenvalue-minimisations  :  1047
 total energy-change (2. order) : 0.1589334E-01  (-0.6792275E-02)
 number of electron      36.0000000 magnetization 
 augmentation part       -1.1051689 magnetization 

 Broyden mixing:
  rms(total) = 0.86982E-02    rms(broyden)= 0.86982E-02
  rms(prec ) = 0.11181E-01
  weight for this iteration     100.00

 eigenvalues of (default mixing * dielectric matrix)
  average eigenvalue GAMMA=   1.4315
  2.4543  1.6223  0.8812  0.8812  1.3186

 Free energy of the ion-electron system (eV)
  ---------------------------------------------------
  alpha Z        PSCENC =        90.42577596
  Ewald energy   TEWEN  =     -1146.88905665
  -Hartree energ DENC   =      -542.63252259
  -exchange      EXHF   =         0.00000000
  -V(xc)+E(xc)   XCENC  =       -70.42304854
  PAW double counting   =       943.64512390     -792.03139316
  entropy T*S    EENTRO =         0.00000000
  eigenvalues    EBANDS =       -68.02970785
  atomic energy  EATOM  =      1542.32478036
  Solvation  Ediel_sol  =         0.00000000
  ---------------------------------------------------
  free energy    TOTEN  =       -43.61004855 eV

  energy without entropy =      -43.61004855  energy(sigma->0) =      -43.61004855


--------------------------------------------------------------------------------------------------------




--------------------------------------- Iteration      1(  11)  ---------------------------------------


    POTLOK:  cpu time    0.0560: real time    0.0570
    SETDIJ:  cpu time    0.0050: real time    0.0057
    EDDIAG:  cpu time    0.1750: real time    0.1750
  RMM-DIIS:  cpu time    1.0548: real time    1.0547
    ORTHCH:  cpu time    0.0140: real time    0.0134
 BZINTS: Fermi energy:  3.303678; 36.000000 electrons
         Band energy: -67.907025;  BLOECHL correction:  0.000000
       DOS:  cpu time    0.0000: real time    0.0011
    CHARGE:  cpu time    0.0780: real time    0.0772
    MIXING:  cpu time    0.0030: real time    0.0027
    --------------------------------------------
      LOOP:  cpu time    1.3858: real time    1.3867

 eigenvalue-minimisations  :  1111
 total energy-change (2. order) : 0.4429190E-04  (-0.2973226E-03)
 number of electron      36.0000000 magnetization 
 augmentation part       -1.0981909 magnetization 

 Broyden mixing:
  rms(total) = 0.30163E-02    rms(broyden)= 0.30163E-02
  rms(prec ) = 0.36755E-02
  weight for this iteration     100.00

 eigenvalues of (default mixing * dielectric matrix)
  average eigenvalue GAMMA=   1.6500
  2.6841  2.6607  1.8114  0.8878  0.8878  0.9680

 Free energy of the ion-electron system (eV)
  ---------------------------------------------------
  alpha Z        PSCENC =        90.42577596
  Ewald energy   TEWEN  =     -1146.88905665
  -Hartree energ DENC   =      -542.77410810
  -exchange      EXHF   =         0.00000000
  -V(xc)+E(xc)   XCENC  =       -70.39487981
  PAW double counting   =       943.95229428     -792.34778512
  entropy T*S    EENTRO =         0.00000000
  eigenvalues    EBANDS =       -67.90702519
  atomic energy  EATOM  =      1542.32478036
  Solvation  Ediel_sol  =         0.00000000
  ---------------------------------------------------
  free energy    TOTEN  =       -43.61000426 eV

  energy without entropy =      -43.61000426  energy(sigma->0) =      -43.61000426


--------------------------------------------------------------------------------------------------------




--------------------------------------- Iteration      1(  12)  ---------------------------------------


    POTLOK:  cpu time    0.0530: real time    0.0571
    SETDIJ:  cpu time    0.0070: real time    0.0054
    EDDIAG:  cpu time    0.1750: real time    0.1757
  RMM-DIIS:  cpu time    1.0618: real time    1.0613
    ORTHCH:  cpu time    0.0140: real time    0.0139
 BZINTS: Fermi energy:  3.307466; 36.000000 electrons
         Band energy: -67.730290;  BLOECHL correction:  0.000000
       DOS:  cpu time    0.0010: real time    0.0011
    CHARGE:  cpu time    0.0790: real time    0.0792
    MIXING:  cpu time    0.0030: real time    0.0026
    --------------------------------------------
      LOOP:  cpu time    1.3938: real time    1.3963

 eigenvalue-minimisations  :  1123
 total energy-change (2. order) :-0.1405906E-03  (-0.5094479E-04)
 number of electron      36.0000000 magnetization 
 augmentation part       -1.0966931 magnetization 

 Broyden mixing:
  rms(total) = 0.20014E-02    rms(broyden)= 0.20014E-02
  rms(prec ) = 0.25194E-02
  weight for this iteration     100.00

 eigenvalues of (default mixing * dielectric matrix)
  average eigenvalue GAMMA=   1.5904
  2.9338  2.3798  1.5586  1.5586  0.8888  0.8888  0.9243

 Free energy of the ion-electron system (eV)
  ---------------------------------------------------
  alpha Z        PSCENC =        90.42577596
  Ewald energy   TEWEN  =     -1146.88905665
  -Hartree energ DENC   =      -542.97433808
  -exchange      EXHF   =         0.00000000
  -V(xc)+E(xc)   XCENC  =       -70.38541182
  PAW double counting   =       943.61855596     -792.00016078
  entropy T*S    EENTRO =         0.00000000
  eigenvalues    EBANDS =       -67.73028980
  atomic energy  EATOM  =      1542.32478036
  Solvation  Ediel_sol  =         0.00000000
  ---------------------------------------------------
  free energy    TOTEN  =       -43.61014485 eV

  energy without entropy =      -43.61014485  energy(sigma->0) =      -43.61014485


--------------------------------------------------------------------------------------------------------




--------------------------------------- Iteration      1(  13)  ---------------------------------------


    POTLOK:  cpu time    0.0560: real time    0.0584
    SETDIJ:  cpu time    0.0060: real time    0.0056
    EDDIAG:  cpu time    0.1760: real time    0.1758
  RMM-DIIS:  cpu time    1.0788: real time    1.0782
    ORTHCH:  cpu time    0.0130: real time    0.0135
 BZINTS: Fermi energy:  3.309404; 36.000000 electrons
         Band energy: -67.726373;  BLOECHL correction:  0.000000
       DOS:  cpu time    0.0010: real time    0.0011
    CHARGE:  cpu time    0.0790: real time    0.0793
    MIXING:  cpu time    0.0030: real time    0.0028
    --------------------------------------------
      LOOP:  cpu time    1.4128: real time    1.4146

 eigenvalue-minimisations  :  1141
 total energy-change (2. order) :-0.6380086E-05  (-0.2918773E-04)
 number of electron      36.0000000 magnetization 
 augmentation part       -1.0999861 magnetization 

 Broyden mixing:
  rms(total) = 0.17320E-02    rms(broyden)= 0.17320E-02
  rms(prec ) = 0.23191E-02
  weight for this iteration     100.00

 eigenvalues of (default mixing * dielectric matrix)
  average eigenvalue GAMMA=   1.7411
  3.1375  2.6894  2.6894  1.5903  1.1566  0.8835  0.8835  0.8989

 Free energy of the ion-electron system (eV)
  ---------------------------------------------------
  alpha Z        PSCENC =        90.42577596
  Ewald energy   TEWEN  =     -1146.88905665
  -Hartree energ DENC   =      -542.97340224
  -exchange      EXHF   =         0.00000000
  -V(xc)+E(xc)   XCENC  =       -70.38907890
  PAW double counting   =       943.77686053     -792.15965688
  entropy T*S    EENTRO =         0.00000000
  eigenvalues    EBANDS =       -67.72637343
  atomic energy  EATOM  =      1542.32478036
  Solvation  Ediel_sol  =         0.00000000
  ---------------------------------------------------
  free energy    TOTEN  =       -43.61015123 eV

  energy without entropy =      -43.61015123  energy(sigma->0) =      -43.61015123


--------------------------------------------------------------------------------------------------------




--------------------------------------- Iteration      1(  14)  ---------------------------------------


    POTLOK:  cpu time    0.0560: real time    0.0582
    SETDIJ:  cpu time    0.0060: real time    0.0055
    EDDIAG:  cpu time    0.1750: real time    0.1755
  RMM-DIIS:  cpu time    0.8319: real time    0.8313
    ORTHCH:  cpu time    0.0140: real time    0.0139
 BZINTS: Fermi energy:  3.307468; 36.000000 electrons
         Band energy: -67.744553;  BLOECHL correction:  0.000000
       DOS:  cpu time    0.0010: real time    0.0011
    CHARGE:  cpu time    0.0790: real time    0.0793
    MIXING:  cpu time    0.0030: real time    0.0027
    --------------------------------------------
      LOOP:  cpu time    1.1658: real time    1.1674

 eigenvalue-minimisations  :   861
 total energy-change (2. order) : 0.1146859E-04  (-0.5994074E-05)
 number of electron      36.0000000 magnetization 
 augmentation part       -1.0983695 magnetization 

 Broyden mixing:
  rms(total) = 0.23840E-03    rms(broyden)= 0.23840E-03
  rms(prec ) = 0.28947E-03
  weight for this iteration     100.00

 eigenvalues of (default mixing * dielectric matrix)
  average eigenvalue GAMMA=   1.6073
  3.1080  2.6830  2.2424  1.4452  1.3114  0.8822  0.8822  0.9559  0.9559

 Free energy of the ion-electron system (eV)
  ---------------------------------------------------
  alpha Z        PSCENC =        90.42577596
  Ewald energy   TEWEN  =     -1146.88905665
  -Hartree energ DENC   =      -542.95764465
  -exchange      EXHF   =         0.00000000
  -V(xc)+E(xc)   XCENC  =       -70.38640728
  PAW double counting   =       943.62010805     -792.00314209
  entropy T*S    EENTRO =         0.00000000
  eigenvalues    EBANDS =       -67.74455348
  atomic energy  EATOM  =      1542.32478036
  Solvation  Ediel_sol  =         0.00000000
  ---------------------------------------------------
  free energy    TOTEN  =       -43.61013976 eV

  energy without entropy =      -43.61013976  energy(sigma->0) =      -43.61013976


--------------------------------------------------------------------------------------------------------




--------------------------------------- Iteration      1(  15)  ---------------------------------------


    POTLOK:  cpu time    0.0560: real time    0.0593
    SETDIJ:  cpu time    0.0060: real time    0.0055
    EDDIAG:  cpu time    0.1750: real time    0.1752
  RMM-DIIS:  cpu time    0.6439: real time    0.6437
    ORTHCH:  cpu time    0.0130: real time    0.0136
 BZINTS: Fermi energy:  3.307193; 36.000000 electrons
         Band energy: -67.737227;  BLOECHL correction:  0.000000
       DOS:  cpu time    0.0010: real time    0.0010
    --------------------------------------------
      LOOP:  cpu time    0.8949: real time    0.8984

 eigenvalue-minimisations  :   680
 total energy-change (2. order) :-0.2668357E-06  (-0.7509324E-06)
 number of electron      36.0000000 magnetization 
 augmentation part       -1.0983695 magnetization 

 Free energy of the ion-electron system (eV)
  ---------------------------------------------------
  alpha Z        PSCENC =        90.42577596
  Ewald energy   TEWEN  =     -1146.88905665
  -Hartree energ DENC   =      -542.96571823
  -exchange      EXHF   =         0.00000000
  -V(xc)+E(xc)   XCENC  =       -70.38635751
  PAW double counting   =       943.59377184     -791.97610905
  entropy T*S    EENTRO =         0.00000000
  eigenvalues    EBANDS =       -67.73722676
  atomic energy  EATOM  =      1542.32478036
  Solvation  Ediel_sol  =         0.00000000
  ---------------------------------------------------
  free energy    TOTEN  =       -43.61014003 eV

  energy without entropy =      -43.61014003  energy(sigma->0) =      -43.61014003


--------------------------------------------------------------------------------------------------------




 average (electrostatic) potential at core
  the test charge radii are     1.2296  0.9698
  (the norm of the test charge is              1.0000)
       1 -40.3301       2 -40.3301       3 -88.1714       4 -88.1714       5 -88.1714
       6 -88.1714
 
 
 
 E-fermi :   3.3072     XC(G=0):  -9.3243     alpha+bet : -9.6368


 k-point     1 :       0.0000    0.0000    0.0000
  band No.  band energies     occupation 
      1     -10.9295      2.00000
      2     -10.9105      2.00000
      3      -9.7291      2.00000
      4      -9.6951      2.00000
      5      -2.5236      2.00000
      6      -2.3621      2.00000
      7       0.5196      2.00000
      8       0.5196      2.00000
      9       0.5201      2.00000
     10       0.5201      2.00000
     11       1.1060      2.00000
     12       1.6245      2.00000
     13       1.6245      2.00000
     14       1.6264      2.00000
     15       1.6264      2.00000
     16       1.6743      2.00000
     17       2.9224      2.00000
     18       3.2982      2.00000
     19       5.8751      0.00000
     20       5.8842      0.00000
     21       6.0124      0.00000
     22       6.0408      0.00000

 k-point     2 :       0.1250   -0.0000    0.0000
  band No.  band energies     occupation 
      1     -10.7152      2.00000
      2     -10.6966      2.00000
      3      -9.6254      2.00000
      4      -9.5940      2.00000
      5      -2.2777      2.00000
      6      -2.1189      2.00000
      7       0.0551      2.00000
      8       0.0578      2.00000
      9       0.4564      2.00000
     10       0.6725      2.00000
     11       0.7537      2.00000
     12       0.7549      2.00000
     13       1.2884      2.00000
     14       1.2910      2.00000
     15       1.9305      2.00000
     16       2.2144      2.00000
     17       2.8433      2.00000
     18       3.0853      2.00000
     19       5.5170      0.00000
     20       5.6351      0.00000
     21       5.7132      0.00000
     22       5.8614      0.00000

 k-point     3 :       0.2500   -0.0000    0.0000
  band No.  band energies     occupation 
      1     -10.1455      2.00000
      2     -10.1288      2.00000
      3      -9.3531      2.00000
      4      -9.3287      2.00000
      5      -1.8879      2.00000
      6      -1.7770      2.00000
      7      -0.6916      2.00000
      8      -0.6481      2.00000
      9      -0.4613      2.00000
     10      -0.3599      2.00000
     11       0.6530      2.00000
     12       0.6564      2.00000
     13       1.3396      2.00000
     14       1.3432      2.00000
     15       1.7040      2.00000
     16       1.9127      2.00000
     17       2.3697      2.00000
     18       2.4182      2.00000
     19       5.1187      0.00000
     20       5.4384      0.00000
     21       5.4404      0.00000
     22       5.4650      0.00000

 k-point     4 :       0.3750   -0.0000    0.0000
  band No.  band energies     occupation 
      1      -9.4680      2.00000
      2      -9.4561      2.00000
      3      -9.0395      2.00000
      4      -9.0253      2.00000
      5      -2.2854      2.00000
      6      -2.2506      2.00000
      7      -1.2977      2.00000
      8      -1.2547      2.00000
      9      -0.8466      2.00000
     10      -0.7616      2.00000
     11       0.1554      2.00000
     12       0.1594      2.00000
     13       1.3419      2.00000
     14       1.4495      2.00000
     15       1.9277      2.00000
     16       1.9363      2.00000
     17       2.1733      2.00000
     18       2.2241      2.00000
     19       5.2594      0.00000
     20       5.2685      0.00000
     21       5.4543      0.00000
     22       5.6329      0.00000

 k-point     5 :       0.5000   -0.0000    0.0000
  band No.  band energies     occupation 
      1      -9.1370      2.00000
      2      -9.1305      2.00000
      3      -8.8923      2.00000
      4      -8.8858      2.00000
      5      -2.6138      2.00000
      6      -2.5868      2.00000
      7      -1.6529      2.00000
      8      -1.6285      2.00000
      9      -0.9684      2.00000
     10      -0.8925      2.00000
     11      -0.0253      2.00000
     12      -0.0211      2.00000
     13       1.2465      2.00000
     14       1.2660      2.00000
     15       2.1531      2.00000
     16       2.1652      2.00000
     17       2.4770      2.00000
     18       2.4808      2.00000
     19       5.2843      0.00000
     20       5.2881      0.00000
     21       5.7747      0.00000
     22       5.8294      0.00000

 k-point     6 :       0.1250    0.1250    0.0000
  band No.  band energies     occupation 
      1     -10.3218      2.00000
      2     -10.3044      2.00000
      3      -9.4360      2.00000
      4      -9.4093      2.00000
      5      -1.9210      2.00000
      6      -1.7813      2.00000
      7      -0.5137      2.00000
      8      -0.5012      2.00000
      9      -0.0652      2.00000
     10       0.0768      2.00000
     11       0.4638      2.00000
     12       0.4899      2.00000
     13       1.0929      2.00000
     14       1.0947      2.00000
     15       2.0957      2.00000
     16       2.2980      2.00000
     17       2.5520      2.00000
     18       2.6276      2.00000
     19       5.0649      0.00000
     20       5.3458      0.00000
     21       5.5755      0.00000
     22       5.6362      0.00000

 k-point     7 :       0.2500    0.1250    0.0000
  band No.  band energies     occupation 
      1      -9.6865      2.00000
      2      -9.6725      2.00000
      3      -9.1332      2.00000
      4      -9.1150      2.00000
      5      -1.9396      2.00000
      6      -1.8866      2.00000
      7      -0.9512      2.00000
      8      -0.9200      2.00000
      9      -0.7085      2.00000
     10      -0.6350      2.00000
     11      -0.0667      2.00000
     12       0.0079      2.00000
     13       1.1902      2.00000
     14       1.1961      2.00000
     15       1.7871      2.00000
     16       1.8735      2.00000
     17       2.3022      2.00000
     18       2.3120      2.00000
     19       4.9960      0.00000
     20       5.2124      0.00000
     21       5.5321      0.00000
     22       5.6450      0.00000

 k-point     8 :       0.3750    0.1250    0.0000
  band No.  band energies     occupation 
      1      -9.1529      2.00000
      2      -9.1452      2.00000
      3      -8.8843      2.00000
      4      -8.8759      2.00000
      5      -2.3265      2.00000
      6      -2.2996      2.00000
      7      -1.7023      2.00000
      8      -1.6932      2.00000
      9      -0.8380      2.00000
     10      -0.7674      2.00000
     11      -0.0673      2.00000
     12      -0.0249      2.00000
     13       1.1999      2.00000
     14       1.2162      2.00000
     15       1.3283      2.00000
     16       1.3666      2.00000
     17       2.6246      2.00000
     18       2.6429      2.00000
     19       5.2707      0.00000
     20       5.3349      0.00000
     21       5.7860      0.00000
     22       5.9089      0.00000

 k-point     9 :       0.2500    0.2500    0.0000
  band No.  band energies     occupation 
      1      -9.1683      2.00000
      2      -9.1596      2.00000
      3      -8.8761      2.00000
      4      -8.8662      2.00000
      5      -1.9672      2.00000
      6      -1.9387      2.00000
      7      -1.7537      2.00000
      8      -1.7425      2.00000
      9      -0.4881      2.00000
     10      -0.4637      2.00000
     11      -0.1393      2.00000
     12      -0.0510      2.00000
     13       0.2147      2.00000
     14       0.2372      2.00000
     15       1.4762      2.00000
     16       1.4869      2.00000
     17       2.6006      2.00000
     18       2.6103      2.00000
     19       5.1855      0.00000
     20       5.3138      0.00000
     21       5.8584      0.00000
     22       6.1114      0.00000

 k-point    10 :       0.3750    0.2500    0.0000
  band No.  band energies     occupation 
      1      -8.9306      2.00000
      2      -8.9275      2.00000
      3      -8.7535      2.00000
      4      -8.7504      2.00000
      5      -2.1379      2.00000
      6      -2.1272      2.00000
      7      -1.7918      2.00000
      8      -1.7756      2.00000
      9      -0.7781      2.00000
     10      -0.7408      2.00000
     11      -0.1071      2.00000
     12      -0.0861      2.00000
     13       0.1069      2.00000
     14       0.1579      2.00000
     15       1.0756      2.00000
     16       1.1155      2.00000
     17       2.9621      2.00000
     18       2.9833      2.00000
     19       4.9236      0.00000
     20       4.9326      0.00000
     21       6.1512      0.00000
     22       6.3297      0.00000

 k-point    11 :       0.0000    0.0000    0.5000
  band No.  band energies     occupation 
      1     -10.9202      2.00000
      2     -10.9202      2.00000
      3      -9.7120      2.00000
      4      -9.7120      2.00000
      5      -2.4456      2.00000
      6      -2.4456      2.00000
      7       0.5198      2.00000
      8       0.5198      2.00000
      9       0.5198      2.00000
     10       0.5198      2.00000
     11       1.3627      2.00000
     12       1.3628      2.00000
     13       1.6254      2.00000
     14       1.6254      2.00000
     15       1.6255      2.00000
     16       1.6255      2.00000
     17       3.1409      2.00000
     18       3.1410      2.00000
     19       5.8761      0.00000
     20       5.8869      0.00000
     21       5.9823      0.00000
     22       6.0691      0.00000

 k-point    12 :       0.1250   -0.0000    0.5000
  band No.  band energies     occupation 
      1     -10.7060      2.00000
      2     -10.7060      2.00000
      3      -9.6096      2.00000
      4      -9.6096      2.00000
      5      -2.2014      2.00000
      6      -2.2014      2.00000
      7       0.0561      2.00000
      8       0.0561      2.00000
      9       0.5711      2.00000
     10       0.5711      2.00000
     11       0.7543      2.00000
     12       0.7543      2.00000
     13       1.2897      2.00000
     14       1.2897      2.00000
     15       2.0427      2.00000
     16       2.0427      2.00000
     17       2.9903      2.00000
     18       2.9903      2.00000
     19       5.5741      0.00000
     20       5.6194      0.00000
     21       5.7014      0.00000
     22       5.8134      0.00000

 k-point    13 :       0.2500   -0.0000    0.5000
  band No.  band energies     occupation 
      1     -10.1373      2.00000
      2     -10.1373      2.00000
      3      -9.3408      2.00000
      4      -9.3408      2.00000
      5      -1.8342      2.00000
      6      -1.8342      2.00000
      7      -0.6755      2.00000
      8      -0.6755      2.00000
      9      -0.4027      2.00000
     10      -0.4027      2.00000
     11       0.6547      2.00000
     12       0.6547      2.00000
     13       1.3414      2.00000
     14       1.3414      2.00000
     15       1.8005      2.00000
     16       1.8005      2.00000
     17       2.3994      2.00000
     18       2.3994      2.00000
     19       5.2603      0.00000
     20       5.2609      0.00000
     21       5.4459      0.00000
     22       5.4480      0.00000

 k-point    14 :       0.3750   -0.0000    0.5000
  band No.  band energies     occupation 
      1      -9.4621      2.00000
      2      -9.4621      2.00000
      3      -9.0323      2.00000
      4      -9.0323      2.00000
      5      -2.2682      2.00000
      6      -2.2682      2.00000
      7      -1.2781      2.00000
      8      -1.2781      2.00000
      9      -0.8021      2.00000
     10      -0.8021      2.00000
     11       0.1574      2.00000
     12       0.1574      2.00000
     13       1.3936      2.00000
     14       1.3936      2.00000
     15       1.9320      2.00000
     16       1.9320      2.00000
     17       2.2007      2.00000
     18       2.2007      2.00000
     19       5.2639      0.00000
     20       5.2639      0.00000
     21       5.5374      0.00000
     22       5.5375      0.00000

 k-point    15 :       0.5000   -0.0000    0.5000
  band No.  band energies     occupation 
      1      -9.1338      2.00000
      2      -9.1338      2.00000
      3      -8.8890      2.00000
      4      -8.8890      2.00000
      5      -2.6004      2.00000
      6      -2.6004      2.00000
      7      -1.6416      2.00000
      8      -1.6416      2.00000
      9      -0.9295      2.00000
     10      -0.9295      2.00000
     11      -0.0232      2.00000
     12      -0.0232      2.00000
     13       1.2560      2.00000
     14       1.2560      2.00000
     15       2.1591      2.00000
     16       2.1591      2.00000
     17       2.4790      2.00000
     18       2.4790      2.00000
     19       5.2862      0.00000
     20       5.2862      0.00000
     21       5.8017      0.00000
     22       5.8018      0.00000

 k-point    16 :       0.1250    0.1250    0.5000
  band No.  band energies     occupation 
      1     -10.3132      2.00000
      2     -10.3132      2.00000
      3      -9.4225      2.00000
      4      -9.4225      2.00000
      5      -1.8540      2.00000
      6      -1.8540      2.00000
      7      -0.5092      2.00000
      8      -0.5092      2.00000
      9       0.0126      2.00000
     10       0.0126      2.00000
     11       0.4758      2.00000
     12       0.4758      2.00000
     13       1.0938      2.00000
     14       1.0938      2.00000
     15       2.1816      2.00000
     16       2.1816      2.00000
     17       2.6015      2.00000
     18       2.6015      2.00000
     19       5.1822      0.00000
     20       5.1847      0.00000
     21       5.5438      0.00000
     22       5.5913      0.00000

 k-point    17 :       0.2500    0.1250    0.5000
  band No.  band energies     occupation 
      1      -9.6796      2.00000
      2      -9.6796      2.00000
      3      -9.1240      2.00000
      4      -9.1240      2.00000
      5      -1.9134      2.00000
      6      -1.9134      2.00000
      7      -0.9374      2.00000
      8      -0.9374      2.00000
      9      -0.6717      2.00000
     10      -0.6717      2.00000
     11      -0.0267      2.00000
     12      -0.0267      2.00000
     13       1.1930      2.00000
     14       1.1930      2.00000
     15       1.8283      2.00000
     16       1.8283      2.00000
     17       2.3078      2.00000
     18       2.3078      2.00000
     19       5.1026      0.00000
     20       5.1028      0.00000
     21       5.5535      0.00000
     22       5.6607      0.00000

 k-point    18 :       0.3750    0.1250    0.5000
  band No.  band energies     occupation 
      1      -9.1491      2.00000
      2      -9.1491      2.00000
      3      -8.8801      2.00000
      4      -8.8801      2.00000
      5      -2.3131      2.00000
      6      -2.3131      2.00000
      7      -1.6979      2.00000
      8      -1.6979      2.00000
      9      -0.8034      2.00000
     10      -0.8034      2.00000
     11      -0.0447      2.00000
     12      -0.0447      2.00000
     13       1.2073      2.00000
     14       1.2073      2.00000
     15       1.3474      2.00000
     16       1.3474      2.00000
     17       2.6340      2.00000
     18       2.6340      2.00000
     19       5.3031      0.00000
     20       5.3031      0.00000
     21       5.8120      0.00000
     22       5.8121      0.00000

 k-point    19 :       0.2500    0.2500    0.5000
  band No.  band energies     occupation 
      1      -9.1640      2.00000
      2      -9.1640      2.00000
      3      -8.8710      2.00000
      4      -8.8710      2.00000
      5      -1.9532      2.00000
      6      -1.9532      2.00000
      7      -1.7480      2.00000
      8      -1.7480      2.00000
      9      -0.4797      2.00000
     10      -0.4797      2.00000
     11      -0.0909      2.00000
     12      -0.0909      2.00000
     13       0.2261      2.00000
     14       0.2261      2.00000
     15       1.4805      2.00000
     16       1.4805      2.00000
     17       2.6055      2.00000
     18       2.6055      2.00000
     19       5.2495      0.00000
     20       5.2496      0.00000
     21       5.9697      0.00000
     22       6.1660      0.00000

 k-point    20 :       0.3750    0.2500    0.5000
  band No.  band energies     occupation 
      1      -8.9291      2.00000
      2      -8.9291      2.00000
      3      -8.7519      2.00000
      4      -8.7519      2.00000
      5      -2.1326      2.00000
      6      -2.1326      2.00000
      7      -1.7835      2.00000
      8      -1.7835      2.00000
      9      -0.7605      2.00000
     10      -0.7605      2.00000
     11      -0.0993      2.00000
     12      -0.0993      2.00000
     13       0.1372      2.00000
     14       0.1372      2.00000
     15       1.0941      2.00000
     16       1.0941      2.00000
     17       2.9727      2.00000
     18       2.9727      2.00000
     19       4.9282      0.00000
     20       4.9282      0.00000
     21       6.2281      0.00000
     22       6.2324      0.00000


--------------------------------------------------------------------------------------------------------


 soft charge-density along one line, spin component           1
         0         1         2         3         4         5         6         7         8         9
 total charge-density along one line
 
 pseudopotential strength for first ion, spin component:           1
 -8.238  -0.000   0.000   0.000  -0.000  -0.074   0.000  -0.000
 -0.000  -8.238   0.000  -0.000  -0.000   0.000  -0.074  -0.000
  0.000   0.000  -8.217  -0.000  -0.000  -0.000  -0.000  -0.075
  0.000  -0.000  -0.000  -8.238  -0.000  -0.000   0.000   0.000
 -0.000  -0.000  -0.000  -0.000  -8.238   0.000   0.000   0.000
 -0.074   0.000  -0.000  -0.000   0.000   0.112  -0.000   0.000
  0.000  -0.074  -0.000   0.000   0.000  -0.000   0.112   0.000
 -0.000  -0.000  -0.075   0.000   0.000   0.000   0.000   0.112
 -0.000   0.000   0.000  -0.074   0.000   0.000  -0.000  -0.000
  0.000   0.000   0.000   0.000  -0.074  -0.000  -0.000  -0.000
  0.000  -0.000  -0.005   0.000  -0.000  -0.000   0.000   0.000
 -0.000   0.000   0.001  -0.000   0.000   0.000  -0.000  -0.000
 -0.000   0.000  -0.000  -0.000  -0.007   0.000  -0.000   0.000
 -0.000   0.000   0.000  -0.000  -0.000  -0.000  -0.000  -0.000
 -0.007  -0.000   0.000   0.000  -0.000  -0.000  -0.000  -0.000
  0.000  -0.000   0.000   0.000   0.004  -0.000   0.000  -0.000
  0.000  -0.000  -0.000   0.000   0.000  -0.000   0.000   0.000
  0.004   0.000  -0.000  -0.000   0.000   0.000  -0.000   0.000
 total augmentation occupancy for first ion, spin component:           1
  0.965   0.000  -0.000   0.000  -0.000   0.595   0.000  -0.000   0.000  -0.000  -0.000  -0.000   0.000   0.000  -0.065  -0.000
  0.000   0.906   0.000   0.000  -0.000   0.000   0.833  -0.000   0.000   0.000   0.000  -0.000   0.000   0.000  -0.000  -0.000
 -0.000   0.000   1.029   0.000   0.000  -0.000   0.000   0.495   0.000   0.000   0.111  -0.019  -0.000   0.000   0.000  -0.000
  0.000   0.000  -0.000   0.906   0.000  -0.000   0.000   0.000   0.833  -0.000   0.000   0.000   0.000  -0.000  -0.000   0.000
 -0.000   0.000   0.000   0.000   0.965  -0.000  -0.000   0.000  -0.000   0.595   0.000  -0.000  -0.065   0.000  -0.000   0.007
  0.595   0.000  -0.000  -0.000  -0.000   0.670   0.000  -0.000   0.000  -0.000   0.000  -0.000   0.000  -0.000  -0.136  -0.000
 -0.000   0.833   0.000   0.000  -0.000  -0.000   1.069  -0.000   0.000   0.000  -0.000   0.000  -0.000  -0.000   0.000   0.000
 -0.000   0.000   0.495  -0.000   0.000  -0.000   0.000   0.470  -0.000   0.000   0.058  -0.021  -0.000   0.000   0.000   0.000
 -0.000   0.000   0.000   0.833  -0.000   0.000   0.000  -0.000   1.069  -0.000  -0.000   0.000   0.000  -0.000   0.000  -0.000
 -0.000   0.000   0.000   0.000   0.595  -0.000  -0.000   0.000  -0.000   0.670   0.000  -0.000  -0.136  -0.000  -0.000   0.023
 -0.000   0.000   0.111   0.000   0.000   0.000  -0.000   0.058  -0.000   0.000   1.207  -0.185   0.000  -0.000   0.000  -0.000
 -0.000   0.000  -0.019   0.000  -0.000  -0.000   0.000  -0.021  -0.000  -0.000  -0.185   0.042   0.000  -0.000   0.000  -0.000
  0.000  -0.000  -0.000   0.000  -0.065   0.000   0.000  -0.000   0.000  -0.136  -0.000   0.000   0.217  -0.000   0.000  -0.032
 -0.000  -0.000   0.000  -0.000  -0.000   0.000   0.000   0.000   0.000  -0.000  -0.000  -0.000   0.000   0.264  -0.000   0.000
 -0.065  -0.000   0.000  -0.000  -0.000  -0.136   0.000   0.000   0.000  -0.000   0.000  -0.000   0.000  -0.000   0.217  -0.000
 -0.000  -0.000   0.000   0.000   0.007  -0.000  -0.000   0.000   0.000   0.023  -0.000   0.000  -0.032   0.000  -0.000   0.005
 -0.000   0.000  -0.000   0.000   0.000   0.000  -0.000   0.000  -0.000   0.000  -0.000   0.000   0.000  -0.038   0.000  -0.000
  0.007  -0.000  -0.000  -0.000   0.000   0.023   0.000  -0.000  -0.000   0.000   0.000  -0.000  -0.000   0.000  -0.032   0.000


------------------------ aborting loop because EDIFF is reached ----------------------------------------


    CHARGE:  cpu time    0.0750: real time    0.0754
    FORLOC:  cpu time    0.0060: real time    0.0064
    FORNL :  cpu time    0.2460: real time    0.2454
    STRESS:  cpu time    0.6499: real time    0.6508
    FORCOR:  cpu time    0.0640: real time    0.0631
    FORHAR:  cpu time    0.0140: real time    0.0152
    MIXING:  cpu time    0.0030: real time    0.0027
    OFIELD:  cpu time    0.0000: real time    0.0000

  DFT-D2 method for vdW energy calculation
  -------------------------------------------------------------------

  Parameters of vdW forcefield:
         C6(Jnm^6/mol)     R0(A)
   -----------------------------
   Mo      24.670          1.639
   S        5.570          1.683

  IVDW =   1
  VDW_RADIUS =    50.000 A
  VDW_S6 =     0.750
  VDW_SR =     1.000
  VDW_D =    20.000
  LVDW_EWALD = F

  Number of pair interactions contributing to vdW energy:   84128
  Edisp (eV):   -1.33129
    FORVDW:  cpu time    0.0190: real time    0.0241

  FORCE on cell =-STRESS in cart. coord.  units (eV):
  Direction    XX          YY          ZZ          XY          YZ          ZX
  --------------------------------------------------------------------------------------
  Alpha Z    90.42578    90.42578    90.42578
  Ewald     -12.90873   -12.90785 -1121.07429     0.00038     0.00000     0.00025
  Hartree   466.59434   466.59435  -390.20568     0.00003     0.00000    -0.00001
  E(xc)    -140.61610  -140.61610  -141.80795    -0.00001    -0.00000    -0.00000
  Local   -1080.43963 -1080.44018   872.65161    -0.00032    -0.00000    -0.00011
  n-local   254.33832   251.58574   263.36668    -0.51753     0.00008     0.00031
  augment   -51.12688   -51.12685   -53.32878     0.00003    -0.00000    -0.00001
  Kinetic   471.76577   477.35556   479.52368   -14.79876     0.00008    -0.00005
  Fock        0.00000     0.00000     0.00000     0.00000     0.00000     0.00000
  vdW         0.17103     0.17103    -0.86546     0.00000     0.00000    -0.00000
  -------------------------------------------------------------------------------------
  Total      -0.37731    -0.37731    -1.31442     0.00000     0.00000     0.00000
  in kB      -4.60935    -4.60935   -16.05727     0.00000     0.00000     0.00000
  external pressure =       -8.43 kB  Pullay stress =        0.00 kB


 VOLUME and BASIS-vectors are now :
 -----------------------------------------------------------------------------
  energy-cutoff  :      750.00
  volume of cell :      131.15
      direct lattice vectors                 reciprocal lattice vectors
     3.190315730  0.000000000  0.000000000     0.313448600  0.180969634  0.000000000
    -1.595157865  2.762894468  0.000000000     0.000000000  0.361939267  0.000000000
     0.000000000  0.000000000 14.879004300     0.000000000  0.000000000  0.067208798

  length of vectors
     3.190315730  3.190315730 14.879004300     0.361939267  0.361939267  0.067208798


 FORCES acting on ions
    electron-ion (+dipol)            ewald-force                    non-local-force                 convergence-correction
 -----------------------------------------------------------------------------------------------
   0.471E-04 -.344E-04 -.957E-05   0.928E-04 -.107E-03 0.288E-09   -.173E-16 0.694E-17 0.847E-21   0.442E-08 -.583E-08 -.221E-09
   0.662E-04 -.310E-04 -.957E-05   -.928E-04 0.107E-03 -.288E-09   0.121E-16 0.000E+00 -.424E-21   0.458E-08 0.638E-09 -.220E-09
   0.526E-03 -.304E-03 -.242E+03   0.865E-04 -.537E-04 0.247E+03   0.217E-17 -.434E-17 -.479E+01   0.118E-07 -.727E-08 0.603E-02
   -.118E-02 0.679E-03 0.242E+03   -.865E-04 0.537E-04 -.247E+03   0.291E-16 0.434E-17 0.479E+01   -.282E-07 0.168E-07 -.603E-02
   0.524E-03 0.690E-03 -.242E+03   -.638E-05 0.537E-04 0.247E+03   0.108E-16 0.694E-17 -.479E+01   0.109E-07 0.153E-07 0.603E-02
   -.121E-02 -.293E-03 0.242E+03   0.638E-05 -.537E-04 -.247E+03   -.260E-16 -.694E-17 0.479E+01   -.224E-07 -.871E-08 -.603E-02
 -----------------------------------------------------------------------------------------------
   -.122E-02 0.707E-03 -.106E-04   -.561E-14 0.109E-13 0.284E-13   0.108E-16 0.694E-17 0.178E-14   -.189E-07 0.109E-07 -.636E-09
 
 
 POSITION                                       TOTAL-FORCE (eV/Angst)
 -----------------------------------------------------------------------------------
     -0.00000      1.84193      3.71975         0.000000      0.000000      0.000000
      1.59516      0.92096     11.15925        -0.000000      0.000000      0.000000
     -0.00000      1.84193     12.72414        -0.000000      0.000000     -0.085412
      1.59516      0.92096      2.15487        -0.000000     -0.000000      0.085412
      1.59516      0.92096      5.28464         0.000000      0.000000     -0.085412
      0.00000      1.84193      9.59437         0.000000     -0.000000      0.085412
 -----------------------------------------------------------------------------------
    total drift:                               -0.001224      0.000707     -0.000011


--------------------------------------------------------------------------------------------------------



  FREE ENERGIE OF THE ION-ELECTRON SYSTEM (eV)
  ---------------------------------------------------
  free  energy   TOTEN  =       -44.94142705 eV

  energy  without entropy=      -44.94142705  energy(sigma->0) =      -44.94142705
 


--------------------------------------------------------------------------------------------------------


    POTLOK:  cpu time    0.0610: real time    0.0605


--------------------------------------------------------------------------------------------------------


     LOOP+:  cpu time   20.3499: real time   20.6682
    4ORBIT:  cpu time    0.0000: real time    0.0000
 BZINTS: Fermi energy:  3.307193; 36.000000 electrons
         Band energy: -67.737227;  BLOECHL correction:  0.000000

 total amount of memory used by VASP MPI-rank0    71490. kBytes
=======================================================================

   base      :      30000. kBytes
   nonl-proj :      18048. kBytes
   fftplans  :       4775. kBytes
   grid      :       7653. kBytes
   one-center:         46. kBytes
   wavefun   :      10968. kBytes
 
  
  
 General timing and accounting informations for this job:
 ========================================================
  
                  Total CPU time used (sec):       21.520
                            User time (sec):       20.950
                          System time (sec):        0.570
                         Elapsed time (sec):       22.435
  
                   Maximum memory used (kb):       66520.
                   Average memory used (kb):           0.
  
                          Minor page faults:        18635
                          Major page faults:          179
                 Voluntary context switches:         2687
