perl: warning: Setting locale failed.
perl: warning: Please check that your locale settings:
	LANGUAGE = (unset),
	LC_ALL = (unset),
	LC_CTYPE = "UTF-8",
	LANG = "en_US.iso885915"
    are supported and installed on your system.
perl: warning: Falling back to the standard locale ("C").
Starting job 28525019 ("jobname") on c15-25 at Thu Nov 7 21:12:23 CET 2019
 running on    4 total cores
 distrk:  each k-point on    4 cores,    1 groups
 distr:  one band on    2 cores,    2 groups
 using from now: INCAR     
 vasp.5.4.4.18Apr17-6-g9f103f2a35 (build Jun 30 2017 11:15:00) complex          
  
 POSCAR found type information on POSCAR  Mo S 
 POSCAR found :  2 types and       6 ions
 scaLAPACK will be used
 WARNING: PSMAXN for non-local potential too small
 LDA part: xc-table for Pade appr. of Perdew
 POSCAR, INCAR and KPOINTS ok, starting setup
 FFT: planning ...
 WAVECAR not read
 WARNING: random wavefunctions but no delay for mixing, default for NELMDL
 entering main loop
       N       E                     dE             d eps       ncg     rms          rms(c)
DAV:   1     0.260311416676E+03    0.26031E+03   -0.19185E+04   880   0.189E+03
DAV:   2    -0.200565710793E+02   -0.28037E+03   -0.27291E+03  1126   0.316E+02
DAV:   3    -0.460776783874E+02   -0.26021E+02   -0.25884E+02  1220   0.887E+01
DAV:   4    -0.468021866005E+02   -0.72451E+00   -0.72327E+00  1182   0.160E+01
DAV:   5    -0.468244894861E+02   -0.22303E-01   -0.22297E-01  1242   0.277E+00    0.974E+00
RMM:   6    -0.444418785932E+02    0.23826E+01   -0.24289E+01   984   0.197E+01    0.338E+00
RMM:   7    -0.436991228009E+02    0.74276E+00   -0.19579E+00   958   0.568E+00    0.179E+00
RMM:   8    -0.436372949774E+02    0.61828E-01   -0.91536E-01  1005   0.339E+00    0.847E-01
RMM:   9    -0.436259418916E+02    0.11353E-01   -0.29800E-01  1041   0.229E+00    0.573E-01
RMM:  10    -0.436100485531E+02    0.15893E-01   -0.67923E-02  1047   0.113E+00    0.870E-02
RMM:  11    -0.436100042612E+02    0.44292E-04   -0.29732E-03  1111   0.237E-01    0.302E-02
RMM:  12    -0.436101448518E+02   -0.14059E-03   -0.50945E-04  1123   0.116E-01    0.200E-02
RMM:  13    -0.436101512319E+02   -0.63801E-05   -0.29188E-04  1141   0.711E-02    0.173E-02
RMM:  14    -0.436101397633E+02    0.11469E-04   -0.59941E-05   861   0.367E-02    0.238E-03
RMM:  15    -0.436101400301E+02   -0.26683E-06   -0.75093E-06   680   0.133E-02
 Error reading item 'IVDW' from file INCAR
   1 F= -.43610140E+02 E0= -.43610140E+02  d E =0.000000E+00

Currently Loaded Modulefiles:
  1) Anaconda3/5.1.0       3) vesta/3.3.8           5) intel/2016.1
  2) gnuplot/5.0.4         4) imagemagick/6.7.9-0   6) vasp/5.4.1.Feb16

Job script resource usage:
       JobID  MaxVMSize     MaxRSS 
------------ ---------- ---------- 
28525019.ba+    216888K      2312K 

Job step resource usage:
       JobID    JobName  AllocCPUS  MaxVMSize     MaxRSS    Elapsed ExitCode 
------------ ---------- ---------- ---------- ---------- ---------- -------- 
28525019        jobname          4                         00:00:26      0:0 
28525019.0    pmi_proxy          1    279832K       527K   00:00:23      0:0 

Job 28525019 ("jobname") completed on c15-25 at Thu Nov 7 21:12:47 CET 2019
