<?xml version="1.0" encoding="ISO-8859-1"?>
<modeling>
 <generator>
  <i name="program" type="string">vasp </i>
  <i name="version" type="string">5.4.4.18Apr17-6-g9f103f2a35  </i>
  <i name="subversion" type="string">(build Jun 30 2017 11:15:00) complex            parallel </i>
  <i name="platform" type="string">STALLO_VASP_5.4.4 </i>
  <i name="date" type="string">2019 11 08 </i>
  <i name="time" type="string">11:38:06 </i>
 </generator>
 <incar>
  <i type="string" name="PREC">normal    ! low/normal/accurate</i>
  <i type="string" name="ALGO"> Fast      ! Algorithm for electronic re</i>
  <i type="int" name="ISPIN">     1</i>
  <i type="int" name="NELMIN">     4</i>
  <i name="EDIFF">      0.00001000</i>
  <i type="int" name="NSW">     0</i>
  <i name="ENCUT">    750.00000000</i>
  <i type="logical" name="LREAL"> F  </i>
  <i type="int" name="ISMEAR">    -5</i>
  <i name="SIGMA">      0.20000000</i>
  <i type="logical" name="LWAVE"> F  </i>
  <v type="int" name="KPOINT_BSE">    -1     0     0     0</v>
 </incar>
 <structure name="primitive_cell" >
  <crystal>
   <varray name="basis" >
    <v>       3.19031573       0.00000000       0.00000000 </v>
    <v>      -1.59515786       2.76289447       0.00000000 </v>
    <v>       0.00000000       0.00000000      14.87900430 </v>
   </varray>
   <i name="volume">    131.15106795 </i>
   <varray name="rec_basis" >
    <v>       0.31344860       0.18096963       0.00000000 </v>
    <v>       0.00000000       0.36193927       0.00000000 </v>
    <v>       0.00000000       0.00000000       0.06720880 </v>
   </varray>
  </crystal>
  <varray name="positions" >
   <v>       0.33333300      -0.33333300       0.25000000 </v>
   <v>      -0.33333400       0.33333300       0.35517400 </v>
   <v>      -0.33333300       0.33333300       0.14482600 </v>
   <v>       0.33333300      -0.33333300      -0.14482600 </v>
   <v>       0.33333400      -0.33333300      -0.35517400 </v>
   <v>      -0.33333300       0.33333300      -0.25000000 </v>
  </varray>
 </structure>
 <varray name="primitive_index" >
  <v type="int" >        1 </v>
  <v type="int" >        5 </v>
  <v type="int" >        4 </v>
  <v type="int" >        3 </v>
  <v type="int" >        6 </v>
  <v type="int" >        2 </v>
 </varray>
 <kpoints>
  <generation param="Gamma">
   <v type="int" name="divisions">       8        8        2 </v>
   <v name="usershift">      0.00000000       0.00000000       0.00000000 </v>
   <v name="genvec1">      0.12500000       0.00000000       0.00000000 </v>
   <v name="genvec2">      0.00000000       0.12500000       0.00000000 </v>
   <v name="genvec3">      0.00000000       0.00000000       0.50000000 </v>
   <v name="shift">      0.00000000       0.00000000       0.00000000 </v>
  </generation>
  <varray name="kpointlist" >
   <v>       0.00000000       0.00000000       0.00000000 </v>
   <v>       0.12500000      -0.00000000       0.00000000 </v>
   <v>       0.25000000      -0.00000000       0.00000000 </v>
   <v>       0.37500000      -0.00000000       0.00000000 </v>
   <v>       0.50000000      -0.00000000       0.00000000 </v>
   <v>       0.12500000       0.12500000       0.00000000 </v>
   <v>       0.25000000       0.12500000       0.00000000 </v>
   <v>       0.37500000       0.12500000       0.00000000 </v>
   <v>       0.25000000       0.25000000       0.00000000 </v>
   <v>       0.37500000       0.25000000       0.00000000 </v>
   <v>       0.00000000       0.00000000       0.50000000 </v>
   <v>       0.12500000      -0.00000000       0.50000000 </v>
   <v>       0.25000000      -0.00000000       0.50000000 </v>
   <v>       0.37500000      -0.00000000       0.50000000 </v>
   <v>       0.50000000      -0.00000000       0.50000000 </v>
   <v>       0.12500000       0.12500000       0.50000000 </v>
   <v>       0.25000000       0.12500000       0.50000000 </v>
   <v>       0.37500000       0.12500000       0.50000000 </v>
   <v>       0.25000000       0.25000000       0.50000000 </v>
   <v>       0.37500000       0.25000000       0.50000000 </v>
  </varray>
  <varray name="weights" >
   <v>       0.00781250 </v>
   <v>       0.04687500 </v>
   <v>       0.04687500 </v>
   <v>       0.04687500 </v>
   <v>       0.02343750 </v>
   <v>       0.04687500 </v>
   <v>       0.09375000 </v>
   <v>       0.09375000 </v>
   <v>       0.04687500 </v>
   <v>       0.04687500 </v>
   <v>       0.00781250 </v>
   <v>       0.04687500 </v>
   <v>       0.04687500 </v>
   <v>       0.04687500 </v>
   <v>       0.02343750 </v>
   <v>       0.04687500 </v>
   <v>       0.09375000 </v>
   <v>       0.09375000 </v>
   <v>       0.04687500 </v>
   <v>       0.04687500 </v>
  </varray>
  <varray name="tetrahedronlist"  type="int" >
   <v type="int" >        8        2        2        6       12 </v>
   <v type="int" >        8        1        2        2       12 </v>
   <v type="int" >        4        1        2       11       12 </v>
   <v type="int" >        4        2        6       12       16 </v>
   <v type="int" >        8        2       12       12       16 </v>
   <v type="int" >        8        2       11       12       12 </v>
   <v type="int" >        8        3        6        7       16 </v>
   <v type="int" >        8        2        3        6       16 </v>
   <v type="int" >        4        2        3       12       16 </v>
   <v type="int" >        4        3        7       16       17 </v>
   <v type="int" >        8        3       13       16       17 </v>
   <v type="int" >        8        3       12       13       16 </v>
   <v type="int" >        8        4        7        8       17 </v>
   <v type="int" >        8        3        4        7       17 </v>
   <v type="int" >        4        3        4       13       17 </v>
   <v type="int" >        4        4        8       17       18 </v>
   <v type="int" >        8        4       14       17       18 </v>
   <v type="int" >        8        4       13       14       17 </v>
   <v type="int" >        8        5        8        8       18 </v>
   <v type="int" >        8        4        5        8       18 </v>
   <v type="int" >        4        4        5       14       18 </v>
   <v type="int" >        4        5        8       18       18 </v>
   <v type="int" >        4        5       15       18       18 </v>
   <v type="int" >        8        5       14       15       18 </v>
   <v type="int" >        8        4        7        8       18 </v>
   <v type="int" >        4        4        5       15       18 </v>
   <v type="int" >        4        4        7       17       18 </v>
   <v type="int" >        8        4       14       15       18 </v>
   <v type="int" >        8        3        6        7       17 </v>
   <v type="int" >        4        3        4       14       17 </v>
   <v type="int" >        4        3        6       16       17 </v>
   <v type="int" >        8        3       13       14       17 </v>
   <v type="int" >        4        2        2        6       16 </v>
   <v type="int" >        4        2        3       13       16 </v>
   <v type="int" >        4        2        2       12       16 </v>
   <v type="int" >        8        2       12       13       16 </v>
   <v type="int" >        4        1        2       12       12 </v>
   <v type="int" >        4        1       11       12       12 </v>
   <v type="int" >        8        3        6        7       13 </v>
   <v type="int" >        8        2        3        6       13 </v>
   <v type="int" >        4        2        6       12       13 </v>
   <v type="int" >        4        6        7       13       17 </v>
   <v type="int" >        8        6       13       16       17 </v>
   <v type="int" >        8        6       12       13       16 </v>
   <v type="int" >        8        7        7        9       17 </v>
   <v type="int" >        8        6        7        7       17 </v>
   <v type="int" >        4        6        7       16       17 </v>
   <v type="int" >        4        7        9       17       19 </v>
   <v type="int" >        8        7       17       17       19 </v>
   <v type="int" >        8        7       16       17       17 </v>
   <v type="int" >        8        8        9       10       19 </v>
   <v type="int" >        8        7        8        9       19 </v>
   <v type="int" >        4        7        8       17       19 </v>
   <v type="int" >        4        8       10       19       20 </v>
   <v type="int" >        8        8       18       19       20 </v>
   <v type="int" >        8        8       17       18       19 </v>
   <v type="int" >        8        8        9       10       20 </v>
   <v type="int" >        4        8        8       10       20 </v>
   <v type="int" >        4        8        8       18       20 </v>
   <v type="int" >        4        8        9       19       20 </v>
   <v type="int" >        8        8       18       18       20 </v>
   <v type="int" >        4        7        7        9       19 </v>
   <v type="int" >        4        7        8       18       19 </v>
   <v type="int" >        4        7        7       17       19 </v>
   <v type="int" >        8        7       17       18       19 </v>
   <v type="int" >        4        6        7       17       17 </v>
   <v type="int" >        4        3        6       13       17 </v>
   <v type="int" >        4        6       16       17       17 </v>
   <v type="int" >        4        2        6       13       16 </v>
   <v type="int" >        8        4        7        8       14 </v>
   <v type="int" >        8        3        4        7       14 </v>
   <v type="int" >        4        3        7       13       14 </v>
   <v type="int" >        4        7        8       14       18 </v>
   <v type="int" >        8        7       14       17       18 </v>
   <v type="int" >        8        7       13       14       17 </v>
   <v type="int" >        8        8        9       10       18 </v>
   <v type="int" >        8        7        8        9       18 </v>
   <v type="int" >        4        7        9       17       18 </v>
   <v type="int" >        4        9       10       18       20 </v>
   <v type="int" >        8        9       18       19       20 </v>
   <v type="int" >        8        9       17       18       19 </v>
   <v type="int" >        4       10       10       10       20 </v>
   <v type="int" >        8        9       10       10       20 </v>
   <v type="int" >        4        9       10       19       20 </v>
   <v type="int" >        4       10       10       20       20 </v>
   <v type="int" >        4       10       20       20       20 </v>
   <v type="int" >        8       10       19       20       20 </v>
   <v type="int" >        4        9       10       20       20 </v>
   <v type="int" >        4        8        9       18       20 </v>
   <v type="int" >        4        9       19       20       20 </v>
   <v type="int" >        4        7        9       18       19 </v>
   <v type="int" >        4        4        7       14       18 </v>
   <v type="int" >        4        3        7       14       17 </v>
   <v type="int" >        4        5        8        8       15 </v>
   <v type="int" >        8        4        5        8       15 </v>
   <v type="int" >        4        4        8       14       15 </v>
   <v type="int" >        4        8        8       15       18 </v>
   <v type="int" >        8        8       15       18       18 </v>
   <v type="int" >        8        8       14       15       18 </v>
   <v type="int" >        8        8        8       10       18 </v>
   <v type="int" >        4        8       10       18       18 </v>
   <v type="int" >        4        9       10       18       19 </v>
   <v type="int" >        8       10       18       19       20 </v>
   <v type="int" >        4       10       18       18       20 </v>
   <v type="int" >        4        9       10       10       19 </v>
   <v type="int" >        4       10       10       19       20 </v>
   <v type="int" >        4        8       10       18       19 </v>
   <v type="int" >        4        8       10       18       20 </v>
   <v type="int" >        4        5        8       15       18 </v>
   <v type="int" >        4        4        8       15       18 </v>
   <v type="int" >        8        4        5        8       14 </v>
   <v type="int" >        4        5        8       14       15 </v>
   <v type="int" >        4        7        8       14       17 </v>
   <v type="int" >        8        8       14       17       18 </v>
   <v type="int" >        8        7        8        9       17 </v>
   <v type="int" >        4        8        9       17       18 </v>
   <v type="int" >        4        7        9       17       17 </v>
   <v type="int" >        4        9       17       17       19 </v>
   <v type="int" >        4        8        9       17       19 </v>
   <v type="int" >        4        4        8       14       17 </v>
   <v type="int" >        4        5        8       14       18 </v>
   <v type="int" >        8        3        4        7       13 </v>
   <v type="int" >        4        4        7       13       14 </v>
   <v type="int" >        4        6        7       13       16 </v>
   <v type="int" >        8        7       13       16       17 </v>
   <v type="int" >        4        6        7        7       16 </v>
   <v type="int" >        4        7        7       16       17 </v>
   <v type="int" >        4        3        7       13       16 </v>
   <v type="int" >        4        4        7       13       17 </v>
   <v type="int" >        8        2        3        6       12 </v>
   <v type="int" >        4        3        6       12       13 </v>
   <v type="int" >        4        2        6       12       12 </v>
   <v type="int" >        4        6       12       12       16 </v>
   <v type="int" >        4        3        6       12       16 </v>
   <v type="int" >        4        1        2        2       11 </v>
   <v type="int" >        4        2        2       11       12 </v>
  </varray>
  <i name="volumeweight">      0.00130208 </i>
 </kpoints>
 <parameters>
  <separator name="general" >
   <i type="string" name="SYSTEM">unknown system</i>
   <i type="logical" name="LCOMPAT"> F  </i>
  </separator>
  <separator name="electronic" >
   <i type="string" name="PREC">normal</i>
   <i name="ENMAX">    750.00000000</i>
   <i name="ENAUG">    345.27800000</i>
   <i name="EDIFF">      0.00001000</i>
   <i type="int" name="IALGO">    68</i>
   <i type="int" name="IWAVPR">    10</i>
   <i type="int" name="NBANDS">    22</i>
   <i name="NELECT">     36.00000000</i>
   <i type="int" name="TURBO">     0</i>
   <i type="int" name="IRESTART">     0</i>
   <i type="int" name="NREBOOT">     0</i>
   <i type="int" name="NMIN">     0</i>
   <i name="EREF">      0.00000000</i>
   <separator name="electronic smearing" >
    <i type="int" name="ISMEAR">    -5</i>
    <i name="SIGMA">      0.20000000</i>
    <i name="KSPACING">      0.50000000</i>
    <i type="logical" name="KGAMMA"> T  </i>
   </separator>
   <separator name="electronic projectors" >
    <i type="logical" name="LREAL"> F  </i>
    <v name="ROPT">      0.00000000      0.00000000</v>
    <i type="int" name="LMAXPAW">  -100</i>
    <i type="int" name="LMAXMIX">     2</i>
    <i type="logical" name="NLSPLINE"> F  </i>
   </separator>
   <separator name="electronic startup" >
    <i type="int" name="ISTART">     0</i>
    <i type="int" name="ICHARG">     2</i>
    <i type="int" name="INIWAV">     1</i>
   </separator>
   <separator name="electronic spin" >
    <i type="int" name="ISPIN">     1</i>
    <i type="logical" name="LNONCOLLINEAR"> F  </i>
    <v name="MAGMOM">      1.00000000      1.00000000      1.00000000      1.00000000      1.00000000      1.00000000</v>
    <i name="NUPDOWN">     -1.00000000</i>
    <i type="logical" name="LSORBIT"> F  </i>
    <v name="SAXIS">      0.00000000      0.00000000      1.00000000</v>
    <i type="logical" name="LSPIRAL"> F  </i>
    <v name="QSPIRAL">      0.00000000      0.00000000      0.00000000</v>
    <i type="logical" name="LZEROZ"> F  </i>
   </separator>
   <separator name="electronic exchange-correlation" >
    <i type="logical" name="LASPH"> F  </i>
    <i type="logical" name="LMETAGGA"> F  </i>
   </separator>
   <separator name="electronic convergence" >
    <i type="int" name="NELM">    60</i>
    <i type="int" name="NELMDL">     0</i>
    <i type="int" name="NELMIN">     4</i>
    <i name="ENINI">    750.00000000</i>
    <separator name="electronic convergence detail" >
     <i type="logical" name="LDIAG"> T  </i>
     <i type="logical" name="LSUBROT"> F  </i>
     <i name="WEIMIN">      0.00000000</i>
     <i name="EBREAK">      0.00000011</i>
     <i name="DEPER">      0.30000000</i>
     <i type="int" name="NRMM">     4</i>
     <i name="TIME">      0.40000000</i>
    </separator>
   </separator>
   <separator name="electronic mixer" >
    <i name="AMIX">      0.40000000</i>
    <i name="BMIX">      1.00000000</i>
    <i name="AMIN">      0.10000000</i>
    <i name="AMIX_MAG">      1.60000000</i>
    <i name="BMIX_MAG">      1.00000000</i>
    <separator name="electronic mixer details" >
     <i type="int" name="IMIX">     4</i>
     <i type="logical" name="MIXFIRST"> F  </i>
     <i type="int" name="MAXMIX">   -45</i>
     <i name="WC">    100.00000000</i>
     <i type="int" name="INIMIX">     1</i>
     <i type="int" name="MIXPRE">     1</i>
     <i type="int" name="MREMOVE">     5</i>
    </separator>
   </separator>
   <separator name="electronic dipolcorrection" >
    <i type="logical" name="LDIPOL"> F  </i>
    <i type="logical" name="LMONO"> F  </i>
    <i type="int" name="IDIPOL">     0</i>
    <i name="EPSILON">      1.00000000</i>
    <v name="DIPOL">   -100.00000000   -100.00000000   -100.00000000</v>
    <i name="EFIELD">      0.00000000</i>
   </separator>
  </separator>
  <separator name="grids" >
   <i type="int" name="NGX">    24</i>
   <i type="int" name="NGY">    24</i>
   <i type="int" name="NGZ">   100</i>
   <i type="int" name="NGXF">    48</i>
   <i type="int" name="NGYF">    48</i>
   <i type="int" name="NGZF">   200</i>
   <i type="logical" name="ADDGRID"> F  </i>
  </separator>
  <separator name="ionic" >
   <i type="int" name="NSW">     0</i>
   <i type="int" name="IBRION">    -1</i>
   <i type="int" name="MDALGO">     0</i>
   <i type="int" name="ISIF">     2</i>
   <i name="PSTRESS">      0.00000000</i>
   <i name="EDIFFG">      0.00010000</i>
   <i type="int" name="NFREE">     0</i>
   <i name="POTIM">      0.50000000</i>
   <i name="SMASS">     -3.00000000</i>
   <i name="SCALEE">      1.00000000</i>
  </separator>
  <separator name="ionic md" >
   <i name="TEBEG">      0.00010000</i>
   <i name="TEEND">      0.00010000</i>
   <i type="int" name="NBLOCK">     1</i>
   <i type="int" name="KBLOCK">     1</i>
   <i type="int" name="NPACO">   256</i>
   <i name="APACO">     16.00000000</i>
  </separator>
  <separator name="symmetry" >
   <i type="int" name="ISYM">     2</i>
   <i name="SYMPREC">      0.00001000</i>
  </separator>
  <separator name="dos" >
   <i type="int" name="LORBIT">     0</i>
   <v name="RWIGS">     -1.00000000     -1.00000000</v>
   <i type="int" name="NEDOS">   301</i>
   <i name="EMIN">     10.00000000</i>
   <i name="EMAX">    -10.00000000</i>
   <i name="EFERMI">      0.00000000</i>
  </separator>
  <separator name="writing" >
   <i type="int" name="NWRITE">     2</i>
   <i type="logical" name="LWAVE"> F  </i>
   <i type="logical" name="LDOWNSAMPLE"> F  </i>
   <i type="logical" name="LCHARG"> T  </i>
   <i type="logical" name="LPARD"> F  </i>
   <i type="logical" name="LVTOT"> F  </i>
   <i type="logical" name="LVHAR"> F  </i>
   <i type="logical" name="LELF"> F  </i>
   <i type="logical" name="LOPTICS"> F  </i>
   <v name="STM">      0.00000000      0.00000000      0.00000000      0.00000000      0.00000000      0.00000000      0.00000000</v>
  </separator>
  <separator name="performance" >
   <i type="int" name="NPAR">     2</i>
   <i type="int" name="NSIM">     4</i>
   <i type="int" name="NBLK">    -1</i>
   <i type="logical" name="LPLANE"> T  </i>
   <i type="logical" name="LSCALAPACK"> T  </i>
   <i type="logical" name="LSCAAWARE"> F  </i>
   <i type="logical" name="LSCALU"> F  </i>
   <i type="logical" name="LASYNC"> F  </i>
   <i type="logical" name="LORBITALREAL"> F  </i>
  </separator>
  <separator name="miscellaneous" >
   <i type="int" name="IDIOT">     3</i>
   <i type="int" name="ISPECIAL">     0</i>
   <i type="logical" name="LMUSIC"> F  </i>
   <v name="POMASS">     95.94000000     32.06600000</v>
   <v name="DARWINR">      0.00000000      0.00000000</v>
   <v name="DARWINV">      1.00000000      1.00000000</v>
   <i type="logical" name="LCORR"> T  </i>
  </separator>
  <i type="logical" name="GGA_COMPAT"> T  </i>
  <i type="logical" name="LBERRY"> F  </i>
  <i type="int" name="ICORELEVEL">     0</i>
  <i type="logical" name="LDAU"> F  </i>
  <i type="int" name="I_CONSTRAINED_M">     0</i>
  <separator name="electronic exchange-correlation" >
   <i type="string" name="GGA">--</i>
   <i type="int" name="VOSKOWN">     0</i>
   <i type="logical" name="LHFCALC"> F  </i>
   <i type="string" name="PRECFOCK"></i>
   <i type="logical" name="LSYMGRAD"> F  </i>
   <i type="logical" name="LHFONE"> F  </i>
   <i type="logical" name="LRHFCALC"> F  </i>
   <i type="logical" name="LTHOMAS"> F  </i>
   <i type="logical" name="LMODELHF"> F  </i>
   <i name="ENCUT4O">     -1.00000000</i>
   <i type="int" name="EXXOEP">     0</i>
   <i type="int" name="FOURORBIT">     0</i>
   <i name="AEXX">      0.00000000</i>
   <i name="HFALPHA">      0.00000000</i>
   <i name="MCALPHA">      0.00000000</i>
   <i name="ALDAX">      1.00000000</i>
   <i name="AGGAX">      1.00000000</i>
   <i name="ALDAC">      1.00000000</i>
   <i name="AGGAC">      1.00000000</i>
   <i type="int" name="NKREDX">     1</i>
   <i type="int" name="NKREDY">     1</i>
   <i type="int" name="NKREDZ">     1</i>
   <i type="logical" name="SHIFTRED"> F  </i>
   <i type="logical" name="ODDONLY"> F  </i>
   <i type="logical" name="EVENONLY"> F  </i>
   <i type="int" name="LMAXFOCK">     0</i>
   <i type="int" name="NMAXFOCKAE">     0</i>
   <i type="logical" name="LFOCKAEDFT"> F  </i>
   <i name="HFSCREEN">      0.00000000</i>
   <i name="HFSCREENC">      0.00000000</i>
   <i type="int" name="NBANDSGWLOW">     0</i>
  </separator>
  <separator name="vdW DFT" >
   <i type="logical" name="LUSE_VDW"> F  </i>
   <i name="Zab_VDW">     -0.84910000</i>
   <i name="PARAM1">      0.12340000</i>
   <i name="PARAM2">      1.00000000</i>
   <i name="PARAM3">      0.00000000</i>
  </separator>
  <separator name="model GW" >
   <i type="int" name="MODEL_GW">     0</i>
   <i name="MODEL_EPS0">     13.11510680</i>
   <i name="MODEL_ALPHA">      1.00000000</i>
  </separator>
  <separator name="linear response parameters" >
   <i type="logical" name="LEPSILON"> F  </i>
   <i type="logical" name="LRPA"> F  </i>
   <i type="logical" name="LNABLA"> F  </i>
   <i type="logical" name="LVEL"> F  </i>
   <i type="int" name="KINTER">     0</i>
   <i name="CSHIFT">      0.10000000</i>
   <i name="OMEGAMAX">     -1.00000000</i>
   <i name="DEG_THRESHOLD">      0.00200000</i>
   <i name="RTIME">     -0.10000000</i>
   <i name="WPLASMAI">      0.00000000</i>
   <v name="DFIELD">      0.00000000      0.00000000      0.00000000</v>
   <v name="WPLASMA">      0.00000000      0.00000000      0.00000000      0.00000000      0.00000000      0.00000000      0.00000000      0.00000000      0.00000000</v>
  </separator>
  <separator name="orbital magnetization" >
   <i type="logical" name="NUCIND"> F  </i>
   <v name="MAGPOS">      0.00000000      0.00000000      0.00000000</v>
   <i type="logical" name="LNICSALL"> T  </i>
   <i type="logical" name="ORBITALMAG"> F  </i>
   <i type="logical" name="LMAGBLOCH"> F  </i>
   <i type="logical" name="LCHIMAG"> F  </i>
   <i type="logical" name="LGAUGE"> T  </i>
   <i type="int" name="MAGATOM">     0</i>
   <v name="MAGDIPOL">      0.00000000      0.00000000      0.00000000</v>
   <v name="AVECCONST">      0.00000000      0.00000000      0.00000000</v>
  </separator>
  <separator name="response functions" >
   <i type="logical" name="LADDER"> F  </i>
   <i type="logical" name="LRPAFORCE"> F  </i>
   <i type="logical" name="LFXC"> F  </i>
   <i type="logical" name="LHARTREE"> T  </i>
   <i type="int" name="IBSE">     0</i>
   <v type="int" name="KPOINT">    -1     0     0     0</v>
   <i type="logical" name="LTCTE"> F  </i>
   <i type="logical" name="LTETE"> F  </i>
   <i type="logical" name="LTRIPLET"> F  </i>
   <i type="logical" name="LFXCEPS"> F  </i>
   <i type="logical" name="LFXHEG"> F  </i>
   <i type="int" name="NATURALO">     2</i>
   <i type="logical" name="L2ORDER"> F  </i>
   <i type="logical" name="LMP2LT"> F  </i>
   <i type="logical" name="LUSEW"> F  </i>
   <i name="ENCUTGW">     -2.00000000</i>
   <i name="ENCUTGWSOFT">     -2.00000000</i>
   <i name="ENCUTLF">     -1.00000000</i>
   <i type="int" name="LMAXMP2">    -1</i>
   <i name="SCISSOR">      0.00000000</i>
   <i type="int" name="NOMEGA">     0</i>
   <i type="int" name="NOMEGAR">     0</i>
   <i type="int" name="NBANDSGW">    -1</i>
   <i type="int" name="NBANDSO">    -1</i>
   <i type="int" name="NBANDSV">    -1</i>
   <i type="int" name="NELM">     1</i>
   <i type="int" name="NELMHF">     1</i>
   <i type="int" name="DIM">     3</i>
   <i type="int" name="ANTIRES">     0</i>
   <i name="OMEGAMAX">    -30.00000000</i>
   <i name="OMEGAMIN">    -30.00000000</i>
   <i name="OMEGATL">   -200.00000000</i>
   <i type="int" name="OMEGAGRID">   140</i>
   <i name="CSHIFT">     -0.10000000</i>
   <i type="logical" name="SELFENERGY"> F  </i>
   <i type="logical" name="LSPECTRAL"> F  </i>
   <i type="logical" name="LSPECTRALGW"> F  </i>
   <i type="logical" name="LSINGLES"> F  </i>
   <i type="logical" name="LFERMIGW"> F  </i>
   <i type="logical" name="ODDONLYGW"> F  </i>
   <i type="logical" name="EVENONLYGW"> F  </i>
   <i type="int" name="NKREDLFX">     1</i>
   <i type="int" name="NKREDLFY">     1</i>
   <i type="int" name="NKREDLFZ">     1</i>
   <i type="int" name="MAXMEM">  2800</i>
   <i type="int" name="TELESCOPE">     0</i>
   <i type="int" name="TAUPAR">     1</i>
   <i type="int" name="OMEGAPAR">    -1</i>
   <i name="LAMBDA">      1.00000000</i>
  </separator>
  <separator name="External order field" >
   <i name="OFIELD_KAPPA">      0.00000000</i>
   <v name="OFIELD_K">      0.00000000      0.00000000      0.00000000</v>
   <i name="OFIELD_Q6_NEAR">      0.00000000</i>
   <i name="OFIELD_Q6_FAR">      0.00000000</i>
   <i name="OFIELD_A">      0.00000000</i>
  </separator>
 </parameters>
 <atominfo>
  <atoms>       6 </atoms>
  <types>       2 </types>
  <array name="atoms" >
   <dimension dim="1">ion</dimension>
   <field type="string">element</field>
   <field type="int">atomtype</field>
   <set>
    <rc><c>Mo</c><c>   1</c></rc>
    <rc><c>Mo</c><c>   1</c></rc>
    <rc><c>S </c><c>   2</c></rc>
    <rc><c>S </c><c>   2</c></rc>
    <rc><c>S </c><c>   2</c></rc>
    <rc><c>S </c><c>   2</c></rc>
   </set>
  </array>
  <array name="atomtypes" >
   <dimension dim="1">type</dimension>
   <field type="int">atomspertype</field>
   <field type="string">element</field>
   <field>mass</field>
   <field>valence</field>
   <field type="string">pseudopotential</field>
   <set>
    <rc><c>   2</c><c>Mo</c><c>     95.94000000</c><c>      6.00000000</c><c> PAW_PBE Mo 08Apr2002                   </c></rc>
    <rc><c>   4</c><c>S </c><c>     32.06600000</c><c>      6.00000000</c><c>  PAW_PBE S 17Jan2003                   </c></rc>
   </set>
  </array>
 </atominfo>
 <structure name="initialpos" >
  <crystal>
   <varray name="basis" >
    <v>       3.19031573       0.00000000       0.00000000 </v>
    <v>      -1.59515786       2.76289447       0.00000000 </v>
    <v>       0.00000000       0.00000000      14.87900430 </v>
   </varray>
   <i name="volume">    131.15106795 </i>
   <varray name="rec_basis" >
    <v>       0.31344860       0.18096963       0.00000000 </v>
    <v>       0.00000000       0.36193927       0.00000000 </v>
    <v>       0.00000000       0.00000000       0.06720880 </v>
   </varray>
  </crystal>
  <varray name="positions" >
   <v>       0.33333300       0.66666700       0.25000000 </v>
   <v>       0.66666700       0.33333300       0.75000000 </v>
   <v>       0.33333300       0.66666700       0.85517400 </v>
   <v>       0.66666700       0.33333300       0.14482600 </v>
   <v>       0.66666600       0.33333300       0.35517400 </v>
   <v>       0.33333400       0.66666700       0.64482600 </v>
  </varray>
 </structure>
 <calculation>
  <scstep>
   <time name="dav">    0.98    0.99</time>
   <time name="total">    1.06    1.25</time>
   <energy>
    <i name="alphaZ">     90.42577596 </i>
    <i name="ewald">  -1146.88905665 </i>
    <i name="hartreedc">   -535.10238363 </i>
    <i name="XCdc">    -72.59367936 </i>
    <i name="pawpsdc">    813.77302396 </i>
    <i name="pawaedc">   -658.68146406 </i>
    <i name="eentropy">      0.00000000 </i>
    <i name="bandstr">    227.05442008 </i>
    <i name="atom">   1542.32478036 </i>
    <i name="e_fr_energy">    260.31141667 </i>
    <i name="e_wo_entrp">    260.31141667 </i>
    <i name="e_0_energy">    260.31141667 </i>
   </energy>
  </scstep>
  <scstep>
   <time name="dav">    1.17    1.17</time>
   <time name="total">    1.17    1.17</time>
   <energy>
    <i name="e_fr_energy">    -20.05657108 </i>
    <i name="e_wo_entrp">    -20.05657108 </i>
    <i name="e_0_energy">    -20.05657108 </i>
   </energy>
  </scstep>
  <scstep>
   <time name="dav">    1.29    1.29</time>
   <time name="total">    1.29    1.29</time>
   <energy>
    <i name="e_fr_energy">    -46.07767839 </i>
    <i name="e_wo_entrp">    -46.07767839 </i>
    <i name="e_0_energy">    -46.07767839 </i>
   </energy>
  </scstep>
  <scstep>
   <time name="dav">    1.24    1.24</time>
   <time name="total">    1.24    1.24</time>
   <energy>
    <i name="e_fr_energy">    -46.80218660 </i>
    <i name="e_wo_entrp">    -46.80218660 </i>
    <i name="e_0_energy">    -46.80218660 </i>
   </energy>
  </scstep>
  <scstep>
   <time name="dav">    1.29    1.31</time>
   <time name="total">    1.37    1.39</time>
   <energy>
    <i name="e_fr_energy">    -46.82448949 </i>
    <i name="e_wo_entrp">    -46.82448949 </i>
    <i name="e_0_energy">    -46.82448949 </i>
   </energy>
  </scstep>
  <scstep>
   <time name="diag">    0.18    0.18</time>
   <time name="diis">    0.93    0.93</time>
   <time name="orth">    0.01    0.01</time>
   <time name="total">    1.27    1.27</time>
   <energy>
    <i name="e_fr_energy">    -44.44187859 </i>
    <i name="e_wo_entrp">    -44.44187859 </i>
    <i name="e_0_energy">    -44.44187859 </i>
   </energy>
  </scstep>
  <scstep>
   <time name="diag">    0.18    0.18</time>
   <time name="diis">    0.91    0.91</time>
   <time name="orth">    0.01    0.01</time>
   <time name="total">    1.25    1.25</time>
   <energy>
    <i name="e_fr_energy">    -43.69912280 </i>
    <i name="e_wo_entrp">    -43.69912280 </i>
    <i name="e_0_energy">    -43.69912280 </i>
   </energy>
  </scstep>
  <scstep>
   <time name="diag">    0.17    0.17</time>
   <time name="diis">    1.00    1.00</time>
   <time name="orth">    0.01    0.01</time>
   <time name="total">    1.32    1.33</time>
   <energy>
    <i name="e_fr_energy">    -43.63729498 </i>
    <i name="e_wo_entrp">    -43.63729498 </i>
    <i name="e_0_energy">    -43.63729498 </i>
   </energy>
  </scstep>
  <scstep>
   <time name="diag">    0.16    0.16</time>
   <time name="diis">    0.97    0.97</time>
   <time name="orth">    0.01    0.01</time>
   <time name="total">    1.29    1.29</time>
   <energy>
    <i name="e_fr_energy">    -43.62594189 </i>
    <i name="e_wo_entrp">    -43.62594189 </i>
    <i name="e_0_energy">    -43.62594189 </i>
   </energy>
  </scstep>
  <scstep>
   <time name="diag">    0.17    0.17</time>
   <time name="diis">    1.01    1.01</time>
   <time name="orth">    0.01    0.01</time>
   <time name="total">    1.33    1.33</time>
   <energy>
    <i name="e_fr_energy">    -43.61004855 </i>
    <i name="e_wo_entrp">    -43.61004855 </i>
    <i name="e_0_energy">    -43.61004855 </i>
   </energy>
  </scstep>
  <scstep>
   <time name="diag">    0.17    0.17</time>
   <time name="diis">    1.05    1.05</time>
   <time name="orth">    0.01    0.01</time>
   <time name="total">    1.39    1.39</time>
   <energy>
    <i name="e_fr_energy">    -43.61000426 </i>
    <i name="e_wo_entrp">    -43.61000426 </i>
    <i name="e_0_energy">    -43.61000426 </i>
   </energy>
  </scstep>
  <scstep>
   <time name="diag">    0.17    0.18</time>
   <time name="diis">    1.06    1.06</time>
   <time name="orth">    0.01    0.01</time>
   <time name="total">    1.39    1.40</time>
   <energy>
    <i name="e_fr_energy">    -43.61014485 </i>
    <i name="e_wo_entrp">    -43.61014485 </i>
    <i name="e_0_energy">    -43.61014485 </i>
   </energy>
  </scstep>
  <scstep>
   <time name="diag">    0.18    0.18</time>
   <time name="diis">    1.08    1.08</time>
   <time name="orth">    0.01    0.01</time>
   <time name="total">    1.41    1.41</time>
   <energy>
    <i name="e_fr_energy">    -43.61015123 </i>
    <i name="e_wo_entrp">    -43.61015123 </i>
    <i name="e_0_energy">    -43.61015123 </i>
   </energy>
  </scstep>
  <scstep>
   <time name="diag">    0.17    0.18</time>
   <time name="diis">    0.83    0.83</time>
   <time name="orth">    0.01    0.01</time>
   <time name="total">    1.17    1.17</time>
   <energy>
    <i name="e_fr_energy">    -43.61013976 </i>
    <i name="e_wo_entrp">    -43.61013976 </i>
    <i name="e_0_energy">    -43.61013976 </i>
   </energy>
  </scstep>
  <scstep>
   <time name="diag">    0.17    0.18</time>
   <time name="diis">    0.64    0.64</time>
   <time name="orth">    0.01    0.01</time>
   <time name="total">    0.89    0.90</time>
   <energy>
    <i name="alphaZ">     90.42577596 </i>
    <i name="ewald">  -1146.88905665 </i>
    <i name="hartreedc">   -542.96571823 </i>
    <i name="XCdc">    -70.38635751 </i>
    <i name="pawpsdc">    943.59377184 </i>
    <i name="pawaedc">   -791.97610905 </i>
    <i name="eentropy">      0.00000000 </i>
    <i name="bandstr">    -67.73722676 </i>
    <i name="atom">   1542.32478036 </i>
    <i name="e_fr_energy">    -43.61014003 </i>
    <i name="e_wo_entrp">    -43.61014003 </i>
    <i name="e_0_energy">    -43.61014003 </i>
   </energy>
  </scstep>
  <structure>
   <crystal>
    <varray name="basis" >
     <v>       3.19031573       0.00000000       0.00000000 </v>
     <v>      -1.59515786       2.76289447       0.00000000 </v>
     <v>       0.00000000       0.00000000      14.87900430 </v>
    </varray>
    <i name="volume">    131.15106795 </i>
    <varray name="rec_basis" >
     <v>       0.31344860       0.18096963       0.00000000 </v>
     <v>       0.00000000       0.36193927       0.00000000 </v>
     <v>       0.00000000       0.00000000       0.06720880 </v>
    </varray>
   </crystal>
   <varray name="positions" >
    <v>       0.33333300       0.66666700       0.25000000 </v>
    <v>       0.66666700       0.33333300       0.75000000 </v>
    <v>       0.33333300       0.66666700       0.85517400 </v>
    <v>       0.66666700       0.33333300       0.14482600 </v>
    <v>       0.66666600       0.33333300       0.35517400 </v>
    <v>       0.33333400       0.66666700       0.64482600 </v>
   </varray>
  </structure>
  <varray name="forces" >
   <v>       0.00000000       0.00000000       0.00000000 </v>
   <v>      -0.00000000       0.00000000       0.00000000 </v>
   <v>      -0.00000000       0.00000000      -0.08541217 </v>
   <v>      -0.00000000      -0.00000000       0.08541217 </v>
   <v>       0.00000000       0.00000000      -0.08541217 </v>
   <v>       0.00000000      -0.00000000       0.08541217 </v>
  </varray>
  <varray name="stress" >
   <v>      -4.60934848       0.00000000       0.00000000 </v>
   <v>       0.00000000      -4.60934848      -0.00000000 </v>
   <v>       0.00000000       0.00000000     -16.05726981 </v>
  </varray>
  <energy>
   <i name="e_fr_energy">    -44.94142705 </i>
   <i name="e_wo_entrp">    -44.94142705 </i>
   <i name="e_0_energy">      0.00000000 </i>
  </energy>
  <time name="totalsc">   20.35   20.67</time>
  <eigenvalues>
   <array>
    <dimension dim="1">band</dimension>
    <dimension dim="2">kpoint</dimension>
    <dimension dim="3">spin</dimension>
    <field>eigene</field>
    <field>occ</field>
    <set>
     <set comment="spin 1">
      <set comment="kpoint 1">
       <r>  -10.9295    1.0000 </r>
       <r>  -10.9105    1.0000 </r>
       <r>   -9.7291    1.0000 </r>
       <r>   -9.6951    1.0000 </r>
       <r>   -2.5236    1.0000 </r>
       <r>   -2.3621    1.0000 </r>
       <r>    0.5196    1.0000 </r>
       <r>    0.5196    1.0000 </r>
       <r>    0.5201    1.0000 </r>
       <r>    0.5201    1.0000 </r>
       <r>    1.1060    1.0000 </r>
       <r>    1.6245    1.0000 </r>
       <r>    1.6245    1.0000 </r>
       <r>    1.6264    1.0000 </r>
       <r>    1.6264    1.0000 </r>
       <r>    1.6743    1.0000 </r>
       <r>    2.9224    1.0000 </r>
       <r>    3.2982    1.0000 </r>
       <r>    5.8751    0.0000 </r>
       <r>    5.8842    0.0000 </r>
       <r>    6.0124    0.0000 </r>
       <r>    6.0408    0.0000 </r>
      </set>
      <set comment="kpoint 2">
       <r>  -10.7152    1.0000 </r>
       <r>  -10.6966    1.0000 </r>
       <r>   -9.6254    1.0000 </r>
       <r>   -9.5940    1.0000 </r>
       <r>   -2.2777    1.0000 </r>
       <r>   -2.1189    1.0000 </r>
       <r>    0.0551    1.0000 </r>
       <r>    0.0578    1.0000 </r>
       <r>    0.4564    1.0000 </r>
       <r>    0.6725    1.0000 </r>
       <r>    0.7537    1.0000 </r>
       <r>    0.7549    1.0000 </r>
       <r>    1.2884    1.0000 </r>
       <r>    1.2910    1.0000 </r>
       <r>    1.9305    1.0000 </r>
       <r>    2.2144    1.0000 </r>
       <r>    2.8433    1.0000 </r>
       <r>    3.0853    1.0000 </r>
       <r>    5.5170    0.0000 </r>
       <r>    5.6351    0.0000 </r>
       <r>    5.7132    0.0000 </r>
       <r>    5.8614    0.0000 </r>
      </set>
      <set comment="kpoint 3">
       <r>  -10.1455    1.0000 </r>
       <r>  -10.1288    1.0000 </r>
       <r>   -9.3531    1.0000 </r>
       <r>   -9.3287    1.0000 </r>
       <r>   -1.8879    1.0000 </r>
       <r>   -1.7770    1.0000 </r>
       <r>   -0.6916    1.0000 </r>
       <r>   -0.6481    1.0000 </r>
       <r>   -0.4613    1.0000 </r>
       <r>   -0.3599    1.0000 </r>
       <r>    0.6530    1.0000 </r>
       <r>    0.6564    1.0000 </r>
       <r>    1.3396    1.0000 </r>
       <r>    1.3432    1.0000 </r>
       <r>    1.7040    1.0000 </r>
       <r>    1.9127    1.0000 </r>
       <r>    2.3697    1.0000 </r>
       <r>    2.4182    1.0000 </r>
       <r>    5.1187    0.0000 </r>
       <r>    5.4384    0.0000 </r>
       <r>    5.4404    0.0000 </r>
       <r>    5.4650    0.0000 </r>
      </set>
      <set comment="kpoint 4">
       <r>   -9.4680    1.0000 </r>
       <r>   -9.4561    1.0000 </r>
       <r>   -9.0395    1.0000 </r>
       <r>   -9.0253    1.0000 </r>
       <r>   -2.2854    1.0000 </r>
       <r>   -2.2506    1.0000 </r>
       <r>   -1.2977    1.0000 </r>
       <r>   -1.2547    1.0000 </r>
       <r>   -0.8466    1.0000 </r>
       <r>   -0.7616    1.0000 </r>
       <r>    0.1554    1.0000 </r>
       <r>    0.1594    1.0000 </r>
       <r>    1.3419    1.0000 </r>
       <r>    1.4495    1.0000 </r>
       <r>    1.9277    1.0000 </r>
       <r>    1.9363    1.0000 </r>
       <r>    2.1733    1.0000 </r>
       <r>    2.2241    1.0000 </r>
       <r>    5.2594    0.0000 </r>
       <r>    5.2685    0.0000 </r>
       <r>    5.4543    0.0000 </r>
       <r>    5.6329    0.0000 </r>
      </set>
      <set comment="kpoint 5">
       <r>   -9.1370    1.0000 </r>
       <r>   -9.1305    1.0000 </r>
       <r>   -8.8923    1.0000 </r>
       <r>   -8.8858    1.0000 </r>
       <r>   -2.6138    1.0000 </r>
       <r>   -2.5868    1.0000 </r>
       <r>   -1.6529    1.0000 </r>
       <r>   -1.6285    1.0000 </r>
       <r>   -0.9684    1.0000 </r>
       <r>   -0.8925    1.0000 </r>
       <r>   -0.0253    1.0000 </r>
       <r>   -0.0211    1.0000 </r>
       <r>    1.2465    1.0000 </r>
       <r>    1.2660    1.0000 </r>
       <r>    2.1531    1.0000 </r>
       <r>    2.1652    1.0000 </r>
       <r>    2.4770    1.0000 </r>
       <r>    2.4808    1.0000 </r>
       <r>    5.2843    0.0000 </r>
       <r>    5.2881    0.0000 </r>
       <r>    5.7747    0.0000 </r>
       <r>    5.8294    0.0000 </r>
      </set>
      <set comment="kpoint 6">
       <r>  -10.3218    1.0000 </r>
       <r>  -10.3044    1.0000 </r>
       <r>   -9.4360    1.0000 </r>
       <r>   -9.4093    1.0000 </r>
       <r>   -1.9210    1.0000 </r>
       <r>   -1.7813    1.0000 </r>
       <r>   -0.5137    1.0000 </r>
       <r>   -0.5012    1.0000 </r>
       <r>   -0.0652    1.0000 </r>
       <r>    0.0768    1.0000 </r>
       <r>    0.4638    1.0000 </r>
       <r>    0.4899    1.0000 </r>
       <r>    1.0929    1.0000 </r>
       <r>    1.0947    1.0000 </r>
       <r>    2.0957    1.0000 </r>
       <r>    2.2980    1.0000 </r>
       <r>    2.5520    1.0000 </r>
       <r>    2.6276    1.0000 </r>
       <r>    5.0649    0.0000 </r>
       <r>    5.3458    0.0000 </r>
       <r>    5.5755    0.0000 </r>
       <r>    5.6362    0.0000 </r>
      </set>
      <set comment="kpoint 7">
       <r>   -9.6865    1.0000 </r>
       <r>   -9.6725    1.0000 </r>
       <r>   -9.1332    1.0000 </r>
       <r>   -9.1150    1.0000 </r>
       <r>   -1.9396    1.0000 </r>
       <r>   -1.8866    1.0000 </r>
       <r>   -0.9512    1.0000 </r>
       <r>   -0.9200    1.0000 </r>
       <r>   -0.7085    1.0000 </r>
       <r>   -0.6350    1.0000 </r>
       <r>   -0.0667    1.0000 </r>
       <r>    0.0079    1.0000 </r>
       <r>    1.1902    1.0000 </r>
       <r>    1.1961    1.0000 </r>
       <r>    1.7871    1.0000 </r>
       <r>    1.8735    1.0000 </r>
       <r>    2.3022    1.0000 </r>
       <r>    2.3120    1.0000 </r>
       <r>    4.9960    0.0000 </r>
       <r>    5.2124    0.0000 </r>
       <r>    5.5321    0.0000 </r>
       <r>    5.6450    0.0000 </r>
      </set>
      <set comment="kpoint 8">
       <r>   -9.1529    1.0000 </r>
       <r>   -9.1452    1.0000 </r>
       <r>   -8.8843    1.0000 </r>
       <r>   -8.8759    1.0000 </r>
       <r>   -2.3265    1.0000 </r>
       <r>   -2.2996    1.0000 </r>
       <r>   -1.7023    1.0000 </r>
       <r>   -1.6932    1.0000 </r>
       <r>   -0.8380    1.0000 </r>
       <r>   -0.7674    1.0000 </r>
       <r>   -0.0673    1.0000 </r>
       <r>   -0.0249    1.0000 </r>
       <r>    1.1999    1.0000 </r>
       <r>    1.2162    1.0000 </r>
       <r>    1.3283    1.0000 </r>
       <r>    1.3666    1.0000 </r>
       <r>    2.6246    1.0000 </r>
       <r>    2.6429    1.0000 </r>
       <r>    5.2707    0.0000 </r>
       <r>    5.3349    0.0000 </r>
       <r>    5.7860    0.0000 </r>
       <r>    5.9089    0.0000 </r>
      </set>
      <set comment="kpoint 9">
       <r>   -9.1683    1.0000 </r>
       <r>   -9.1596    1.0000 </r>
       <r>   -8.8761    1.0000 </r>
       <r>   -8.8662    1.0000 </r>
       <r>   -1.9672    1.0000 </r>
       <r>   -1.9387    1.0000 </r>
       <r>   -1.7537    1.0000 </r>
       <r>   -1.7425    1.0000 </r>
       <r>   -0.4881    1.0000 </r>
       <r>   -0.4637    1.0000 </r>
       <r>   -0.1393    1.0000 </r>
       <r>   -0.0510    1.0000 </r>
       <r>    0.2147    1.0000 </r>
       <r>    0.2372    1.0000 </r>
       <r>    1.4762    1.0000 </r>
       <r>    1.4869    1.0000 </r>
       <r>    2.6006    1.0000 </r>
       <r>    2.6103    1.0000 </r>
       <r>    5.1855    0.0000 </r>
       <r>    5.3138    0.0000 </r>
       <r>    5.8584    0.0000 </r>
       <r>    6.1114    0.0000 </r>
      </set>
      <set comment="kpoint 10">
       <r>   -8.9306    1.0000 </r>
       <r>   -8.9275    1.0000 </r>
       <r>   -8.7535    1.0000 </r>
       <r>   -8.7504    1.0000 </r>
       <r>   -2.1379    1.0000 </r>
       <r>   -2.1272    1.0000 </r>
       <r>   -1.7918    1.0000 </r>
       <r>   -1.7756    1.0000 </r>
       <r>   -0.7781    1.0000 </r>
       <r>   -0.7408    1.0000 </r>
       <r>   -0.1071    1.0000 </r>
       <r>   -0.0861    1.0000 </r>
       <r>    0.1069    1.0000 </r>
       <r>    0.1579    1.0000 </r>
       <r>    1.0756    1.0000 </r>
       <r>    1.1155    1.0000 </r>
       <r>    2.9621    1.0000 </r>
       <r>    2.9833    1.0000 </r>
       <r>    4.9236    0.0000 </r>
       <r>    4.9326    0.0000 </r>
       <r>    6.1512    0.0000 </r>
       <r>    6.3297    0.0000 </r>
      </set>
      <set comment="kpoint 11">
       <r>  -10.9202    1.0000 </r>
       <r>  -10.9202    1.0000 </r>
       <r>   -9.7120    1.0000 </r>
       <r>   -9.7120    1.0000 </r>
       <r>   -2.4456    1.0000 </r>
       <r>   -2.4456    1.0000 </r>
       <r>    0.5198    1.0000 </r>
       <r>    0.5198    1.0000 </r>
       <r>    0.5198    1.0000 </r>
       <r>    0.5198    1.0000 </r>
       <r>    1.3627    1.0000 </r>
       <r>    1.3628    1.0000 </r>
       <r>    1.6254    1.0000 </r>
       <r>    1.6254    1.0000 </r>
       <r>    1.6255    1.0000 </r>
       <r>    1.6255    1.0000 </r>
       <r>    3.1409    1.0000 </r>
       <r>    3.1410    1.0000 </r>
       <r>    5.8761    0.0000 </r>
       <r>    5.8869    0.0000 </r>
       <r>    5.9823    0.0000 </r>
       <r>    6.0691    0.0000 </r>
      </set>
      <set comment="kpoint 12">
       <r>  -10.7060    1.0000 </r>
       <r>  -10.7060    1.0000 </r>
       <r>   -9.6096    1.0000 </r>
       <r>   -9.6096    1.0000 </r>
       <r>   -2.2014    1.0000 </r>
       <r>   -2.2014    1.0000 </r>
       <r>    0.0561    1.0000 </r>
       <r>    0.0561    1.0000 </r>
       <r>    0.5711    1.0000 </r>
       <r>    0.5711    1.0000 </r>
       <r>    0.7543    1.0000 </r>
       <r>    0.7543    1.0000 </r>
       <r>    1.2897    1.0000 </r>
       <r>    1.2897    1.0000 </r>
       <r>    2.0427    1.0000 </r>
       <r>    2.0427    1.0000 </r>
       <r>    2.9903    1.0000 </r>
       <r>    2.9903    1.0000 </r>
       <r>    5.5741    0.0000 </r>
       <r>    5.6194    0.0000 </r>
       <r>    5.7014    0.0000 </r>
       <r>    5.8134    0.0000 </r>
      </set>
      <set comment="kpoint 13">
       <r>  -10.1373    1.0000 </r>
       <r>  -10.1373    1.0000 </r>
       <r>   -9.3408    1.0000 </r>
       <r>   -9.3408    1.0000 </r>
       <r>   -1.8342    1.0000 </r>
       <r>   -1.8342    1.0000 </r>
       <r>   -0.6755    1.0000 </r>
       <r>   -0.6755    1.0000 </r>
       <r>   -0.4027    1.0000 </r>
       <r>   -0.4027    1.0000 </r>
       <r>    0.6547    1.0000 </r>
       <r>    0.6547    1.0000 </r>
       <r>    1.3414    1.0000 </r>
       <r>    1.3414    1.0000 </r>
       <r>    1.8005    1.0000 </r>
       <r>    1.8005    1.0000 </r>
       <r>    2.3994    1.0000 </r>
       <r>    2.3994    1.0000 </r>
       <r>    5.2603    0.0000 </r>
       <r>    5.2609    0.0000 </r>
       <r>    5.4459    0.0000 </r>
       <r>    5.4480    0.0000 </r>
      </set>
      <set comment="kpoint 14">
       <r>   -9.4621    1.0000 </r>
       <r>   -9.4621    1.0000 </r>
       <r>   -9.0323    1.0000 </r>
       <r>   -9.0323    1.0000 </r>
       <r>   -2.2682    1.0000 </r>
       <r>   -2.2682    1.0000 </r>
       <r>   -1.2781    1.0000 </r>
       <r>   -1.2781    1.0000 </r>
       <r>   -0.8021    1.0000 </r>
       <r>   -0.8021    1.0000 </r>
       <r>    0.1574    1.0000 </r>
       <r>    0.1574    1.0000 </r>
       <r>    1.3936    1.0000 </r>
       <r>    1.3936    1.0000 </r>
       <r>    1.9320    1.0000 </r>
       <r>    1.9320    1.0000 </r>
       <r>    2.2007    1.0000 </r>
       <r>    2.2007    1.0000 </r>
       <r>    5.2639    0.0000 </r>
       <r>    5.2639    0.0000 </r>
       <r>    5.5374    0.0000 </r>
       <r>    5.5375    0.0000 </r>
      </set>
      <set comment="kpoint 15">
       <r>   -9.1338    1.0000 </r>
       <r>   -9.1338    1.0000 </r>
       <r>   -8.8890    1.0000 </r>
       <r>   -8.8890    1.0000 </r>
       <r>   -2.6004    1.0000 </r>
       <r>   -2.6004    1.0000 </r>
       <r>   -1.6416    1.0000 </r>
       <r>   -1.6416    1.0000 </r>
       <r>   -0.9295    1.0000 </r>
       <r>   -0.9295    1.0000 </r>
       <r>   -0.0232    1.0000 </r>
       <r>   -0.0232    1.0000 </r>
       <r>    1.2560    1.0000 </r>
       <r>    1.2560    1.0000 </r>
       <r>    2.1591    1.0000 </r>
       <r>    2.1591    1.0000 </r>
       <r>    2.4790    1.0000 </r>
       <r>    2.4790    1.0000 </r>
       <r>    5.2862    0.0000 </r>
       <r>    5.2862    0.0000 </r>
       <r>    5.8017    0.0000 </r>
       <r>    5.8018    0.0000 </r>
      </set>
      <set comment="kpoint 16">
       <r>  -10.3132    1.0000 </r>
       <r>  -10.3132    1.0000 </r>
       <r>   -9.4225    1.0000 </r>
       <r>   -9.4225    1.0000 </r>
       <r>   -1.8540    1.0000 </r>
       <r>   -1.8540    1.0000 </r>
       <r>   -0.5092    1.0000 </r>
       <r>   -0.5092    1.0000 </r>
       <r>    0.0126    1.0000 </r>
       <r>    0.0126    1.0000 </r>
       <r>    0.4758    1.0000 </r>
       <r>    0.4758    1.0000 </r>
       <r>    1.0938    1.0000 </r>
       <r>    1.0938    1.0000 </r>
       <r>    2.1816    1.0000 </r>
       <r>    2.1816    1.0000 </r>
       <r>    2.6015    1.0000 </r>
       <r>    2.6015    1.0000 </r>
       <r>    5.1822    0.0000 </r>
       <r>    5.1847    0.0000 </r>
       <r>    5.5438    0.0000 </r>
       <r>    5.5913    0.0000 </r>
      </set>
      <set comment="kpoint 17">
       <r>   -9.6796    1.0000 </r>
       <r>   -9.6796    1.0000 </r>
       <r>   -9.1240    1.0000 </r>
       <r>   -9.1240    1.0000 </r>
       <r>   -1.9134    1.0000 </r>
       <r>   -1.9134    1.0000 </r>
       <r>   -0.9374    1.0000 </r>
       <r>   -0.9374    1.0000 </r>
       <r>   -0.6717    1.0000 </r>
       <r>   -0.6717    1.0000 </r>
       <r>   -0.0267    1.0000 </r>
       <r>   -0.0267    1.0000 </r>
       <r>    1.1930    1.0000 </r>
       <r>    1.1930    1.0000 </r>
       <r>    1.8283    1.0000 </r>
       <r>    1.8283    1.0000 </r>
       <r>    2.3078    1.0000 </r>
       <r>    2.3078    1.0000 </r>
       <r>    5.1026    0.0000 </r>
       <r>    5.1028    0.0000 </r>
       <r>    5.5535    0.0000 </r>
       <r>    5.6607    0.0000 </r>
      </set>
      <set comment="kpoint 18">
       <r>   -9.1491    1.0000 </r>
       <r>   -9.1491    1.0000 </r>
       <r>   -8.8801    1.0000 </r>
       <r>   -8.8801    1.0000 </r>
       <r>   -2.3131    1.0000 </r>
       <r>   -2.3131    1.0000 </r>
       <r>   -1.6979    1.0000 </r>
       <r>   -1.6979    1.0000 </r>
       <r>   -0.8034    1.0000 </r>
       <r>   -0.8034    1.0000 </r>
       <r>   -0.0447    1.0000 </r>
       <r>   -0.0447    1.0000 </r>
       <r>    1.2073    1.0000 </r>
       <r>    1.2073    1.0000 </r>
       <r>    1.3474    1.0000 </r>
       <r>    1.3474    1.0000 </r>
       <r>    2.6340    1.0000 </r>
       <r>    2.6340    1.0000 </r>
       <r>    5.3031    0.0000 </r>
       <r>    5.3031    0.0000 </r>
       <r>    5.8120    0.0000 </r>
       <r>    5.8121    0.0000 </r>
      </set>
      <set comment="kpoint 19">
       <r>   -9.1640    1.0000 </r>
       <r>   -9.1640    1.0000 </r>
       <r>   -8.8710    1.0000 </r>
       <r>   -8.8710    1.0000 </r>
       <r>   -1.9532    1.0000 </r>
       <r>   -1.9532    1.0000 </r>
       <r>   -1.7480    1.0000 </r>
       <r>   -1.7480    1.0000 </r>
       <r>   -0.4797    1.0000 </r>
       <r>   -0.4797    1.0000 </r>
       <r>   -0.0909    1.0000 </r>
       <r>   -0.0909    1.0000 </r>
       <r>    0.2261    1.0000 </r>
       <r>    0.2261    1.0000 </r>
       <r>    1.4805    1.0000 </r>
       <r>    1.4805    1.0000 </r>
       <r>    2.6055    1.0000 </r>
       <r>    2.6055    1.0000 </r>
       <r>    5.2495    0.0000 </r>
       <r>    5.2496    0.0000 </r>
       <r>    5.9697    0.0000 </r>
       <r>    6.1660    0.0000 </r>
      </set>
      <set comment="kpoint 20">
       <r>   -8.9291    1.0000 </r>
       <r>   -8.9291    1.0000 </r>
       <r>   -8.7519    1.0000 </r>
       <r>   -8.7519    1.0000 </r>
       <r>   -2.1326    1.0000 </r>
       <r>   -2.1326    1.0000 </r>
       <r>   -1.7835    1.0000 </r>
       <r>   -1.7835    1.0000 </r>
       <r>   -0.7605    1.0000 </r>
       <r>   -0.7605    1.0000 </r>
       <r>   -0.0993    1.0000 </r>
       <r>   -0.0993    1.0000 </r>
       <r>    0.1372    1.0000 </r>
       <r>    0.1372    1.0000 </r>
       <r>    1.0941    1.0000 </r>
       <r>    1.0941    1.0000 </r>
       <r>    2.9727    1.0000 </r>
       <r>    2.9727    1.0000 </r>
       <r>    4.9282    0.0000 </r>
       <r>    4.9282    0.0000 </r>
       <r>    6.2281    0.0000 </r>
       <r>    6.2324    0.0000 </r>
      </set>
     </set>
    </set>
   </array>
  </eigenvalues>
  <separator name="orbital magnetization" >
   <v name="MAGDIPOLOUT">      0.00000000      0.00000000      0.00000000</v>
  </separator>
  <dos>
   <i name="efermi">      3.30719274 </i>
   <total>
    <array>
     <dimension dim="1">gridpoints</dimension>
     <dimension dim="2">spin</dimension>
     <field>energy</field>
     <field>total</field>
     <field>integrated</field>
     <set>
      <set comment="spin 1">
       <r>   -12.9295     0.0000     0.0000 </r>
       <r>   -12.8587     0.0000     0.0000 </r>
       <r>   -12.7878     0.0000     0.0000 </r>
       <r>   -12.7169     0.0000     0.0000 </r>
       <r>   -12.6461     0.0000     0.0000 </r>
       <r>   -12.5752     0.0000     0.0000 </r>
       <r>   -12.5044     0.0000     0.0000 </r>
       <r>   -12.4335     0.0000     0.0000 </r>
       <r>   -12.3626     0.0000     0.0000 </r>
       <r>   -12.2918     0.0000     0.0000 </r>
       <r>   -12.2209     0.0000     0.0000 </r>
       <r>   -12.1500     0.0000     0.0000 </r>
       <r>   -12.0792     0.0000     0.0000 </r>
       <r>   -12.0083     0.0000     0.0000 </r>
       <r>   -11.9374     0.0000     0.0000 </r>
       <r>   -11.8666     0.0000     0.0000 </r>
       <r>   -11.7957     0.0000     0.0000 </r>
       <r>   -11.7248     0.0000     0.0000 </r>
       <r>   -11.6540     0.0000     0.0000 </r>
       <r>   -11.5831     0.0000     0.0000 </r>
       <r>   -11.5123     0.0000     0.0000 </r>
       <r>   -11.4414     0.0000     0.0000 </r>
       <r>   -11.3705     0.0000     0.0000 </r>
       <r>   -11.2997     0.0000     0.0000 </r>
       <r>   -11.2288     0.0000     0.0000 </r>
       <r>   -11.1579     0.0000     0.0000 </r>
       <r>   -11.0871     0.0000     0.0000 </r>
       <r>   -11.0162     0.0000     0.0000 </r>
       <r>   -10.9453     0.0000     0.0000 </r>
       <r>   -10.8745     0.3730     0.0086 </r>
       <r>   -10.8036     0.9525     0.0556 </r>
       <r>   -10.7328     1.5320     0.1436 </r>
       <r>   -10.6619     0.9955     0.2305 </r>
       <r>   -10.5910     1.0611     0.3033 </r>
       <r>   -10.5202     1.1268     0.3809 </r>
       <r>   -10.4493     1.1925     0.4630 </r>
       <r>   -10.3784     1.2582     0.5499 </r>
       <r>   -10.3076     1.3194     0.6413 </r>
       <r>   -10.2367     1.3314     0.7353 </r>
       <r>   -10.1658     1.3433     0.8300 </r>
       <r>   -10.0950     1.3808     0.9262 </r>
       <r>   -10.0241     1.4357     1.0260 </r>
       <r>    -9.9532     1.4906     1.1297 </r>
       <r>    -9.8824     1.5455     1.2373 </r>
       <r>    -9.8115     1.6005     1.3487 </r>
       <r>    -9.7407     1.6554     1.4641 </r>
       <r>    -9.6698     3.3703     1.6182 </r>
       <r>    -9.5989     4.3595     1.9324 </r>
       <r>    -9.5281     4.5973     2.2414 </r>
       <r>    -9.4572     5.0951     2.5846 </r>
       <r>    -9.3863     5.5614     2.9642 </r>
       <r>    -9.3155     5.9863     3.3717 </r>
       <r>    -9.2446     6.5498     3.8159 </r>
       <r>    -9.1737     7.1135     4.3000 </r>
       <r>    -9.1029     8.4795     5.0881 </r>
       <r>    -9.0320     8.3404     5.6836 </r>
       <r>    -8.9611     8.6833     6.2864 </r>
       <r>    -8.8903     9.5360     6.9276 </r>
       <r>    -8.8194     6.2235     7.6211 </r>
       <r>    -8.7486     0.0000     8.0000 </r>
       <r>    -8.6777     0.0000     8.0000 </r>
       <r>    -8.6068     0.0000     8.0000 </r>
       <r>    -8.5360     0.0000     8.0000 </r>
       <r>    -8.4651     0.0000     8.0000 </r>
       <r>    -8.3942     0.0000     8.0000 </r>
       <r>    -8.3234     0.0000     8.0000 </r>
       <r>    -8.2525     0.0000     8.0000 </r>
       <r>    -8.1816     0.0000     8.0000 </r>
       <r>    -8.1108     0.0000     8.0000 </r>
       <r>    -8.0399     0.0000     8.0000 </r>
       <r>    -7.9691     0.0000     8.0000 </r>
       <r>    -7.8982     0.0000     8.0000 </r>
       <r>    -7.8273     0.0000     8.0000 </r>
       <r>    -7.7565     0.0000     8.0000 </r>
       <r>    -7.6856     0.0000     8.0000 </r>
       <r>    -7.6147     0.0000     8.0000 </r>
       <r>    -7.5439     0.0000     8.0000 </r>
       <r>    -7.4730     0.0000     8.0000 </r>
       <r>    -7.4021     0.0000     8.0000 </r>
       <r>    -7.3313     0.0000     8.0000 </r>
       <r>    -7.2604     0.0000     8.0000 </r>
       <r>    -7.1895     0.0000     8.0000 </r>
       <r>    -7.1187     0.0000     8.0000 </r>
       <r>    -7.0478     0.0000     8.0000 </r>
       <r>    -6.9770     0.0000     8.0000 </r>
       <r>    -6.9061     0.0000     8.0000 </r>
       <r>    -6.8352     0.0000     8.0000 </r>
       <r>    -6.7644     0.0000     8.0000 </r>
       <r>    -6.6935     0.0000     8.0000 </r>
       <r>    -6.6226     0.0000     8.0000 </r>
       <r>    -6.5518     0.0000     8.0000 </r>
       <r>    -6.4809     0.0000     8.0000 </r>
       <r>    -6.4100     0.0000     8.0000 </r>
       <r>    -6.3392     0.0000     8.0000 </r>
       <r>    -6.2683     0.0000     8.0000 </r>
       <r>    -6.1975     0.0000     8.0000 </r>
       <r>    -6.1266     0.0000     8.0000 </r>
       <r>    -6.0557     0.0000     8.0000 </r>
       <r>    -5.9849     0.0000     8.0000 </r>
       <r>    -5.9140     0.0000     8.0000 </r>
       <r>    -5.8431     0.0000     8.0000 </r>
       <r>    -5.7723     0.0000     8.0000 </r>
       <r>    -5.7014     0.0000     8.0000 </r>
       <r>    -5.6305     0.0000     8.0000 </r>
       <r>    -5.5597     0.0000     8.0000 </r>
       <r>    -5.4888     0.0000     8.0000 </r>
       <r>    -5.4179     0.0000     8.0000 </r>
       <r>    -5.3471     0.0000     8.0000 </r>
       <r>    -5.2762     0.0000     8.0000 </r>
       <r>    -5.2054     0.0000     8.0000 </r>
       <r>    -5.1345     0.0000     8.0000 </r>
       <r>    -5.0636     0.0000     8.0000 </r>
       <r>    -4.9928     0.0000     8.0000 </r>
       <r>    -4.9219     0.0000     8.0000 </r>
       <r>    -4.8510     0.0000     8.0000 </r>
       <r>    -4.7802     0.0000     8.0000 </r>
       <r>    -4.7093     0.0000     8.0000 </r>
       <r>    -4.6384     0.0000     8.0000 </r>
       <r>    -4.5676     0.0000     8.0000 </r>
       <r>    -4.4967     0.0000     8.0000 </r>
       <r>    -4.4258     0.0000     8.0000 </r>
       <r>    -4.3550     0.0000     8.0000 </r>
       <r>    -4.2841     0.0000     8.0000 </r>
       <r>    -4.2133     0.0000     8.0000 </r>
       <r>    -4.1424     0.0000     8.0000 </r>
       <r>    -4.0715     0.0000     8.0000 </r>
       <r>    -4.0007     0.0000     8.0000 </r>
       <r>    -3.9298     0.0000     8.0000 </r>
       <r>    -3.8589     0.0000     8.0000 </r>
       <r>    -3.7881     0.0000     8.0000 </r>
       <r>    -3.7172     0.0000     8.0000 </r>
       <r>    -3.6463     0.0000     8.0000 </r>
       <r>    -3.5755     0.0000     8.0000 </r>
       <r>    -3.5046     0.0000     8.0000 </r>
       <r>    -3.4338     0.0000     8.0000 </r>
       <r>    -3.3629     0.0000     8.0000 </r>
       <r>    -3.2920     0.0000     8.0000 </r>
       <r>    -3.2212     0.0000     8.0000 </r>
       <r>    -3.1503     0.0000     8.0000 </r>
       <r>    -3.0794     0.0000     8.0000 </r>
       <r>    -3.0086     0.0000     8.0000 </r>
       <r>    -2.9377     0.0000     8.0000 </r>
       <r>    -2.8668     0.0000     8.0000 </r>
       <r>    -2.7960     0.0000     8.0000 </r>
       <r>    -2.7251     0.0000     8.0000 </r>
       <r>    -2.6542     0.0000     8.0000 </r>
       <r>    -2.5834     0.2106     8.0022 </r>
       <r>    -2.5125     1.0922     8.0482 </r>
       <r>    -2.4417     2.1029     8.1603 </r>
       <r>    -2.3708     3.3084     8.3509 </r>
       <r>    -2.2999     5.1877     8.6401 </r>
       <r>    -2.2291     5.5559     9.0188 </r>
       <r>    -2.1582     6.0017     9.4288 </r>
       <r>    -2.0873     7.4818    10.0018 </r>
       <r>    -2.0165     6.3689    10.4925 </r>
       <r>    -1.9456     7.8516    10.9250 </r>
       <r>    -1.8747     7.9034    11.6510 </r>
       <r>    -1.8039     1.8523    11.9769 </r>
       <r>    -1.7330     9.0035    12.5834 </r>
       <r>    -1.6622     4.5089    13.0531 </r>
       <r>    -1.5913     2.6723    13.2685 </r>
       <r>    -1.5204     2.4449    13.4498 </r>
       <r>    -1.4496     2.2176    13.6150 </r>
       <r>    -1.3787     1.9907    13.7641 </r>
       <r>    -1.3078     1.7639    13.8972 </r>
       <r>    -1.2370     1.6707    14.0171 </r>
       <r>    -1.1661     1.6782    14.1357 </r>
       <r>    -1.0952     1.6857    14.2549 </r>
       <r>    -1.0244     1.6933    14.3746 </r>
       <r>    -0.9535     1.8000    14.4954 </r>
       <r>    -0.8826     5.4148    14.7324 </r>
       <r>    -0.8118    10.9128    15.3012 </r>
       <r>    -0.7409    12.0814    16.1912 </r>
       <r>    -0.6701     9.8409    16.8952 </r>
       <r>    -0.5992     8.0606    17.5558 </r>
       <r>    -0.5283     4.8550    18.0135 </r>
       <r>    -0.4575     2.6252    18.2587 </r>
       <r>    -0.3866     2.3639    18.4349 </r>
       <r>    -0.3157     2.1946    18.5962 </r>
       <r>    -0.2449     2.0346    18.7461 </r>
       <r>    -0.1740     1.8748    18.8846 </r>
       <r>    -0.1031    15.5613    19.1460 </r>
       <r>    -0.0323    21.0178    20.5531 </r>
       <r>     0.0386     7.4831    21.3215 </r>
       <r>     0.1095     6.2736    21.7728 </r>
       <r>     0.1803     5.7924    22.2552 </r>
       <r>     0.2512     3.7775    22.5733 </r>
       <r>     0.3220     3.5915    22.8344 </r>
       <r>     0.3929     3.4054    23.0823 </r>
       <r>     0.4638     3.4791    23.3180 </r>
       <r>     0.5346     5.1720    23.6229 </r>
       <r>     0.6055     5.0355    23.9880 </r>
       <r>     0.6764     4.1760    24.3327 </r>
       <r>     0.7472     2.6558    24.5747 </r>
       <r>     0.8181     1.7913    24.7087 </r>
       <r>     0.8890     1.7483    24.8341 </r>
       <r>     0.9598     1.7121    24.9566 </r>
       <r>     1.0307     1.6825    25.0769 </r>
       <r>     1.1015     4.5921    25.2497 </r>
       <r>     1.1724    10.8467    25.7738 </r>
       <r>     1.2433    17.9318    26.8512 </r>
       <r>     1.3141    13.4343    28.0025 </r>
       <r>     1.3850     4.9406    28.6333 </r>
       <r>     1.4559     3.1414    28.8990 </r>
       <r>     1.5267     2.9515    29.1125 </r>
       <r>     1.5976     2.8726    29.3188 </r>
       <r>     1.6685     3.0229    29.5244 </r>
       <r>     1.7393     3.6523    29.7539 </r>
       <r>     1.8102     6.5646    30.0973 </r>
       <r>     1.8811     8.5551    30.6562 </r>
       <r>     1.9519     4.8918    31.1346 </r>
       <r>     2.0228     4.4051    31.4688 </r>
       <r>     2.0936     3.1022    31.7398 </r>
       <r>     2.1645     1.6130    31.9030 </r>
       <r>     2.2354     2.5949    32.0273 </r>
       <r>     2.3062     7.0356    32.3285 </r>
       <r>     2.3771     7.8251    32.9118 </r>
       <r>     2.4480     7.1971    33.4411 </r>
       <r>     2.5188     6.6530    33.9328 </r>
       <r>     2.5897     6.1398    34.3843 </r>
       <r>     2.6606     4.3044    34.7666 </r>
       <r>     2.7314     3.7806    35.0531 </r>
       <r>     2.8023     3.2562    35.3024 </r>
       <r>     2.8732     2.9778    35.5187 </r>
       <r>     2.9440     2.4136    35.7140 </r>
       <r>     3.0149     0.9685    35.8830 </r>
       <r>     3.0857     0.8310    35.9479 </r>
       <r>     3.1566     0.3115    35.9853 </r>
       <r>     3.2275     0.0777    35.9982 </r>
       <r>     3.2983     0.0000    36.0000 </r>
       <r>     3.3692     0.0000    36.0000 </r>
       <r>     3.4401     0.0000    36.0000 </r>
       <r>     3.5109     0.0000    36.0000 </r>
       <r>     3.5818     0.0000    36.0000 </r>
       <r>     3.6527     0.0000    36.0000 </r>
       <r>     3.7235     0.0000    36.0000 </r>
       <r>     3.7944     0.0000    36.0000 </r>
       <r>     3.8652     0.0000    36.0000 </r>
       <r>     3.9361     0.0000    36.0000 </r>
       <r>     4.0070     0.0000    36.0000 </r>
       <r>     4.0778     0.0000    36.0000 </r>
       <r>     4.1487     0.0000    36.0000 </r>
       <r>     4.2196     0.0000    36.0000 </r>
       <r>     4.2904     0.0000    36.0000 </r>
       <r>     4.3613     0.0000    36.0000 </r>
       <r>     4.4322     0.0000    36.0000 </r>
       <r>     4.5030     0.0000    36.0000 </r>
       <r>     4.5739     0.0000    36.0000 </r>
       <r>     4.6448     0.0000    36.0000 </r>
       <r>     4.7156     0.0000    36.0000 </r>
       <r>     4.7865     0.0000    36.0000 </r>
       <r>     4.8573     0.0000    36.0000 </r>
       <r>     4.9282     7.4597    36.0325 </r>
       <r>     4.9991     1.6650    36.1603 </r>
       <r>     5.0699     5.1321    36.3944 </r>
       <r>     5.1408     8.7637    36.8863 </r>
       <r>     5.2117    12.8399    37.6550 </r>
       <r>     5.2825    26.5215    38.7825 </r>
       <r>     5.3534     2.2566    39.4530 </r>
       <r>     5.4243     1.6324    39.5875 </r>
       <r>     5.4951     7.8077    39.8822 </r>
       <r>     5.5660     9.0263    40.6272 </r>
       <r>     5.6368    10.3106    41.2753 </r>
       <r>     5.7077     7.1972    41.8791 </r>
       <r>     5.7786     7.0667    42.3612 </r>
       <r>     5.8494     5.4843    42.8947 </r>
       <r>     5.9203     3.3468    43.2002 </r>
       <r>     5.9912     2.6381    43.4120 </r>
       <r>     6.0620     2.1154    43.5790 </r>
       <r>     6.1329     1.8857    43.7201 </r>
       <r>     6.2038     1.8327    43.8616 </r>
       <r>     6.2746     1.0023    43.9640 </r>
       <r>     6.3455     0.0000    44.0000 </r>
       <r>     6.4164     0.0000    44.0000 </r>
       <r>     6.4872     0.0000    44.0000 </r>
       <r>     6.5581     0.0000    44.0000 </r>
       <r>     6.6289     0.0000    44.0000 </r>
       <r>     6.6998     0.0000    44.0000 </r>
       <r>     6.7707     0.0000    44.0000 </r>
       <r>     6.8415     0.0000    44.0000 </r>
       <r>     6.9124     0.0000    44.0000 </r>
       <r>     6.9833     0.0000    44.0000 </r>
       <r>     7.0541     0.0000    44.0000 </r>
       <r>     7.1250     0.0000    44.0000 </r>
       <r>     7.1959     0.0000    44.0000 </r>
       <r>     7.2667     0.0000    44.0000 </r>
       <r>     7.3376     0.0000    44.0000 </r>
       <r>     7.4085     0.0000    44.0000 </r>
       <r>     7.4793     0.0000    44.0000 </r>
       <r>     7.5502     0.0000    44.0000 </r>
       <r>     7.6210     0.0000    44.0000 </r>
       <r>     7.6919     0.0000    44.0000 </r>
       <r>     7.7628     0.0000    44.0000 </r>
       <r>     7.8336     0.0000    44.0000 </r>
       <r>     7.9045     0.0000    44.0000 </r>
       <r>     7.9754     0.0000    44.0000 </r>
       <r>     8.0462     0.0000    44.0000 </r>
       <r>     8.1171     0.0000    44.0000 </r>
       <r>     8.1880     0.0000    44.0000 </r>
       <r>     8.2588     0.0000    44.0000 </r>
       <r>     8.3297     0.0000    44.0000 </r>
      </set>
     </set>
    </array>
   </total>
  </dos>
 </calculation>
 <structure name="finalpos" >
  <crystal>
   <varray name="basis" >
    <v>       3.19031573       0.00000000       0.00000000 </v>
    <v>      -1.59515786       2.76289447       0.00000000 </v>
    <v>       0.00000000       0.00000000      14.87900430 </v>
   </varray>
   <i name="volume">    131.15106795 </i>
   <varray name="rec_basis" >
    <v>       0.31344860       0.18096963       0.00000000 </v>
    <v>       0.00000000       0.36193927       0.00000000 </v>
    <v>       0.00000000       0.00000000       0.06720880 </v>
   </varray>
  </crystal>
  <varray name="positions" >
   <v>       0.33333300       0.66666700       0.25000000 </v>
   <v>       0.66666700       0.33333300       0.75000000 </v>
   <v>       0.33333300       0.66666700       0.85517400 </v>
   <v>       0.66666700       0.33333300       0.14482600 </v>
   <v>       0.66666600       0.33333300       0.35517400 </v>
   <v>       0.33333400       0.66666700       0.64482600 </v>
  </varray>
 </structure>
</modeling>
