unknown system                          
   1.00000000000000     
     3.190316    0.000000    0.000000
    -1.595158    2.762894    0.000000
     0.000000    0.000000   14.879004
   Mo   S 
     2     4
Direct
  0.333333  0.666667  0.250000
  0.666667  0.333333  0.750000
  0.333333  0.666667  0.855174
  0.666667  0.333333  0.144826
  0.666666  0.333333  0.355174
  0.333334  0.666667  0.644826
 
   28   28  128
 0.39892     0.40413     0.41967     0.44516     0.47985     0.52272     0.57264     0.62821     0.68721     0.74632    
 0.80153     0.84893     0.88524     0.90805     0.91582     0.90802     0.88518     0.84885     0.80144     0.74622    
 0.68712     0.62813     0.57257     0.52266     0.47980     0.44513     0.41965     0.40412     0.40415     0.40414    
 0.41451     0.43508     0.46537     0.50449     0.55121     0.60405     0.66128     0.72058     0.77865     0.83139    
 0.87462     0.90498     0.92032     0.91968     0.90336     0.87287     0.83058     0.77927     0.72205     0.66253    
 0.60445     0.55094     0.50407     0.46510     0.43499     0.41451     0.41967     0.41453     0.41967     0.43500    
 0.46032     0.49524     0.53884     0.58954     0.64536     0.70411     0.76327     0.81951     0.86883     0.90718    
 0.93134     0.93928     0.93043     0.90578     0.86773     0.81944     0.76420     0.70521     0.64578     0.58920    
 0.53828     0.49492     0.46027     0.43502     0.44506     0.43497     0.43505     0.44511     0.46497     0.49472    
 0.53410     0.58205     0.63667     0.69557     0.75589     0.81448     0.86794     0.91269     0.94516     0.96235    
 0.96258     0.94576     0.91336     0.86821     0.81416     0.75523     0.69487     0.63604     0.58158     0.53402    
 0.49499     0.46520     0.47980     0.46498     0.46027     0.46537     0.47982     0.50385     0.53778     0.58116    
 0.63278     0.69089     0.75269     0.81426     0.87159     0.92142     0.96065     0.98600     0.99502     0.98701    
 0.96253     0.92304     0.87152     0.81264     0.75109     0.69024     0.63272     0.58131     0.53825     0.50437    
 0.52314     0.50400     0.49473     0.49525     0.50465     0.52293     0.55096     0.58874     0.63520     0.68945    
 0.75023     0.81401     0.87559     0.93066     0.97625      1.0091      1.0261      1.0258      1.0093     0.97738    
 0.93130     0.87459     0.81276     0.75040     0.69038     0.63550     0.58873     0.55138     0.57363     0.55118    
 0.53776     0.53401     0.53883     0.55143     0.57314     0.60501     0.64584     0.69421     0.75014     0.81236    
 0.87607     0.93559     0.98728      1.0280      1.0536      1.0611      1.0515      1.0267     0.98740     0.93540    
 0.87548     0.81324     0.75215     0.69481     0.64475     0.60448     0.62914     0.60496     0.58848     0.58093    
 0.58182     0.58927     0.60400     0.62868     0.66346     0.70593     0.75530     0.81215     0.87392     0.93478    
 0.99012      1.0372      1.0718      1.0890      1.0873      1.0692      1.0367     0.99060     0.93439     0.87406    
 0.81399     0.75631     0.70420     0.66155     0.68712     0.66290     0.64527     0.63497     0.63276     0.63645    
 0.64478     0.66072     0.68716     0.72276     0.76522     0.81493     0.87155     0.93042     0.98597      1.0355    
  1.0764      1.1031      1.1112      1.1014      1.0764      1.0374     0.98634     0.92909     0.87152     0.81596    
 0.76417     0.72029     0.74486     0.72188     0.70540     0.69422     0.68983     0.69127     0.69558     0.70358    
 0.71969     0.74559     0.77929     0.82017     0.86915     0.92353     0.97714      1.0260      1.0687      1.1015    
  1.1186      1.1179      1.1017      1.0715      1.0280     0.97555     0.92134     0.86950     0.82080     0.77788    
 0.79944     0.77859     0.76521     0.75576     0.75065     0.75069     0.75320     0.75634     0.76325     0.77796    
 0.80049     0.82992     0.86775     0.91397     0.96343      1.0102      1.0520      1.0871      1.1102      1.1172    
  1.1092      1.0883      1.0546      1.0098     0.96053     0.91329     0.86975     0.83061     0.84745     0.82988    
 0.82083     0.81574     0.81248     0.81211     0.81376     0.81459     0.81530     0.82018     0.83135     0.84819    
 0.87193     0.90511     0.94577     0.98780      1.0270      1.0618      1.0885      1.1016      1.1000      1.0866    
  1.0625      1.0277     0.98594     0.94443     0.90718     0.87430     0.88518     0.87261     0.86874     0.86987    
 0.87155     0.87317     0.87500     0.87484     0.87159     0.86865     0.86981     0.87530     0.88521     0.90268    
 0.92947     0.96191     0.99498      1.0265      1.0540      1.0720      1.0764      1.0689      1.0525      1.0275    
 0.99502     0.96073     0.93040     0.90525     0.90933     0.90366     0.90583     0.91403     0.92304     0.92982    
 0.93429     0.93510     0.93005     0.92093     0.91275     0.90790     0.90596     0.90869     0.91964     0.93858    
 0.96131     0.98509      1.0089      1.0287      1.0386      1.0369      1.0267      1.0100     0.98697     0.96098    
 0.93797     0.92096     0.91765     0.92034     0.92952     0.94508     0.96248     0.97675     0.98654     0.99116    
 0.98785     0.97585     0.95969     0.94447     0.93139     0.92101     0.91673     0.92095     0.93130     0.94437    
 0.95960     0.97579     0.98780     0.99113     0.98651     0.97673     0.96247     0.94509     0.92954     0.92035    
 0.90936     0.92097     0.93797     0.96098     0.98699      1.0100      1.0267      1.0370      1.0386      1.0287    
  1.0090     0.98520     0.96142     0.93868     0.91970     0.90869     0.90591     0.90782     0.91266     0.92086    
 0.93000     0.93508     0.93428     0.92982     0.92306     0.91407     0.90587     0.90370     0.88524     0.90529    
 0.93043     0.96076     0.99506      1.0276      1.0526      1.0690      1.0765      1.0721      1.0541      1.0266    
 0.99510     0.96203     0.92956     0.90274     0.88521     0.87525     0.86975     0.86859     0.87155     0.87482    
 0.87501     0.87319     0.87159     0.86992     0.86880     0.87267     0.84752     0.87437     0.90723     0.94447    
 0.98598      1.0278      1.0626      1.0866      1.1001      1.1016      1.0885      1.0619      1.0271     0.98791    
 0.94587     0.90519     0.87198     0.84819     0.83132     0.82013     0.81525     0.81456     0.81376     0.81213    
 0.81252     0.81581     0.82091     0.82996     0.79954     0.83069     0.86983     0.91336     0.96059      1.0098    
  1.0546      1.0883      1.1093      1.1173      1.1103      1.0871      1.0521      1.0103     0.96352     0.91406    
 0.86781     0.82995     0.80049     0.77793     0.76322     0.75632     0.75320     0.75071     0.75070     0.75582    
 0.76529     0.77868     0.74496     0.77798     0.82090     0.86959     0.92142     0.97562      1.0281      1.0716    
  1.1018      1.1180      1.1187      1.1016      1.0688      1.0261     0.97721     0.92360     0.86921     0.82022    
 0.77932     0.74559     0.71967     0.70356     0.69557     0.69128     0.68986     0.69427     0.70547     0.72197    
 0.68721     0.72040     0.76428     0.81606     0.87162     0.92917     0.98642      1.0375      1.0765      1.1014    
  1.1113      1.1032      1.0765      1.0356     0.98602     0.93047     0.87159     0.81497     0.76525     0.72278    
 0.68716     0.66071     0.64478     0.63645     0.63278     0.63501     0.64533     0.66298     0.62923     0.66165    
 0.70430     0.75642     0.81410     0.87416     0.93448     0.99068      1.0367      1.0692      1.0873      1.0891    
  1.0719      1.0372     0.99015     0.93480     0.87394     0.81217     0.75533     0.70595     0.66346     0.62868    
 0.60400     0.58928     0.58184     0.58097     0.58853     0.60503     0.57370     0.60456     0.64484     0.69491    
 0.75226     0.81335     0.87559     0.93549     0.98748      1.0267      1.0516      1.0612      1.0536      1.0281    
 0.98731     0.93560     0.87606     0.81236     0.75015     0.69422     0.64584     0.60501     0.57314     0.55144    
 0.53884     0.53404     0.53780     0.55124     0.52319     0.55145     0.58881     0.63560     0.69048     0.75052    
 0.81288     0.87470     0.93138     0.97745      1.0094      1.0259      1.0261      1.0092     0.97627     0.93065    
 0.87556     0.81399     0.75021     0.68944     0.63519     0.58874     0.55096     0.52293     0.50466     0.49527    
 0.49476     0.50405     0.47985     0.50443     0.53832     0.58140     0.63282     0.69034     0.75120     0.81275    
 0.87162     0.92312     0.96259     0.98705     0.99506     0.98602     0.96065     0.92140     0.87155     0.81422    
 0.75265     0.69085     0.63276     0.58114     0.53777     0.50384     0.47982     0.46538     0.46029     0.46501    
 0.44509     0.46525     0.49505     0.53410     0.58167     0.63614     0.69498     0.75534     0.81426     0.86830    
 0.91343     0.94581     0.96260     0.96236     0.94515     0.91266     0.86788     0.81441     0.75582     0.69551    
 0.63663     0.58201     0.53408     0.49471     0.46497     0.44511     0.43506     0.43499     0.41969     0.43505    
 0.46032     0.49498     0.53835     0.58929     0.64588     0.70531     0.76430     0.81954     0.86781     0.90583    
 0.93046     0.93928     0.93132     0.90714     0.86876     0.81943     0.76318     0.70404     0.64529     0.58949    
 0.53880     0.49521     0.46030     0.43499     0.41967     0.41454     0.40416     0.41453     0.43502     0.46515    
 0.50412     0.55101     0.60453     0.66263     0.72216     0.77937     0.83066     0.87293     0.90340     0.91969    
 0.92030     0.90494     0.87456     0.83131     0.77856     0.72049     0.66120     0.60398     0.55115     0.50445    
 0.46534     0.43506     0.41450     0.40414     0.41482     0.42032     0.43681     0.46407     0.50149     0.54818    
 0.60300     0.66439     0.72987     0.79576     0.85761     0.91099     0.95208     0.97796     0.98677     0.97790    
 0.95202     0.91099     0.85764     0.79574     0.72977     0.66425     0.60287     0.54810     0.50145     0.46404    
 0.43680     0.42032     0.42035     0.42034     0.43221     0.45599     0.49146     0.53794     0.59428     0.65879    
 0.72925     0.80258     0.87460     0.94021     0.99425      1.0324      1.0519      1.0512      1.0308     0.99249    
 0.93943     0.87526     0.80407     0.73048     0.65916     0.59400     0.53752     0.49119     0.45590     0.43221    
 0.43682     0.43047     0.43682     0.45591     0.48787     0.53264     0.58947     0.65665     0.73164     0.81132    
 0.89185     0.96843      1.0356      1.0878      1.1209      1.1319      1.1200      1.0864      1.0344     0.96829    
 0.89272     0.81241     0.73210     0.65635     0.58893     0.53233     0.48782     0.45593     0.46397     0.45043    
 0.45052     0.46402     0.49107     0.53214     0.58727     0.65536     0.73402     0.81984     0.90847     0.99488    
  1.0737      1.1394      1.1868      1.2119      1.2121      1.1875      1.1400      1.0739     0.99447     0.90778    
 0.81919     0.73346     0.65492     0.58719     0.53240     0.49130     0.50145     0.47979     0.47287     0.48020    
 0.50147     0.53731     0.58846     0.65453     0.73389     0.82381     0.91993      1.0162      1.1063      1.1845    
  1.2457      1.2850      1.2987      1.2860      1.2477      1.1862      1.1062      1.0146     0.91835     0.82320    
 0.73383     0.65464     0.58891     0.53785     0.54860     0.51805     0.50322     0.50376     0.51871     0.54835    
 0.59402     0.65591     0.73265     0.82244     0.92246      1.0270      1.1282      1.2190      1.2939      1.3475    
  1.3752      1.3749      1.3477      1.2951      1.2197      1.1272      1.0258     0.92265     0.82335     0.73288    
 0.65585     0.59447     0.60399     0.56443     0.54094     0.53392     0.54206     0.56466     0.60341     0.65970    
 0.73215     0.81856     0.91746      1.0254      1.1347      1.2368      1.3250      1.3938      1.4369      1.4504    
  1.4347      1.3924      1.3252      1.2366      1.1341      1.0263     0.91947     0.81912     0.73101     0.65920    
 0.66532     0.61744     0.58530     0.57006     0.57101     0.58616     0.61642     0.66477     0.73136     0.81309    
 0.90785      1.0141      1.1266      1.2360      1.3346      1.4169      1.4763      1.5062      1.5044      1.4735    
  1.4164      1.3352      1.2356      1.1267      1.0160     0.90892     0.81134     0.72944     0.72977     0.67471    
 0.63501     0.61155     0.60504     0.61314     0.63455     0.67246     0.72982     0.80474     0.89369     0.99519    
  1.1063      1.2188      1.3237      1.4152      1.4880      1.5346      1.5494      1.5328      1.4880      1.4171    
  1.3241      1.2174      1.1062     0.99638     0.89270     0.80221     0.79430     0.73318     0.68775     0.65717    
 0.64315     0.64467     0.65861     0.68586     0.73095     0.79514     0.87528     0.96897      1.0748      1.1867    
  1.2948      1.3917      1.4731      1.5330      1.5639      1.5632      1.5332      1.4760      1.3938      1.2931    
  1.1844      1.0752     0.96973     0.87378     0.85552     0.78959     0.74031     0.70487     0.68412     0.67901    
 0.68677     0.70542     0.73822     0.78898     0.85673     0.93880      1.0344      1.1406      1.2486      1.3486    
  1.4353      1.5042      1.5483      1.5625      1.5473      1.5055      1.4379      1.3482      1.2456      1.1400    
  1.0366     0.93946     0.90951     0.84079     0.78930     0.75170     0.72653     0.71523     0.71695     0.72868    
 0.75112     0.78852     0.84234     0.91035     0.99159      1.0858      1.1875      1.2868      1.3762      1.4511    
  1.5057      1.5330      1.5313      1.5036      1.4518      1.3769      1.2849      1.1861      1.0879     0.99400    
 0.95202     0.88364     0.83165     0.79422     0.76793     0.75271     0.74900     0.75448     0.76797     0.79288    
 0.83267     0.88637     0.95204      1.0301      1.1190      1.2114      1.2987      1.3756      1.4374      1.4765    
  1.4880      1.4733      1.4358      1.3767      1.2987      1.2102      1.1199      1.0327     0.97924     0.91490    
 0.86461     0.82910     0.80464     0.78897     0.78226     0.78314     0.78929     0.80254     0.82777     0.86668    
 0.91718     0.97855      1.0512      1.1312      1.2108      1.2840      1.3473      1.3945      1.4184      1.4166    
  1.3924      1.3484      1.2860      1.2104      1.1305      1.0525     0.98860     0.93171     0.88579     0.85371    
 0.83303     0.81991     0.81332     0.81251     0.81465     0.81906     0.83030     0.85313     0.88765     0.93236    
 0.98768      1.0525      1.1208      1.1860      1.2446      1.2934      1.3255      1.3357      1.3243      1.2944    
  1.2476      1.1868      1.1191      1.0519     0.97924     0.93233     0.89341     0.86635     0.85077     0.84227    
 0.83815     0.83799     0.83961     0.84007     0.84123     0.84901     0.86679     0.89409     0.93108     0.97861    
  1.0334      1.0885      1.1393      1.1840      1.2183      1.2362      1.2355      1.2182      1.1862      1.1407    
  1.0866      1.0312     0.95208     0.91650     0.88670     0.86614     0.85655     0.85430     0.85471     0.85660    
 0.85926     0.85955     0.85616     0.85336     0.85659     0.86735     0.88582     0.91400     0.95204     0.99491    
  1.0365      1.0744      1.1063      1.1274      1.1336      1.1258      1.1063      1.0756      1.0355     0.99237    
 0.90966     0.88541     0.86600     0.85313     0.84979     0.85450     0.86161     0.86759     0.87216     0.87366    
 0.86939     0.86094     0.85387     0.85163     0.85446     0.86401     0.88304     0.91020     0.94013     0.96909    
 0.99570      1.0165      1.0267      1.0252      1.0145     0.99613     0.96976     0.93885     0.85573     0.84165    
 0.83269     0.82841     0.83120     0.84210     0.85666     0.86922     0.87781     0.88180     0.87874     0.86806    
 0.85427     0.84252     0.83401     0.82912     0.83078     0.84086     0.85650     0.87383     0.89180     0.90892    
 0.92046     0.92296     0.91805     0.90840     0.89376     0.87463     0.79448     0.78901     0.78929     0.79387    
 0.80306     0.81884     0.83944     0.85912     0.87382     0.88244     0.88308     0.87361     0.85643     0.83751    
 0.82034     0.80516     0.79360     0.78872     0.79027     0.79498     0.80162     0.81074     0.81984     0.82423    
 0.82288     0.81863     0.81261     0.80389     0.72987     0.73171     0.73931     0.75193     0.76800     0.78842    
 0.81325     0.83850     0.85927     0.87347     0.87969     0.87513     0.85926     0.83669     0.81282     0.78958    
 0.76797     0.75096     0.74034     0.73403     0.72982     0.72865     0.73104     0.73379     0.73389     0.73246    
 0.73162     0.73085     0.66535     0.67344     0.68664     0.70550     0.72815     0.75375     0.78250     0.81206    
 0.83783     0.85688     0.86826     0.86988     0.85940     0.83832     0.81156     0.78275     0.75344     0.72624    
 0.70446     0.68827     0.67525     0.66488     0.65874     0.65637     0.65513     0.65432     0.65569     0.65972    
 0.60401     0.61701     0.63462     0.65791     0.68576     0.71650     0.74956     0.78346     0.81426     0.83816    
 0.85377     0.86028     0.85572     0.83943     0.81414     0.78361     0.75001     0.71547     0.68364     0.65717    
 0.63556     0.61749     0.60352     0.59452     0.58946     0.58720     0.58848     0.59431     0.54864     0.56469    
 0.58568     0.61225     0.64385     0.67885     0.71605     0.75426     0.79050     0.82058     0.84164     0.85271    
 0.85291     0.84144     0.81945     0.78986     0.75517     0.71717     0.67856     0.64278     0.61176     0.58555    
 0.56421     0.54840     0.53812     0.53267     0.53218     0.53752     0.50149     0.51848     0.54153     0.57056    
 0.60511     0.64372     0.68475     0.72687     0.76800     0.80466     0.83309     0.85080     0.85655     0.84980    
 0.83120     0.80298     0.76793     0.72833     0.68624     0.64428     0.60504     0.57026     0.54094     0.51789    
 0.50147     0.49146     0.48784     0.49111     0.46400     0.48006     0.50355     0.53400     0.57082     0.61276    
 0.65798     0.70448     0.75023     0.79265     0.82847     0.85440     0.86792     0.86770     0.85377     0.82769    
 0.79215     0.75028     0.70493     0.65855     0.61332     0.57119     0.53398     0.50320     0.47978     0.46401    
 0.45597     0.45590     0.43684     0.45052     0.47292     0.50349     0.54156     0.58613     0.63560     0.68759    
 0.73934     0.78801     0.83078     0.86467     0.88673     0.89469     0.88759     0.86596     0.83168     0.78782    
 0.73816     0.68630     0.63504     0.58637     0.54203     0.50373     0.47290     0.45045     0.43682     0.43224    
 0.42036     0.43047     0.45049     0.47997     0.51819     0.56426     0.61698     0.67436     0.73337     0.79032    
 0.84162     0.88405     0.91469     0.93108     0.93168     0.91621     0.88568     0.84231     0.78956     0.73171    
 0.67291     0.61640     0.56439     0.51852     0.48017     0.45053     0.43044     0.42034     0.46304     0.46959    
 0.48935     0.52249     0.56882     0.62767     0.69783     0.77726     0.86261     0.94906      1.0308      1.1018    
  1.1569      1.1917      1.2035      1.1916      1.1568      1.1019      1.0309     0.94913     0.86251     0.77705    
 0.69764     0.62756     0.56877     0.52246     0.48934     0.46958     0.46961     0.46960     0.48486     0.51574    
 0.56245     0.62467     0.70121     0.78989     0.88752     0.98958      1.0901      1.1822      1.2584      1.3127    
  1.3406      1.3399      1.3110      1.2566      1.1814      1.0908     0.99109     0.88873     0.79024     0.70091    
 0.62425     0.56219     0.51565     0.48486     0.48936     0.48066     0.48936     0.51566     0.56012     0.62308    
 0.70388     0.80039     0.90912      1.0254      1.1433      1.2558      1.3547      1.4321      1.4812      1.4978    
  1.4803      1.4306      1.3535      1.2556      1.1441      1.0265     0.90961     0.80014     0.70337     0.62278    
 0.56007     0.51568     0.52239     0.50272     0.50282     0.52245     0.56208     0.62260     0.70425     0.80562    
 0.92343      1.0528      1.1873      1.3192      1.4401      1.5413      1.6146      1.6533      1.6536      1.6153    
  1.5420      1.4402      1.3187      1.1865      1.0522     0.92293     0.80521     0.70416     0.62286     0.56230    
 0.56877     0.53570     0.52505     0.53613     0.56879     0.62404     0.70292     0.80485     0.92742      1.0665    
  1.2158      1.3666      1.5092      1.6343      1.7327      1.7959      1.8180      1.7970      1.7347      1.6360    
  1.5092      1.3650      1.2143      1.0660     0.92736     0.80491     0.70334     0.62459     0.62809     0.57947    
 0.55575     0.55631     0.58016     0.62780     0.70093     0.79972     0.92217      1.0652      1.2242      1.3909    
  1.5542      1.7030      1.8272      1.9169      1.9637      1.9634      1.9171      1.8285      1.7038      1.5533    
  1.3897      1.2244      1.0661     0.92232     0.79961     0.70141     0.69882     0.63346     0.59463     0.58257    
 0.59581     0.63368     0.69815     0.79075     0.90966      1.0516      1.2134      1.3894      1.5688      1.7387    
  1.8880      2.0057      2.0806      2.1050      2.0783      2.0042      1.8883      1.7386      1.5681      1.3902    
  1.2154      1.0521     0.90845     0.79027     0.77819     0.69613     0.64123     0.61470     0.61571     0.64216    
 0.69504     0.77754     0.88956      1.0271      1.1866      1.3646      1.5527      1.7380      1.9079      2.0513    
  2.1557      2.2095      2.2076      2.1528      2.0507      1.9084      1.7375      1.5527      1.3665      1.1877    
  1.0253     0.88763     0.86251     0.76475     0.69434     0.65245     0.63990     0.65417     0.69390     0.76240    
 0.86255     0.99172      1.1450      1.3194      1.5092      1.7029      1.8868      2.0495      2.1797      2.2637    
  2.2914      2.2618      2.1797      2.0515      1.8871      1.7013      1.5092      1.3207      1.1441     0.98911    
 0.94759     0.83560     0.75149     0.69493     0.66795     0.66956     0.69646     0.74953     0.83332     0.94856    
  1.0909      1.2562      1.4411      1.6364      1.8282      2.0035      2.1523      2.2619      2.3194      2.3186    
  2.2622      2.1555      2.0058      1.8264      1.6341      1.4417      1.2571      1.0893      1.0287     0.90457    
 0.80907     0.74014     0.69918     0.68741     0.70194     0.74067     0.80685     0.90399      1.0301      1.1808    
  1.3535      1.5426      1.7356      1.9180      2.0789      2.2074      2.2903      2.3178      2.2892      2.2087    
  2.0817      1.9176      1.7324      1.5419      1.3557      1.1814      1.1003     0.96755     0.86319     0.78510    
 0.73257     0.70758     0.70937     0.73477     0.78438     0.86228     0.96917      1.1013      1.2558      1.4299    
  1.6153      1.7978      1.9647      2.1058      2.2089      2.2620      2.2602      2.2068      2.1066      1.9655    
  1.7958      1.6138      1.4322      1.2582      1.1568      1.0204     0.91023     0.82619     0.76591     0.73009    
 0.71955     0.73197     0.76595     0.82472     0.91119      1.0232      1.1568      1.3103      1.4793      1.6529    
  1.8179      1.9642      2.0811      2.1559      2.1797      2.1525      2.0794      1.9652      1.8180      1.6516    
  1.4803      1.3131      1.1930      1.0589     0.94697     0.86000     0.79580     0.75311     0.73281     0.73375    
 0.75353     0.79370     0.85864     0.94904      1.0612      1.1922      1.3398      1.4970      1.6522      1.7949    
  1.9166      2.0065      2.0528      2.0510      2.0043      1.9178      1.7969      1.6518      1.4964      1.3413    
  1.2054      1.0796     0.97061     0.88391     0.81894     0.77326     0.74678     0.73931     0.74816     0.77246    
 0.81624     0.88335     0.97249      1.0802      1.2045      1.3412      1.4812      1.6137      1.7315      1.8266    
  1.8886      1.9090      1.8874      1.8277      1.7345      1.6146      1.4794      1.3406      1.1929      1.0802    
 0.97909     0.89621     0.83335     0.78792     0.75848     0.74543     0.74701     0.76035     0.78689     0.83163    
 0.89665     0.97975      1.0789      1.1923      1.3137      1.4328      1.5413      1.6337      1.7022      1.7382    
  1.7375      1.7022      1.6359      1.5427      1.4308      1.3115      1.1569      1.0605     0.97153     0.89602    
 0.83799     0.79589     0.76671     0.75035     0.74677     0.75317     0.76807     0.79498     0.83802     0.89717    
 0.97064      1.0580      1.1568      1.2591      1.3557      1.4408      1.5092      1.5534      1.5676      1.5519    
  1.5092      1.4419      1.3547      1.2566      1.1006      1.0222     0.94835     0.88336     0.83240     0.79607    
 0.77068     0.75418     0.74719     0.74862     0.75589     0.77004     0.79549     0.83416     0.88462     0.94639    
  1.0198      1.1010      1.1821      1.2565      1.3200      1.3670      1.3907      1.3891      1.3650      1.3204    
  1.2571      1.1809      1.0290     0.96845     0.91123     0.85931     0.81716     0.78773     0.76856     0.75572    
 0.74852     0.74710     0.74940     0.75462     0.76629     0.78815     0.81987     0.86003     0.90941     0.96761    
  1.0296      1.0893      1.1433      1.1877      1.2164      1.2248      1.2140      1.1872      1.1451      1.0902    
 0.94786     0.90403     0.86310     0.82576     0.79425     0.77225     0.75973     0.75275     0.74877     0.74770    
 0.74831     0.74856     0.75019     0.75788     0.77367     0.79629     0.82561     0.86264     0.90521     0.94824    
 0.98856      1.0248      1.0528      1.0670      1.0657      1.0517      1.0266     0.99082     0.86261     0.83413    
 0.80801     0.78523     0.76599     0.75265     0.74678     0.74594     0.74678     0.74843     0.75030     0.75000    
 0.74677     0.74420     0.74631     0.75369     0.76595     0.78440     0.80911     0.83641     0.86255     0.88688    
 0.90848     0.92319     0.92742     0.92196     0.90909     0.88903     0.77816     0.76345     0.75035     0.74075    
 0.73419     0.73118     0.73310     0.73888     0.74530     0.75063     0.75481     0.75635     0.75303     0.74578    
 0.73840     0.73327     0.73078     0.73230     0.73976     0.75198     0.76526     0.77777     0.78984     0.80010    
 0.80538     0.80463     0.79948     0.79077     0.69878     0.69567     0.69397     0.69572     0.70088     0.70887    
 0.72009     0.73401     0.74774     0.75852     0.76582     0.76942     0.76767     0.75974     0.74767     0.73420    
 0.72051     0.70781     0.69873     0.69492     0.69486     0.69617     0.69838     0.70146     0.70387     0.70417    
 0.70294     0.70124     0.62810     0.63371     0.64165     0.65323     0.66871     0.68727     0.70844     0.73166    
 0.75463     0.77389     0.78730     0.79437     0.79455     0.78709     0.77283     0.75407     0.73262     0.70958    
 0.68698     0.66759     0.65265     0.64146     0.63325     0.62790     0.62485     0.62311     0.62265     0.62427    
 0.56882     0.57991     0.59525     0.61523     0.63997     0.66858     0.69992     0.73298     0.76599     0.79577    
 0.81894     0.83336     0.83799     0.83239     0.81710     0.79411     0.76591     0.73444     0.70144     0.66919    
 0.63990     0.61488     0.59462     0.57932     0.56879     0.56246     0.56010     0.56211     0.52243     0.53599    
 0.55609     0.58265     0.61548     0.65372     0.69578     0.73978     0.78363     0.82461     0.85936     0.88457    
 0.89774     0.89753     0.88397     0.85856     0.82403     0.78358     0.74020     0.69641     0.65435     0.61589    
 0.58263     0.55573     0.53570     0.52243     0.51571     0.51565     0.48938     0.50281     0.52510     0.55603    
 0.59528     0.64208     0.69490     0.75126     0.80804     0.86189     0.90941     0.94708     0.97156     0.98035    
 0.97243     0.94836     0.91026     0.86162     0.80679     0.74995     0.69437     0.64236     0.59578     0.55628    
 0.52508     0.50274     0.48935     0.48490     0.46962     0.48066     0.50278     0.53590     0.57964     0.63331    
 0.69564     0.76432     0.83571     0.90527     0.96842      1.0209      1.0588      1.0789      1.0795      1.0603    
  1.0225     0.96915     0.90454     0.83404     0.76283     0.69503     0.63343     0.57997     0.53611     0.50283    
 0.48063     0.46960     0.54549     0.55420     0.58061     0.62532     0.68858     0.76992     0.86782     0.97933    
  1.0996      1.2218      1.3379      1.4392      1.5180      1.5679      1.5850      1.5678      1.5179      1.4393    
  1.3381      1.2220      1.0995     0.97906     0.86757     0.76979     0.68853     0.62529     0.58060     0.55419    
 0.55422     0.55421     0.57574     0.61942     0.68585     0.77489     0.88508      1.0134      1.1551      1.3034    
  1.4498      1.5841      1.6958      1.7757      1.8171      1.8164      1.7740      1.6940      1.5833      1.4505    
  1.3049      1.1563      1.0137     0.88477     0.77446     0.68559     0.61933     0.57574     0.58062     0.56782    
 0.58062     0.61934     0.68482     0.77754     0.89664      1.0392      1.2003      1.3730      1.5487      1.7165    
  1.8646      1.9807      2.0548      2.0800      2.0539      1.9792      1.8633      1.7162      1.5495      1.3741    
  1.2008      1.0390     0.89615     0.77724     0.68477     0.61937     0.62521     0.59533     0.59543     0.62529    