unknown system                          
   1.00000000000000     
     3.190316    0.000000    0.000000
    -1.595158    2.762894    0.000000
     0.000000    0.000000   14.879004
   Mo   S 
     2     4
Direct
  0.333333  0.666667  0.250000
  0.666667  0.333333  0.750000
  0.333333  0.666667  0.855174
  0.666667  0.333333  0.144826
  0.666666  0.333333  0.355174
  0.333334  0.666667  0.644826
 
   28   28  128
 0.39892258836E+00 0.40413277674E+00 0.41966630205E+00 0.44515620154E+00 0.47984728826E+00
 0.52271745352E+00 0.57264420209E+00 0.62821477744E+00 0.68720877393E+00 0.74631892256E+00
 0.80153449980E+00 0.84892657402E+00 0.88523540883E+00 0.90804537323E+00 0.91581977067E+00
 0.90801832189E+00 0.88518144527E+00 0.84884873966E+00 0.80144068273E+00 0.74622015699E+00
 0.68711506271E+00 0.62813203407E+00 0.57257436196E+00 0.52266060400E+00 0.47980335036E+00
 0.44512502639E+00 0.41964701935E+00 0.40412379432E+00 0.40415463595E+00 0.40414410650E+00
 0.41451032502E+00 0.43508422728E+00 0.46537438351E+00 0.50449235733E+00 0.55120610872E+00
 0.60404790316E+00 0.66127988180E+00 0.72057577967E+00 0.77865267893E+00 0.83139260079E+00
 0.87462064532E+00 0.90498078577E+00 0.92031806253E+00 0.91968222570E+00 0.90336174876E+00
 0.87286835762E+00 0.83057671886E+00 0.77926640787E+00 0.72205463835E+00 0.66253250965E+00
 0.60444819031E+00 0.55093650694E+00 0.50406576226E+00 0.46510181271E+00 0.43499219223E+00
 0.41451039157E+00 0.41967292411E+00 0.41453205874E+00 0.41967153015E+00 0.43499507234E+00
 0.46031825316E+00 0.49523916641E+00 0.53883604580E+00 0.58953851560E+00 0.64535536611E+00
 0.70411166604E+00 0.76326501134E+00 0.81950862131E+00 0.86882539801E+00 0.90718365065E+00
 0.93133944122E+00 0.93928090378E+00 0.93043079256E+00 0.90578201956E+00 0.86773032688E+00
 0.81944342155E+00 0.76419873868E+00 0.70520959320E+00 0.64577979644E+00 0.58920215683E+00
 0.53827604424E+00 0.49492374436E+00 0.46027396393E+00 0.43502304223E+00 0.44505670587E+00
 0.43496582664E+00 0.43505431911E+00 0.44510560648E+00 0.46497451791E+00 0.49472281252E+00
 0.53410399120E+00 0.58204663622E+00 0.63667370157E+00 0.69556513195E+00 0.75588820511E+00
 0.81447639447E+00 0.86793537214E+00 0.91268997170E+00 0.94516119521E+00 0.96235445878E+00
 0.96258058383E+00 0.94576475291E+00 0.91336268490E+00 0.86821243399E+00 0.81416103983E+00
 0.75522910921E+00 0.69487438265E+00 0.63604493400E+00 0.58158129284E+00 0.53402100518E+00
 0.49499207324E+00 0.46520099134E+00 0.47980334944E+00 0.46497631310E+00 0.46027388685E+00
 0.46537138556E+00 0.47982366441E+00 0.50384572718E+00 0.53777770901E+00 0.58116092111E+00
 0.63278013709E+00 0.69088718707E+00 0.75269466406E+00 0.81426271144E+00 0.87159135480E+00
 0.92141580627E+00 0.96064585211E+00 0.98599764056E+00 0.99501982128E+00 0.98700528069E+00
 0.96253134736E+00 0.92303993471E+00 0.87152378602E+00 0.81263978928E+00 0.75108718591E+00
 0.69023709693E+00 0.63272142915E+00 0.58131262759E+00 0.53825014037E+00 0.50437190638E+00
 0.52313729227E+00 0.50400485715E+00 0.49473451686E+00 0.49525158789E+00 0.50465265008E+00
 0.52292747194E+00 0.55095884752E+00 0.58874216564E+00 0.63519840335E+00 0.68944877073E+00
 0.75023030859E+00 0.81401160712E+00 0.87558755305E+00 0.93065599135E+00 0.97625149344E+00
 0.10091326747E+01 0.10260573136E+01 0.10258384485E+01 0.10093051042E+01 0.97738435458E+00
 0.93129649790E+00 0.87459423729E+00 0.81276450513E+00 0.75040231642E+00 0.69037679945E+00
 0.63549990514E+00 0.58872546017E+00 0.55138235716E+00 0.57363377726E+00 0.55118340362E+00
 0.53776480452E+00 0.53401206082E+00 0.53882520461E+00 0.55143187405E+00 0.57313847465E+00
 0.60501082199E+00 0.64583957949E+00 0.69421154986E+00 0.75014223994E+00 0.81235849545E+00
 0.87606681714E+00 0.93559446868E+00 0.98728007313E+00 0.10280047201E+01 0.10535625348E+01
 0.10611375310E+01 0.10515062640E+01 0.10266645014E+01 0.98740247217E+00 0.93540240119E+00
 0.87548300123E+00 0.81324120695E+00 0.75214660030E+00 0.69480604857E+00 0.64474628589E+00
 0.60447904548E+00 0.62914374056E+00 0.60496232151E+00 0.58847807480E+00 0.58093493962E+00
 0.58181901035E+00 0.58927211429E+00 0.60400012983E+00 0.62868052714E+00 0.66345732263E+00
 0.70593080753E+00 0.75530405630E+00 0.81215008973E+00 0.87391629019E+00 0.93478238099E+00
 0.99011860934E+00 0.10371963733E+01 0.10718284276E+01 0.10889696572E+01 0.10872581124E+01
 0.10691784819E+01 0.10366798863E+01 0.99060300289E+00 0.93439070823E+00 0.87405925141E+00
 0.81398848155E+00 0.75630912394E+00 0.70419789505E+00 0.66155167353E+00 0.68711507443E+00
 0.66290009547E+00 0.64526792235E+00 0.63496937227E+00 0.63275709536E+00 0.63644573791E+00
 0.64478467630E+00 0.66072219168E+00 0.68716085173E+00 0.72276106240E+00 0.76522066413E+00
 0.81492532919E+00 0.87154822707E+00 0.93042326416E+00 0.98597453927E+00 0.10355280191E+01
 0.10764234267E+01 0.11031134182E+01 0.11111785079E+01 0.11013606338E+01 0.10764196195E+01
 0.10373988535E+01 0.98634304511E+00 0.92908913589E+00 0.87152379865E+00 0.81596003405E+00
 0.76417282214E+00 0.72029312296E+00 0.74486093358E+00 0.72187603991E+00 0.70539676731E+00
 0.69422004398E+00 0.68983241320E+00 0.69127336549E+00 0.69557732730E+00 0.70357661046E+00
 0.71968605355E+00 0.74558910900E+00 0.77929126331E+00 0.82017005238E+00 0.86914688899E+00
 0.92352628634E+00 0.97714455616E+00 0.10260122778E+01 0.10687321603E+01 0.11015313125E+01
 0.11186086451E+01 0.11179265827E+01 0.11017320841E+01 0.10715494028E+01 0.10280237112E+01
 0.97554841951E+00 0.92134372555E+00 0.86950334016E+00 0.82080263654E+00 0.77787632302E+00
 0.79944223940E+00 0.77859145016E+00 0.76520784677E+00 0.75575568519E+00 0.75065342226E+00
 0.75068768727E+00 0.75320419029E+00 0.75633889769E+00 0.76325367574E+00 0.77795579927E+00
 0.80048949682E+00 0.82991854952E+00 0.86774786073E+00 0.91397112258E+00 0.96342582821E+00
 0.10101849938E+01 0.10520344433E+01 0.10870712562E+01 0.11101876126E+01 0.11172494154E+01
 0.11091800763E+01 0.10882698252E+01 0.10545641226E+01 0.10097817861E+01 0.96053290313E+00
 0.91329437066E+00 0.86975467493E+00 0.83060755417E+00 0.84744710855E+00 0.82987704332E+00
 0.82083173823E+00 0.81574406991E+00 0.81247666505E+00 0.81210746133E+00 0.81375870984E+00
 0.81458705075E+00 0.81529747658E+00 0.82017596508E+00 0.83135362168E+00 0.84818501703E+00
 0.87193344506E+00 0.90511035079E+00 0.94576811055E+00 0.98779806331E+00 0.10270176072E+01
 0.10618378190E+01 0.10884728810E+01 0.11015736977E+01 0.10999811134E+01 0.10865563510E+01
 0.10625391757E+01 0.10277167687E+01 0.98594063534E+00 0.94443146148E+00 0.90718365899E+00
 0.87430082762E+00 0.88518143336E+00 0.87260863866E+00 0.86873553554E+00 0.86986622857E+00
 0.87155133391E+00 0.87317061031E+00 0.87500409769E+00 0.87484261670E+00 0.87159498397E+00
 0.86865444511E+00 0.86981244960E+00 0.87529528030E+00 0.88520795888E+00 0.90268423479E+00
 0.92946949950E+00 0.96191303484E+00 0.99498143373E+00 0.10265020536E+01 0.10540328985E+01
 0.10720085684E+01 0.10764234030E+01 0.10688995363E+01 0.10525031314E+01 0.10274978100E+01
 0.99501981028E+00 0.96073171958E+00 0.93040489964E+00 0.90524809184E+00 0.90932825131E+00
 0.90366224994E+00 0.90583168940E+00 0.91403427756E+00 0.92304252432E+00 0.92981612148E+00
 0.93429038601E+00 0.93510245981E+00 0.93004759636E+00 0.92092836637E+00 0.91274915997E+00
 0.90790453256E+00 0.90596232968E+00 0.90868854277E+00 0.91964474464E+00 0.93857643520E+00
 0.96130577955E+00 0.98508649112E+00 0.10088750706E+01 0.10286814648E+01 0.10385686223E+01
 0.10368981073E+01 0.10266947770E+01 0.10099659266E+01 0.98697058423E+00 0.96097617797E+00
 0.93797096592E+00 0.92096132782E+00 0.91764601736E+00 0.92033511001E+00 0.92952044853E+00
 0.94508179450E+00 0.96247658635E+00 0.97674725316E+00 0.98654044846E+00 0.99116293208E+00
 0.98784539639E+00 0.97585277150E+00 0.95969452714E+00 0.94447312834E+00 0.93139022806E+00
 0.92101021914E+00 0.91673422781E+00 0.92095469190E+00 0.93129573433E+00 0.94436646166E+00
 0.95960113819E+00 0.97578535057E+00 0.98780079772E+00 0.99113029804E+00 0.98651324170E+00
 0.97672819950E+00 0.96247209790E+00 0.94509285687E+00 0.92953909924E+00 0.92034892193E+00
 0.90935533276E+00 0.92097320363E+00 0.93797434551E+00 0.96098422993E+00 0.98699492500E+00
 0.10100085871E+01 0.10267472790E+01 0.10369501640E+01 0.10386194489E+01 0.10287423399E+01
 0.10089593073E+01 0.98519541413E+00 0.96142313951E+00 0.93867527305E+00 0.91970027737E+00
 0.90868855807E+00 0.90591137910E+00 0.90782190768E+00 0.91266115671E+00 0.92085711466E+00
 0.93000254998E+00 0.93508063172E+00 0.93428452265E+00 0.92982275471E+00 0.92306275157E+00
 0.91406823716E+00 0.90587369943E+00 0.90370169889E+00 0.88523542068E+00 0.90528653116E+00
 0.93043054470E+00 0.96075554599E+00 0.99505549488E+00 0.10275527999E+01 0.10525727704E+01
 0.10689707204E+01 0.10764865348E+01 0.10720674607E+01 0.10541025168E+01 0.10265951767E+01
 0.99509595569E+00 0.96203038069E+00 0.92956396946E+00 0.90273519948E+00 0.88520798264E+00
 0.87525227690E+00 0.86974629214E+00 0.86858891162E+00 0.87154822720E+00 0.87482178441E+00
 0.87500738993E+00 0.87319366400E+00 0.87159136757E+00 0.86992089338E+00 0.86879948133E+00
 0.87267260291E+00 0.84752494353E+00 0.87436574378E+00 0.90723380224E+00 0.94447262612E+00
 0.98598429890E+00 0.10277737584E+01 0.10626120099E+01 0.10866366418E+01 0.11000561079E+01
 0.11016377591E+01 0.10885335476E+01 0.10619100288E+01 0.10271107470E+01 0.98790699252E+00
 0.94587474101E+00 0.90519293888E+00 0.87197646510E+00 0.84818503852E+00 0.83132018627E+00
 0.82012764567E+00 0.81525437245E+00 0.81456341735E+00 0.81376011235E+00 0.81213326534E+00
 0.81252409520E+00 0.81580970735E+00 0.82091024337E+00 0.82996010922E+00 0.79953604727E+00
 0.83069462329E+00 0.86982967335E+00 0.91335718389E+00 0.96058903960E+00 0.10098401337E+01
 0.10546318815E+01 0.10883472277E+01 0.11092596461E+01 0.11173219450E+01 0.11102505842E+01
 0.10871319109E+01 0.10521040762E+01 0.10102692731E+01 0.96351922636E+00 0.91405908314E+00
 0.86781398523E+00 0.82995199689E+00 0.80048950601E+00 0.77793203362E+00 0.76322222338E+00
 0.75631576909E+00 0.75320010773E+00 0.75070699056E+00 0.75069621064E+00 0.75581989087E+00
 0.76528936857E+00 0.77868351424E+00 0.74495968446E+00 0.77797632773E+00 0.82089733592E+00
 0.86958871231E+00 0.92141896060E+00 0.97561625923E+00 0.10280898114E+01 0.10716195339E+01
 0.11018080130E+01 0.11180042127E+01 0.11186811768E+01 0.11015953442E+01 0.10687910219E+01
 0.10260731764E+01 0.97721202738E+00 0.92359754518E+00 0.86921239178E+00 0.82021835846E+00
 0.77931503105E+00 0.74558910083E+00 0.71967115060E+00 0.70355989476E+00 0.69557080148E+00
 0.69128469759E+00 0.68986493474E+00 0.69427423391E+00 0.70547091246E+00 0.72196585630E+00
 0.68720876216E+00 0.72039513742E+00 0.76427732503E+00 0.81606205478E+00 0.87161908556E+00
 0.92917440676E+00 0.98641788650E+00 0.10374675546E+01 0.10764895166E+01 0.11014365714E+01
 0.11112581103E+01 0.11031884180E+01 0.10764865112E+01 0.10355788097E+01 0.98601916143E+00
 0.93046834654E+00 0.87159498411E+00 0.81496842806E+00 0.76525213080E+00 0.72277595656E+00
 0.68716082824E+00 0.66071493650E+00 0.64478017592E+00 0.63645239468E+00 0.63278012624E+00
 0.63501134245E+00 0.64532947306E+00 0.66297971976E+00 0.62922647370E+00 0.66164722536E+00
 0.70430195325E+00 0.75641759538E+00 0.81409697663E+00 0.87416196181E+00 0.93448160321E+00
 0.99068010651E+00 0.10367485713E+01 0.10692485905E+01 0.10873355377E+01 0.10890500000E+01
 0.10718996175E+01 0.10372483842E+01 0.99015121801E+00 0.93480422434E+00 0.87393712825E+00
 0.81217371405E+00 0.75532720772E+00 0.70594756196E+00 0.66346456169E+00 0.62868049657E+00
 0.60399911216E+00 0.58927718207E+00 0.58183563162E+00 0.58096659091E+00 0.58852681093E+00
 0.60502876981E+00 0.57370364416E+00 0.60456376277E+00 0.64484300781E+00 0.69491176093E+00
 0.75225817436E+00 0.81335365724E+00 0.87558849953E+00 0.93549331304E+00 0.98747731685E+00
 0.10267305597E+01 0.10515739869E+01 0.10612103930E+01 0.10536322244E+01 0.10280572250E+01
 0.98730725312E+00 0.93560032904E+00 0.87606352790E+00 0.81235706521E+00 0.75014630492E+00
 0.69421811748E+00 0.64584413013E+00 0.60501182279E+00 0.57313844788E+00 0.55143554935E+00
 0.53883715017E+00 0.53403565712E+00 0.53780250848E+00 0.55123696390E+00 0.52319417979E+00
 0.55145463146E+00 0.58881155600E+00 0.63559747825E+00 0.69048357694E+00 0.75051509528E+00
 0.81287694451E+00 0.87469696417E+00 0.93138181267E+00 0.97745220021E+00 0.10093634012E+01
 0.10258954026E+01 0.10261123254E+01 0.10091753646E+01 0.97627054470E+00 0.93064935934E+00
 0.87556452135E+00 0.81398579570E+00 0.75021095471E+00 0.68943741636E+00 0.63519179048E+00
 0.58873714251E+00 0.55095516132E+00 0.52292745785E+00 0.50465943922E+00 0.49526785546E+00
 0.49476244849E+00 0.50404649300E+00 0.47984728916E+00 0.50443090620E+00 0.53832392542E+00
 0.58139950322E+00 0.63281935146E+00 0.69034387536E+00 0.75119873138E+00 0.81274825566E+00
 0.87161909823E+00 0.92311522339E+00 0.96258749120E+00 0.98704890469E+00 0.99505548393E+00
 0.98602199016E+00 0.96065033875E+00 0.92139557018E+00 0.87155134672E+00 0.81421532086E+00
 0.75265186468E+00 0.69085461191E+00 0.63275708454E+00 0.58114432855E+00 0.53776578840E+00
 0.50383893710E+00 0.47982366623E+00 0.46537986312E+00 0.46029234748E+00 0.46500651717E+00
 0.44508785068E+00 0.46524608828E+00 0.49505210760E+00 0.53409531248E+00 0.58166817707E+00
 0.63614253533E+00 0.69498009824E+00 0.75533753597E+00 0.81426302433E+00 0.86829782843E+00
 0.91342554106E+00 0.94580592492E+00 0.96260439591E+00 0.96236250956E+00 0.94515012758E+00
 0.91265598268E+00 0.86788069300E+00 0.81441079265E+00 0.75582404237E+00 0.69551093608E+00
 0.63663169516E+00 0.58201496849E+00 0.53408039813E+00 0.49470654492E+00 0.46496604895E+00
 0.44510562061E+00 0.43506341483E+00 0.43498503452E+00 0.41969218897E+00 0.43505446683E+00
 0.46031940701E+00 0.49498376512E+00 0.53834981325E+00 0.58928827392E+00 0.64587656298E+00
 0.70531365792E+00 0.76430320023E+00 0.81953808949E+00 0.86780533397E+00 0.90583218018E+00
 0.93045644353E+00 0.93928429674E+00 0.93132080836E+00 0.90714162726E+00 0.86876141061E+00
 0.81943009880E+00 0.76318351658E+00 0.70403755232E+00 0.64529382104E+00 0.58948977296E+00
 0.53879833293E+00 0.49521121352E+00 0.46029977287E+00 0.43498599023E+00 0.41967154800E+00
 0.41454117502E+00 0.40416362311E+00 0.41452960896E+00 0.43502362883E+00 0.46514690755E+00
 0.50412472788E+00 0.55100875514E+00 0.60453292997E+00 0.66262810406E+00 0.72215666343E+00
 0.77936639239E+00 0.83066377065E+00 0.87293326430E+00 0.90340017682E+00 0.91969410480E+00
 0.92030428147E+00 0.90494136414E+00 0.87455666981E+00 0.83130950137E+00 0.77856059752E+00
 0.72048596713E+00 0.66120026814E+00 0.60398147341E+00 0.55115257081E+00 0.50445071940E+00
 0.46534414524E+00 0.43506499326E+00 0.41450122074E+00 0.40414411851E+00 0.41481576453E+00
 0.42032474618E+00 0.43681447682E+00 0.46406687596E+00 0.50149356295E+00 0.54818140844E+00
 0.60300117168E+00 0.66439371918E+00 0.72986867893E+00 0.79575800685E+00 0.85761365310E+00
 0.91099249484E+00 0.95207865635E+00 0.97795781741E+00 0.98677196638E+00 0.97790040305E+00
 0.95202480299E+00 0.91098932318E+00 0.85763660829E+00 0.79573894341E+00 0.72977259520E+00
 0.66425276146E+00 0.60287494741E+00 0.54810089450E+00 0.50145029841E+00 0.46404124591E+00
 0.43679750381E+00 0.42031604650E+00 0.42034645485E+00 0.42033624296E+00 0.43221276542E+00
 0.45599159994E+00 0.49145572300E+00 0.53794405245E+00 0.59427984281E+00 0.65879149005E+00
 0.72924817690E+00 0.80258118550E+00 0.87460265119E+00 0.94021318393E+00 0.99424576229E+00
 0.10324207109E+01 0.10518535688E+01 0.10512003625E+01 0.10307716397E+01 0.99249047171E+00
 0.93943162848E+00 0.87525785570E+00 0.80407317045E+00 0.73048135005E+00 0.65916426241E+00
 0.59399718495E+00 0.53752020200E+00 0.49119019746E+00 0.45590308142E+00 0.43221304174E+00
 0.43682123973E+00 0.43047107963E+00 0.43682229154E+00 0.45590809223E+00 0.48786646392E+00
 0.53263649909E+00 0.58946711877E+00 0.65664622829E+00 0.73164257236E+00 0.81132400981E+00
 0.89184999210E+00 0.96843382515E+00 0.10355678921E+01 0.10878483910E+01 0.11208861944E+01
 0.11318833521E+01 0.11199725734E+01 0.10864204391E+01 0.10344128892E+01 0.96828974566E+00
 0.89272474823E+00 0.81241252449E+00 0.73209928844E+00 0.65635020874E+00 0.58893135791E+00
 0.53232901478E+00 0.48782285248E+00 0.45593406445E+00 0.46396781427E+00 0.45042798059E+00
 0.45052176985E+00 0.46402411752E+00 0.49107158368E+00 0.53213984231E+00 0.58727329794E+00
 0.65535722189E+00 0.73402012965E+00 0.81983746274E+00 0.90846992242E+00 0.99487679805E+00
 0.10736649293E+01 0.11393761216E+01 0.11868331471E+01 0.12118556171E+01 0.12121023730E+01
 0.11874716840E+01 0.11400418176E+01 0.10738676397E+01 0.99446696926E+00 0.90777519486E+00
 0.81919116476E+00 0.73345865996E+00 0.65492345961E+00 0.58718787257E+00 0.53240302110E+00
 0.49129518657E+00 0.50145029751E+00 0.47978677993E+00 0.47286983930E+00 0.48019803379E+00
 0.50146964308E+00 0.53730945495E+00 0.58845781410E+00 0.65453072358E+00 0.73388982140E+00
 0.82380792147E+00 0.91993254487E+00 0.10162316904E+01 0.11063160638E+01 0.11845488220E+01
 0.12457417061E+01 0.12849700422E+01 0.12987468424E+01 0.12860161652E+01 0.12476918551E+01
 0.11862208873E+01 0.11062487474E+01 0.10145966779E+01 0.91835211195E+00 0.82320245872E+00
 0.73383143235E+00 0.65464149319E+00 0.58890762287E+00 0.53784519170E+00 0.54860230520E+00
 0.51805072067E+00 0.50322399274E+00 0.50376328013E+00 0.51871379158E+00 0.54835361476E+00
 0.59401629237E+00 0.65591364680E+00 0.73265491689E+00 0.82244216997E+00 0.92245974959E+00
 0.10269868338E+01 0.11281731468E+01 0.12189696063E+01 0.12938743538E+01 0.13475254882E+01
 0.13751809344E+01 0.13749401266E+01 0.13476894514E+01 0.12950746110E+01 0.12197019058E+01
 0.11272227216E+01 0.10257514523E+01 0.92264531192E+00 0.82334847137E+00 0.73288266474E+00
 0.65584822333E+00 0.59446819104E+00 0.60399191066E+00 0.56442572782E+00 0.54094174016E+00
 0.53391810264E+00 0.54205790136E+00 0.56466123359E+00 0.60341039285E+00 0.65969733430E+00
 0.73215456746E+00 0.81856099190E+00 0.91746064524E+00 0.10253917035E+01 0.11347444287E+01
 0.12367923551E+01 0.13250019528E+01 0.13937582130E+01 0.14368823530E+01 0.14503676513E+01
 0.14347078703E+01 0.13923597243E+01 0.13251807975E+01 0.12366445060E+01 0.11341336949E+01
 0.10262534431E+01 0.91946907430E+00 0.81911715295E+00 0.73100606111E+00 0.65919525091E+00
 0.66532274200E+00 0.61743887114E+00 0.58530263549E+00 0.57006088541E+00 0.57100843674E+00
 0.58616490784E+00 0.61641685333E+00 0.66477197527E+00 0.73135521578E+00 0.81309192224E+00
 0.90785000416E+00 0.10141494521E+01 0.11265928505E+01 0.12360358903E+01 0.13346376558E+01
 0.14168983118E+01 0.14763238559E+01 0.15061915820E+01 0.15043840875E+01 0.14735339752E+01
 0.14163734725E+01 0.13351534653E+01 0.12355751055E+01 0.11266553176E+01 0.10160220565E+01
 0.90891859401E+00 0.81134311860E+00 0.72944293999E+00 0.72977260773E+00 0.67471340858E+00
 0.63501267999E+00 0.61154761500E+00 0.60504220870E+00 0.61313936448E+00 0.63455342857E+00
 0.67245525732E+00 0.72981565243E+00 0.80473764144E+00 0.89368775034E+00 0.99519457260E+00
 0.11062701011E+01 0.12188268621E+01 0.13237182885E+01 0.14151718458E+01 0.14879962136E+01
 0.15346280214E+01 0.15493996470E+01 0.15327760081E+01 0.14879955865E+01 0.14171383771E+01
 0.13240638217E+01 0.12173656099E+01 0.11062487609E+01 0.99637528606E+00 0.89270099973E+00
 0.80220787691E+00 0.79429527268E+00 0.73318036970E+00 0.68774635578E+00 0.65717359656E+00
 0.64315293771E+00 0.64467355673E+00 0.65861403398E+00 0.68586476832E+00 0.73095017131E+00
 0.79514176758E+00 0.87527711381E+00 0.96897473794E+00 0.10747562205E+01 0.11866799918E+01
 0.12948186995E+01 0.13916869946E+01 0.14730706490E+01 0.15329571390E+01 0.15639218141E+01
 0.15631985473E+01 0.15331672225E+01 0.14760464855E+01 0.13938028148E+01 0.12931295047E+01
 0.11844218185E+01 0.10752367508E+01 0.96973284166E+00 0.87378375545E+00 0.85551613181E+00
 0.78958774175E+00 0.74030690644E+00 0.70486658511E+00 0.68411890574E+00 0.67901298031E+00
 0.68676513577E+00 0.70541828066E+00 0.73822403709E+00 0.78898328675E+00 0.85673412807E+00
 0.93880265939E+00 0.10344229590E+01 0.11406273849E+01 0.12485833542E+01 0.13485953226E+01
 0.14352621101E+01 0.15041844977E+01 0.15483461537E+01 0.15624787024E+01 0.15472791831E+01
 0.15054535090E+01 0.14379453100E+01 0.13481914211E+01 0.12455713778E+01 0.11399678269E+01
 0.10365571016E+01 0.93946259582E+00 0.90950970805E+00 0.84079392631E+00 0.78930201553E+00
 0.75169871194E+00 0.72652761027E+00 0.71523459530E+00 0.71695269546E+00 0.72868005367E+00
 0.75111932146E+00 0.78852249274E+00 0.84234128613E+00 0.91035415437E+00 0.99158673345E+00
 0.10857556377E+01 0.11874707391E+01 0.12868290367E+01 0.13761699192E+01 0.14511043960E+01
 0.15056646718E+01 0.15329941909E+01 0.15313135212E+01 0.15036420198E+01 0.14518478465E+01
 0.13769222848E+01 0.12848919481E+01 0.11860655209E+01 0.10879006289E+01 0.99400162381E+00
 0.95202479046E+00 0.88364224447E+00 0.83165012229E+00 0.79421964210E+00 0.76793340533E+00
 0.75271183948E+00 0.74900120210E+00 0.75448220415E+00 0.76797385058E+00 0.79288264562E+00
 0.83266722815E+00 0.88637184411E+00 0.95204304330E+00 0.10300996093E+01 0.11190023530E+01
 0.12114131217E+01 0.12987015741E+01 0.13756472699E+01 0.14373825991E+01 0.14765165841E+01
 0.14879961885E+01 0.14732516109E+01 0.14357654023E+01 0.13766817881E+01 0.12987468307E+01
 0.12101735402E+01 0.11199488499E+01 0.10327434957E+01 0.97924405123E+00 0.91489596970E+00
 0.86461448672E+00 0.82909563893E+00 0.80464147608E+00 0.78896677959E+00 0.78226378605E+00
 0.78313593658E+00 0.78928997360E+00 0.80253768453E+00 0.82777483442E+00 0.86667963841E+00
 0.91718404911E+00 0.97854718962E+00 0.10511536012E+01 0.11311536537E+01 0.12107545055E+01
 0.12840046299E+01 0.13472511154E+01 0.13944743494E+01 0.14183503792E+01 0.14166234672E+01
 0.13924139846E+01 0.13483677367E+01 0.12859582924E+01 0.12104373733E+01 0.11305391292E+01
 0.10525136171E+01 0.98860305277E+00 0.93170659417E+00 0.88578945693E+00 0.85371147858E+00
 0.83303222679E+00 0.81990808843E+00 0.81331784736E+00 0.81251386289E+00 0.81465349079E+00
 0.81906167490E+00 0.83029672798E+00 0.85312903676E+00 0.88765487870E+00 0.93235908104E+00
 0.98767914439E+00 0.10524978335E+01 0.11208334269E+01 0.11859905399E+01 0.12446317913E+01
 0.12933756128E+01 0.13255493874E+01 0.13357070523E+01 0.13242878296E+01 0.12943763486E+01
 0.12475727916E+01 0.11867591313E+01 0.11190788439E+01 0.10518845612E+01 0.97924098221E+00
 0.93233085004E+00 0.89340603874E+00 0.86635251604E+00 0.85076611662E+00 0.84227210282E+00
 0.83814678898E+00 0.83799291849E+00 0.83961281020E+00 0.84007325089E+00 0.84123413566E+00
 0.84901493390E+00 0.86679225288E+00 0.89408552210E+00 0.93107650028E+00 0.97860885100E+00
 0.10333850385E+01 0.10885183831E+01 0.11393447790E+01 0.11839542983E+01 0.12182751417E+01
 0.12362490735E+01 0.12355097704E+01 0.12181890191E+01 0.11861873848E+01 0.11407327040E+01
 0.10865658008E+01 0.10311691176E+01 0.95207866763E+00 0.91649938494E+00 0.88669965113E+00
 0.86614264024E+00 0.85655128308E+00 0.85429628484E+00 0.85471322503E+00 0.85659838606E+00
 0.85926155371E+00 0.85955253639E+00 0.85615735363E+00 0.85336270289E+00 0.85658620372E+00
 0.86735126897E+00 0.88582378096E+00 0.91399821996E+00 0.95204306712E+00 0.99490852947E+00
 0.10365434241E+01 0.10743577103E+01 0.11062700999E+01 0.11273650509E+01 0.11336274541E+01
 0.11258295552E+01 0.11063160760E+01 0.10755805419E+01 0.10355441448E+01 0.99237317298E+00
 0.90966157283E+00 0.88540651261E+00 0.86599935083E+00 0.85313347129E+00 0.84978782170E+00
 0.85449638291E+00 0.86160888969E+00 0.86759357688E+00 0.87215932112E+00 0.87366021344E+00
 0.86939139267E+00 0.86093989821E+00 0.85387396185E+00 0.85162787586E+00 0.85445937465E+00
 0.86400503507E+00 0.88303865774E+00 0.91020435093E+00 0.94013302233E+00 0.96908748946E+00
 0.99569853579E+00 0.10165492109E+01 0.10267220453E+01 0.10251544790E+01 0.10145453703E+01
 0.99613315760E+00 0.96976417240E+00 0.93885183520E+00 0.85572700541E+00 0.84165081504E+00
 0.83269279158E+00 0.82840896101E+00 0.83119951228E+00 0.84209529232E+00 0.85666483318E+00
 0.86921669836E+00 0.87780732745E+00 0.88179638036E+00 0.87874161134E+00 0.86806103155E+00
 0.85427071729E+00 0.84251673966E+00 0.83401446207E+00 0.82911904348E+00 0.83078056799E+00
 0.84086111019E+00 0.85650029928E+00 0.87383400393E+00 0.89180111522E+00 0.90891942386E+00
 0.92046425614E+00 0.92296172112E+00 0.91804589628E+00 0.90839592991E+00 0.89376037566E+00
 0.87463362035E+00 0.79447638131E+00 0.78901137053E+00 0.78929069889E+00 0.79386834519E+00
 0.80305878301E+00 0.81884145726E+00 0.83943952376E+00 0.85912025076E+00 0.87382093470E+00
 0.88244080325E+00 0.88307856671E+00 0.87361202933E+00 0.85642872996E+00 0.83750849305E+00
 0.82034388450E+00 0.80516410377E+00 0.79360328451E+00 0.78872048029E+00 0.79026547127E+00
 0.79498083194E+00 0.80162113075E+00 0.81074034759E+00 0.81984319755E+00 0.82422634064E+00
 0.82288169399E+00 0.81862928724E+00 0.81260620998E+00 0.80389435006E+00 0.72986866791E+00
 0.73170611142E+00 0.73931216229E+00 0.75192551163E+00 0.76800339323E+00 0.78841603245E+00
 0.81325348516E+00 0.83850398838E+00 0.85926734684E+00 0.87346758851E+00 0.87969398612E+00
 0.87512521480E+00 0.85926153140E+00 0.83669467365E+00 0.81282241537E+00 0.78958129709E+00
 0.76797385210E+00 0.75096396485E+00 0.74034452453E+00 0.73402881373E+00 0.72981562888E+00
 0.72865026350E+00 0.73103761519E+00 0.73378847787E+00 0.73388981128E+00 0.73245858956E+00
 0.73161884740E+00 0.73085274024E+00 0.66535194590E+00 0.67343693005E+00 0.68663535092E+00
 0.70549730490E+00 0.72814594262E+00 0.75375144397E+00 0.78250106293E+00 0.81205943620E+00
 0.83782724341E+00 0.85687925656E+00 0.86825791079E+00 0.86988275521E+00 0.85939879374E+00
 0.83831668216E+00 0.81155505207E+00 0.78275051157E+00 0.75343816650E+00 0.72624107193E+00
 0.70445949491E+00 0.68826669816E+00 0.67524836923E+00 0.66488255570E+00 0.65873852738E+00
 0.65637047030E+00 0.65513355225E+00 0.65432440314E+00 0.65568742685E+00 0.65971931965E+00
 0.60400781759E+00 0.61701300342E+00 0.63461746271E+00 0.65791392191E+00 0.68576147371E+00
 0.71649862000E+00 0.74956086874E+00 0.78345986918E+00 0.81426012010E+00 0.83815731875E+00
 0.85377153960E+00 0.86027854723E+00 0.85571988229E+00 0.83942937433E+00 0.81414228787E+00
 0.78360801379E+00 0.75000783555E+00 0.71547250088E+00 0.68363801340E+00 0.65717094278E+00
 0.63556008706E+00 0.61748625439E+00 0.60352071017E+00 0.59451828257E+00 0.58946445912E+00
 0.58719928679E+00 0.58848420876E+00 0.59431083064E+00 0.54863531973E+00 0.56468613456E+00
 0.58567863710E+00 0.61224616080E+00 0.64385451557E+00 0.67885463238E+00 0.71604528820E+00
 0.75425692337E+00 0.79050491547E+00 0.82057697208E+00 0.84164194188E+00 0.85271268400E+00
 0.85290801524E+00 0.84144285979E+00 0.81945476123E+00 0.78985768403E+00 0.75516801521E+00
 0.71716809768E+00 0.67855962804E+00 0.64277710629E+00 0.61175839062E+00 0.58554884803E+00
 0.56420790245E+00 0.54840227064E+00 0.53811876430E+00 0.53266718164E+00 0.53218316246E+00
 0.53752170221E+00 0.50149356387E+00 0.51848136077E+00 0.54152923900E+00 0.57055926636E+00
 0.60510596763E+00 0.64372018521E+00 0.68475482686E+00 0.72686813494E+00 0.76800340517E+00
 0.80465998948E+00 0.83308615903E+00 0.85079916275E+00 0.85655127271E+00 0.84980253275E+00
 0.83120113946E+00 0.80297824694E+00 0.76793341878E+00 0.72832680633E+00 0.68623938127E+00
 0.64427702749E+00 0.60504219709E+00 0.57025803713E+00 0.54094093718E+00 0.51789279993E+00
 0.50146964491E+00 0.49146459626E+00 0.48784272705E+00 0.49110573370E+00 0.46400376174E+00
 0.48006471337E+00 0.50355328448E+00 0.53400072313E+00 0.57081573309E+00 0.61276203399E+00
 0.65797645664E+00 0.70447595234E+00 0.75022742573E+00 0.79264870358E+00 0.82847151440E+00
 0.85440129706E+00 0.86792170698E+00 0.86769763229E+00 0.85377400874E+00 0.82768886135E+00
 0.79215426350E+00 0.75028108279E+00 0.70492914033E+00 0.65855417384E+00 0.61331938598E+00
 0.57119281843E+00 0.53398063670E+00 0.50319875107E+00 0.47977952152E+00 0.46401265136E+00
 0.45597063176E+00 0.45589807698E+00 0.43684316898E+00 0.45052092564E+00 0.47291843412E+00
 0.50349074484E+00 0.54155793210E+00 0.58613197384E+00 0.63559541648E+00 0.68759415226E+00
 0.73934084348E+00 0.78800849882E+00 0.83077745178E+00 0.86466900347E+00 0.88672835464E+00
 0.89468862903E+00 0.88759185122E+00 0.86595870955E+00 0.83167880199E+00 0.78782182588E+00
 0.73815773785E+00 0.68630325967E+00 0.63504138473E+00 0.58637204149E+00 0.54203001126E+00
 0.50372597803E+00 0.47289853057E+00 0.45044776363E+00 0.43681733530E+00 0.43224374834E+00
 0.42035637459E+00 0.43046933152E+00 0.45048987181E+00 0.47997111963E+00 0.51819340824E+00
 0.56426385513E+00 0.61698195453E+00 0.67436468891E+00 0.73337271157E+00 0.79032460593E+00
 0.84161974751E+00 0.88404509316E+00 0.91468883246E+00 0.93107932759E+00 0.93167554988E+00
 0.91620915359E+00 0.88567613731E+00 0.84230514925E+00 0.78955667239E+00 0.73170619872E+00
 0.67291015183E+00 0.61640053189E+00 0.56439467958E+00 0.51852165599E+00 0.48017380640E+00
 0.45053304049E+00 0.43044002590E+00 0.42033617218E+00 0.46303834179E+00 0.46958763634E+00
 0.48935229799E+00 0.52248849422E+00 0.56881729473E+00 0.62766757640E+00 0.69782692795E+00
 0.77725567125E+00 0.86260840710E+00 0.94906354900E+00 0.10307964022E+01 0.11018452207E+01
 0.11568767751E+01 0.11916805934E+01 0.12035487919E+01 0.11915930780E+01 0.11568210777E+01
 0.11019140347E+01 0.10309368881E+01 0.94912730083E+00 0.86251007558E+00 0.77705296256E+00
 0.69764153284E+00 0.62756244919E+00 0.56877232147E+00 0.52246443815E+00 0.48933576758E+00
 0.46957989733E+00 0.46960945173E+00 0.46959856429E+00 0.48486382512E+00 0.51573687276E+00
 0.56244975954E+00 0.62466978029E+00 0.70120565261E+00 0.78989493803E+00 0.88751577319E+00
 0.98957661887E+00 0.10901436979E+01 0.11821577849E+01 0.12584072641E+01 0.13126849124E+01
 0.13405785903E+01 0.13399047170E+01 0.13109956942E+01 0.12566357959E+01 0.11814038899E+01
 0.10908451370E+01 0.99109089790E+00 0.88873369554E+00 0.79023915409E+00 0.70090843476E+00
 0.62424738848E+00 0.56218866780E+00 0.51564983423E+00 0.48486495380E+00 0.48935898556E+00