   6   6   0   0
  0.2185851E+02  0.3190316E-09  0.3190316E-09  0.1487900E-08  0.5000000E-15
  1.000000000000000E-004
  CAR 
 unknown system                          
      8.96793927    -12.93104140  301      3.35176319      1.00000000
    -12.931  0.0000E+00  0.0000E+00
    -12.858  0.0000E+00  0.0000E+00
    -12.785  0.0000E+00  0.0000E+00
    -12.712  0.0000E+00  0.0000E+00
    -12.639  0.0000E+00  0.0000E+00
    -12.566  0.0000E+00  0.0000E+00
    -12.493  0.0000E+00  0.0000E+00
    -12.420  0.0000E+00  0.0000E+00
    -12.347  0.0000E+00  0.0000E+00
    -12.274  0.0000E+00  0.0000E+00
    -12.201  0.0000E+00  0.0000E+00
    -12.128  0.0000E+00  0.0000E+00
    -12.055  0.0000E+00  0.0000E+00
    -11.982  0.0000E+00  0.0000E+00
    -11.909  0.0000E+00  0.0000E+00
    -11.836  0.0000E+00  0.0000E+00
    -11.763  0.0000E+00  0.0000E+00
    -11.690  0.0000E+00  0.0000E+00
    -11.617  0.0000E+00  0.0000E+00
    -11.544  0.0000E+00  0.0000E+00
    -11.471  0.0000E+00  0.0000E+00
    -11.398  0.0000E+00  0.0000E+00
    -11.325  0.0000E+00  0.0000E+00
    -11.252  0.0000E+00  0.0000E+00
    -11.179  0.0000E+00  0.0000E+00
    -11.106  0.0000E+00  0.0000E+00
    -11.033  0.0000E+00  0.0000E+00
    -10.960  0.0000E+00  0.0000E+00
    -10.887  0.2818E+00  0.4979E-02
    -10.814  0.8787E+00  0.4734E-01
    -10.741  0.1476E+01  0.1333E+00
    -10.668  0.9910E+00  0.2258E+00
    -10.595  0.1059E+01  0.3006E+00
    -10.522  0.1126E+01  0.3803E+00
    -10.449  0.1194E+01  0.4650E+00
    -10.376  0.1262E+01  0.5546E+00
    -10.303  0.1320E+01  0.6491E+00
    -10.230  0.1333E+01  0.7459E+00
    -10.157  0.1345E+01  0.8437E+00
    -10.084  0.1390E+01  0.9432E+00
    -10.011  0.1447E+01  0.1047E+01
     -9.938  0.1503E+01  0.1154E+01
     -9.865  0.1560E+01  0.1266E+01
     -9.792  0.1616E+01  0.1382E+01
     -9.719  0.1736E+01  0.1502E+01
     -9.646  0.4322E+01  0.1714E+01
     -9.573  0.4292E+01  0.2046E+01
     -9.500  0.4797E+01  0.2378E+01
     -9.427  0.5347E+01  0.2747E+01
     -9.354  0.5724E+01  0.3152E+01
     -9.281  0.6265E+01  0.3589E+01
     -9.208  0.6846E+01  0.4067E+01
     -9.135  0.1002E+02  0.4822E+01
     -9.062  0.8379E+01  0.5440E+01
     -8.989  0.8535E+01  0.6053E+01
     -8.916  0.7524E+01  0.6730E+01
     -8.843  0.7276E+01  0.7465E+01
     -8.770  0.3949E+01  0.7875E+01
     -8.697  0.0000E+00  0.8000E+01
     -8.624  0.0000E+00  0.8000E+01
     -8.551  0.0000E+00  0.8000E+01
     -8.478  0.0000E+00  0.8000E+01
     -8.405  0.0000E+00  0.8000E+01
     -8.332  0.0000E+00  0.8000E+01
     -8.259  0.0000E+00  0.8000E+01
     -8.186  0.0000E+00  0.8000E+01
     -8.113  0.0000E+00  0.8000E+01
     -8.040  0.0000E+00  0.8000E+01
     -7.967  0.0000E+00  0.8000E+01
     -7.894  0.0000E+00  0.8000E+01
     -7.821  0.0000E+00  0.8000E+01
     -7.748  0.0000E+00  0.8000E+01
     -7.675  0.0000E+00  0.8000E+01
     -7.602  0.0000E+00  0.8000E+01
     -7.529  0.0000E+00  0.8000E+01
     -7.456  0.0000E+00  0.8000E+01
     -7.383  0.0000E+00  0.8000E+01
     -7.310  0.0000E+00  0.8000E+01
     -7.237  0.0000E+00  0.8000E+01
     -7.164  0.0000E+00  0.8000E+01
     -7.091  0.0000E+00  0.8000E+01
     -7.018  0.0000E+00  0.8000E+01
     -6.945  0.0000E+00  0.8000E+01
     -6.872  0.0000E+00  0.8000E+01
     -6.799  0.0000E+00  0.8000E+01
     -6.726  0.0000E+00  0.8000E+01
     -6.653  0.0000E+00  0.8000E+01
     -6.580  0.0000E+00  0.8000E+01
     -6.507  0.0000E+00  0.8000E+01
     -6.434  0.0000E+00  0.8000E+01
     -6.361  0.0000E+00  0.8000E+01
     -6.288  0.0000E+00  0.8000E+01
     -6.215  0.0000E+00  0.8000E+01
     -6.142  0.0000E+00  0.8000E+01
     -6.069  0.0000E+00  0.8000E+01
     -5.996  0.0000E+00  0.8000E+01
     -5.923  0.0000E+00  0.8000E+01
     -5.850  0.0000E+00  0.8000E+01
     -5.777  0.0000E+00  0.8000E+01
     -5.704  0.0000E+00  0.8000E+01
     -5.631  0.0000E+00  0.8000E+01
     -5.558  0.0000E+00  0.8000E+01
     -5.485  0.0000E+00  0.8000E+01
     -5.412  0.0000E+00  0.8000E+01
     -5.339  0.0000E+00  0.8000E+01
     -5.266  0.0000E+00  0.8000E+01
     -5.193  0.0000E+00  0.8000E+01
     -5.120  0.0000E+00  0.8000E+01
     -5.047  0.0000E+00  0.8000E+01
     -4.974  0.0000E+00  0.8000E+01
     -4.901  0.0000E+00  0.8000E+01
     -4.828  0.0000E+00  0.8000E+01
     -4.755  0.0000E+00  0.8000E+01
     -4.682  0.0000E+00  0.8000E+01
     -4.609  0.0000E+00  0.8000E+01
     -4.536  0.0000E+00  0.8000E+01
     -4.463  0.0000E+00  0.8000E+01
     -4.390  0.0000E+00  0.8000E+01
     -4.317  0.0000E+00  0.8000E+01
     -4.244  0.0000E+00  0.8000E+01
     -4.171  0.0000E+00  0.8000E+01
     -4.098  0.0000E+00  0.8000E+01
     -4.025  0.0000E+00  0.8000E+01
     -3.952  0.0000E+00  0.8000E+01
     -3.879  0.0000E+00  0.8000E+01
     -3.806  0.0000E+00  0.8000E+01
     -3.733  0.0000E+00  0.8000E+01
     -3.660  0.0000E+00  0.8000E+01
     -3.587  0.0000E+00  0.8000E+01
     -3.514  0.0000E+00  0.8000E+01
     -3.441  0.0000E+00  0.8000E+01
     -3.368  0.0000E+00  0.8000E+01
     -3.295  0.0000E+00  0.8000E+01
     -3.222  0.0000E+00  0.8000E+01
     -3.149  0.0000E+00  0.8000E+01
     -3.077  0.0000E+00  0.8000E+01
     -3.004  0.0000E+00  0.8000E+01
     -2.931  0.0000E+00  0.8000E+01
     -2.858  0.0000E+00  0.8000E+01
     -2.785  0.0000E+00  0.8000E+01
     -2.712  0.0000E+00  0.8000E+01
     -2.639  0.0000E+00  0.8000E+01
     -2.566  0.4242E+00  0.8008E+01
     -2.493  0.1348E+01  0.8072E+01
     -2.420  0.2447E+01  0.8209E+01
     -2.347  0.3746E+01  0.8434E+01
     -2.274  0.5272E+01  0.8774E+01
     -2.201  0.5732E+01  0.9175E+01
     -2.128  0.1344E+02  0.9668E+01
     -2.055  0.6989E+01  0.1023E+02
     -1.982  0.5833E+01  0.1070E+02
     -1.909  0.1121E+02  0.1131E+02
     -1.836  0.4178E+01  0.1188E+02
     -1.763  0.1040E+02  0.1227E+02
     -1.690  0.7024E+01  0.1289E+02
     -1.617  0.2757E+01  0.1320E+02
     -1.544  0.2523E+01  0.1339E+02
     -1.471  0.2289E+01  0.1356E+02
     -1.398  0.2055E+01  0.1372E+02
     -1.325  0.1821E+01  0.1386E+02
     -1.252  0.1669E+01  0.1399E+02
     -1.179  0.1677E+01  0.1411E+02
     -1.106  0.1685E+01  0.1424E+02
     -1.033  0.1693E+01  0.1436E+02
     -0.960  0.1725E+01  0.1448E+02
     -0.887  0.5047E+01  0.1471E+02
     -0.814  0.1072E+02  0.1527E+02
     -0.741  0.1213E+02  0.1618E+02
     -0.668  0.9854E+01  0.1691E+02
     -0.595  0.7893E+01  0.1759E+02
     -0.522  0.4590E+01  0.1804E+02
     -0.449  0.2590E+01  0.1828E+02
     -0.376  0.2335E+01  0.1846E+02
     -0.303  0.2166E+01  0.1862E+02
     -0.230  0.2001E+01  0.1877E+02
     -0.157  0.1837E+01  0.1892E+02
     -0.084  0.1790E+02  0.1949E+02
     -0.011  0.1132E+02  0.2088E+02
      0.062  0.6837E+01  0.2148E+02
      0.135  0.6765E+01  0.2193E+02
      0.208  0.4660E+01  0.2240E+02
      0.281  0.3702E+01  0.2268E+02
      0.354  0.3511E+01  0.2295E+02
      0.427  0.3319E+01  0.2319E+02
      0.500  0.4360E+01  0.2346E+02
      0.573  0.4978E+01  0.2382E+02
      0.646  0.4983E+01  0.2419E+02
      0.719  0.3282E+01  0.2449E+02
      0.792  0.1810E+01  0.2466E+02
      0.865  0.1763E+01  0.2479E+02
      0.938  0.1723E+01  0.2492E+02
      1.011  0.1691E+01  0.2504E+02
      1.084  0.3560E+01  0.2518E+02
      1.157  0.9186E+01  0.2561E+02
      1.230  0.1862E+02  0.2660E+02
      1.303  0.1460E+02  0.2784E+02
      1.376  0.5591E+01  0.2858E+02
      1.449  0.3184E+01  0.2887E+02
      1.522  0.2960E+01  0.2910E+02
      1.595  0.2878E+01  0.2931E+02
      1.668  0.3019E+01  0.2952E+02
      1.741  0.3676E+01  0.2976E+02
      1.814  0.6742E+01  0.3012E+02
      1.887  0.8499E+01  0.3070E+02
      1.960  0.4881E+01  0.3117E+02
      2.033  0.4279E+01  0.3151E+02
      2.106  0.2815E+01  0.3177E+02
      2.179  0.1454E+01  0.3192E+02
      2.252  0.3236E+01  0.3207E+02
      2.325  0.8546E+01  0.3248E+02
      2.398  0.7589E+01  0.3307E+02
      2.471  0.7045E+01  0.3360E+02
      2.544  0.6445E+01  0.3409E+02
      2.617  0.5966E+01  0.3455E+02
      2.690  0.4097E+01  0.3489E+02
      2.763  0.3555E+01  0.3517E+02
      2.836  0.3013E+01  0.3541E+02
      2.909  0.2794E+01  0.3562E+02
      2.982  0.4064E+01  0.3585E+02
      3.055  0.9149E+00  0.3592E+02
      3.128  0.4606E+00  0.3597E+02
      3.201  0.1489E+00  0.3600E+02
      3.274  0.9776E-02  0.3600E+02
      3.347  0.0000E+00  0.3600E+02
      3.420  0.0000E+00  0.3600E+02
      3.493  0.0000E+00  0.3600E+02
      3.566  0.0000E+00  0.3600E+02
      3.639  0.0000E+00  0.3600E+02
      3.712  0.0000E+00  0.3600E+02
      3.785  0.0000E+00  0.3600E+02
      3.858  0.0000E+00  0.3600E+02
      3.931  0.0000E+00  0.3600E+02
      4.004  0.0000E+00  0.3600E+02
      4.077  0.0000E+00  0.3600E+02
      4.150  0.0000E+00  0.3600E+02
      4.223  0.0000E+00  0.3600E+02
      4.296  0.0000E+00  0.3600E+02
      4.369  0.0000E+00  0.3600E+02
      4.442  0.0000E+00  0.3600E+02
      4.515  0.0000E+00  0.3600E+02
      4.588  0.0000E+00  0.3600E+02
      4.661  0.0000E+00  0.3600E+02
      4.734  0.0000E+00  0.3600E+02
      4.807  0.0000E+00  0.3600E+02
      4.880  0.0000E+00  0.3600E+02
      4.953  0.1319E+01  0.3609E+02
      5.026  0.2851E+01  0.3622E+02
      5.099  0.6605E+01  0.3657E+02
      5.172  0.1066E+02  0.3719E+02
      5.245  0.1389E+02  0.3811E+02
      5.318  0.6721E+01  0.3934E+02
      5.391  0.1810E+01  0.3953E+02
      5.464  0.4556E+01  0.3968E+02
      5.537  0.1201E+02  0.4033E+02
      5.610  0.9839E+01  0.4115E+02
      5.683  0.7011E+01  0.4172E+02
      5.756  0.6095E+01  0.4219E+02
      5.829  0.5611E+01  0.4269E+02
      5.902  0.3797E+01  0.4302E+02
      5.975  0.3029E+01  0.4327E+02
      6.048  0.2384E+01  0.4347E+02
      6.121  0.2036E+01  0.4363E+02
      6.194  0.2068E+01  0.4378E+02
      6.267  0.1558E+01  0.4391E+02
      6.340  0.1296E+00  0.4397E+02
      6.413  0.1012E+00  0.4398E+02
      6.486  0.7635E-01  0.4399E+02
      6.559  0.5497E-01  0.4399E+02
      6.632  0.3710E-01  0.4400E+02
      6.705  0.2272E-01  0.4400E+02
      6.778  0.1186E-01  0.4400E+02
      6.851  0.4493E-02  0.4400E+02
      6.924  0.6338E-03  0.4400E+02
      6.997  0.0000E+00  0.4400E+02
      7.070  0.0000E+00  0.4400E+02
      7.143  0.0000E+00  0.4400E+02
      7.216  0.0000E+00  0.4400E+02
      7.289  0.0000E+00  0.4400E+02
      7.362  0.0000E+00  0.4400E+02
      7.435  0.0000E+00  0.4400E+02
      7.508  0.0000E+00  0.4400E+02
      7.581  0.0000E+00  0.4400E+02
      7.654  0.0000E+00  0.4400E+02
      7.727  0.0000E+00  0.4400E+02
      7.800  0.0000E+00  0.4400E+02
      7.873  0.0000E+00  0.4400E+02
      7.946  0.0000E+00  0.4400E+02
      8.019  0.0000E+00  0.4400E+02
      8.092  0.0000E+00  0.4400E+02
      8.165  0.0000E+00  0.4400E+02
      8.238  0.0000E+00  0.4400E+02
      8.311  0.0000E+00  0.4400E+02
      8.384  0.0000E+00  0.4400E+02
      8.457  0.0000E+00  0.4400E+02
      8.530  0.0000E+00  0.4400E+02
      8.603  0.0000E+00  0.4400E+02
      8.676  0.0000E+00  0.4400E+02
      8.749  0.0000E+00  0.4400E+02
      8.822  0.0000E+00  0.4400E+02
      8.895  0.0000E+00  0.4400E+02
      8.968  0.0000E+00  0.4400E+02
