 vasp.5.4.4.18Apr17-6-g9f103f2a35 (build Jun 30 2017 11:15:00) complex          
  
 executed on    STALLO_VASP_5.4.4 date 2019.11.08  11:35:49
 running on    4 total cores
 distrk:  each k-point on    4 cores,    1 groups
 distr:  one band on NCORES_PER_BAND=   2 cores,    2 groups


--------------------------------------------------------------------------------------------------------


 INCAR:
 POTCAR:   PAW_PBE Mo 08Apr2002                   
 POTCAR:    PAW_PBE S 17Jan2003                   
 POTCAR:   PAW_PBE Mo 08Apr2002                   
   VRHFIN =Mo: 4p5s4d                                                           
   LEXCH  = PE                                                                  
   EATOM  =   217.5180 eV,   15.9871 Ry                                         
                                                                                
   TITEL  = PAW_PBE Mo 08Apr2002                                                
   LULTRA =        F    use ultrasoft PP ?                                      
   IUNSCR =        1    unscreen: 0-lin 1-nonlin 2-no                           
   RPACOR =    2.200    partial core radius                                     
   POMASS =   95.940; ZVAL   =    6.000    mass and valenz                      
   RCORE  =    2.750    outmost cutoff radius                                   
   RWIGS  =    2.750; RWIGS  =    1.455    wigner-seitz radius (au A)           
   ENMAX  =  224.584; ENMIN  =  168.438 eV                                      
   RCLOC  =    2.111    cutoff for local pot                                    
   LCOR   =        T    correct aug charges                                     
   LPAW   =        T    paw PP                                                  
   EAUG   =  345.278                                                            
   DEXC   =    -.088                                                            
   RMAX   =    3.077    core radius for proj-oper                               
   RAUG   =    1.300    factor for augmentation sphere                          
   RDEP   =    2.815    radius for radial grids                                 
   QCUT   =   -4.063; QGAM   =    8.126    optimization parameters              
                                                                                
   Description                                                                  
     l     E      TYP  RCUT    TYP  RCUT                                        
     2   .000     23  2.500                                                     
     2   .000     23  2.500                                                     
     0   .000     23  2.600                                                     
     0  1.000     23  2.600                                                     
     1   .400     23  2.750                                                     
     1  2.000     23  2.750                                                     
     3   .000      7   .000                                                     
  local pseudopotential read in
  partial core-charges read in
  atomic valenz-charges read in
  non local Contribution for L=           2  read in
    real space projection operators read in
  non local Contribution for L=           2  read in
    real space projection operators read in
  non local Contribution for L=           0  read in
    real space projection operators read in
  non local Contribution for L=           0  read in
    real space projection operators read in
  non local Contribution for L=           1  read in
    real space projection operators read in
  non local Contribution for L=           1  read in
    real space projection operators read in
    PAW grid and wavefunctions read in
 
   number of l-projection  operators is LMAX  =           6
   number of lm-projection operators is LMMAX =          18
 
 POTCAR:    PAW_PBE S 17Jan2003                   
   VRHFIN =S : s2p4                                                             
   LEXCH  = PE                                                                  
   EATOM  =   276.8230 eV,   20.3459 Ry                                         
                                                                                
   TITEL  = PAW_PBE S 17Jan2003                                                 
   LULTRA =        F    use ultrasoft PP ?                                      
   IUNSCR =        1    unscreen: 0-lin 1-nonlin 2-no                           
   RPACOR =    1.500    partial core radius                                     
   POMASS =   32.066; ZVAL   =    6.000    mass and valenz                      
   RCORE  =    1.900    outmost cutoff radius                                   
   RWIGS  =    2.200; RWIGS  =    1.164    wigner-seitz radius (au A)           
   ENMAX  =  280.000; ENMIN  =  194.016 eV                                      
   ICORE  =        2    local potential                                         
   LCOR   =        T    correct aug charges                                     
   LPAW   =        T    paw PP                                                  
   EAUG   =  335.092                                                            
   DEXC   =     .000                                                            
   RMAX   =    2.867    core radius for proj-oper                               
   RAUG   =    1.300    factor for augmentation sphere                          
   RDEP   =    1.954    radius for radial grids                                 
   QCUT   =   -4.360; QGAM   =    8.721    optimization parameters              
                                                                                
   Description                                                                  
     l     E      TYP  RCUT    TYP  RCUT                                        
     0   .000     23  1.900                                                     
     0   .000     23  1.900                                                     
     1   .000     23  1.900                                                     
     1   .000     23  1.900                                                     
     2   .000     23  1.900                                                     
  local pseudopotential read in
  partial core-charges read in
  atomic valenz-charges read in
  non local Contribution for L=           0  read in
    real space projection operators read in
  non local Contribution for L=           0  read in
    real space projection operators read in
  non local Contribution for L=           1  read in
    real space projection operators read in
  non local Contribution for L=           1  read in
    real space projection operators read in
    PAW grid and wavefunctions read in
 
   number of l-projection  operators is LMAX  =           4
   number of lm-projection operators is LMMAX =           8
 
 PAW_PBE Mo 08Apr2002                   :
 energy of atom  1       EATOM= -217.5180
 kinetic energy error for atom=    0.0176 (will be added to EATOM!!)
  PAW_PBE S 17Jan2003                   :
 energy of atom  2       EATOM= -276.8230
 kinetic energy error for atom=    0.0077 (will be added to EATOM!!)
 
 
 POSCAR: MoS2_mp-2815_computed                   
  positions in direct lattice
  No initial velocities read in
 exchange correlation table for  LEXCH =        8
   RHO(1)=    0.500       N(1)  =     2000
   RHO(2)=  100.500       N(2)  =     4000
 


--------------------------------------------------------------------------------------------------------


 ion  position               nearest neighbor table
   1  0.333  0.667  0.250-   5 2.42   4 2.42   4 2.42   5 2.42   5 2.42   4 2.42
   2  0.667  0.333  0.750-   6 2.42   3 2.42   3 2.42   6 2.42   6 2.42   3 2.42
   3  0.333  0.667  0.855-   2 2.42   2 2.42   2 2.42
   4  0.667  0.333  0.145-   1 2.42   1 2.42   1 2.42
   5  0.667  0.333  0.355-   1 2.42   1 2.42   1 2.42
   6  0.333  0.667  0.645-   2 2.42   2 2.42   2 2.42
 
  LATTYP: Found a hexagonal cell.
 ALAT       =     3.1903157300
 C/A-ratio  =     4.6638030713
  
  Lattice vectors:
  
 A1 = (   3.1903157300,   0.0000000000,   0.0000000000)
 A2 = (  -1.5951578650,   2.7628944683,   0.0000000000)
 A3 = (   0.0000000000,   0.0000000000,  14.8790043000)


Analysis of symmetry for initial positions (statically):
=====================================================================
 Subroutine PRICEL returns:
 Original cell was already a primitive cell.
 

 Routine SETGRP: Setting up the symmetry group for a 
 hexagonal supercell.


 Subroutine GETGRP returns: Found 24 space group operations
 (whereof 12 operations were pure point group operations)
 out of a pool of 24 trial point group operations.


The static configuration has the point symmetry D_3d.
 The point group associated with its full space group is D_6h.


Analysis of symmetry for dynamics (positions and initial velocities):
=====================================================================
 Subroutine PRICEL returns:
 Original cell was already a primitive cell.
 

 Routine SETGRP: Setting up the symmetry group for a 
 hexagonal supercell.


 Subroutine GETGRP returns: Found 24 space group operations
 (whereof 12 operations were pure point group operations)
 out of a pool of 24 trial point group operations.


The dynamic configuration has the point symmetry D_3d.
 The point group associated with its full space group is D_6h.


 Subroutine INISYM returns: Found 24 space group operations
 (whereof 12 operations are pure point group operations),
 and found     1 'primitive' translations

 
 
 KPOINTS: k-density: 4.0                          

Automatic generation of k-mesh.
Space group operators:
 irot       det(A)        alpha          n_x          n_y          n_z        tau_x        tau_y        tau_z
    1     1.000000     0.000001     1.000000     0.000000     0.000000     0.000000     0.000000     0.000000
    2    -1.000000     0.000001     1.000000     0.000000     0.000000     0.000000     0.000000     0.000000
    3     1.000000   120.000000     0.000000     0.000000    -1.000000     0.000000     0.000000     0.000000
    4    -1.000000   120.000000     0.000000     0.000000    -1.000000     0.000000     0.000000     0.000000
    5     1.000000   120.000000     0.000000     0.000000     1.000000     0.000000     0.000000     0.000000
    6    -1.000000   120.000000     0.000000     0.000000     1.000000     0.000000     0.000000     0.000000
    7     1.000000   179.999999     1.000000    -0.000000     0.000000     0.000000     0.000000     0.000000
    8    -1.000000   179.999999     1.000000    -0.000000     0.000000     0.000000     0.000000     0.000000
    9     1.000000   180.000000     0.500000    -0.866025     0.000000     0.000000     0.000000     0.000000
   10    -1.000000   180.000000     0.500000    -0.866025     0.000000     0.000000     0.000000     0.000000
   11     1.000000   180.000000    -0.500000    -0.866025     0.000000     0.000000     0.000000     0.000000
   12    -1.000000   180.000000    -0.500000    -0.866025     0.000000     0.000000     0.000000     0.000000
   13     1.000000    60.000000     0.000000     0.000000    -1.000000     0.000001     0.000000     0.500000
   14    -1.000000    60.000000     0.000000     0.000000    -1.000000     0.000001     0.000000     0.500000
   15     1.000000   180.000000     0.000000     0.000000     1.000000     0.000000     0.000000     0.500000
   16    -1.000000   180.000000     0.000000     0.000000     1.000000     0.000000     0.000000     0.500000
   17     1.000000    60.000000     0.000000     0.000000     1.000000     0.000000     0.000000     0.500000
   18    -1.000000    60.000000     0.000000     0.000000     1.000000     0.000000     0.000000     0.500000
   19     1.000000   179.999999     0.866025    -0.500000     0.000000     0.000000     0.000000     0.500000
   20    -1.000000   179.999999     0.866025    -0.500000     0.000000     0.000000     0.000000     0.500000
   21     1.000000   180.000000     0.000000     1.000000     0.000000     0.000001     0.000000     0.500000
   22    -1.000000   180.000000     0.000000     1.000000     0.000000     0.000001     0.000000     0.500000
   23     1.000000   179.999999     0.866025     0.500000     0.000000     0.000000     0.000000     0.500000
   24    -1.000000   179.999999     0.866025     0.500000     0.000000     0.000000     0.000000     0.500000
 
 Subroutine IBZKPT returns following result:
 ===========================================
 
 Found     20 irreducible k-points:
 
 Following reciprocal coordinates:
            Coordinates               Weight
  0.000000  0.000000  0.000000      1.000000
  0.125000 -0.000000  0.000000      6.000000
  0.250000 -0.000000  0.000000      6.000000
  0.375000 -0.000000  0.000000      6.000000
  0.500000 -0.000000  0.000000      3.000000
  0.125000  0.125000  0.000000      6.000000
  0.250000  0.125000  0.000000     12.000000
  0.375000  0.125000  0.000000     12.000000
  0.250000  0.250000  0.000000      6.000000
  0.375000  0.250000  0.000000      6.000000
  0.000000  0.000000  0.500000      1.000000
  0.125000 -0.000000  0.500000      6.000000
  0.250000 -0.000000  0.500000      6.000000
  0.375000 -0.000000  0.500000      6.000000
  0.500000 -0.000000  0.500000      3.000000
  0.125000  0.125000  0.500000      6.000000
  0.250000  0.125000  0.500000     12.000000
  0.375000  0.125000  0.500000     12.000000
  0.250000  0.250000  0.500000      6.000000
  0.375000  0.250000  0.500000      6.000000
 
 Following cartesian coordinates:
            Coordinates               Weight
  0.000000  0.000000  0.000000      1.000000
  0.039181  0.022621  0.000000      6.000000
  0.078362  0.045242  0.000000      6.000000
  0.117543  0.067864  0.000000      6.000000
  0.156724  0.090485  0.000000      3.000000
  0.039181  0.067864  0.000000      6.000000
  0.078362  0.090485  0.000000     12.000000
  0.117543  0.113106  0.000000     12.000000
  0.078362  0.135727  0.000000      6.000000
  0.117543  0.158348  0.000000      6.000000
  0.000000  0.000000  0.033604      1.000000
  0.039181  0.022621  0.033604      6.000000
  0.078362  0.045242  0.033604      6.000000
  0.117543  0.067864  0.033604      6.000000
  0.156724  0.090485  0.033604      3.000000
  0.039181  0.067864  0.033604      6.000000
  0.078362  0.090485  0.033604     12.000000
  0.117543  0.113106  0.033604     12.000000
  0.078362  0.135727  0.033604      6.000000
  0.117543  0.158348  0.033604      6.000000
 
 TETIRR: Found    136 inequivalent tetrahedra from      768


--------------------------------------------------------------------------------------------------------




 Dimension of arrays:
   k-points           NKPTS =     20   k-points in BZ     NKDIM =     20   number of bands    NBANDS=     22
   number of dos      NEDOS =    301   number of ions     NIONS =      6
   non local maximal  LDIM  =      6   non local SUM 2l+1 LMDIM =     18
   total plane-waves  NPLWV =  12544
   max r-space proj   IRMAX =      1   max aug-charges    IRDMAX=   6340
   dimension x,y,z NGX =    14 NGY =   14 NGZ =   64
   dimension x,y,z NGXF=    28 NGYF=   28 NGZF=  128
   support grid    NGXF=    28 NGYF=   28 NGZF=  128
   ions per type =               2   4
   NGX,Y,Z   is equivalent  to a cutoff of   7.30,  7.30,  7.15 a.u.
   NGXF,Y,Z  is equivalent  to a cutoff of  14.59, 14.59, 14.30 a.u.

 SYSTEM =  unknown system                          
 POSCAR =  MoS2_mp-2815_computed                   

 Startparameter for this run:
   NWRITE =      2    write-flag & timer
   PREC   = normal    normal or accurate (medium, high low for compatibility)
   ISTART =      0    job   : 0-new  1-cont  2-samecut
   ICHARG =      2    charge: 1-file 2-atom 10-const
   ISPIN  =      1    spin polarized calculation?
   LNONCOLLINEAR =      F non collinear calculations
   LSORBIT =      F    spin-orbit coupling
   INIWAV =      1    electr: 0-lowe 1-rand  2-diag
   LASPH  =      F    aspherical Exc in radial PAW
   METAGGA=      F    non-selfconsistent MetaGGA calc.

 Electronic Relaxation 1
   ENCUT  =  300.0 eV  22.05 Ry    4.70 a.u.   4.51  4.51 21.01*2*pi/ulx,y,z
   ENINI  =  300.0     initial cutoff
   ENAUG  =  345.3 eV  augmentation charge cutoff
   NELM   =     60;   NELMIN=  4; NELMDL=  0     # of ELM steps 
   EDIFF  = 0.1E-04   stopping-criterion for ELM
   LREAL  =      F    real-space projection
   NLSPLINE    = F    spline interpolate recip. space projectors
   LCOMPAT=      F    compatible to vasp.4.4
   GGA_COMPAT  = T    GGA compatible to vasp.4.4-vasp.4.6
   LMAXPAW     = -100 max onsite density
   LMAXMIX     =    2 max onsite mixed and CHGCAR
   VOSKOWN=      0    Vosko Wilk Nusair interpolation
   ROPT   =    0.00000   0.00000
 Ionic relaxation
   EDIFFG = 0.1E-03   stopping-criterion for IOM
   NSW    =      0    number of steps for IOM
   NBLOCK =      1;   KBLOCK =      1    inner block; outer block 
   IBRION =     -1    ionic relax: 0-MD 1-quasi-New 2-CG
   NFREE  =      0    steps in history (QN), initial steepest desc. (CG)
   ISIF   =      2    stress and relaxation
   IWAVPR =     10    prediction:  0-non 1-charg 2-wave 3-comb
   ISYM   =      2    0-nonsym 1-usesym 2-fastsym
   LCORR  =      T    Harris-Foulkes like correction to forces

   POTIM  = 0.5000    time-step for ionic-motion
   TEIN   =    0.0    initial temperature
   TEBEG  =    0.0;   TEEND  =   0.0 temperature during run
   SMASS  =  -3.00    Nose mass-parameter (am)
   estimated Nose-frequenzy (Omega)   =  0.10E-29 period in steps =****** mass=  -0.233E-27a.u.
   SCALEE = 1.0000    scale energy and forces
   NPACO  =    256;   APACO  = 16.0  distance and # of slots for P.C.
   PSTRESS=    0.0 pullay stress

  Mass of Ions in am
   POMASS =  95.94 32.07
  Ionic Valenz
   ZVAL   =   6.00  6.00
  Atomic Wigner-Seitz radii
   RWIGS  =  -1.00 -1.00
  virtual crystal weights 
   VCA    =   1.00  1.00
   NELECT =      36.0000    total number of electrons
   NUPDOWN=      -1.0000    fix difference up-down

 DOS related values:
   EMIN   =  10.00;   EMAX   =-10.00  energy-range for DOS
   EFERMI =   0.00
   ISMEAR =    -5;   SIGMA  =   0.20  broadening in eV -4-tet -1-fermi 0-gaus

 Electronic relaxation 2 (details)
   IALGO  =     68    algorithm
   LDIAG  =      T    sub-space diagonalisation (order eigenvalues)
   LSUBROT=      F    optimize rotation matrix (better conditioning)
   TURBO    =      0    0=normal 1=particle mesh
   IRESTART =      0    0=no restart 2=restart with 2 vectors
   NREBOOT  =      0    no. of reboots
   NMIN     =      0    reboot dimension
   EREF     =   0.00    reference energy to select bands
   IMIX   =      4    mixing-type and parameters
     AMIX     =   0.40;   BMIX     =  1.00
     AMIX_MAG =   1.60;   BMIX_MAG =  1.00
     AMIN     =   0.10
     WC   =   100.;   INIMIX=   1;  MIXPRE=   1;  MAXMIX= -45

 Intra band minimization:
   WEIMIN = 0.0000     energy-eigenvalue tresh-hold
   EBREAK =  0.11E-06  absolut break condition
   DEPER  =   0.30     relativ break condition  

   TIME   =   0.40     timestep for ELM

  volume/ion in A,a.u.               =      21.86       147.51
  Fermi-wavevector in a.u.,A,eV,Ry     =   1.063943  2.010561 15.401453  1.131975
  Thomas-Fermi vector in A             =   2.199445
 
 Write flags
   LWAVE        =      F    write WAVECAR
   LDOWNSAMPLE  =      F    k-point downsampling of WAVECAR
   LCHARG       =      T    write CHGCAR
   LVTOT        =      F    write LOCPOT, total local potential
   LVHAR        =      F    write LOCPOT, Hartree potential only
   LELF         =      F    write electronic localiz. function (ELF)
   LORBIT       =      0    0 simple, 1 ext, 2 COOP (PROOUT), +10 PAW based schemes


 Dipole corrections
   LMONO  =      F    monopole corrections only (constant potential shift)
   LDIPOL =      F    correct potential (dipole corrections)
   IDIPOL =      0    1-x, 2-y, 3-z, 4-all directions 
   EPSILON=  1.0000000 bulk dielectric constant

 Exchange correlation treatment:
   GGA     =    --    GGA type
   LEXCH   =     8    internal setting for exchange type
   VOSKOWN=      0    Vosko Wilk Nusair interpolation
   LHFCALC =     F    Hartree Fock is set to
   LHFONE  =     F    Hartree Fock one center treatment
   AEXX    =    0.0000 exact exchange contribution

 Linear response parameters
   LEPSILON=     F    determine dielectric tensor
   LRPA    =     F    only Hartree local field effects (RPA)
   LNABLA  =     F    use nabla operator in PAW spheres
   LVEL    =     F    velocity operator in full k-point grid
   LINTERFAST=   F  fast interpolation
   KINTER  =     0    interpolate to denser k-point grid
   CSHIFT  =0.1000    complex shift for real part using Kramers Kronig
   OMEGAMAX=  -1.0    maximum frequency
   DEG_THRESHOLD= 0.2000000E-02 threshold for treating states as degnerate
   RTIME   =   -0.100 relaxation time in fs
  (WPLASMAI=    0.000 imaginary part of plasma frequency in eV, 0.658/RTIME)
   DFIELD  = 0.0000000 0.0000000 0.0000000 field for delta impulse in time
 
 Orbital magnetization related:
   ORBITALMAG=     F  switch on orbital magnetization
   LCHIMAG   =     F  perturbation theory with respect to B field
   DQ        =  0.001000  dq finite difference perturbation B field
   LLRAUG    =     F  two centre corrections for induced B field



--------------------------------------------------------------------------------------------------------


 Static calculation
 charge density and potential will be updated during run
 non-spin polarized calculation
 RMM-DIIS sequential band-by-band and
  variant of blocked Davidson during initial phase
 perform sub-space diagonalisation
    before iterative eigenvector-optimisation
 modified Broyden-mixing scheme, WC =      100.0
 initial mixing is a Kerker type mixing with AMIX =  0.4000 and BMIX =      1.0000
 Hartree-type preconditioning will be used
 using additional bands            4
 reciprocal scheme for non local part
 use partial core corrections
 calculate Harris-corrections to forces 
   (improved forces if not selfconsistent)
 use gradient corrections 
 use of overlap-Matrix (Vanderbilt PP)
 Fermi weights with tetrahedron method with Bloechl corrections


--------------------------------------------------------------------------------------------------------


  energy-cutoff  :      300.00
  volume of cell :      131.15
      direct lattice vectors                 reciprocal lattice vectors
     3.190315730  0.000000000  0.000000000     0.313448600  0.180969634  0.000000000
    -1.595157865  2.762894468  0.000000000     0.000000000  0.361939267  0.000000000
     0.000000000  0.000000000 14.879004300     0.000000000  0.000000000  0.067208798

  length of vectors
     3.190315730  3.190315730 14.879004300     0.361939267  0.361939267  0.067208798


 
 k-points in units of 2pi/SCALE and weight: k-density: 4.0                          
   0.00000000  0.00000000  0.00000000       0.008
   0.03918108  0.02262120  0.00000000       0.047
   0.07836215  0.04524241  0.00000000       0.047
   0.11754323  0.06786361  0.00000000       0.047
   0.15672430  0.09048482  0.00000000       0.023
   0.03918108  0.06786361  0.00000000       0.047
   0.07836215  0.09048482  0.00000000       0.094
   0.11754323  0.11310602  0.00000000       0.094
   0.07836215  0.13572723  0.00000000       0.047
   0.11754323  0.15834843  0.00000000       0.047
   0.00000000  0.00000000  0.03360440       0.008
   0.03918108  0.02262120  0.03360440       0.047
   0.07836215  0.04524241  0.03360440       0.047
   0.11754323  0.06786361  0.03360440       0.047
   0.15672430  0.09048482  0.03360440       0.023
   0.03918108  0.06786361  0.03360440       0.047
   0.07836215  0.09048482  0.03360440       0.094
   0.11754323  0.11310602  0.03360440       0.094
   0.07836215  0.13572723  0.03360440       0.047
   0.11754323  0.15834843  0.03360440       0.047
 
 k-points in reciprocal lattice and weights: k-density: 4.0                          
   0.00000000  0.00000000  0.00000000       0.008
   0.12500000 -0.00000000  0.00000000       0.047
   0.25000000 -0.00000000  0.00000000       0.047
   0.37500000 -0.00000000  0.00000000       0.047
   0.50000000 -0.00000000  0.00000000       0.023
   0.12500000  0.12500000  0.00000000       0.047
   0.25000000  0.12500000  0.00000000       0.094
   0.37500000  0.12500000  0.00000000       0.094
   0.25000000  0.25000000  0.00000000       0.047
   0.37500000  0.25000000  0.00000000       0.047
   0.00000000  0.00000000  0.50000000       0.008
   0.12500000 -0.00000000  0.50000000       0.047
   0.25000000 -0.00000000  0.50000000       0.047
   0.37500000 -0.00000000  0.50000000       0.047
   0.50000000 -0.00000000  0.50000000       0.023
   0.12500000  0.12500000  0.50000000       0.047
   0.25000000  0.12500000  0.50000000       0.094
   0.37500000  0.12500000  0.50000000       0.094
   0.25000000  0.25000000  0.50000000       0.047
   0.37500000  0.25000000  0.50000000       0.047
 
 position of ions in fractional coordinates (direct lattice) 
   0.33333300  0.66666700  0.25000000
   0.66666700  0.33333300  0.75000000
   0.33333300  0.66666700  0.85517400
   0.66666700  0.33333300  0.14482600
   0.66666600  0.33333300  0.35517400
   0.33333400  0.66666700  0.64482600
 
 position of ions in cartesian coordinates  (Angst):
  -0.00000160  1.84193057  3.71975108
   1.59515946  0.92096390 11.15925323
  -0.00000160  1.84193057 12.72413762
   1.59515946  0.92096390  2.15486668
   1.59515627  0.92096390  5.28463547
   0.00000160  1.84193057  9.59436883
 


--------------------------------------------------------------------------------------------------------


 k-point  1 :   0.0000 0.0000 0.0000  plane waves:    1585
 k-point  2 :   0.1250-0.0000 0.0000  plane waves:    1572
 k-point  3 :   0.2500-0.0000 0.0000  plane waves:    1566
 k-point  4 :   0.3750-0.0000 0.0000  plane waves:    1536
 k-point  5 :   0.5000-0.0000 0.0000  plane waves:    1528
 k-point  6 :   0.1250 0.1250 0.0000  plane waves:    1581
 k-point  7 :   0.2500 0.1250 0.0000  plane waves:    1543
 k-point  8 :   0.3750 0.1250 0.0000  plane waves:    1529
 k-point  9 :   0.2500 0.2500 0.0000  plane waves:    1529
 k-point 10 :   0.3750 0.2500 0.0000  plane waves:    1546
 k-point 11 :   0.0000 0.0000 0.5000  plane waves:    1554
 k-point 12 :   0.1250-0.0000 0.5000  plane waves:    1568
 k-point 13 :   0.2500-0.0000 0.5000  plane waves:    1570
 k-point 14 :   0.3750-0.0000 0.5000  plane waves:    1550
 k-point 15 :   0.5000-0.0000 0.5000  plane waves:    1516
 k-point 16 :   0.1250 0.1250 0.5000  plane waves:    1570
 k-point 17 :   0.2500 0.1250 0.5000  plane waves:    1554
 k-point 18 :   0.3750 0.1250 0.5000  plane waves:    1526
 k-point 19 :   0.2500 0.2500 0.5000  plane waves:    1532
 k-point 20 :   0.3750 0.2500 0.5000  plane waves:    1534

 maximum and minimum number of plane-waves per node :       797      750

 maximum number of plane-waves:      1585
 maximum index in each direction: 
   IXMAX=    4   IYMAX=    4   IZMAX=   21
   IXMIN=   -4   IYMIN=   -4   IZMIN=  -21


 parallel 3D FFT for wavefunctions:
    minimum data exchange during FFTs selected (reduces bandwidth)
 parallel 3D FFT for charge:
    minimum data exchange during FFTs selected (reduces bandwidth)


 total amount of memory used by VASP MPI-rank0    40367. kBytes
=======================================================================

   base      :      30000. kBytes
   nonl-proj :       4673. kBytes
   fftplans  :       1047. kBytes
   grid      :       1673. kBytes
   one-center:         46. kBytes
   wavefun   :       2928. kBytes
 
     INWAV:  cpu time    0.0000: real time    0.0002
 Broyden mixing: mesh for mixing (old mesh)
   NGX =  9   NGY =  9   NGZ = 43
  (NGX  = 28   NGY  = 28   NGZ  =128)
  gives a total of   3483 points

 initial charge density was supplied:
 charge density of overlapping atoms calculated
 number of electron      36.0000000 magnetization 
 keeping initial charge density in first step


--------------------------------------------------------------------------------------------------------


 Maximum index for augmentation-charges         1500 (set IRDMAX)


--------------------------------------------------------------------------------------------------------


 First call to EWALD:  gamma=   0.349
 Maximum number of real-space cells 5x 5x 1
 Maximum number of reciprocal cells 2x 2x 7

    FEWALD:  cpu time    0.0020: real time    0.0015


--------------------------------------- Iteration      1(   1)  ---------------------------------------


    POTLOK:  cpu time    0.0160: real time    0.0458
    SETDIJ:  cpu time    0.0030: real time    0.0040
     EDDAV:  cpu time    0.2360: real time    0.2397
 BZINTS: Fermi energy: 12.892726; 36.000000 electrons
         Band energy: 118.757508;  BLOECHL correction: -0.181195
       DOS:  cpu time    0.0040: real time    0.0049
    --------------------------------------------
      LOOP:  cpu time    0.2590: real time    0.2944

 eigenvalue-minimisations  :   880
 total energy-change (2. order) : 0.1519520E+03  (-0.1177900E+04)
 number of electron      36.0000000 magnetization 
 augmentation part       36.0000000 magnetization 

 Free energy of the ion-electron system (eV)
  ---------------------------------------------------
  alpha Z        PSCENC =        90.42577596
  Ewald energy   TEWEN  =     -1146.88905665
  -Hartree energ DENC   =      -535.10238362
  -exchange      EXHF   =         0.00000000
  -V(xc)+E(xc)   XCENC  =       -72.59367177
  PAW double counting   =       813.77302396     -658.68146406
  entropy T*S    EENTRO =         0.00000000
  eigenvalues    EBANDS =       118.75750776
  atomic energy  EATOM  =      1542.26226155
  Solvation  Ediel_sol  =         0.00000000
  ---------------------------------------------------
  free energy    TOTEN  =       151.95199315 eV

  energy without entropy =      151.95199315  energy(sigma->0) =      151.95199315


--------------------------------------------------------------------------------------------------------




--------------------------------------- Iteration      1(   2)  ---------------------------------------


     EDDAV:  cpu time    0.2970: real time    0.2967
 BZINTS: Fermi energy:  4.634769; 36.000000 electrons
         Band energy: -66.908823;  BLOECHL correction:  0.000000
       DOS:  cpu time    0.0010: real time    0.0012
    --------------------------------------------
      LOOP:  cpu time    0.2980: real time    0.2979

 eigenvalue-minimisations  :  1218
 total energy-change (2. order) :-0.1856663E+03  (-0.1817910E+03)
 number of electron      36.0000000 magnetization 
 augmentation part       36.0000000 magnetization 

 Free energy of the ion-electron system (eV)
  ---------------------------------------------------
  alpha Z        PSCENC =        90.42577596
  Ewald energy   TEWEN  =     -1146.88905665
  -Hartree energ DENC   =      -535.10238362
  -exchange      EXHF   =         0.00000000
  -V(xc)+E(xc)   XCENC  =       -72.59367177
  PAW double counting   =       813.77302396     -658.68146406
  entropy T*S    EENTRO =         0.00000000
  eigenvalues    EBANDS =       -66.90882274
  atomic energy  EATOM  =      1542.26226155
  Solvation  Ediel_sol  =         0.00000000
  ---------------------------------------------------
  free energy    TOTEN  =       -33.71433735 eV

  energy without entropy =      -33.71433735  energy(sigma->0) =      -33.71433735


--------------------------------------------------------------------------------------------------------




--------------------------------------- Iteration      1(   3)  ---------------------------------------


     EDDAV:  cpu time    0.2830: real time    0.2832
 BZINTS: Fermi energy:  3.883695; 36.000000 electrons
         Band energy: -79.564566;  BLOECHL correction:  0.000000
       DOS:  cpu time    0.0010: real time    0.0011
    --------------------------------------------
      LOOP:  cpu time    0.2840: real time    0.2843

 eigenvalue-minimisations  :  1142
 total energy-change (2. order) :-0.1265574E+02  (-0.1259804E+02)
 number of electron      36.0000000 magnetization 
 augmentation part       36.0000000 magnetization 

 Free energy of the ion-electron system (eV)
  ---------------------------------------------------
  alpha Z        PSCENC =        90.42577596
  Ewald energy   TEWEN  =     -1146.88905665
  -Hartree energ DENC   =      -535.10238362
  -exchange      EXHF   =         0.00000000
  -V(xc)+E(xc)   XCENC  =       -72.59367177
  PAW double counting   =       813.77302396     -658.68146406
  entropy T*S    EENTRO =         0.00000000
  eigenvalues    EBANDS =       -79.56456628
  atomic energy  EATOM  =      1542.26226155
  Solvation  Ediel_sol  =         0.00000000
  ---------------------------------------------------
  free energy    TOTEN  =       -46.37008089 eV

  energy without entropy =      -46.37008089  energy(sigma->0) =      -46.37008089


--------------------------------------------------------------------------------------------------------




--------------------------------------- Iteration      1(   4)  ---------------------------------------


     EDDAV:  cpu time    0.3010: real time    0.3014
 BZINTS: Fermi energy:  3.883232; 36.000000 electrons
         Band energy: -79.985462;  BLOECHL correction:  0.000000
       DOS:  cpu time    0.0010: real time    0.0012
    --------------------------------------------
      LOOP:  cpu time    0.3020: real time    0.3026

 eigenvalue-minimisations  :  1240
 total energy-change (2. order) :-0.4208955E+00  (-0.4204308E+00)
 number of electron      36.0000000 magnetization 
 augmentation part       36.0000000 magnetization 

 Free energy of the ion-electron system (eV)
  ---------------------------------------------------
  alpha Z        PSCENC =        90.42577596
  Ewald energy   TEWEN  =     -1146.88905665
  -Hartree energ DENC   =      -535.10238362
  -exchange      EXHF   =         0.00000000
  -V(xc)+E(xc)   XCENC  =       -72.59367177
  PAW double counting   =       813.77302396     -658.68146406
  entropy T*S    EENTRO =         0.00000000
  eigenvalues    EBANDS =       -79.98546180
  atomic energy  EATOM  =      1542.26226155
  Solvation  Ediel_sol  =         0.00000000
  ---------------------------------------------------
  free energy    TOTEN  =       -46.79097641 eV

  energy without entropy =      -46.79097641  energy(sigma->0) =      -46.79097641


--------------------------------------------------------------------------------------------------------




--------------------------------------- Iteration      1(   5)  ---------------------------------------


     EDDAV:  cpu time    0.2840: real time    0.2876
 BZINTS: Fermi energy:  3.861825; 36.000000 electrons
         Band energy: -79.995692;  BLOECHL correction:  0.000000
       DOS:  cpu time    0.0010: real time    0.0011
    CHARGE:  cpu time    0.0170: real time    0.0172
    MIXING:  cpu time    0.0010: real time    0.0009
    --------------------------------------------
      LOOP:  cpu time    0.3030: real time    0.3067

 eigenvalue-minimisations  :  1150
 total energy-change (2. order) :-0.1023026E-01  (-0.1022691E-01)
 number of electron      36.0000020 magnetization 
 augmentation part       -1.9008947 magnetization 

 Broyden mixing:
  rms(total) = 0.97580E+00    rms(broyden)= 0.97570E+00
  rms(prec ) = 0.12206E+01
  weight for this iteration     100.00

 Free energy of the ion-electron system (eV)
  ---------------------------------------------------
  alpha Z        PSCENC =        90.42577596
  Ewald energy   TEWEN  =     -1146.88905665
  -Hartree energ DENC   =      -535.10238362
  -exchange      EXHF   =         0.00000000
  -V(xc)+E(xc)   XCENC  =       -72.59367177
  PAW double counting   =       813.77302396     -658.68146406
  entropy T*S    EENTRO =         0.00000000
  eigenvalues    EBANDS =       -79.99569206
  atomic energy  EATOM  =      1542.26226155
  Solvation  Ediel_sol  =         0.00000000
  ---------------------------------------------------
  free energy    TOTEN  =       -46.80120667 eV

  energy without entropy =      -46.80120667  energy(sigma->0) =      -46.80120667


--------------------------------------------------------------------------------------------------------




--------------------------------------- Iteration      1(   6)  ---------------------------------------


    POTLOK:  cpu time    0.0120: real time    0.0126
    SETDIJ:  cpu time    0.0040: real time    0.0033
    EDDIAG:  cpu time    0.0480: real time    0.0490
  RMM-DIIS:  cpu time    0.1770: real time    0.1762
    ORTHCH:  cpu time    0.0060: real time    0.0061
 BZINTS: Fermi energy:  2.923146; 36.000000 electrons
         Band energy: -79.141766;  BLOECHL correction:  0.000000
       DOS:  cpu time    0.0010: real time    0.0012
    CHARGE:  cpu time    0.0170: real time    0.0168
    MIXING:  cpu time    0.0000: real time    0.0005
    --------------------------------------------
      LOOP:  cpu time    0.2650: real time    0.2657

 eigenvalue-minimisations  :   984
 total energy-change (2. order) : 0.2393351E+01  (-0.2437783E+01)
 number of electron      36.0000015 magnetization 
 augmentation part       -0.8728789 magnetization 

 Broyden mixing:
  rms(total) = 0.34001E+00    rms(broyden)= 0.33990E+00
  rms(prec ) = 0.49678E+00
  weight for this iteration     100.00

 eigenvalues of (default mixing * dielectric matrix)
  average eigenvalue GAMMA=   0.8731
  0.8731

 Free energy of the ion-electron system (eV)
  ---------------------------------------------------
  alpha Z        PSCENC =        90.42577596
  Ewald energy   TEWEN  =     -1146.88905665
  -Hartree energ DENC   =      -533.55542078
  -exchange      EXHF   =         0.00000000
  -V(xc)+E(xc)   XCENC  =       -70.82193946
  PAW double counting   =       849.31040697     -695.99811747
  entropy T*S    EENTRO =         0.00000000
  eigenvalues    EBANDS =       -79.14176554
  atomic energy  EATOM  =      1542.26226155
  Solvation  Ediel_sol  =         0.00000000
  ---------------------------------------------------
  free energy    TOTEN  =       -44.40785541 eV

  energy without entropy =      -44.40785541  energy(sigma->0) =      -44.40785541


--------------------------------------------------------------------------------------------------------




--------------------------------------- Iteration      1(   7)  ---------------------------------------


    POTLOK:  cpu time    0.0130: real time    0.0128
    SETDIJ:  cpu time    0.0030: real time    0.0033
    EDDIAG:  cpu time    0.0480: real time    0.0486
  RMM-DIIS:  cpu time    0.1750: real time    0.1744
    ORTHCH:  cpu time    0.0050: real time    0.0061
 BZINTS: Fermi energy:  3.227271; 36.000000 electrons
         Band energy: -73.410113;  BLOECHL correction:  0.000000
       DOS:  cpu time    0.0010: real time    0.0011
    CHARGE:  cpu time    0.0170: real time    0.0169
    MIXING:  cpu time    0.0020: real time    0.0005
    --------------------------------------------
      LOOP:  cpu time    0.2640: real time    0.2636

 eigenvalue-minimisations  :   969
 total energy-change (2. order) : 0.7417154E+00  (-0.1994658E+00)
 number of electron      36.0000016 magnetization 
 augmentation part       -1.1259323 magnetization 

 Broyden mixing:
  rms(total) = 0.18060E+00    rms(broyden)= 0.18059E+00
  rms(prec ) = 0.21519E+00
  weight for this iteration     100.00

 eigenvalues of (default mixing * dielectric matrix)
  average eigenvalue GAMMA=   1.4107
  0.7564  2.0649

 Free energy of the ion-electron system (eV)
  ---------------------------------------------------
  alpha Z        PSCENC =        90.42577596
  Ewald energy   TEWEN  =     -1146.88905665
  -Hartree energ DENC   =      -537.85970996
  -exchange      EXHF   =         0.00000000
  -V(xc)+E(xc)   XCENC  =       -71.01555510
  PAW double counting   =       883.87068656     -731.05042938
  entropy T*S    EENTRO =         0.00000000
  eigenvalues    EBANDS =       -73.41011301
  atomic energy  EATOM  =      1542.26226155
  Solvation  Ediel_sol  =         0.00000000
  ---------------------------------------------------
  free energy    TOTEN  =       -43.66614002 eV

  energy without entropy =      -43.66614002  energy(sigma->0) =      -43.66614002


--------------------------------------------------------------------------------------------------------




--------------------------------------- Iteration      1(   8)  ---------------------------------------


    POTLOK:  cpu time    0.0120: real time    0.0129
    SETDIJ:  cpu time    0.0030: real time    0.0033
    EDDIAG:  cpu time    0.0490: real time    0.0486
  RMM-DIIS:  cpu time    0.1800: real time    0.1795
    ORTHCH:  cpu time    0.0050: real time    0.0060
 BZINTS: Fermi energy:  3.367511; 36.000000 electrons
         Band energy: -68.478587;  BLOECHL correction:  0.000000
       DOS:  cpu time    0.0010: real time    0.0013
    CHARGE:  cpu time    0.0170: real time    0.0168
    MIXING:  cpu time    0.0010: real time    0.0014
    --------------------------------------------
      LOOP:  cpu time    0.2680: real time    0.2699

 eigenvalue-minimisations  :  1005
 total energy-change (2. order) : 0.6409812E-01  (-0.8957036E-01)
 number of electron      36.0000016 magnetization 
 augmentation part       -1.1821690 magnetization 

 Broyden mixing:
  rms(total) = 0.83004E-01    rms(broyden)= 0.82981E-01
  rms(prec ) = 0.11088E+00
  weight for this iteration     100.00

 eigenvalues of (default mixing * dielectric matrix)
  average eigenvalue GAMMA=   1.4717
  2.1221  1.4760  0.8171

 Free energy of the ion-electron system (eV)
  ---------------------------------------------------
  alpha Z        PSCENC =        90.42577596
  Ewald energy   TEWEN  =     -1146.88905665
  -Hartree energ DENC   =      -542.13077357
  -exchange      EXHF   =         0.00000000
  -V(xc)+E(xc)   XCENC  =       -70.62502571
  PAW double counting   =       936.39615596     -784.56279252
  entropy T*S    EENTRO =         0.00000000
  eigenvalues    EBANDS =       -68.47858693
  atomic energy  EATOM  =      1542.26226155
  Solvation  Ediel_sol  =         0.00000000
  ---------------------------------------------------
  free energy    TOTEN  =       -43.60204190 eV

  energy without entropy =      -43.60204190  energy(sigma->0) =      -43.60204190


--------------------------------------------------------------------------------------------------------




--------------------------------------- Iteration      1(   9)  ---------------------------------------


    POTLOK:  cpu time    0.0130: real time    0.0140
    SETDIJ:  cpu time    0.0030: real time    0.0033
    EDDIAG:  cpu time    0.0480: real time    0.0485
  RMM-DIIS:  cpu time    0.1880: real time    0.1871
    ORTHCH:  cpu time    0.0060: real time    0.0061
 BZINTS: Fermi energy:  3.249397; 36.000000 electrons
         Band energy: -68.902566;  BLOECHL correction:  0.000000
       DOS:  cpu time    0.0010: real time    0.0012
    CHARGE:  cpu time    0.0170: real time    0.0169
    MIXING:  cpu time    0.0000: real time    0.0005
    --------------------------------------------
      LOOP:  cpu time    0.2760: real time    0.2777

 eigenvalue-minimisations  :  1040
 total energy-change (2. order) : 0.1195544E-01  (-0.2735047E-01)
 number of electron      36.0000015 magnetization 
 augmentation part       -1.0613629 magnetization 

 Broyden mixing:
  rms(total) = 0.53782E-01    rms(broyden)= 0.53765E-01
  rms(prec ) = 0.74742E-01
  weight for this iteration     100.00

 eigenvalues of (default mixing * dielectric matrix)
  average eigenvalue GAMMA=   1.5273
  2.1486  2.1486  0.9060  0.9060

 Free energy of the ion-electron system (eV)
  ---------------------------------------------------
  alpha Z        PSCENC =        90.42577596
  Ewald energy   TEWEN  =     -1146.88905665
  -Hartree energ DENC   =      -541.77786510
  -exchange      EXHF   =         0.00000000
  -V(xc)+E(xc)   XCENC  =       -70.37271093
  PAW double counting   =       943.28082748     -791.61675232
  entropy T*S    EENTRO =         0.00000000
  eigenvalues    EBANDS =       -68.90256646
  atomic energy  EATOM  =      1542.26226155
  Solvation  Ediel_sol  =         0.00000000
  ---------------------------------------------------
  free energy    TOTEN  =       -43.59008645 eV

  energy without entropy =      -43.59008645  energy(sigma->0) =      -43.59008645


--------------------------------------------------------------------------------------------------------




--------------------------------------- Iteration      1(  10)  ---------------------------------------


    POTLOK:  cpu time    0.0130: real time    0.0127
    SETDIJ:  cpu time    0.0030: real time    0.0033
    EDDIAG:  cpu time    0.0490: real time    0.0485
  RMM-DIIS:  cpu time    0.1880: real time    0.1883
    ORTHCH:  cpu time    0.0060: real time    0.0061
 BZINTS: Fermi energy:  3.322828; 36.000000 electrons
         Band energy: -68.021634;  BLOECHL correction:  0.000000
       DOS:  cpu time    0.0010: real time    0.0011
    CHARGE:  cpu time    0.0170: real time    0.0169
    MIXING:  cpu time    0.0010: real time    0.0006
    --------------------------------------------
      LOOP:  cpu time    0.2780: real time    0.2775

 eigenvalue-minimisations  :  1049
 total energy-change (2. order) : 0.1398688E-01  (-0.5961196E-02)
 number of electron      36.0000015 magnetization 
 augmentation part       -1.1191371 magnetization 

 Broyden mixing:
  rms(total) = 0.82366E-02    rms(broyden)= 0.82289E-02
  rms(prec ) = 0.10553E-01
  weight for this iteration     100.00

 eigenvalues of (default mixing * dielectric matrix)
  average eigenvalue GAMMA=   1.4314
  2.4516  1.6079  0.8837  0.8837  1.3303

 Free energy of the ion-electron system (eV)
  ---------------------------------------------------
  alpha Z        PSCENC =        90.42577596
  Ewald energy   TEWEN  =     -1146.88905665
  -Hartree energ DENC   =      -542.55380672
  -exchange      EXHF   =         0.00000000
  -V(xc)+E(xc)   XCENC  =       -70.41928423
  PAW double counting   =       949.48482504     -797.86518063
  entropy T*S    EENTRO =         0.00000000
  eigenvalues    EBANDS =       -68.02163391
  atomic energy  EATOM  =      1542.26226155
  Solvation  Ediel_sol  =         0.00000000
  ---------------------------------------------------
  free energy    TOTEN  =       -43.57609957 eV

  energy without entropy =      -43.57609957  energy(sigma->0) =      -43.57609957


--------------------------------------------------------------------------------------------------------




--------------------------------------- Iteration      1(  11)  ---------------------------------------


    POTLOK:  cpu time    0.0120: real time    0.0128
    SETDIJ:  cpu time    0.0040: real time    0.0033
    EDDIAG:  cpu time    0.0480: real time    0.0488
  RMM-DIIS:  cpu time    0.1980: real time    0.1977
    ORTHCH:  cpu time    0.0060: real time    0.0061
 BZINTS: Fermi energy:  3.324554; 36.000000 electrons
         Band energy: -67.894089;  BLOECHL correction:  0.000000
       DOS:  cpu time    0.0010: real time    0.0012
    CHARGE:  cpu time    0.0160: real time    0.0167
    MIXING:  cpu time    0.0010: real time    0.0006
    --------------------------------------------
      LOOP:  cpu time    0.2860: real time    0.2873

 eigenvalue-minimisations  :  1109
 total energy-change (2. order) : 0.1176852E-04  (-0.2783046E-03)
 number of electron      36.0000015 magnetization 
 augmentation part       -1.1125758 magnetization 

 Broyden mixing:
  rms(total) = 0.30517E-02    rms(broyden)= 0.30502E-02
  rms(prec ) = 0.37461E-02
  weight for this iteration     100.00

 eigenvalues of (default mixing * dielectric matrix)
  average eigenvalue GAMMA=   1.6668
  2.8877  2.5538  1.8217  0.8898  0.8898  0.9581

 Free energy of the ion-electron system (eV)
  ---------------------------------------------------
  alpha Z        PSCENC =        90.42577596
  Ewald energy   TEWEN  =     -1146.88905665
  -Hartree energ DENC   =      -542.69954832
  -exchange      EXHF   =         0.00000000
  -V(xc)+E(xc)   XCENC  =       -70.39234697
  PAW double counting   =       949.80462695     -798.19371144
  entropy T*S    EENTRO =         0.00000000
  eigenvalues    EBANDS =       -67.89408889
  atomic energy  EATOM  =      1542.26226155
  Solvation  Ediel_sol  =         0.00000000
  ---------------------------------------------------
  free energy    TOTEN  =       -43.57608780 eV

  energy without entropy =      -43.57608780  energy(sigma->0) =      -43.57608780


--------------------------------------------------------------------------------------------------------




--------------------------------------- Iteration      1(  12)  ---------------------------------------


    POTLOK:  cpu time    0.0130: real time    0.0126
    SETDIJ:  cpu time    0.0030: real time    0.0033
    EDDIAG:  cpu time    0.0490: real time    0.0485
  RMM-DIIS:  cpu time    0.1980: real time    0.1979
    ORTHCH:  cpu time    0.0050: real time    0.0061
 BZINTS: Fermi energy:  3.337439; 36.000000 electrons
         Band energy: -67.700576;  BLOECHL correction:  0.000000
       DOS:  cpu time    0.0020: real time    0.0012
    CHARGE:  cpu time    0.0160: real time    0.0167
    MIXING:  cpu time    0.0010: real time    0.0006
    --------------------------------------------
      LOOP:  cpu time    0.2870: real time    0.2869

 eigenvalue-minimisations  :  1121
 total energy-change (2. order) :-0.1393404E-03  (-0.5298965E-04)
 number of electron      36.0000015 magnetization 
 augmentation part       -1.1112634 magnetization 

 Broyden mixing:
  rms(total) = 0.19875E-02    rms(broyden)= 0.19868E-02
  rms(prec ) = 0.24635E-02
  weight for this iteration     100.00

 eigenvalues of (default mixing * dielectric matrix)
  average eigenvalue GAMMA=   1.5999
  2.9360  2.3631  1.5991  1.5991  0.8900  0.8900  0.9221

 Free energy of the ion-electron system (eV)
  ---------------------------------------------------
  alpha Z        PSCENC =        90.42577596
  Ewald energy   TEWEN  =     -1146.88905665
  -Hartree energ DENC   =      -542.91711376
  -exchange      EXHF   =         0.00000000
  -V(xc)+E(xc)   XCENC  =       -70.38218660
  PAW double counting   =       949.49726148     -797.87259305
  entropy T*S    EENTRO =         0.00000000
  eigenvalues    EBANDS =       -67.70057608
  atomic energy  EATOM  =      1542.26226155
  Solvation  Ediel_sol  =         0.00000000
  ---------------------------------------------------
  free energy    TOTEN  =       -43.57622714 eV

  energy without entropy =      -43.57622714  energy(sigma->0) =      -43.57622714


--------------------------------------------------------------------------------------------------------




--------------------------------------- Iteration      1(  13)  ---------------------------------------


    POTLOK:  cpu time    0.0130: real time    0.0148
    SETDIJ:  cpu time    0.0030: real time    0.0033
    EDDIAG:  cpu time    0.0490: real time    0.0485
  RMM-DIIS:  cpu time    0.2010: real time    0.2006
    ORTHCH:  cpu time    0.0050: real time    0.0061
 BZINTS: Fermi energy:  3.343942; 36.000000 electrons
         Band energy: -67.708504;  BLOECHL correction:  0.000000
       DOS:  cpu time    0.0010: real time    0.0012
    CHARGE:  cpu time    0.0170: real time    0.0167
    MIXING:  cpu time    0.0010: real time    0.0007
    --------------------------------------------
      LOOP:  cpu time    0.2900: real time    0.2918

 eigenvalue-minimisations  :  1133
 total energy-change (2. order) :-0.5110142E-05  (-0.2895616E-04)
 number of electron      36.0000015 magnetization 
 augmentation part       -1.1144438 magnetization 

 Broyden mixing:
  rms(total) = 0.17577E-02    rms(broyden)= 0.17570E-02
  rms(prec ) = 0.23344E-02
  weight for this iteration     100.00

 eigenvalues of (default mixing * dielectric matrix)
  average eigenvalue GAMMA=   1.7414
  3.1234  2.7008  2.7008  1.6020  1.1479  0.8839  0.8839  0.8886

 Free energy of the ion-electron system (eV)
  ---------------------------------------------------
  alpha Z        PSCENC =        90.42577596
  Ewald energy   TEWEN  =     -1146.88905665
  -Hartree energ DENC   =      -542.90368016
  -exchange      EXHF   =         0.00000000
  -V(xc)+E(xc)   XCENC  =       -70.38616161
  PAW double counting   =       949.66334780     -798.04021564
  entropy T*S    EENTRO =         0.00000000
  eigenvalues    EBANDS =       -67.70850351
  atomic energy  EATOM  =      1542.26226155
  Solvation  Ediel_sol  =         0.00000000
  ---------------------------------------------------
  free energy    TOTEN  =       -43.57623225 eV

  energy without entropy =      -43.57623225  energy(sigma->0) =      -43.57623225


--------------------------------------------------------------------------------------------------------




--------------------------------------- Iteration      1(  14)  ---------------------------------------


    POTLOK:  cpu time    0.0120: real time    0.0125
    SETDIJ:  cpu time    0.0040: real time    0.0033
    EDDIAG:  cpu time    0.0480: real time    0.0485
  RMM-DIIS:  cpu time    0.1520: real time    0.1517
    ORTHCH:  cpu time    0.0060: real time    0.0061
 BZINTS: Fermi energy:  3.347584; 36.000000 electrons
         Band energy: -67.726312;  BLOECHL correction:  0.000000
       DOS:  cpu time    0.0010: real time    0.0012
    CHARGE:  cpu time    0.0170: real time    0.0167
    MIXING:  cpu time    0.0000: real time    0.0007
    --------------------------------------------
      LOOP:  cpu time    0.2410: real time    0.2406

 eigenvalue-minimisations  :   833
 total energy-change (2. order) : 0.1258883E-04  (-0.5158821E-05)
 number of electron      36.0000015 magnetization 
 augmentation part       -1.1129736 magnetization 

 Broyden mixing:
  rms(total) = 0.29382E-03    rms(broyden)= 0.29098E-03
  rms(prec ) = 0.33906E-03
  weight for this iteration     100.00

 eigenvalues of (default mixing * dielectric matrix)
  average eigenvalue GAMMA=   1.6048
  3.1158  2.6456  2.2791  1.4840  1.2468  0.8854  0.8854  0.9508  0.9508

 Free energy of the ion-electron system (eV)
  ---------------------------------------------------
  alpha Z        PSCENC =        90.42577596
  Ewald energy   TEWEN  =     -1146.88905665
  -Hartree energ DENC   =      -542.88826544
  -exchange      EXHF   =         0.00000000
  -V(xc)+E(xc)   XCENC  =       -70.38362193
  PAW double counting   =       949.49952848     -797.87652988
  entropy T*S    EENTRO =         0.00000000
  eigenvalues    EBANDS =       -67.72631176
  atomic energy  EATOM  =      1542.26226155
  Solvation  Ediel_sol  =         0.00000000
  ---------------------------------------------------
  free energy    TOTEN  =       -43.57621966 eV

  energy without entropy =      -43.57621966  energy(sigma->0) =      -43.57621966


--------------------------------------------------------------------------------------------------------




--------------------------------------- Iteration      1(  15)  ---------------------------------------


    POTLOK:  cpu time    0.0130: real time    0.0126
    SETDIJ:  cpu time    0.0030: real time    0.0033
    EDDIAG:  cpu time    0.0490: real time    0.0484
  RMM-DIIS:  cpu time    0.1280: real time    0.1278
    ORTHCH:  cpu time    0.0060: real time    0.0061
 BZINTS: Fermi energy:  3.351763; 36.000000 electrons
         Band energy: -67.718379;  BLOECHL correction:  0.000000
       DOS:  cpu time    0.0010: real time    0.0012
    --------------------------------------------
      LOOP:  cpu time    0.1990: real time    0.1994

 eigenvalue-minimisations  :   671
 total energy-change (2. order) :-0.1432509E-06  (-0.9233158E-06)
 number of electron      36.0000015 magnetization 
 augmentation part       -1.1129736 magnetization 

 Free energy of the ion-electron system (eV)
  ---------------------------------------------------
  alpha Z        PSCENC =        90.42577596
  Ewald energy   TEWEN  =     -1146.88905665
  -Hartree energ DENC   =      -542.89709252
  -exchange      EXHF   =         0.00000000
  -V(xc)+E(xc)   XCENC  =       -70.38342259
  PAW double counting   =       949.47030654     -797.84661293
  entropy T*S    EENTRO =         0.00000000
  eigenvalues    EBANDS =       -67.71837918
  atomic energy  EATOM  =      1542.26226155
  Solvation  Ediel_sol  =         0.00000000
  ---------------------------------------------------
  free energy    TOTEN  =       -43.57621981 eV

  energy without entropy =      -43.57621981  energy(sigma->0) =      -43.57621981


--------------------------------------------------------------------------------------------------------




 average (electrostatic) potential at core
  the test charge radii are     1.2296  0.9698
  (the norm of the test charge is              1.0000)
       1 -40.3443       2 -40.3443       3 -88.1743       4 -88.1743       5 -88.1743
       6 -88.1743
 
 
 
 E-fermi :   3.3518     XC(G=0):  -9.3245     alpha+bet : -9.6368


 k-point     1 :       0.0000    0.0000    0.0000
  band No.  band energies     occupation 
      1     -10.9310      2.00000
      2     -10.9121      2.00000
      3      -9.7302      2.00000
      4      -9.6963      2.00000
      5      -2.5229      2.00000
      6      -2.3610      2.00000
      7       0.5205      2.00000
      8       0.5206      2.00000
      9       0.5209      2.00000
     10       0.5209      2.00000
     11       1.1066      2.00000
     12       1.6257      2.00000
     13       1.6258      2.00000
     14       1.6269      2.00000
     15       1.6269      2.00000
     16       1.6746      2.00000
     17       2.9226      2.00000
     18       3.2994      2.00000
     19       5.8862      0.00000
     20       5.9282      0.00000
     21       6.0533      0.00000
     22       6.0921      0.00000

 k-point     2 :       0.1250   -0.0000    0.0000
  band No.  band energies     occupation 
      1     -10.7167      2.00000
      2     -10.6981      2.00000
      3      -9.6265      2.00000
      4      -9.5951      2.00000
      5      -2.2769      2.00000
      6      -2.1179      2.00000
      7       0.0561      2.00000
      8       0.0590      2.00000
      9       0.4572      2.00000
     10       0.6736      2.00000
     11       0.7547      2.00000
     12       0.7558      2.00000
     13       1.2898      2.00000
     14       1.2923      2.00000
     15       1.9315      2.00000
     16       2.2151      2.00000
     17       2.8438      2.00000
     18       3.0860      2.00000
     19       5.5210      0.00000
     20       5.6902      0.00000
     21       5.7192      0.00000
     22       5.8479      0.00000

 k-point     3 :       0.2500   -0.0000    0.0000
  band No.  band energies     occupation 
      1     -10.1470      2.00000
      2     -10.1303      2.00000
      3      -9.3540      2.00000
      4      -9.3297      2.00000
      5      -1.8867      2.00000
      6      -1.7758      2.00000
      7      -0.6909      2.00000
      8      -0.6477      2.00000
      9      -0.4602      2.00000
     10      -0.3587      2.00000
     11       0.6543      2.00000
     12       0.6577      2.00000
     13       1.3405      2.00000
     14       1.3443      2.00000
     15       1.7049      2.00000
     16       1.9135      2.00000
     17       2.3707      2.00000
     18       2.4190      2.00000
     19       5.1199      0.00000
     20       5.4390      0.00000
     21       5.4464      0.00000
     22       5.4696      0.00000

 k-point     4 :       0.3750   -0.0000    0.0000
  band No.  band energies     occupation 
      1      -9.4693      2.00000
      2      -9.4574      2.00000
      3      -9.0403      2.00000
      4      -9.0260      2.00000
      5      -2.2845      2.00000
      6      -2.2497      2.00000
      7      -1.2966      2.00000
      8      -1.2534      2.00000
      9      -0.8454      2.00000
     10      -0.7606      2.00000
     11       0.1567      2.00000
     12       0.1609      2.00000
     13       1.3431      2.00000
     14       1.4507      2.00000
     15       1.9284      2.00000
     16       1.9372      2.00000
     17       2.1746      2.00000
     18       2.2251      2.00000
     19       5.2590      0.00000
     20       5.2680      0.00000
     21       5.4554      0.00000
     22       5.6333      0.00000

 k-point     5 :       0.5000   -0.0000    0.0000
  band No.  band energies     occupation 
      1      -9.1384      2.00000
      2      -9.1318      2.00000
      3      -8.8930      2.00000
      4      -8.8866      2.00000
      5      -2.6132      2.00000
      6      -2.5862      2.00000
      7      -1.6518      2.00000
      8      -1.6277      2.00000
      9      -0.9669      2.00000
     10      -0.8912      2.00000
     11      -0.0241      2.00000
     12      -0.0196      2.00000
     13       1.2477      2.00000
     14       1.2671      2.00000
     15       2.1539      2.00000
     16       2.1658      2.00000
     17       2.4782      2.00000
     18       2.4817      2.00000
     19       5.2844      0.00000
     20       5.2882      0.00000
     21       5.7738      0.00000
     22       5.8288      0.00000

 k-point     6 :       0.1250    0.1250    0.0000
  band No.  band energies     occupation 
      1     -10.3233      2.00000
      2     -10.3058      2.00000
      3      -9.4370      2.00000
      4      -9.4103      2.00000
      5      -1.9201      2.00000
      6      -1.7803      2.00000
      7      -0.5130      2.00000
      8      -0.5004      2.00000
      9      -0.0643      2.00000
     10       0.0777      2.00000
     11       0.4652      2.00000
     12       0.4912      2.00000
     13       1.0938      2.00000
     14       1.0954      2.00000
     15       2.0964      2.00000
     16       2.2986      2.00000
     17       2.5526      2.00000
     18       2.6282      2.00000
     19       5.0623      0.00000
     20       5.3230      0.00000
     21       5.5392      0.00000
     22       5.6296      0.00000

 k-point     7 :       0.2500    0.1250    0.0000
  band No.  band energies     occupation 
      1      -9.6879      2.00000
      2      -9.6739      2.00000
      3      -9.1340      2.00000
      4      -9.1158      2.00000
      5      -1.9387      2.00000
      6      -1.8855      2.00000
      7      -0.9501      2.00000
      8      -0.9185      2.00000
      9      -0.7078      2.00000
     10      -0.6343      2.00000
     11      -0.0652      2.00000
     12       0.0094      2.00000
     13       1.1909      2.00000
     14       1.1967      2.00000
     15       1.7881      2.00000
     16       1.8745      2.00000
     17       2.3034      2.00000
     18       2.3131      2.00000
     19       4.9967      0.00000
     20       5.2126      0.00000
     21       5.5379      0.00000
     22       5.6336      0.00000

 k-point     8 :       0.3750    0.1250    0.0000
  band No.  band energies     occupation 
      1      -9.1542      2.00000
      2      -9.1465      2.00000
      3      -8.8850      2.00000
      4      -8.8767      2.00000
      5      -2.3259      2.00000
      6      -2.2989      2.00000
      7      -1.7010      2.00000
      8      -1.6921      2.00000
      9      -0.8367      2.00000
     10      -0.7662      2.00000
     11      -0.0660      2.00000
     12      -0.0236      2.00000
     13       1.2005      2.00000
     14       1.2168      2.00000
     15       1.3295      2.00000
     16       1.3677      2.00000
     17       2.6258      2.00000
     18       2.6440      2.00000
     19       5.2707      0.00000
     20       5.3348      0.00000
     21       5.7788      0.00000
     22       5.8568      0.00000

 k-point     9 :       0.2500    0.2500    0.0000
  band No.  band energies     occupation 
      1      -9.1696      2.00000
      2      -9.1610      2.00000
      3      -8.8769      2.00000
      4      -8.8669      2.00000
      5      -1.9666      2.00000
      6      -1.9381      2.00000
      7      -1.7520      2.00000
      8      -1.7410      2.00000
      9      -0.4871      2.00000
     10      -0.4628      2.00000
     11      -0.1381      2.00000
     12      -0.0500      2.00000
     13       0.2153      2.00000
     14       0.2379      2.00000
     15       1.4774      2.00000
     16       1.4878      2.00000
     17       2.6015      2.00000
     18       2.6112      2.00000
     19       5.1858      0.00000
     20       5.3136      0.00000
     21       5.9322      0.00000
     22       6.1929      0.00000

 k-point    10 :       0.3750    0.2500    0.0000
  band No.  band energies     occupation 
      1      -8.9320      2.00000
      2      -8.9289      2.00000
      3      -8.7543      2.00000
      4      -8.7511      2.00000
      5      -2.1366      2.00000
      6      -2.1255      2.00000
      7      -1.7914      2.00000
      8      -1.7753      2.00000
      9      -0.7768      2.00000
     10      -0.7401      2.00000
     11      -0.1063      2.00000
     12      -0.0854      2.00000
     13       0.1075      2.00000
     14       0.1586      2.00000
     15       1.0769      2.00000
     16       1.1165      2.00000
     17       2.9628      2.00000
     18       2.9839      2.00000
     19       4.9229      0.00000
     20       4.9319      0.00000
     21       6.1543      0.00000
     22       6.3212      0.00000

 k-point    11 :       0.0000    0.0000    0.5000
  band No.  band energies     occupation 
      1     -10.9217      2.00000
      2     -10.9217      2.00000
      3      -9.7131      2.00000
      4      -9.7131      2.00000
      5      -2.4448      2.00000
      6      -2.4448      2.00000
      7       0.5209      2.00000
      8       0.5209      2.00000
      9       0.5209      2.00000
     10       0.5209      2.00000
     11       1.3633      2.00000
     12       1.3633      2.00000
     13       1.6270      2.00000
     14       1.6270      2.00000
     15       1.6270      2.00000
     16       1.6270      2.00000
     17       3.1419      2.00000
     18       3.1419      2.00000
     19       5.8797      0.00000
     20       5.8889      0.00000
     21       5.9747      0.00000
     22       6.0415      0.00000

 k-point    12 :       0.1250   -0.0000    0.5000
  band No.  band energies     occupation 
      1     -10.7075      2.00000
      2     -10.7075      2.00000
      3      -9.6107      2.00000
      4      -9.6107      2.00000
      5      -2.2005      2.00000
      6      -2.2005      2.00000
      7       0.0573      2.00000
      8       0.0573      2.00000
      9       0.5722      2.00000
     10       0.5722      2.00000
     11       0.7552      2.00000
     12       0.7552      2.00000
     13       1.2910      2.00000
     14       1.2910      2.00000
     15       2.0435      2.00000
     16       2.0435      2.00000
     17       2.9910      2.00000
     18       2.9910      2.00000
     19       5.5743      0.00000
     20       5.5807      0.00000
     21       5.7011      0.00000
     22       5.8516      0.00000

 k-point    13 :       0.2500   -0.0000    0.5000
  band No.  band energies     occupation 
      1     -10.1387      2.00000
      2     -10.1387      2.00000
      3      -9.3417      2.00000
      4      -9.3417      2.00000
      5      -1.8332      2.00000
      6      -1.8332      2.00000
      7      -0.6751      2.00000
      8      -0.6751      2.00000
      9      -0.4016      2.00000
     10      -0.4016      2.00000
     11       0.6560      2.00000
     12       0.6560      2.00000
     13       1.3423      2.00000
     14       1.3423      2.00000
     15       1.8015      2.00000
     16       1.8015      2.00000
     17       2.4002      2.00000
     18       2.4002      2.00000
     19       5.2606      0.00000
     20       5.2610      0.00000
     21       5.4452      0.00000
     22       5.4462      0.00000

 k-point    14 :       0.3750   -0.0000    0.5000
  band No.  band energies     occupation 
      1      -9.4635      2.00000
      2      -9.4635      2.00000
      3      -9.0331      2.00000
      4      -9.0331      2.00000
      5      -2.2674      2.00000
      6      -2.2674      2.00000
      7      -1.2771      2.00000
      8      -1.2771      2.00000
      9      -0.8011      2.00000
     10      -0.8011      2.00000
     11       0.1588      2.00000
     12       0.1588      2.00000
     13       1.3946      2.00000
     14       1.3946      2.00000
     15       1.9329      2.00000
     16       1.9329      2.00000
     17       2.2018      2.00000
     18       2.2018      2.00000
     19       5.2635      0.00000
     20       5.2635      0.00000
     21       5.5375      0.00000
     22       5.5376      0.00000

 k-point    15 :       0.5000   -0.0000    0.5000
  band No.  band energies     occupation 
      1      -9.1351      2.00000
      2      -9.1351      2.00000
      3      -8.8897      2.00000
      4      -8.8897      2.00000
      5      -2.5997      2.00000
      6      -2.5997      2.00000
      7      -1.6406      2.00000
      8      -1.6406      2.00000
      9      -0.9278      2.00000
     10      -0.9278      2.00000
     11      -0.0218      2.00000
     12      -0.0218      2.00000
     13       1.2573      2.00000
     14       1.2573      2.00000
     15       2.1602      2.00000
     16       2.1602      2.00000
     17       2.4803      2.00000
     18       2.4803      2.00000
     19       5.2864      0.00000
     20       5.2876      0.00000
     21       5.8015      0.00000
     22       6.9679      0.00000

 k-point    16 :       0.1250    0.1250    0.5000
  band No.  band energies     occupation 
      1     -10.3147      2.00000
      2     -10.3147      2.00000
      3      -9.4235      2.00000
      4      -9.4235      2.00000
      5      -1.8529      2.00000
      6      -1.8529      2.00000
      7      -0.5083      2.00000
      8      -0.5083      2.00000
      9       0.0135      2.00000
     10       0.0135      2.00000
     11       0.4773      2.00000
     12       0.4773      2.00000
     13       1.0946      2.00000
     14       1.0946      2.00000
     15       2.1825      2.00000
     16       2.1825      2.00000
     17       2.6022      2.00000
     18       2.6022      2.00000
     19       5.1824      0.00000
     20       5.1827      0.00000
     21       5.5439      0.00000
     22       5.5726      0.00000

 k-point    17 :       0.2500    0.1250    0.5000
  band No.  band energies     occupation 
      1      -9.6810      2.00000
      2      -9.6810      2.00000
      3      -9.1248      2.00000
      4      -9.1248      2.00000
      5      -1.9125      2.00000
      6      -1.9125      2.00000
      7      -0.9363      2.00000
      8      -0.9363      2.00000
      9      -0.6711      2.00000
     10      -0.6711      2.00000
     11      -0.0253      2.00000
     12      -0.0253      2.00000
     13       1.1936      2.00000
     14       1.1936      2.00000
     15       1.8292      2.00000
     16       1.8292      2.00000
     17       2.3087      2.00000
     18       2.3087      2.00000
     19       5.1030      0.00000
     20       5.1031      0.00000
     21       5.5559      0.00000
     22       5.5748      0.00000

 k-point    18 :       0.3750    0.1250    0.5000
  band No.  band energies     occupation 
      1      -9.1504      2.00000
      2      -9.1504      2.00000
      3      -8.8808      2.00000
      4      -8.8808      2.00000
      5      -2.3126      2.00000
      6      -2.3125      2.00000
      7      -1.6966      2.00000
      8      -1.6966      2.00000
      9      -0.8020      2.00000
     10      -0.8020      2.00000
     11      -0.0433      2.00000
     12      -0.0433      2.00000
     13       1.2080      2.00000
     14       1.2080      2.00000
     15       1.3486      2.00000
     16       1.3486      2.00000
     17       2.6352      2.00000
     18       2.6352      2.00000
     19       5.3029      0.00000
     20       5.3029      0.00000
     21       5.8120      0.00000
     22       5.8125      0.00000

 k-point    19 :       0.2500    0.2500    0.5000
  band No.  band energies     occupation 
      1      -9.1654      2.00000
      2      -9.1654      2.00000
      3      -8.8718      2.00000
      4      -8.8718      2.00000
      5      -1.9525      2.00000
      6      -1.9525      2.00000
      7      -1.7464      2.00000
      8      -1.7464      2.00000
      9      -0.4788      2.00000
     10      -0.4788      2.00000
     11      -0.0898      2.00000
     12      -0.0898      2.00000
     13       0.2268      2.00000
     14       0.2268      2.00000
     15       1.4815      2.00000
     16       1.4815      2.00000
     17       2.6065      2.00000
     18       2.6065      2.00000
     19       5.2494      0.00000
     20       5.2495      0.00000
     21       5.8769      0.00000
     22       6.1445      0.00000

 k-point    20 :       0.3750    0.2500    0.5000
  band No.  band energies     occupation 
      1      -8.9304      2.00000
      2      -8.9304      2.00000
      3      -8.7527      2.00000
      4      -8.7527      2.00000
      5      -2.1311      2.00000
      6      -2.1311      2.00000
      7      -1.7831      2.00000
      8      -1.7831      2.00000
      9      -0.7594      2.00000
     10      -0.7594      2.00000
     11      -0.0985      2.00000
     12      -0.0985      2.00000
     13       0.1379      2.00000
     14       0.1379      2.00000
     15       1.0953      2.00000
     16       1.0953      2.00000
     17       2.9734      2.00000
     18       2.9734      2.00000
     19       4.9277      0.00000
     20       4.9277      0.00000
     21       6.2310      0.00000
     22       6.2426      0.00000


--------------------------------------------------------------------------------------------------------


 soft charge-density along one line, spin component           1
         0         1         2         3         4         5         6         7         8         9
 total charge-density along one line
 
 pseudopotential strength for first ion, spin component:           1
 -8.241  -0.000   0.000   0.000   0.000  -0.074   0.000  -0.000
 -0.000  -8.241   0.000  -0.000  -0.000   0.000  -0.074  -0.000
  0.000   0.000  -8.220  -0.000  -0.000  -0.000  -0.000  -0.075
  0.000  -0.000  -0.000  -8.241  -0.000  -0.000   0.000   0.000
  0.000  -0.000  -0.000  -0.000  -8.241  -0.000   0.000   0.000
 -0.074   0.000  -0.000  -0.000  -0.000   0.112  -0.000   0.000
  0.000  -0.074  -0.000   0.000   0.000  -0.000   0.112   0.000
 -0.000  -0.000  -0.075   0.000   0.000   0.000   0.000   0.112
 -0.000   0.000   0.000  -0.074   0.000   0.000  -0.000  -0.000
 -0.000   0.000   0.000   0.000  -0.074   0.000  -0.000  -0.000
  0.000  -0.000  -0.005   0.000  -0.000  -0.000   0.000   0.000
 -0.000   0.000   0.001  -0.000   0.000   0.000  -0.000  -0.000
 -0.000   0.000  -0.000  -0.000  -0.007   0.000  -0.000   0.000
 -0.000   0.000   0.000  -0.000  -0.000  -0.000  -0.000  -0.000
 -0.007  -0.000   0.000   0.000  -0.000  -0.000  -0.000  -0.000
  0.000  -0.000   0.000   0.000   0.004  -0.000   0.000  -0.000
  0.000  -0.000  -0.000   0.000   0.000  -0.000   0.000   0.000
  0.004   0.000  -0.000  -0.000   0.000   0.000  -0.000   0.000
 total augmentation occupancy for first ion, spin component:           1
  0.968  -0.000  -0.000   0.000  -0.000   0.639  -0.000  -0.000   0.000  -0.000  -0.000  -0.000   0.000   0.000  -0.066  -0.000
  0.000   0.910   0.000   0.000  -0.000  -0.000   0.879   0.000   0.000  -0.000  -0.000   0.000  -0.000   0.000   0.000   0.000
 -0.000   0.000   1.032   0.000   0.000  -0.000  -0.000   0.540   0.000   0.000   0.112  -0.019  -0.000  -0.000   0.000   0.000
  0.000   0.000  -0.000   0.910   0.000  -0.000   0.000   0.000   0.879  -0.000  -0.000  -0.000   0.000  -0.000   0.000  -0.000
 -0.000   0.000   0.000   0.000   0.968  -0.000   0.000   0.000   0.000   0.639   0.000  -0.000  -0.066   0.000  -0.000   0.007
  0.639   0.000  -0.000  -0.000  -0.000   0.728  -0.000  -0.000  -0.000  -0.000   0.000  -0.000   0.000  -0.000  -0.141  -0.000
  0.000   0.879   0.000   0.000  -0.000  -0.000   1.158   0.000   0.000  -0.000  -0.000   0.000  -0.000   0.000   0.000  -0.000
 -0.000  -0.000   0.540   0.000   0.000  -0.000  -0.000   0.516  -0.000   0.000   0.066  -0.022  -0.000  -0.000   0.000   0.000
  0.000   0.000   0.000   0.879  -0.000  -0.000   0.000   0.000   1.158   0.000  -0.000   0.000  -0.000   0.000  -0.000   0.000
 -0.000  -0.000   0.000  -0.000   0.639  -0.000  -0.000   0.000  -0.000   0.728   0.000  -0.000  -0.141   0.000  -0.000   0.023
 -0.000  -0.000   0.112   0.000   0.000   0.000   0.000   0.066   0.000   0.000   1.209  -0.183   0.000   0.000  -0.000  -0.000
  0.000   0.000  -0.019  -0.000  -0.000   0.000   0.000  -0.022   0.000  -0.000  -0.183   0.041  -0.000   0.000   0.000  -0.000
  0.000  -0.000  -0.000   0.000  -0.066   0.000  -0.000  -0.000   0.000  -0.141   0.000  -0.000   0.217   0.000   0.000  -0.032
  0.000  -0.000  -0.000  -0.000   0.000  -0.000   0.000  -0.000   0.000   0.000   0.000   0.000   0.000   0.265   0.000   0.000
 -0.066   0.000   0.000  -0.000  -0.000  -0.141   0.000   0.000   0.000  -0.000   0.000   0.000   0.000   0.000   0.217  -0.000
 -0.000  -0.000   0.000  -0.000   0.007  -0.000  -0.000   0.000   0.000   0.023   0.000  -0.000  -0.032   0.000  -0.000   0.005
  0.000   0.000   0.000   0.000  -0.000  -0.000  -0.000  -0.000  -0.000   0.000  -0.000  -0.000  -0.000  -0.038   0.000  -0.000
  0.007   0.000  -0.000   0.000   0.000   0.023   0.000  -0.000   0.000   0.000   0.000   0.000  -0.000   0.000  -0.032   0.000


------------------------ aborting loop because EDIFF is reached ----------------------------------------


    CHARGE:  cpu time    0.0160: real time    0.0170
    FORLOC:  cpu time    0.0020: real time    0.0015
    FORNL :  cpu time    0.0620: real time    0.0619
    STRESS:  cpu time    0.1680: real time    0.1691
    FORCOR:  cpu time    0.0140: real time    0.0141
    FORHAR:  cpu time    0.0040: real time    0.0031
    MIXING:  cpu time    0.0000: real time    0.0007
    OFIELD:  cpu time    0.0000: real time    0.0000

  DFT-D2 method for vdW energy calculation
  -------------------------------------------------------------------

  Parameters of vdW forcefield:
         C6(Jnm^6/mol)     R0(A)
   -----------------------------
   Mo      24.670          1.639
   S        5.570          1.683

  IVDW =   1
  VDW_RADIUS =    50.000 A
  VDW_S6 =     0.750
  VDW_SR =     1.000
  VDW_D =    20.000
  LVDW_EWALD = F

  Number of pair interactions contributing to vdW energy:   84128
  Edisp (eV):   -1.33129
    FORVDW:  cpu time    0.0210: real time    0.0269

  FORCE on cell =-STRESS in cart. coord.  units (eV):
  Direction    XX          YY          ZZ          XY          YZ          ZX
  --------------------------------------------------------------------------------------
  Alpha Z    90.42578    90.42578    90.42578
  Ewald     -12.90873   -12.90785 -1121.07429     0.00038     0.00000     0.00025
  Hartree   466.56198   466.56199  -390.21372     0.00003    -0.00000    -0.00001
  E(xc)    -140.62609  -140.62612  -141.81418    -0.00002     0.00001     0.00000
  Local   -1080.85592 -1080.85744   872.20311    -0.00116    -0.00013    -0.00019
  n-local   254.09318   251.32695   263.12801    -0.47318     0.00010    -0.00005
  augment   -51.23653   -51.23600   -53.43942     0.00047     0.00001    -0.00000
  Kinetic   472.21780   477.81964   479.97066   -14.84606     0.00044    -0.00012
  Fock        0.00000     0.00000     0.00000     0.00000     0.00000     0.00000
  vdW         0.17103     0.17103    -0.86546     0.00000     0.00000    -0.00000
  -------------------------------------------------------------------------------------
  Total      -0.73976    -0.73976    -1.67951     0.00000    -0.00000     0.00000
  in kB      -9.03711    -9.03711   -20.51736     0.00000    -0.00000     0.00000
  external pressure =      -12.86 kB  Pullay stress =        0.00 kB


 VOLUME and BASIS-vectors are now :
 -----------------------------------------------------------------------------
  energy-cutoff  :      300.00
  volume of cell :      131.15
      direct lattice vectors                 reciprocal lattice vectors
     3.190315730  0.000000000  0.000000000     0.313448600  0.180969634  0.000000000
    -1.595157865  2.762894468  0.000000000     0.000000000  0.361939267  0.000000000
     0.000000000  0.000000000 14.879004300     0.000000000  0.000000000  0.067208798

  length of vectors
     3.190315730  3.190315730 14.879004300     0.361939267  0.361939267  0.067208798


 FORCES acting on ions
    electron-ion (+dipol)            ewald-force                    non-local-force                 convergence-correction
 -----------------------------------------------------------------------------------------------
   0.484E-04 -.351E-04 -.958E-05   0.928E-04 -.107E-03 0.288E-09   -.520E-17 -.694E-17 0.154E-20   -.926E-09 -.272E-08 -.367E-09
   0.644E-04 -.300E-04 -.958E-05   -.928E-04 0.107E-03 -.288E-09   0.520E-17 0.694E-17 0.254E-20   0.849E-08 -.165E-08 -.366E-09
   0.531E-03 -.298E-03 -.242E+03   0.865E-04 -.537E-04 0.247E+03   0.130E-17 0.954E-17 -.483E+01   0.682E-09 -.715E-09 0.444E-02
   -.118E-02 0.672E-03 0.242E+03   -.865E-04 0.537E-04 -.247E+03   0.867E-18 -.954E-17 0.483E+01   -.154E-07 0.921E-08 -.444E-02
   0.525E-03 0.697E-03 -.242E+03   -.638E-05 0.537E-04 0.247E+03   0.143E-16 -.208E-16 -.483E+01   0.210E-07 0.835E-08 0.444E-02
   -.121E-02 -.301E-03 0.242E+03   0.638E-05 -.537E-04 -.247E+03   -.308E-16 0.208E-16 0.483E+01   -.323E-07 -.179E-08 -.444E-02
 -----------------------------------------------------------------------------------------------
   -.122E-02 0.706E-03 -.106E-04   -.561E-14 0.109E-13 0.284E-13   -.143E-16 0.000E+00 0.000E+00   -.185E-07 0.107E-07 -.790E-09
 
 
 POSITION                                       TOTAL-FORCE (eV/Angst)
 -----------------------------------------------------------------------------------
     -0.00000      1.84193      3.71975         0.000000      0.000000     -0.000000
      1.59516      0.92096     11.15925         0.000000      0.000000     -0.000000
     -0.00000      1.84193     12.72414        -0.000000      0.000000     -0.082900
      1.59516      0.92096      2.15487        -0.000000     -0.000000      0.082900
      1.59516      0.92096      5.28464        -0.000000     -0.000000     -0.082900
      0.00000      1.84193      9.59437         0.000000      0.000000      0.082900
 -----------------------------------------------------------------------------------
    total drift:                               -0.001223      0.000706     -0.000011


--------------------------------------------------------------------------------------------------------



  FREE ENERGIE OF THE ION-ELECTRON SYSTEM (eV)
  ---------------------------------------------------
  free  energy   TOTEN  =       -44.90750682 eV

  energy  without entropy=      -44.90750682  energy(sigma->0) =      -44.90750682
 


--------------------------------------------------------------------------------------------------------


    POTLOK:  cpu time    0.0160: real time    0.0159


--------------------------------------------------------------------------------------------------------


     LOOP+:  cpu time    4.5093: real time    4.6289
    4ORBIT:  cpu time    0.0000: real time    0.0000
 BZINTS: Fermi energy:  3.351763; 36.000000 electrons
         Band energy: -67.718379;  BLOECHL correction:  0.000000

 total amount of memory used by VASP MPI-rank0    40367. kBytes
=======================================================================

   base      :      30000. kBytes
   nonl-proj :       4673. kBytes
   fftplans  :       1047. kBytes
   grid      :       1673. kBytes
   one-center:         46. kBytes
   wavefun   :       2928. kBytes
 
  
  
 General timing and accounting informations for this job:
 ========================================================
  
                  Total CPU time used (sec):        5.197
                            User time (sec):        5.140
                          System time (sec):        0.057
                         Elapsed time (sec):        5.827
  
                   Maximum memory used (kb):       31076.
                   Average memory used (kb):           0.
  
                          Minor page faults:         7894
                          Major page faults:          128
                 Voluntary context switches:         2087
