perl: warning: Setting locale failed.
perl: warning: Please check that your locale settings:
	LANGUAGE = (unset),
	LC_ALL = (unset),
	LC_CTYPE = "UTF-8",
	LANG = "en_US.iso885915"
    are supported and installed on your system.
perl: warning: Falling back to the standard locale ("C").
Starting job 28525010 ("jobname") on c15-25 at Thu Nov 7 21:10:05 CET 2019
 running on    4 total cores
 distrk:  each k-point on    4 cores,    1 groups
 distr:  one band on    2 cores,    2 groups
 using from now: INCAR     
 vasp.5.4.4.18Apr17-6-g9f103f2a35 (build Jun 30 2017 11:15:00) complex          
  
 POSCAR found type information on POSCAR  Mo S 
 POSCAR found :  2 types and       6 ions
 scaLAPACK will be used
 LDA part: xc-table for Pade appr. of Perdew
 POSCAR, INCAR and KPOINTS ok, starting setup
 FFT: planning ...
 WAVECAR not read
 WARNING: random wavefunctions but no delay for mixing, default for NELMDL
 entering main loop
       N       E                     dE             d eps       ncg     rms          rms(c)
DAV:   1     0.151951993150E+03    0.15195E+03   -0.11779E+04   880   0.910E+02
DAV:   2    -0.337143373546E+02   -0.18567E+03   -0.18179E+03  1218   0.219E+02
DAV:   3    -0.463700808913E+02   -0.12656E+02   -0.12598E+02  1142   0.622E+01
DAV:   4    -0.467909764105E+02   -0.42090E+00   -0.42043E+00  1240   0.115E+01
DAV:   5    -0.468012066688E+02   -0.10230E-01   -0.10227E-01  1150   0.167E+00    0.976E+00
RMM:   6    -0.444078554089E+02    0.23934E+01   -0.24378E+01   984   0.189E+01    0.340E+00
RMM:   7    -0.436661400174E+02    0.74172E+00   -0.19947E+00   969   0.539E+00    0.181E+00
RMM:   8    -0.436020418973E+02    0.64098E-01   -0.89570E-01  1005   0.332E+00    0.830E-01
RMM:   9    -0.435900864532E+02    0.11955E-01   -0.27350E-01  1040   0.208E+00    0.538E-01
RMM:  10    -0.435760995709E+02    0.13987E-01   -0.59612E-02  1049   0.101E+00    0.824E-02
RMM:  11    -0.435760878024E+02    0.11769E-04   -0.27830E-03  1109   0.218E-01    0.305E-02
RMM:  12    -0.435762271428E+02   -0.13934E-03   -0.52990E-04  1121   0.100E-01    0.199E-02
RMM:  13    -0.435762322530E+02   -0.51101E-05   -0.28956E-04  1133   0.679E-02    0.176E-02
RMM:  14    -0.435762196641E+02    0.12589E-04   -0.51588E-05   833   0.321E-02    0.294E-03
RMM:  15    -0.435762198074E+02   -0.14325E-06   -0.92332E-06   671   0.139E-02
 Error reading item 'IVDW' from file INCAR
   1 F= -.43576220E+02 E0= -.43576220E+02  d E =0.000000E+00

Currently Loaded Modulefiles:
  1) Anaconda3/5.1.0       3) vesta/3.3.8           5) intel/2016.1
  2) gnuplot/5.0.4         4) imagemagick/6.7.9-0   6) vasp/5.4.1.Feb16

Job script resource usage:
       JobID  MaxVMSize     MaxRSS 
------------ ---------- ---------- 
28525010.ba+    216888K      2324K 

Job step resource usage:
       JobID    JobName  AllocCPUS  MaxVMSize     MaxRSS    Elapsed ExitCode 
------------ ---------- ---------- ---------- ---------- ---------- -------- 
28525010        jobname          4                         00:00:09      0:0 
28525010.0    pmi_proxy          1    279832K       525K   00:00:07      0:0 

Job 28525010 ("jobname") completed on c15-25 at Thu Nov 7 21:10:12 CET 2019
