   3   3   0   0
  0.9072772E+02  0.3190316E-09  0.3190316E-09  0.3087900E-08  0.5000000E-15
  1.000000000000000E-004
  CAR 
 unknown system                          
      5.95321580    -19.78834170  301     -3.72131956      1.00000000
    -19.788  0.0000E+00  0.0000E+00
    -19.703  0.0000E+00  0.0000E+00
    -19.617  0.0000E+00  0.0000E+00
    -19.531  0.0000E+00  0.0000E+00
    -19.445  0.0000E+00  0.0000E+00
    -19.359  0.0000E+00  0.0000E+00
    -19.274  0.0000E+00  0.0000E+00
    -19.188  0.0000E+00  0.0000E+00
    -19.102  0.0000E+00  0.0000E+00
    -19.016  0.0000E+00  0.0000E+00
    -18.930  0.0000E+00  0.0000E+00
    -18.844  0.0000E+00  0.0000E+00
    -18.759  0.0000E+00  0.0000E+00
    -18.673  0.0000E+00  0.0000E+00
    -18.587  0.0000E+00  0.0000E+00
    -18.501  0.0000E+00  0.0000E+00
    -18.415  0.0000E+00  0.0000E+00
    -18.330  0.0000E+00  0.0000E+00
    -18.244  0.0000E+00  0.0000E+00
    -18.158  0.0000E+00  0.0000E+00
    -18.072  0.0000E+00  0.0000E+00
    -17.986  0.0000E+00  0.0000E+00
    -17.901  0.0000E+00  0.0000E+00
    -17.815  0.0000E+00  0.0000E+00
    -17.729  0.7162E+00  0.2124E-01
    -17.643  0.5227E+00  0.6624E-01
    -17.557  0.5732E+00  0.1147E+00
    -17.472  0.5457E+00  0.1614E+00
    -17.386  0.5863E+00  0.2099E+00
    -17.300  0.5930E+00  0.2615E+00
    -17.214  0.6063E+00  0.3129E+00
    -17.128  0.6321E+00  0.3659E+00
    -17.043  0.6617E+00  0.4214E+00
    -16.957  0.6832E+00  0.4792E+00
    -16.871  0.7141E+00  0.5391E+00
    -16.785  0.7457E+00  0.6017E+00
    -16.699  0.7792E+00  0.6672E+00
    -16.614  0.8439E+00  0.7364E+00
    -16.528  0.1922E+01  0.8602E+00
    -16.442  0.2091E+01  0.1039E+01
    -16.356  0.2340E+01  0.1229E+01
    -16.270  0.2567E+01  0.1435E+01
    -16.185  0.2919E+01  0.1670E+01
    -16.099  0.3388E+01  0.1939E+01
    -16.013  0.4911E+01  0.2267E+01
    -15.927  0.3896E+01  0.2678E+01
    -15.841  0.4797E+01  0.3030E+01
    -15.755  0.1325E+02  0.3482E+01
    -15.670  0.2827E+01  0.3818E+01
    -15.584  0.0000E+00  0.4000E+01
    -15.498  0.0000E+00  0.4000E+01
    -15.412  0.0000E+00  0.4000E+01
    -15.326  0.0000E+00  0.4000E+01
    -15.241  0.0000E+00  0.4000E+01
    -15.155  0.0000E+00  0.4000E+01
    -15.069  0.0000E+00  0.4000E+01
    -14.983  0.0000E+00  0.4000E+01
    -14.897  0.0000E+00  0.4000E+01
    -14.812  0.0000E+00  0.4000E+01
    -14.726  0.0000E+00  0.4000E+01
    -14.640  0.0000E+00  0.4000E+01
    -14.554  0.0000E+00  0.4000E+01
    -14.468  0.0000E+00  0.4000E+01
    -14.383  0.0000E+00  0.4000E+01
    -14.297  0.0000E+00  0.4000E+01
    -14.211  0.0000E+00  0.4000E+01
    -14.125  0.0000E+00  0.4000E+01
    -14.039  0.0000E+00  0.4000E+01
    -13.954  0.0000E+00  0.4000E+01
    -13.868  0.0000E+00  0.4000E+01
    -13.782  0.0000E+00  0.4000E+01
    -13.696  0.0000E+00  0.4000E+01
    -13.610  0.0000E+00  0.4000E+01
    -13.525  0.0000E+00  0.4000E+01
    -13.439  0.0000E+00  0.4000E+01
    -13.353  0.0000E+00  0.4000E+01
    -13.267  0.0000E+00  0.4000E+01
    -13.181  0.0000E+00  0.4000E+01
    -13.096  0.0000E+00  0.4000E+01
    -13.010  0.0000E+00  0.4000E+01
    -12.924  0.0000E+00  0.4000E+01
    -12.838  0.0000E+00  0.4000E+01
    -12.752  0.0000E+00  0.4000E+01
    -12.667  0.0000E+00  0.4000E+01
    -12.581  0.0000E+00  0.4000E+01
    -12.495  0.0000E+00  0.4000E+01
    -12.409  0.0000E+00  0.4000E+01
    -12.323  0.0000E+00  0.4000E+01
    -12.237  0.0000E+00  0.4000E+01
    -12.152  0.0000E+00  0.4000E+01
    -12.066  0.0000E+00  0.4000E+01
    -11.980  0.0000E+00  0.4000E+01
    -11.894  0.0000E+00  0.4000E+01
    -11.808  0.0000E+00  0.4000E+01
    -11.723  0.0000E+00  0.4000E+01
    -11.637  0.0000E+00  0.4000E+01
    -11.551  0.0000E+00  0.4000E+01
    -11.465  0.0000E+00  0.4000E+01
    -11.379  0.0000E+00  0.4000E+01
    -11.294  0.0000E+00  0.4000E+01
    -11.208  0.0000E+00  0.4000E+01
    -11.122  0.0000E+00  0.4000E+01
    -11.036  0.0000E+00  0.4000E+01
    -10.950  0.0000E+00  0.4000E+01
    -10.865  0.0000E+00  0.4000E+01
    -10.779  0.0000E+00  0.4000E+01
    -10.693  0.0000E+00  0.4000E+01
    -10.607  0.0000E+00  0.4000E+01
    -10.521  0.0000E+00  0.4000E+01
    -10.436  0.0000E+00  0.4000E+01
    -10.350  0.0000E+00  0.4000E+01
    -10.264  0.0000E+00  0.4000E+01
    -10.178  0.0000E+00  0.4000E+01
    -10.092  0.0000E+00  0.4000E+01
    -10.007  0.0000E+00  0.4000E+01
     -9.921  0.0000E+00  0.4000E+01
     -9.835  0.0000E+00  0.4000E+01
     -9.749  0.0000E+00  0.4000E+01
     -9.663  0.0000E+00  0.4000E+01
     -9.578  0.0000E+00  0.4000E+01
     -9.492  0.0000E+00  0.4000E+01
     -9.406  0.9973E+00  0.4031E+01
     -9.320  0.1043E+01  0.4133E+01
     -9.234  0.1861E+01  0.4253E+01
     -9.148  0.1842E+01  0.4405E+01
     -9.063  0.2609E+01  0.4584E+01
     -8.977  0.3139E+01  0.4830E+01
     -8.891  0.5172E+01  0.5156E+01
     -8.805  0.3675E+01  0.5521E+01
     -8.719  0.5110E+01  0.5905E+01
     -8.634  0.2438E+01  0.6278E+01
     -8.548  0.1582E+01  0.6446E+01
     -8.462  0.1857E+01  0.6630E+01
     -8.376  0.1185E+01  0.6760E+01
     -8.290  0.1004E+01  0.6854E+01
     -8.205  0.8883E+00  0.6935E+01
     -8.119  0.7683E+00  0.7006E+01
     -8.033  0.7105E+00  0.7069E+01
     -7.947  0.6875E+00  0.7129E+01
     -7.861  0.6645E+00  0.7187E+01
     -7.776  0.2679E+01  0.7266E+01
     -7.690  0.3945E+01  0.7576E+01
     -7.604  0.6865E+01  0.8068E+01
     -7.518  0.5225E+01  0.8558E+01
     -7.432  0.3574E+01  0.8914E+01
     -7.347  0.1278E+01  0.9137E+01
     -7.261  0.1068E+01  0.9238E+01
     -7.175  0.1395E+01  0.9351E+01
     -7.089  0.1286E+01  0.9462E+01
     -7.003  0.3355E+01  0.9622E+01
     -6.918  0.4981E+01  0.1003E+02
     -6.832  0.3875E+01  0.1068E+02
     -6.746  0.2755E+01  0.1090E+02
     -6.660  0.2689E+01  0.1117E+02
     -6.574  0.2002E+01  0.1139E+02
     -6.489  0.1816E+01  0.1155E+02
     -6.403  0.1563E+01  0.1170E+02
     -6.317  0.1904E+01  0.1183E+02
     -6.231  0.9687E+00  0.1201E+02
     -6.145  0.9477E+00  0.1209E+02
     -6.060  0.3581E+01  0.1228E+02
     -5.974  0.1079E+01  0.1244E+02
     -5.888  0.8449E+00  0.1253E+02
     -5.802  0.2997E+01  0.1270E+02
     -5.716  0.6322E+01  0.1301E+02
     -5.630  0.4116E+01  0.1341E+02
     -5.545  0.3722E+01  0.1381E+02
     -5.459  0.3261E+01  0.1411E+02
     -5.373  0.3146E+01  0.1442E+02
     -5.287  0.1548E+01  0.1459E+02
     -5.201  0.2431E+01  0.1478E+02
     -5.116  0.2564E+01  0.1501E+02
     -5.030  0.2172E+01  0.1521E+02
     -4.944  0.2128E+01  0.1539E+02
     -4.858  0.2607E+01  0.1560E+02
     -4.772  0.2885E+01  0.1583E+02
     -4.687  0.3999E+00  0.1600E+02
     -4.601  0.2136E+01  0.1613E+02
     -4.515  0.4192E+01  0.1643E+02
     -4.429  0.2772E+01  0.1674E+02
     -4.343  0.2706E+01  0.1698E+02
     -4.258  0.2502E+01  0.1720E+02
     -4.172  0.2111E+01  0.1740E+02
     -4.086  0.1759E+01  0.1757E+02
     -4.000  0.1400E+01  0.1771E+02
     -3.914  0.1392E+01  0.1783E+02
     -3.829  0.1073E+01  0.1794E+02
     -3.743  0.0000E+00  0.1800E+02
     -3.657  0.0000E+00  0.1800E+02
     -3.571  0.0000E+00  0.1800E+02
     -3.485  0.0000E+00  0.1800E+02
     -3.400  0.0000E+00  0.1800E+02
     -3.314  0.0000E+00  0.1800E+02
     -3.228  0.0000E+00  0.1800E+02
     -3.142  0.0000E+00  0.1800E+02
     -3.056  0.0000E+00  0.1800E+02
     -2.971  0.0000E+00  0.1800E+02
     -2.885  0.0000E+00  0.1800E+02
     -2.799  0.0000E+00  0.1800E+02
     -2.713  0.0000E+00  0.1800E+02
     -2.627  0.0000E+00  0.1800E+02
     -2.541  0.0000E+00  0.1800E+02
     -2.456  0.0000E+00  0.1800E+02
     -2.370  0.0000E+00  0.1800E+02
     -2.284  0.0000E+00  0.1800E+02
     -2.198  0.0000E+00  0.1800E+02
     -2.112  0.0000E+00  0.1800E+02
     -2.027  0.3699E+00  0.1802E+02
     -1.941  0.5035E+00  0.1805E+02
     -1.855  0.6409E+00  0.1810E+02
     -1.769  0.3215E+01  0.1825E+02
     -1.683  0.4394E+01  0.1857E+02
     -1.598  0.1157E+03  0.1925E+02
     -1.512  0.6857E+00  0.1977E+02
     -1.426  0.2065E+01  0.1988E+02
     -1.340  0.6159E+01  0.2018E+02
     -1.254  0.7903E+01  0.2076E+02
     -1.169  0.4268E+01  0.2118E+02
     -1.083  0.5661E+01  0.2160E+02
     -0.997  0.3036E+01  0.2199E+02
     -0.911  0.2379E+01  0.2225E+02
     -0.825  0.2818E+01  0.2246E+02
     -0.740  0.2290E+01  0.2267E+02
     -0.654  0.3683E+01  0.2301E+02
     -0.568  0.2620E+01  0.2321E+02
     -0.482  0.2455E+01  0.2343E+02
     -0.396  0.2081E+01  0.2362E+02
     -0.311  0.1536E+01  0.2379E+02
     -0.225  0.1509E+01  0.2392E+02
     -0.139  0.1497E+01  0.2405E+02
     -0.053  0.1441E+01  0.2418E+02
      0.033  0.1385E+01  0.2430E+02
      0.118  0.4932E+01  0.2445E+02
      0.204  0.1022E+01  0.2457E+02
      0.290  0.1133E+01  0.2467E+02
      0.376  0.3435E+01  0.2481E+02
      0.462  0.3286E+01  0.2520E+02
      0.547  0.2197E+01  0.2542E+02
      0.633  0.1640E+01  0.2557E+02
      0.719  0.1407E+01  0.2570E+02
      0.805  0.1231E+01  0.2581E+02
      0.891  0.8788E+00  0.2590E+02
      0.977  0.7498E+00  0.2596E+02
      1.062  0.0000E+00  0.2600E+02
      1.148  0.0000E+00  0.2600E+02
      1.234  0.0000E+00  0.2600E+02
      1.320  0.0000E+00  0.2600E+02
      1.406  0.0000E+00  0.2600E+02
      1.491  0.0000E+00  0.2600E+02
      1.577  0.0000E+00  0.2600E+02
      1.663  0.0000E+00  0.2600E+02
      1.749  0.2660E+00  0.2601E+02
      1.835  0.2836E+00  0.2604E+02
      1.920  0.3237E+00  0.2607E+02
      2.006  0.3638E+00  0.2609E+02
      2.092  0.3561E+00  0.2613E+02
      2.178  0.3567E+00  0.2616E+02
      2.264  0.3794E+00  0.2619E+02
      2.349  0.4021E+00  0.2622E+02
      2.435  0.4673E+00  0.2626E+02
      2.521  0.7740E+00  0.2631E+02
      2.607  0.1237E+01  0.2639E+02
      2.693  0.1043E+01  0.2649E+02
      2.778  0.9967E+00  0.2657E+02
      2.864  0.1086E+01  0.2666E+02
      2.950  0.1167E+01  0.2676E+02
      3.036  0.1262E+01  0.2686E+02
      3.122  0.1333E+01  0.2697E+02
      3.207  0.1438E+01  0.2709E+02
      3.293  0.1615E+01  0.2722E+02
      3.379  0.2212E+01  0.2740E+02
      3.465  0.1935E+01  0.2757E+02
      3.551  0.1213E+01  0.2771E+02
      3.636  0.1094E+01  0.2781E+02
      3.722  0.8470E+00  0.2789E+02
      3.808  0.6495E+00  0.2795E+02
      3.894  0.2655E+00  0.2799E+02
      3.980  0.0000E+00  0.2800E+02
      4.066  0.0000E+00  0.2800E+02
      4.151  0.0000E+00  0.2800E+02
      4.237  0.0000E+00  0.2800E+02
      4.323  0.0000E+00  0.2800E+02
      4.409  0.0000E+00  0.2800E+02
      4.495  0.0000E+00  0.2800E+02
      4.580  0.0000E+00  0.2800E+02
      4.666  0.0000E+00  0.2800E+02
      4.752  0.0000E+00  0.2800E+02
      4.838  0.0000E+00  0.2800E+02
      4.924  0.0000E+00  0.2800E+02
      5.009  0.0000E+00  0.2800E+02
      5.095  0.0000E+00  0.2800E+02
      5.181  0.0000E+00  0.2800E+02
      5.267  0.0000E+00  0.2800E+02
      5.353  0.0000E+00  0.2800E+02
      5.438  0.0000E+00  0.2800E+02
      5.524  0.0000E+00  0.2800E+02
      5.610  0.0000E+00  0.2800E+02
      5.696  0.0000E+00  0.2800E+02
      5.782  0.0000E+00  0.2800E+02
      5.867  0.0000E+00  0.2800E+02
      5.953  0.0000E+00  0.2800E+02
