    3    3    1    1
  0.9072772E+02  0.3190316E-09  0.3190316E-09  0.3087900E-08  0.5000000E-15
  1.000000000000000E-004
  CAR 
 unknown system                          
     18     24     14
 
  0.0000000E+00  0.0000000E+00  0.0000000E+00  0.5102041E-02
    1      -17.788342   1.000000
    2      -16.580319   1.000000
    3       -9.308753   1.000000
    4       -6.347862   1.000000
    5       -6.347856   1.000000
    6       -5.486713   1.000000
    7       -5.242275   1.000000
    8       -5.242243   1.000000
    9       -3.766431   1.000000
   10       -0.994791   0.000000
   11       -0.994761   0.000000
   12       -0.771068   0.000000
   13       -0.771054   0.000000
   14        1.664010   0.000000
 
  0.7142857E-01  0.6938894E-17  0.0000000E+00  0.3061224E-01
    1      -17.717128   1.000000
    2      -16.546215   1.000000
    3       -9.224295   1.000000
    4       -6.514533   1.000000
    5       -6.269270   1.000000
    6       -5.890620   1.000000
    7       -5.362776   1.000000
    8       -4.950206   1.000000
    9       -3.803468   1.000000
   10       -1.104897   0.000000
   11       -0.980264   0.000000
   12       -0.866088   0.000000
   13       -0.855831   0.000000
   14        1.803685   0.000000
 
  0.1428571E+00  0.0000000E+00  0.0000000E+00  0.3061224E-01
    1      -17.511010   1.000000
    2      -16.447813   1.000000
    3       -8.998620   1.000000
    4       -6.927827   1.000000
    5       -6.432950   1.000000
    6       -6.045454   1.000000
    7       -5.663886   1.000000
    8       -4.799540   1.000000
    9       -3.959729   1.000000
   10       -1.366079   0.000000
   11       -1.217579   0.000000
   12       -1.067806   0.000000
   13       -0.551509   0.000000
   14        2.129840   0.000000
 
  0.2142857E+00  0.0000000E+00  0.0000000E+00  0.3061224E-01
    1      -17.193539   1.000000
    2      -16.297357   1.000000
    3       -8.747909   1.000000
    4       -7.382496   1.000000
    5       -6.994666   1.000000
    6       -6.032404   1.000000
    7       -5.713627   1.000000
    8       -4.932310   1.000000
    9       -4.285279   1.000000
   10       -1.587271   0.000000
   11       -1.314624   0.000000
   12       -1.057697   0.000000
   13       -0.188259   0.000000
   14        2.582268   0.000000
 
  0.2857143E+00  0.2775558E-16  0.0000000E+00  0.3061224E-01
    1      -16.807083   1.000000
    2      -16.116947   1.000000
    3       -8.748561   1.000000
    4       -7.610399   1.000000
    5       -7.549199   1.000000
    6       -6.380617   1.000000
    7       -5.338313   1.000000
    8       -5.196313   1.000000
    9       -4.625745   1.000000
   10       -1.557799   0.000000
   11       -1.508238   0.000000
   12       -0.669993   0.000000
   13        0.120630   0.000000
   14        3.129926   0.000000
 
  0.3571429E+00 -0.2775558E-16  0.0000000E+00  0.3061224E-01
    1      -16.417754   1.000000
    2      -15.939652   1.000000
    3       -9.050877   1.000000
    4       -8.039812   1.000000
    5       -7.652725   1.000000
    6       -6.656403   1.000000
    7       -5.426401   1.000000
    8       -5.003688   1.000000
    9       -4.700347   1.000000
   10       -1.597863   0.000000
   11       -1.379182   0.000000
   12       -0.250860   0.000000
   13        0.332766   0.000000
   14        3.513496   0.000000
 
  0.4285714E+00  0.0000000E+00  0.0000000E+00  0.3061224E-01
    1      -16.117193   1.000000
    2      -15.806934   1.000000
    3       -9.349464   1.000000
    4       -8.383606   1.000000
    5       -7.742873   1.000000
    6       -6.831203   1.000000
    7       -5.564445   1.000000
    8       -4.783313   1.000000
    9       -4.512733   1.000000
   10       -1.597569   0.000000
   11       -1.169402   0.000000
   12        0.039425   0.000000
   13        0.449372   0.000000
   14        2.789555   0.000000
 
  0.5000000E+00  0.2775558E-16  0.0000000E+00  0.1530612E-01
    1      -16.002003   1.000000
    2      -15.757241   1.000000
    3       -9.467969   1.000000
    4       -8.507779   1.000000
    5       -7.797028   1.000000
    6       -6.890875   1.000000
    7       -5.608894   1.000000
    8       -4.708762   1.000000
    9       -4.387020   1.000000
   10       -1.581711   0.000000
   11       -1.065751   0.000000
   12        0.136748   0.000000
   13        0.485739   0.000000
   14        2.415886   0.000000
 
  0.7142857E-01  0.7142857E-01  0.0000000E+00  0.3061224E-01
    1      -17.578412   1.000000
    2      -16.479915   1.000000
    3       -9.067945   1.000000
    4       -6.800677   1.000000
    5       -6.261134   1.000000
    6       -6.121992   1.000000
    7       -5.635327   1.000000
    8       -4.762546   1.000000
    9       -3.900244   1.000000
   10       -1.264573   0.000000
   11       -1.243348   0.000000
   12       -1.013310   0.000000
   13       -0.620581   0.000000
   14        2.031124   0.000000
 
  0.1428571E+00  0.7142857E-01  0.0000000E+00  0.6122449E-01
    1      -17.316238   1.000000
    2      -16.355077   1.000000
    3       -8.817726   1.000000
    4       -7.224754   1.000000
    5       -6.726890   1.000000
    6       -6.072138   1.000000
    7       -5.863901   1.000000
    8       -4.721243   1.000000
    9       -4.147027   1.000000
   10       -1.563333   0.000000
   11       -1.263494   0.000000
   12       -1.232500   0.000000
   13       -0.245559   0.000000
   14        2.431010   0.000000
 
  0.2142857E+00  0.7142857E-01  0.0000000E+00  0.6122449E-01
    1      -16.962932   1.000000
    2      -16.188346   1.000000
    3       -8.669960   1.000000
    4       -7.544135   1.000000
    5       -7.265050   1.000000
    6       -6.453893   1.000000
    7       -5.575294   1.000000
    8       -4.912554   1.000000
    9       -4.483148   1.000000
   10       -1.701383   0.000000
   11       -1.373313   0.000000
   12       -1.010644   0.000000
   13        0.106841   0.000000
   14        2.934020   0.000000
 
  0.2857143E+00  0.7142857E-01  0.0000000E+00  0.6122449E-01
    1      -16.571760   1.000000
    2      -16.006831   1.000000
    3       -8.853328   1.000000
    4       -7.820682   1.000000
    5       -7.600316   1.000000
    6       -6.700570   1.000000
    7       -5.378292   1.000000
    8       -5.198381   1.000000
    9       -4.618720   1.000000
   10       -1.684249   0.000000
   11       -1.371457   0.000000
   12       -0.601254   0.000000
   13        0.348849   0.000000
   14        3.497356   0.000000
 
  0.3571429E+00  0.7142857E-01  0.0000000E+00  0.6122449E-01
    1      -16.221149   1.000000
    2      -15.848087   1.000000
    3       -9.162237   1.000000
    4       -8.275314   1.000000
    5       -7.659093   1.000000
    6       -6.836885   1.000000
    7       -5.443933   1.000000
    8       -5.238578   1.000000
    9       -4.462209   1.000000
   10       -1.596994   0.000000
   11       -1.246103   0.000000
   12       -0.195708   0.000000
   13        0.435741   0.000000
   14        3.261072   0.000000
 
  0.4285714E+00  0.7142857E-01  0.0000000E+00  0.6122449E-01
    1      -16.007774   1.000000
    2      -15.753888   1.000000
    3       -9.366230   1.000000
    4       -8.530181   1.000000
    5       -7.755885   1.000000
    6       -6.895450   1.000000
    7       -5.580397   1.000000
    8       -5.124933   1.000000
    9       -4.266101   1.000000
   10       -1.562296   0.000000
   11       -1.067535   0.000000
   12        0.117127   0.000000
   13        0.365362   0.000000
   14        2.602531   0.000000
 
  0.1428571E+00  0.1428571E+00  0.0000000E+00  0.3061224E-01
    1      -17.017256   1.000000
    2      -16.212970   1.000000
    3       -8.642952   1.000000
    4       -7.498134   1.000000
    5       -7.050263   1.000000
    6       -6.655047   1.000000
    7       -5.695860   1.000000
    8       -4.707320   1.000000
    9       -4.418364   1.000000
   10       -1.766516   0.000000
   11       -1.327291   0.000000
   12       -1.226205   0.000000
   13        0.142254   0.000000
   14        2.907337   0.000000
 
  0.2142857E+00  0.1428571E+00  0.0000000E+00  0.6122449E-01
    1      -16.655672   1.000000
    2      -16.041990   1.000000
    3       -8.693381   1.000000
    4       -7.606385   1.000000
    5       -7.535716   1.000000
    6       -6.923053   1.000000
    7       -5.719098   1.000000
    8       -4.903194   1.000000
    9       -4.560724   1.000000
   10       -1.809099   0.000000
   11       -1.309252   0.000000
   12       -0.978993   0.000000
   13        0.434047   0.000000
   14        3.446383   0.000000
 
  0.2857143E+00  0.1428571E+00  0.0000000E+00  0.6122449E-01
    1      -16.295219   1.000000
    2      -15.873209   1.000000
    3       -8.916315   1.000000
    4       -8.180965   1.000000
    5       -7.510865   1.000000
    6       -6.963416   1.000000
    7       -5.842970   1.000000
    8       -5.213369   1.000000
    9       -4.457204   1.000000
   10       -1.637270   0.000000
   11       -1.254812   0.000000
   12       -0.624596   0.000000
   13        0.569072   0.000000
   14        3.776205   0.000000
 
  0.3571429E+00  0.1428571E+00  0.0000000E+00  0.6122449E-01
    1      -16.020593   1.000000
    2      -15.746313   1.000000
    3       -9.108053   1.000000
    4       -8.576793   1.000000
    5       -7.628635   1.000000
    6       -6.921830   1.000000
    7       -5.847437   1.000000
    8       -5.492573   1.000000
    9       -4.234732   1.000000
   10       -1.570230   0.000000
   11       -1.043306   0.000000
   12       -0.307813   0.000000
   13        0.558539   0.000000
   14        3.080554   0.000000
 
  0.4285714E+00  0.1428571E+00  0.0000000E+00  0.3061224E-01
    1      -15.916412   1.000000
    2      -15.698684   1.000000
    3       -9.180024   1.000000
    4       -8.717376   1.000000
    5       -7.708063   1.000000
    6       -6.889318   1.000000
    7       -5.827368   1.000000
    8       -5.608685   1.000000
    9       -4.105662   1.000000
   10       -1.617595   0.000000
   11       -0.870836   0.000000
   12       -0.166609   0.000000
   13        0.514941   0.000000
   14        2.723356   0.000000
 
  0.2142857E+00  0.2142857E+00  0.0000000E+00  0.3061224E-01
    1      -16.321969   1.000000
    2      -15.881550   1.000000
    3       -8.797150   1.000000
    4       -8.134606   1.000000
    5       -7.402218   1.000000
    6       -7.042661   1.000000
    7       -6.147819   1.000000
    8       -5.091339   1.000000
    9       -4.470516   1.000000
   10       -1.667123   0.000000
   11       -1.244868   0.000000
   12       -0.827230   0.000000
   13        0.643450   0.000000
   14        3.953216   0.000000
 
  0.2857143E+00  0.2142857E+00  0.0000000E+00  0.6122449E-01
    1      -16.030737   1.000000
    2      -15.740216   1.000000
    3       -8.860306   1.000000
    4       -8.610958   1.000000
    5       -7.409848   1.000000
    6       -6.955671   1.000000
    7       -6.509140   1.000000
    8       -5.400284   1.000000
    9       -4.257313   1.000000
   10       -1.607159   0.000000
   11       -1.008423   0.000000
   12       -0.643772   0.000000
   13        0.755202   0.000000
   14        3.643544   0.000000
 
  0.3571429E+00  0.2142857E+00  0.0000000E+00  0.6122449E-01
    1      -15.858173   1.000000
    2      -15.655875   1.000000
    3       -8.878922   1.000000
    4       -8.853394   1.000000
    5       -7.599701   1.000000
    6       -6.825076   1.000000
    7       -6.607455   1.000000
    8       -5.657720   1.000000
    9       -4.017453   1.000000
   10       -1.780975   0.000000
   11       -0.651321   0.000000
   12       -0.533845   0.000000
   13        0.804435   0.000000
   14        3.105158   0.000000
 
  0.2857143E+00  0.2857143E+00  0.0000000E+00  0.3061224E-01
    1      -15.838497   1.000000
    2      -15.639608   1.000000
    3       -8.942038   1.000000
    4       -8.651279   1.000000
    5       -7.427014   1.000000
    6       -7.106261   1.000000
    7       -6.788961   1.000000
    8       -5.681987   1.000000
    9       -3.983583   1.000000
   10       -1.865723   0.000000
   11       -0.679636   0.000000
   12       -0.563735   0.000000
   13        0.933145   0.000000
   14        3.470966   0.000000
 
  0.3571429E+00  0.2857143E+00  0.0000000E+00  0.3061224E-01
    1      -15.767977   1.000000
    2      -15.601717   1.000000
    3       -9.063771   1.000000
    4       -8.451642   1.000000
    5       -7.674593   1.000000
    6       -7.212959   1.000000
    7       -6.667855   1.000000
    8       -5.845066   1.000000
    9       -3.818909   1.000000
   10       -2.045347   0.000000
   11       -0.699878   0.000000
   12       -0.342167   0.000000
   13        1.011042   0.000000
   14        3.351317   0.000000
