Automatically generated mesh
      24
Reciprocal lattice
    0.00000000000000    0.00000000000000    0.00000000000000             1
    0.07142857142857    0.00000000000000    0.00000000000000             6
    0.14285714285714    0.00000000000000    0.00000000000000             6
    0.21428571428571    0.00000000000000    0.00000000000000             6
    0.28571428571429    0.00000000000000    0.00000000000000             6
    0.35714285714286   -0.00000000000000    0.00000000000000             6
    0.42857142857143    0.00000000000000    0.00000000000000             6
    0.50000000000000    0.00000000000000    0.00000000000000             3
    0.07142857142857    0.07142857142857    0.00000000000000             6
    0.14285714285714    0.07142857142857    0.00000000000000            12
    0.21428571428571    0.07142857142857    0.00000000000000            12
    0.28571428571429    0.07142857142857    0.00000000000000            12
    0.35714285714286    0.07142857142857    0.00000000000000            12
    0.42857142857143    0.07142857142857    0.00000000000000            12
    0.14285714285714    0.14285714285714    0.00000000000000             6
    0.21428571428571    0.14285714285714    0.00000000000000            12
    0.28571428571429    0.14285714285714    0.00000000000000            12
    0.35714285714286    0.14285714285714    0.00000000000000            12
    0.42857142857143    0.14285714285714    0.00000000000000             6
    0.21428571428571    0.21428571428571    0.00000000000000             6
    0.28571428571429    0.21428571428571    0.00000000000000            12
    0.35714285714286    0.21428571428571    0.00000000000000            12
    0.28571428571429    0.28571428571429    0.00000000000000             6
    0.35714285714286    0.28571428571429    0.00000000000000             6
Tetrahedra
       105    0.00085034013605
        12         2         2         2         9
        12         1         2         2         2
         6         1         1         2         2
         6         2         2         9         9
        12         3         9         9        10
        12         2         3         9         9
        12         2         2         3         9
        12         3         9        10        10
        12         3         3         9        10
        12         2         3         3         9
        12         4        10        10        11
        12         3         4        10        10
        12         3         3         4        10
        12         4        10        11        11
        12         4         4        10        11
        12         3         4         4        10
        12         5        11        11        12
        12         4         5        11        11
        12         4         4         5        11
        12         5        11        12        12
        12         5         5        11        12
        12         4         5         5        11
        12         6        12        12        13
        12         5         6        12        12
        12         5         5         6        12
        12         6        12        13        13
        12         6         6        12        13
        12         5         6         6        12
        12         7        13        13        14
        12         6         7        13        13
        12         6         6         7        13
        12         7        13        14        14
        12         7         7        13        14
        12         6         7         7        13
        12         8        14        14        14
        12         7         8        14        14
        12         7         7         8        14
         6         8         8        14        14
        12         7         8         8        14
        12        10        10        10        15
        12         9        10        10        10
         6         9         9        10        10
         6        10        10        15        15
        12        11        15        15        16
        12        10        11        15        15
        12        10        10        11        15
        12        11        15        16        16
        12        11        11        15        16
        12        10        11        11        15
        12        12        16        16        17
        12        11        12        16        16
        12        11        11        12        16
        12        12        16        17        17
        12        12        12        16        17
        12        11        12        12        16
        12        13        17        17        18
        12        12        13        17        17
        12        12        12        13        17
        12        13        17        18        18
        12        13        13        17        18
        12        12        13        13        17
        12        14        18        18        19
        12        13        14        18        18
        12        13        13        14        18
        12        14        18        19        19
        12        14        14        18        19
        12        13        14        14        18
         6        14        14        19        19
        12        14        14        14        19
        12        16        16        16        20
        12        15        16        16        16
         6        15        15        16        16
         6        16        16        20        20
        12        17        20        20        21
        12        16        17        20        20
        12        16        16        17        20
        12        17        20        21        21
        12        17        17        20        21
        12        16        17        17        20
        12        18        21        21        22
        12        17        18        21        21
        12        17        17        18        21
        12        18        21        22        22
        12        18        18        21        22
        12        17        18        18        21
        12        19        22        22        22
        12        18        19        22        22
        12        18        18        19        22
         6        19        19        22        22
        12        18        19        19        22
        12        21        21        21        23
        12        20        21        21        21
         6        20        20        21        21
         6        21        21        23        23
        12        22        23        23        24
        12        21        22        23        23
        12        21        21        22        23
        12        22        23        24        24
        12        22        22        23        24
        12        21        22        22        23
         6        22        22        24        24
        12        22        22        22        24
         6        24        24        24        24
        12        23        24        24        24
         6        23        23        24        24
