       N       E                     dE             d eps       ncg     rms          rms(c)
DAV:   1     0.138778281746E+03    0.13878E+03   -0.54219E+03   672   0.810E+02
DAV:   2    -0.544662635432E+01   -0.14422E+03   -0.13508E+03  1164   0.162E+02
DAV:   3    -0.230311674941E+02   -0.17585E+02   -0.17422E+02   942   0.743E+01
DAV:   4    -0.233974728628E+02   -0.36631E+00   -0.36458E+00   824   0.134E+01
DAV:   5    -0.234075675961E+02   -0.10095E-01   -0.10080E-01   906   0.216E+00    0.689E+00
RMM:   6    -0.222464705908E+02    0.11611E+01   -0.54284E+00   707   0.123E+01    0.262E+00
RMM:   7    -0.218623619576E+02    0.38411E+00   -0.55710E-01   699   0.342E+00    0.151E+00
RMM:   8    -0.218020510723E+02    0.60311E-01   -0.23305E-01   742   0.251E+00    0.354E-01
RMM:   9    -0.217971738320E+02    0.48772E-02   -0.87381E-03   800   0.606E-01    0.957E-02
RMM:  10    -0.217964203102E+02    0.75352E-03   -0.17025E-03   799   0.219E-01    0.442E-02
RMM:  11    -0.217963542121E+02    0.66098E-04   -0.16262E-03   755   0.189E-01    0.534E-02
RMM:  12    -0.217961891267E+02    0.16509E-03   -0.52216E-04   732   0.128E-01    0.173E-02
RMM:  13    -0.217965292746E+02   -0.34015E-03   -0.16791E-04   683   0.725E-02    0.202E-02
RMM:  14    -0.217965862097E+02   -0.56935E-04   -0.26282E-05   617   0.284E-02    0.490E-03
RMM:  15    -0.217967119157E+02   -0.12571E-03   -0.11352E-05   470   0.172E-02    0.263E-03
RMM:  16    -0.217967527836E+02   -0.40868E-04   -0.27095E-06   422   0.849E-03    0.153E-03
RMM:  17    -0.217967844986E+02   -0.31715E-04   -0.23264E-06   356   0.695E-03    0.115E-03
RMM:  18    -0.217967889082E+02   -0.44097E-05   -0.40429E-07   199   0.418E-03
   1 F= -.22387587E+02 E0= -.22387587E+02  d E =0.000000E+00
