 vasp.5.4.4.18Apr17-6-g9f103f2a35 (build Jun 30 2017 11:15:00) complex          
  
 executed on    STALLO_VASP_5.4.4 date 2019.11.08  12:22:18
 running on    4 total cores
 distrk:  each k-point on    4 cores,    1 groups
 distr:  one band on NCORES_PER_BAND=   2 cores,    2 groups


--------------------------------------------------------------------------------------------------------


 INCAR:
 POTCAR:   PAW_PBE Mo 08Apr2002                   
 POTCAR:    PAW_PBE S 17Jan2003                   
 POTCAR:   PAW_PBE Mo 08Apr2002                   
   VRHFIN =Mo: 4p5s4d                                                           
   LEXCH  = PE                                                                  
   EATOM  =   217.5180 eV,   15.9871 Ry                                         
                                                                                
   TITEL  = PAW_PBE Mo 08Apr2002                                                
   LULTRA =        F    use ultrasoft PP ?                                      
   IUNSCR =        1    unscreen: 0-lin 1-nonlin 2-no                           
   RPACOR =    2.200    partial core radius                                     
   POMASS =   95.940; ZVAL   =    6.000    mass and valenz                      
   RCORE  =    2.750    outmost cutoff radius                                   
   RWIGS  =    2.750; RWIGS  =    1.455    wigner-seitz radius (au A)           
   ENMAX  =  224.584; ENMIN  =  168.438 eV                                      
   RCLOC  =    2.111    cutoff for local pot                                    
   LCOR   =        T    correct aug charges                                     
   LPAW   =        T    paw PP                                                  
   EAUG   =  345.278                                                            
   DEXC   =    -.088                                                            
   RMAX   =    3.077    core radius for proj-oper                               
   RAUG   =    1.300    factor for augmentation sphere                          
   RDEP   =    2.815    radius for radial grids                                 
   QCUT   =   -4.063; QGAM   =    8.126    optimization parameters              
                                                                                
   Description                                                                  
     l     E      TYP  RCUT    TYP  RCUT                                        
     2   .000     23  2.500                                                     
     2   .000     23  2.500                                                     
     0   .000     23  2.600                                                     
     0  1.000     23  2.600                                                     
     1   .400     23  2.750                                                     
     1  2.000     23  2.750                                                     
     3   .000      7   .000                                                     
  local pseudopotential read in
  partial core-charges read in
  atomic valenz-charges read in
  non local Contribution for L=           2  read in
    real space projection operators read in
  non local Contribution for L=           2  read in
    real space projection operators read in
  non local Contribution for L=           0  read in
    real space projection operators read in
  non local Contribution for L=           0  read in
    real space projection operators read in
  non local Contribution for L=           1  read in
    real space projection operators read in
  non local Contribution for L=           1  read in
    real space projection operators read in
    PAW grid and wavefunctions read in
 
   number of l-projection  operators is LMAX  =           6
   number of lm-projection operators is LMMAX =          18
 
 POTCAR:    PAW_PBE S 17Jan2003                   
   VRHFIN =S : s2p4                                                             
   LEXCH  = PE                                                                  
   EATOM  =   276.8230 eV,   20.3459 Ry                                         
                                                                                
   TITEL  = PAW_PBE S 17Jan2003                                                 
   LULTRA =        F    use ultrasoft PP ?                                      
   IUNSCR =        1    unscreen: 0-lin 1-nonlin 2-no                           
   RPACOR =    1.500    partial core radius                                     
   POMASS =   32.066; ZVAL   =    6.000    mass and valenz                      
   RCORE  =    1.900    outmost cutoff radius                                   
   RWIGS  =    2.200; RWIGS  =    1.164    wigner-seitz radius (au A)           
   ENMAX  =  280.000; ENMIN  =  194.016 eV                                      
   ICORE  =        2    local potential                                         
   LCOR   =        T    correct aug charges                                     
   LPAW   =        T    paw PP                                                  
   EAUG   =  335.092                                                            
   DEXC   =     .000                                                            
   RMAX   =    2.867    core radius for proj-oper                               
   RAUG   =    1.300    factor for augmentation sphere                          
   RDEP   =    1.954    radius for radial grids                                 
   QCUT   =   -4.360; QGAM   =    8.721    optimization parameters              
                                                                                
   Description                                                                  
     l     E      TYP  RCUT    TYP  RCUT                                        
     0   .000     23  1.900                                                     
     0   .000     23  1.900                                                     
     1   .000     23  1.900                                                     
     1   .000     23  1.900                                                     
     2   .000     23  1.900                                                     
  local pseudopotential read in
  partial core-charges read in
  atomic valenz-charges read in
  non local Contribution for L=           0  read in
    real space projection operators read in
  non local Contribution for L=           0  read in
    real space projection operators read in
  non local Contribution for L=           1  read in
    real space projection operators read in
  non local Contribution for L=           1  read in
    real space projection operators read in
    PAW grid and wavefunctions read in
 
   number of l-projection  operators is LMAX  =           4
   number of lm-projection operators is LMMAX =           8
 
 PAW_PBE Mo 08Apr2002                   :
 energy of atom  1       EATOM= -217.5180
 kinetic energy error for atom=    0.0023 (will be added to EATOM!!)
  PAW_PBE S 17Jan2003                   :
 energy of atom  2       EATOM= -276.8230
 kinetic energy error for atom=    0.0033 (will be added to EATOM!!)
 
 
 POSCAR: MoS2_mp-2815_computed                   
  positions in cartesian coordinates
  velocities in cartesian coordinates
  No initial velocities read in
 exchange correlation table for  LEXCH =        8
   RHO(1)=    0.500       N(1)  =     2000
   RHO(2)=  100.500       N(2)  =     4000
 


--------------------------------------------------------------------------------------------------------


 ion  position               nearest neighbor table
   1  0.333  0.667  0.120-   3 2.42   2 2.42   2 2.42   3 2.42   3 2.42   2 2.42
   2  0.667  0.333  0.070-   1 2.42   1 2.42   1 2.42
   3  0.667  0.333  0.171-   1 2.42   1 2.42   1 2.42
 
  LATTYP: Found a hexagonal cell.
 ALAT       =     3.1903157300
 C/A-ratio  =     9.6789806757
  
  Lattice vectors:
  
 A1 = (   3.1903157300,   0.0000000000,   0.0000000000)
 A2 = (  -1.5951578650,   2.7628944683,   0.0000000000)
 A3 = (   0.0000000000,   0.0000000000,  30.8790043000)


Analysis of symmetry for initial positions (statically):
=====================================================================
 Subroutine PRICEL returns:
 Original cell was already a primitive cell.
 

 Routine SETGRP: Setting up the symmetry group for a 
 hexagonal supercell.


 Subroutine GETGRP returns: Found 12 space group operations
 (whereof  6 operations were pure point group operations)
 out of a pool of 24 trial point group operations.


The static configuration has the point symmetry C_3v.
 The point group associated with its full space group is D_3h.


Analysis of symmetry for dynamics (positions and initial velocities):
=====================================================================
 Subroutine PRICEL returns:
 Original cell was already a primitive cell.
 

 Routine SETGRP: Setting up the symmetry group for a 
 hexagonal supercell.


 Subroutine GETGRP returns: Found 12 space group operations
 (whereof  6 operations were pure point group operations)
 out of a pool of 24 trial point group operations.


The dynamic configuration has the point symmetry C_3v.
 The point group associated with its full space group is D_3h.


 Subroutine INISYM returns: Found 12 space group operations
 (whereof  6 operations are pure point group operations),
 and found     1 'primitive' translations

 
 
 KPOINTS: k-density: 7.0                          

Automatic generation of k-mesh.
Space group operators:
 irot       det(A)        alpha          n_x          n_y          n_z        tau_x        tau_y        tau_z
    1     1.000000     0.000000     1.000000     0.000000     0.000000     0.000000     0.000000     0.000000
    2     1.000000   120.000000     0.000000     0.000000    -1.000000     0.000000     0.000000     0.000000
    3     1.000000   120.000000     0.000000     0.000000     1.000000     0.000000     0.000000     0.000000
    4    -1.000000   180.000000     1.000000    -0.000000     0.000000     0.000000     0.000000     0.000000
    5    -1.000000   180.000000     0.500000    -0.866025     0.000000     0.000000     0.000000     0.000000
    6    -1.000000   180.000000    -0.500000    -0.866025     0.000000     0.000000     0.000000     0.000000
    7    -1.000000    60.000000     0.000000     0.000000    -1.000000     0.000000     0.000000     0.240924
    8    -1.000000   179.999999     0.000000     0.000000     1.000000     0.000000     0.000000     0.240924
    9    -1.000000    60.000000     0.000000     0.000000     1.000000     0.000000     0.000001     0.240924
   10     1.000000   180.000000     0.866025    -0.500000     0.000000     0.000000     0.000000     0.240924
   11     1.000000   180.000000     0.000000     1.000000     0.000000     0.000000     0.000000     0.240924
   12     1.000000   180.000000     0.866025     0.500000     0.000000    -0.000000     0.000001     0.240924
 
 Subroutine IBZKPT returns following result:
 ===========================================
 
 Found     24 irreducible k-points:
 
 Following reciprocal coordinates:
            Coordinates               Weight
  0.000000  0.000000  0.000000      1.000000
  0.071429  0.000000  0.000000      6.000000
  0.142857  0.000000  0.000000      6.000000
  0.214286  0.000000  0.000000      6.000000
  0.285714  0.000000  0.000000      6.000000
  0.357143 -0.000000  0.000000      6.000000
  0.428571  0.000000  0.000000      6.000000
  0.500000  0.000000  0.000000      3.000000
  0.071429  0.071429  0.000000      6.000000
  0.142857  0.071429  0.000000     12.000000
  0.214286  0.071429  0.000000     12.000000
  0.285714  0.071429  0.000000     12.000000
  0.357143  0.071429  0.000000     12.000000
  0.428571  0.071429  0.000000     12.000000
  0.142857  0.142857  0.000000      6.000000
  0.214286  0.142857  0.000000     12.000000
  0.285714  0.142857  0.000000     12.000000
  0.357143  0.142857  0.000000     12.000000
  0.428571  0.142857  0.000000      6.000000
  0.214286  0.214286  0.000000      6.000000
  0.285714  0.214286  0.000000     12.000000
  0.357143  0.214286  0.000000     12.000000
  0.285714  0.285714  0.000000      6.000000
  0.357143  0.285714  0.000000      6.000000
 
 Following cartesian coordinates:
            Coordinates               Weight
  0.000000  0.000000  0.000000      1.000000
  0.022389  0.012926  0.000000      6.000000
  0.044778  0.025853  0.000000      6.000000
  0.067168  0.038779  0.000000      6.000000
  0.089557  0.051706  0.000000      6.000000
  0.111946  0.064632  0.000000      6.000000
  0.134335  0.077558  0.000000      6.000000
  0.156724  0.090485  0.000000      3.000000
  0.022389  0.038779  0.000000      6.000000
  0.044778  0.051706  0.000000     12.000000
  0.067168  0.064632  0.000000     12.000000
  0.089557  0.077558  0.000000     12.000000
  0.111946  0.090485  0.000000     12.000000
  0.134335  0.103411  0.000000     12.000000
  0.044778  0.077558  0.000000      6.000000
  0.067168  0.090485  0.000000     12.000000
  0.089557  0.103411  0.000000     12.000000
  0.111946  0.116338  0.000000     12.000000
  0.134335  0.129264  0.000000      6.000000
  0.067168  0.116338  0.000000      6.000000
  0.089557  0.129264  0.000000     12.000000
  0.111946  0.142190  0.000000     12.000000
  0.089557  0.155117  0.000000      6.000000
  0.111946  0.168043  0.000000      6.000000
 
 TETIRR: Found    105 inequivalent tetrahedra from     1176


--------------------------------------------------------------------------------------------------------




 Dimension of arrays:
   k-points           NKPTS =     24   k-points in BZ     NKDIM =     24   number of bands    NBANDS=     14
   number of dos      NEDOS =    301   number of ions     NIONS =      3
   non local maximal  LDIM  =      6   non local SUM 2l+1 LMDIM =     18
   total plane-waves  NPLWV =  51840
   max r-space proj   IRMAX =      1   max aug-charges    IRDMAX=  12426
   dimension x,y,z NGX =    18 NGY =   18 NGZ =  160
   dimension x,y,z NGXF=    36 NGYF=   36 NGZF=  320
   support grid    NGXF=    36 NGYF=   36 NGZF=  320
   ions per type =               1   2
   NGX,Y,Z   is equivalent  to a cutoff of   9.38,  9.38,  8.61 a.u.
   NGXF,Y,Z  is equivalent  to a cutoff of  18.76, 18.76, 17.23 a.u.

 SYSTEM =  unknown system                          
 POSCAR =  MoS2_mp-2815_computed                   

 Startparameter for this run:
   NWRITE =      2    write-flag & timer
   PREC   = normal    normal or accurate (medium, high low for compatibility)
   ISTART =      0    job   : 0-new  1-cont  2-samecut
   ICHARG =      2    charge: 1-file 2-atom 10-const
   ISPIN  =      1    spin polarized calculation?
   LNONCOLLINEAR =      F non collinear calculations
   LSORBIT =      F    spin-orbit coupling
   INIWAV =      1    electr: 0-lowe 1-rand  2-diag
   LASPH  =      F    aspherical Exc in radial PAW
   METAGGA=      F    non-selfconsistent MetaGGA calc.

 Electronic Relaxation 1
   ENCUT  =  450.0 eV  33.07 Ry    5.75 a.u.   5.52  5.52 53.41*2*pi/ulx,y,z
   ENINI  =  450.0     initial cutoff
   ENAUG  =  345.3 eV  augmentation charge cutoff
   NELM   =     60;   NELMIN=  4; NELMDL=  0     # of ELM steps 
   EDIFF  = 0.1E-04   stopping-criterion for ELM
   LREAL  =      F    real-space projection
   NLSPLINE    = F    spline interpolate recip. space projectors
   LCOMPAT=      F    compatible to vasp.4.4
   GGA_COMPAT  = T    GGA compatible to vasp.4.4-vasp.4.6
   LMAXPAW     = -100 max onsite density
   LMAXMIX     =    2 max onsite mixed and CHGCAR
   VOSKOWN=      0    Vosko Wilk Nusair interpolation
   ROPT   =    0.00000   0.00000
 Ionic relaxation
   EDIFFG = 0.1E-03   stopping-criterion for IOM
   NSW    =      0    number of steps for IOM
   NBLOCK =      1;   KBLOCK =      1    inner block; outer block 
   IBRION =     -1    ionic relax: 0-MD 1-quasi-New 2-CG
   NFREE  =      0    steps in history (QN), initial steepest desc. (CG)
   ISIF   =      2    stress and relaxation
   IWAVPR =     10    prediction:  0-non 1-charg 2-wave 3-comb
   ISYM   =      2    0-nonsym 1-usesym 2-fastsym
   LCORR  =      T    Harris-Foulkes like correction to forces

   POTIM  = 0.5000    time-step for ionic-motion
   TEIN   =    0.0    initial temperature
   TEBEG  =    0.0;   TEEND  =   0.0 temperature during run
   SMASS  =  -3.00    Nose mass-parameter (am)
   estimated Nose-frequenzy (Omega)   =  0.10E-29 period in steps =****** mass=  -0.233E-27a.u.
   SCALEE = 1.0000    scale energy and forces
   NPACO  =    256;   APACO  = 16.0  distance and # of slots for P.C.
   PSTRESS=    0.0 pullay stress

  Mass of Ions in am
   POMASS =  95.94 32.07
  Ionic Valenz
   ZVAL   =   6.00  6.00
  Atomic Wigner-Seitz radii
   RWIGS  =  -1.00 -1.00
  virtual crystal weights 
   VCA    =   1.00  1.00
   NELECT =      18.0000    total number of electrons
   NUPDOWN=      -1.0000    fix difference up-down

 DOS related values:
   EMIN   =  10.00;   EMAX   =-10.00  energy-range for DOS
   EFERMI =   0.00
   ISMEAR =    -5;   SIGMA  =   0.20  broadening in eV -4-tet -1-fermi 0-gaus

 Electronic relaxation 2 (details)
   IALGO  =     68    algorithm
   LDIAG  =      T    sub-space diagonalisation (order eigenvalues)
   LSUBROT=      F    optimize rotation matrix (better conditioning)
   TURBO    =      0    0=normal 1=particle mesh
   IRESTART =      0    0=no restart 2=restart with 2 vectors
   NREBOOT  =      0    no. of reboots
   NMIN     =      0    reboot dimension
   EREF     =   0.00    reference energy to select bands
   IMIX   =      4    mixing-type and parameters
     AMIX     =   0.40;   BMIX     =  1.00
     AMIX_MAG =   1.60;   BMIX_MAG =  1.00
     AMIN     =   0.10
     WC   =   100.;   INIMIX=   1;  MIXPRE=   1;  MAXMIX= -45

 Intra band minimization:
   WEIMIN = 0.0000     energy-eigenvalue tresh-hold
   EBREAK =  0.18E-06  absolut break condition
   DEPER  =   0.30     relativ break condition  

   TIME   =   0.40     timestep for ELM

  volume/ion in A,a.u.               =      90.73       612.26
  Fermi-wavevector in a.u.,A,eV,Ry     =   0.662031  1.251058  5.963237  0.438286
  Thomas-Fermi vector in A             =   1.734975
 
 Write flags
   LWAVE        =      F    write WAVECAR
   LDOWNSAMPLE  =      F    k-point downsampling of WAVECAR
   LCHARG       =      T    write CHGCAR
   LVTOT        =      F    write LOCPOT, total local potential
   LVHAR        =      F    write LOCPOT, Hartree potential only
   LELF         =      F    write electronic localiz. function (ELF)
   LORBIT       =      0    0 simple, 1 ext, 2 COOP (PROOUT), +10 PAW based schemes


 Dipole corrections
   LMONO  =      F    monopole corrections only (constant potential shift)
   LDIPOL =      F    correct potential (dipole corrections)
   IDIPOL =      0    1-x, 2-y, 3-z, 4-all directions 
   EPSILON=  1.0000000 bulk dielectric constant

 Exchange correlation treatment:
   GGA     =    --    GGA type
   LEXCH   =     8    internal setting for exchange type
   VOSKOWN=      0    Vosko Wilk Nusair interpolation
   LHFCALC =     F    Hartree Fock is set to
   LHFONE  =     F    Hartree Fock one center treatment
   AEXX    =    0.0000 exact exchange contribution

 Linear response parameters
   LEPSILON=     F    determine dielectric tensor
   LRPA    =     F    only Hartree local field effects (RPA)
   LNABLA  =     F    use nabla operator in PAW spheres
   LVEL    =     F    velocity operator in full k-point grid
   LINTERFAST=   F  fast interpolation
   KINTER  =     0    interpolate to denser k-point grid
   CSHIFT  =0.1000    complex shift for real part using Kramers Kronig
   OMEGAMAX=  -1.0    maximum frequency
   DEG_THRESHOLD= 0.2000000E-02 threshold for treating states as degnerate
   RTIME   =   -0.100 relaxation time in fs
  (WPLASMAI=    0.000 imaginary part of plasma frequency in eV, 0.658/RTIME)
   DFIELD  = 0.0000000 0.0000000 0.0000000 field for delta impulse in time
 
 Orbital magnetization related:
   ORBITALMAG=     F  switch on orbital magnetization
   LCHIMAG   =     F  perturbation theory with respect to B field
   DQ        =  0.001000  dq finite difference perturbation B field
   LLRAUG    =     F  two centre corrections for induced B field



--------------------------------------------------------------------------------------------------------


 Static calculation
 charge density and potential will be updated during run
 non-spin polarized calculation
 RMM-DIIS sequential band-by-band and
  variant of blocked Davidson during initial phase
 perform sub-space diagonalisation
    before iterative eigenvector-optimisation
 modified Broyden-mixing scheme, WC =      100.0
 initial mixing is a Kerker type mixing with AMIX =  0.4000 and BMIX =      1.0000
 Hartree-type preconditioning will be used
 using additional bands            5
 reciprocal scheme for non local part
 use partial core corrections
 calculate Harris-corrections to forces 
   (improved forces if not selfconsistent)
 use gradient corrections 
 use of overlap-Matrix (Vanderbilt PP)
 Fermi weights with tetrahedron method with Bloechl corrections


--------------------------------------------------------------------------------------------------------


  energy-cutoff  :      450.00
  volume of cell :      272.18
      direct lattice vectors                 reciprocal lattice vectors
     3.190315730  0.000000000  0.000000000     0.313448600  0.180969634  0.000000000
    -1.595157865  2.762894468  0.000000000     0.000000000  0.361939267  0.000000000
     0.000000000  0.000000000 30.879004300     0.000000000  0.000000000  0.032384464

  length of vectors
     3.190315730  3.190315730 30.879004300     0.361939267  0.361939267  0.032384464


 
 k-points in units of 2pi/SCALE and weight: k-density: 7.0                          
   0.00000000  0.00000000  0.00000000       0.005
   0.02238919  0.01292640  0.00000000       0.031
   0.04477837  0.02585280  0.00000000       0.031
   0.06716756  0.03877921  0.00000000       0.031
   0.08955674  0.05170561  0.00000000       0.031
   0.11194593  0.06463201  0.00000000       0.031
   0.13433511  0.07755841  0.00000000       0.031
   0.15672430  0.09048482  0.00000000       0.015
   0.02238919  0.03877921  0.00000000       0.031
   0.04477837  0.05170561  0.00000000       0.061
   0.06716756  0.06463201  0.00000000       0.061
   0.08955674  0.07755841  0.00000000       0.061
   0.11194593  0.09048482  0.00000000       0.061
   0.13433511  0.10341122  0.00000000       0.061
   0.04477837  0.07755841  0.00000000       0.031
   0.06716756  0.09048482  0.00000000       0.061
   0.08955674  0.10341122  0.00000000       0.061
   0.11194593  0.11633762  0.00000000       0.061
   0.13433511  0.12926402  0.00000000       0.031
   0.06716756  0.11633762  0.00000000       0.031
   0.08955674  0.12926402  0.00000000       0.061
   0.11194593  0.14219043  0.00000000       0.061
   0.08955674  0.15511683  0.00000000       0.031
   0.11194593  0.16804323  0.00000000       0.031
 
 k-points in reciprocal lattice and weights: k-density: 7.0                          
   0.00000000  0.00000000  0.00000000       0.005
   0.07142857  0.00000000  0.00000000       0.031
   0.14285714  0.00000000  0.00000000       0.031
   0.21428571  0.00000000  0.00000000       0.031
   0.28571429  0.00000000  0.00000000       0.031
   0.35714286 -0.00000000  0.00000000       0.031
   0.42857143  0.00000000  0.00000000       0.031
   0.50000000  0.00000000  0.00000000       0.015
   0.07142857  0.07142857  0.00000000       0.031
   0.14285714  0.07142857  0.00000000       0.061
   0.21428571  0.07142857  0.00000000       0.061
   0.28571429  0.07142857  0.00000000       0.061
   0.35714286  0.07142857  0.00000000       0.061
   0.42857143  0.07142857  0.00000000       0.061
   0.14285714  0.14285714  0.00000000       0.031
   0.21428571  0.14285714  0.00000000       0.061
   0.28571429  0.14285714  0.00000000       0.061
   0.35714286  0.14285714  0.00000000       0.061
   0.42857143  0.14285714  0.00000000       0.031
   0.21428571  0.21428571  0.00000000       0.031
   0.28571429  0.21428571  0.00000000       0.061
   0.35714286  0.21428571  0.00000000       0.061
   0.28571429  0.28571429  0.00000000       0.031
   0.35714286  0.28571429  0.00000000       0.031
 
 position of ions in fractional coordinates (direct lattice) 
   0.33333300  0.66666700  0.12046214
   0.66666700  0.33333300  0.06978420
   0.66666600  0.33333300  0.17114009
 
 position of ions in cartesian coordinates  (Angst):
  -0.00000160  1.84193057  3.71975108
   1.59515946  0.92096390  2.15486668
   1.59515627  0.92096390  5.28463547
 


--------------------------------------------------------------------------------------------------------


 k-point  1 :   0.0000 0.0000 0.0000  plane waves:    6011
 k-point  2 :   0.0714 0.0000 0.0000  plane waves:    5997
 k-point  3 :   0.1429 0.0000 0.0000  plane waves:    5979
 k-point  4 :   0.2143 0.0000 0.0000  plane waves:    5917
 k-point  5 :   0.2857 0.0000 0.0000  plane waves:    5900
 k-point  6 :   0.3571-0.0000 0.0000  plane waves:    5880
 k-point  7 :   0.4286 0.0000 0.0000  plane waves:    5860
 k-point  8 :   0.5000 0.0000 0.0000  plane waves:    5816
 k-point  9 :   0.0714 0.0714 0.0000  plane waves:    5987
 k-point 10 :   0.1429 0.0714 0.0000  plane waves:    5949
 k-point 11 :   0.2143 0.0714 0.0000  plane waves:    5915
 k-point 12 :   0.2857 0.0714 0.0000  plane waves:    5905
 k-point 13 :   0.3571 0.0714 0.0000  plane waves:    5878
 k-point 14 :   0.4286 0.0714 0.0000  plane waves:    5846
 k-point 15 :   0.1429 0.1429 0.0000  plane waves:    5917
 k-point 16 :   0.2143 0.1429 0.0000  plane waves:    5917
 k-point 17 :   0.2857 0.1429 0.0000  plane waves:    5897
 k-point 18 :   0.3571 0.1429 0.0000  plane waves:    5859
 k-point 19 :   0.4286 0.1429 0.0000  plane waves:    5850
 k-point 20 :   0.2143 0.2143 0.0000  plane waves:    5907
 k-point 21 :   0.2857 0.2143 0.0000  plane waves:    5882
 k-point 22 :   0.3571 0.2143 0.0000  plane waves:    5874
 k-point 23 :   0.2857 0.2857 0.0000  plane waves:    5886
 k-point 24 :   0.3571 0.2857 0.0000  plane waves:    5890

 maximum and minimum number of plane-waves per node :      3006     2895

 maximum number of plane-waves:      6011
 maximum index in each direction: 
   IXMAX=    5   IYMAX=    5   IZMAX=   53
   IXMIN=   -6   IYMIN=   -5   IZMIN=  -53


 parallel 3D FFT for wavefunctions:
    minimum data exchange during FFTs selected (reduces bandwidth)
 parallel 3D FFT for charge:
    minimum data exchange during FFTs selected (reduces bandwidth)


 total amount of memory used by VASP MPI-rank0    70277. kBytes
=======================================================================

   base      :      30000. kBytes
   nonl-proj :      20921. kBytes
   fftplans  :       4304. kBytes
   grid      :       6871. kBytes
   one-center:         31. kBytes
   wavefun   :       8150. kBytes
 
     INWAV:  cpu time    0.0010: real time    0.0003
 Broyden mixing: mesh for mixing (old mesh)
   NGX = 11   NGY = 11   NGZ =107
  (NGX  = 36   NGY  = 36   NGZ  =320)
  gives a total of  12947 points

 initial charge density was supplied:
 charge density of overlapping atoms calculated
 number of electron      18.0000000 magnetization 
 keeping initial charge density in first step


--------------------------------------------------------------------------------------------------------


 Maximum index for augmentation-charges         2904 (set IRDMAX)


--------------------------------------------------------------------------------------------------------


 First call to EWALD:  gamma=   0.273
 Maximum number of real-space cells 6x 6x 1
 Maximum number of reciprocal cells 2x 2x11

    FEWALD:  cpu time    0.0020: real time    0.0015


--------------------------------------- Iteration      1(   1)  ---------------------------------------


    POTLOK:  cpu time    0.0590: real time    0.1033
    SETDIJ:  cpu time    0.0030: real time    0.0035
     EDDAV:  cpu time    0.6779: real time    0.6825
 BZINTS: Fermi energy:  6.443168; 18.000000 electrons
         Band energy: -10.950529;  BLOECHL correction: -0.134670
       DOS:  cpu time    0.0030: real time    0.0026
    --------------------------------------------
      LOOP:  cpu time    0.7429: real time    0.7920

 eigenvalue-minimisations  :   672
 total energy-change (2. order) : 0.1387783E+03  (-0.5421888E+03)
 number of electron      18.0000000 magnetization 
 augmentation part       18.0000000 magnetization 

 Free energy of the ion-electron system (eV)
  ---------------------------------------------------
  alpha Z        PSCENC =        10.89288288
  Ewald energy   TEWEN  =      5368.65661653
  -Hartree energ DENC   =     -6042.21104469
  -exchange      EXHF   =         0.00000000
  -V(xc)+E(xc)   XCENC  =       -36.31053806
  PAW double counting   =       406.88651198     -329.34073203
  entropy T*S    EENTRO =         0.00000000
  eigenvalues    EBANDS =       -10.95052885
  atomic energy  EATOM  =       771.15511399
  Solvation  Ediel_sol  =         0.00000000
  ---------------------------------------------------
  free energy    TOTEN  =       138.77828175 eV

  energy without entropy =      138.77828175  energy(sigma->0) =      138.77828175


--------------------------------------------------------------------------------------------------------




--------------------------------------- Iteration      1(   2)  ---------------------------------------


     EDDAV:  cpu time    1.0448: real time    1.0495
 BZINTS: Fermi energy: -2.071349; 18.000000 electrons
         Band energy:-155.175437;  BLOECHL correction:  0.000000
       DOS:  cpu time    0.0010: real time    0.0006
    --------------------------------------------
      LOOP:  cpu time    1.0458: real time    1.0501

 eigenvalue-minimisations  :  1164
 total energy-change (2. order) :-0.1442249E+03  (-0.1350809E+03)
 number of electron      18.0000000 magnetization 
 augmentation part       18.0000000 magnetization 

 Free energy of the ion-electron system (eV)
  ---------------------------------------------------
  alpha Z        PSCENC =        10.89288288
  Ewald energy   TEWEN  =      5368.65661653
  -Hartree energ DENC   =     -6042.21104469
  -exchange      EXHF   =         0.00000000
  -V(xc)+E(xc)   XCENC  =       -36.31053806
  PAW double counting   =       406.88651198     -329.34073203
  entropy T*S    EENTRO =         0.00000000
  eigenvalues    EBANDS =      -155.17543695
  atomic energy  EATOM  =       771.15511399
  Solvation  Ediel_sol  =         0.00000000
  ---------------------------------------------------
  free energy    TOTEN  =        -5.44662635 eV

  energy without entropy =       -5.44662635  energy(sigma->0) =       -5.44662635


--------------------------------------------------------------------------------------------------------




--------------------------------------- Iteration      1(   3)  ---------------------------------------


     EDDAV:  cpu time    0.8789: real time    0.8808
 BZINTS: Fermi energy: -3.632789; 18.000000 electrons
         Band energy:-172.759978;  BLOECHL correction:  0.000000
       DOS:  cpu time    0.0000: real time    0.0005
    --------------------------------------------
      LOOP:  cpu time    0.8789: real time    0.8813

 eigenvalue-minimisations  :   942
 total energy-change (2. order) :-0.1758454E+02  (-0.1742229E+02)
 number of electron      18.0000000 magnetization 
 augmentation part       18.0000000 magnetization 

 Free energy of the ion-electron system (eV)
  ---------------------------------------------------
  alpha Z        PSCENC =        10.89288288
  Ewald energy   TEWEN  =      5368.65661653
  -Hartree energ DENC   =     -6042.21104469
  -exchange      EXHF   =         0.00000000
  -V(xc)+E(xc)   XCENC  =       -36.31053806
  PAW double counting   =       406.88651198     -329.34073203
  entropy T*S    EENTRO =         0.00000000
  eigenvalues    EBANDS =      -172.75997809
  atomic energy  EATOM  =       771.15511399
  Solvation  Ediel_sol  =         0.00000000
  ---------------------------------------------------
  free energy    TOTEN  =       -23.03116749 eV

  energy without entropy =      -23.03116749  energy(sigma->0) =      -23.03116749


--------------------------------------------------------------------------------------------------------




--------------------------------------- Iteration      1(   4)  ---------------------------------------


     EDDAV:  cpu time    0.7849: real time    0.7843
 BZINTS: Fermi energy: -3.714481; 18.000000 electrons
         Band energy:-173.126283;  BLOECHL correction:  0.000000
       DOS:  cpu time    0.0000: real time    0.0005
    --------------------------------------------
      LOOP:  cpu time    0.7849: real time    0.7848

 eigenvalue-minimisations  :   824
 total energy-change (2. order) :-0.3663054E+00  (-0.3645774E+00)
 number of electron      18.0000000 magnetization 
 augmentation part       18.0000000 magnetization 

 Free energy of the ion-electron system (eV)
  ---------------------------------------------------
  alpha Z        PSCENC =        10.89288288
  Ewald energy   TEWEN  =      5368.65661653
  -Hartree energ DENC   =     -6042.21104469
  -exchange      EXHF   =         0.00000000
  -V(xc)+E(xc)   XCENC  =       -36.31053806
  PAW double counting   =       406.88651198     -329.34073203
  entropy T*S    EENTRO =         0.00000000
  eigenvalues    EBANDS =      -173.12628346
  atomic energy  EATOM  =       771.15511399
  Solvation  Ediel_sol  =         0.00000000
  ---------------------------------------------------
  free energy    TOTEN  =       -23.39747286 eV

  energy without entropy =      -23.39747286  energy(sigma->0) =      -23.39747286


--------------------------------------------------------------------------------------------------------




--------------------------------------- Iteration      1(   5)  ---------------------------------------


     EDDAV:  cpu time    0.8399: real time    0.8415
 BZINTS: Fermi energy: -3.678324; 18.000000 electrons
         Band energy:-173.136378;  BLOECHL correction:  0.000000
       DOS:  cpu time    0.0010: real time    0.0005
    CHARGE:  cpu time    0.0520: real time    0.0523
    MIXING:  cpu time    0.0020: real time    0.0020
    --------------------------------------------
      LOOP:  cpu time    0.8949: real time    0.8964

 eigenvalue-minimisations  :   906
 total energy-change (2. order) :-0.1009473E-01  (-0.1008018E-01)
 number of electron      18.0000016 magnetization 
 augmentation part       -0.9453590 magnetization 

 Broyden mixing:
  rms(total) = 0.68861E+00    rms(broyden)= 0.68860E+00
  rms(prec ) = 0.73241E+00
  weight for this iteration     100.00

 Free energy of the ion-electron system (eV)
  ---------------------------------------------------
  alpha Z        PSCENC =        10.89288288
  Ewald energy   TEWEN  =      5368.65661653
  -Hartree energ DENC   =     -6042.21104469
  -exchange      EXHF   =         0.00000000
  -V(xc)+E(xc)   XCENC  =       -36.31053806
  PAW double counting   =       406.88651198     -329.34073203
  entropy T*S    EENTRO =         0.00000000
  eigenvalues    EBANDS =      -173.13637819
  atomic energy  EATOM  =       771.15511399
  Solvation  Ediel_sol  =         0.00000000
  ---------------------------------------------------
  free energy    TOTEN  =       -23.40756760 eV

  energy without entropy =      -23.40756760  energy(sigma->0) =      -23.40756760


--------------------------------------------------------------------------------------------------------




--------------------------------------- Iteration      1(   6)  ---------------------------------------


    POTLOK:  cpu time    0.0540: real time    0.0547
    SETDIJ:  cpu time    0.0030: real time    0.0027
    EDDIAG:  cpu time    0.1330: real time    0.1332
  RMM-DIIS:  cpu time    0.5809: real time    0.5803
    ORTHCH:  cpu time    0.0120: real time    0.0125
 BZINTS: Fermi energy: -4.711833; 18.000000 electrons
         Band energy:-173.665879;  BLOECHL correction:  0.000000
       DOS:  cpu time    0.0000: real time    0.0005
    CHARGE:  cpu time    0.0520: real time    0.0521
    MIXING:  cpu time    0.0020: real time    0.0018
    --------------------------------------------
      LOOP:  cpu time    0.8369: real time    0.8377

 eigenvalue-minimisations  :   707
 total energy-change (2. order) : 0.1161097E+01  (-0.5428440E+00)
 number of electron      18.0000016 magnetization 
 augmentation part       -0.3990185 magnetization 

 Broyden mixing:
  rms(total) = 0.26155E+00    rms(broyden)= 0.26155E+00
  rms(prec ) = 0.29675E+00
  weight for this iteration     100.00

 eigenvalues of (default mixing * dielectric matrix)
  average eigenvalue GAMMA=   0.8338
  0.8338

 Free energy of the ion-electron system (eV)
  ---------------------------------------------------
  alpha Z        PSCENC =        10.89288288
  Ewald energy   TEWEN  =      5368.65661653
  -Hartree energ DENC   =     -6040.51712995
  -exchange      EXHF   =         0.00000000
  -V(xc)+E(xc)   XCENC  =       -35.42382367
  PAW double counting   =       423.97943472     -347.32368609
  entropy T*S    EENTRO =         0.00000000
  eigenvalues    EBANDS =      -173.66587901
  atomic energy  EATOM  =       771.15511399
  Solvation  Ediel_sol  =         0.00000000
  ---------------------------------------------------
  free energy    TOTEN  =       -22.24647059 eV

  energy without entropy =      -22.24647059  energy(sigma->0) =      -22.24647059


--------------------------------------------------------------------------------------------------------




--------------------------------------- Iteration      1(   7)  ---------------------------------------


    POTLOK:  cpu time    0.0500: real time    0.0523
    SETDIJ:  cpu time    0.0030: real time    0.0026
    EDDIAG:  cpu time    0.1310: real time    0.1314
  RMM-DIIS:  cpu time    0.5749: real time    0.5739
    ORTHCH:  cpu time    0.0120: real time    0.0124
 BZINTS: Fermi energy: -4.134303; 18.000000 electrons
         Band energy:-167.350549;  BLOECHL correction:  0.000000
       DOS:  cpu time    0.0000: real time    0.0005
    CHARGE:  cpu time    0.0530: real time    0.0524
    MIXING:  cpu time    0.0020: real time    0.0019
    --------------------------------------------
      LOOP:  cpu time    0.8259: real time    0.8275

 eigenvalue-minimisations  :   699
 total energy-change (2. order) : 0.3841086E+00  (-0.5571036E-01)
 number of electron      18.0000016 magnetization 
 augmentation part       -0.6003335 magnetization 

 Broyden mixing:
  rms(total) = 0.15058E+00    rms(broyden)= 0.15058E+00
  rms(prec ) = 0.15701E+00
  weight for this iteration     100.00

 eigenvalues of (default mixing * dielectric matrix)
  average eigenvalue GAMMA=   1.3626
  0.6663  2.0588

 Free energy of the ion-electron system (eV)
  ---------------------------------------------------
  alpha Z        PSCENC =        10.89288288
  Ewald energy   TEWEN  =      5368.65661653
  -Hartree energ DENC   =     -6046.06993031
  -exchange      EXHF   =         0.00000000
  -V(xc)+E(xc)   XCENC  =       -35.56903028
  PAW double counting   =       441.57386980     -365.15133512
  entropy T*S    EENTRO =         0.00000000
  eigenvalues    EBANDS =      -167.35054945
  atomic energy  EATOM  =       771.15511399
  Solvation  Ediel_sol  =         0.00000000
  ---------------------------------------------------
  free energy    TOTEN  =       -21.86236196 eV

  energy without entropy =      -21.86236196  energy(sigma->0) =      -21.86236196


--------------------------------------------------------------------------------------------------------




--------------------------------------- Iteration      1(   8)  ---------------------------------------


    POTLOK:  cpu time    0.0500: real time    0.0511
    SETDIJ:  cpu time    0.0030: real time    0.0027
    EDDIAG:  cpu time    0.1320: real time    0.1324
  RMM-DIIS:  cpu time    0.6109: real time    0.6101
    ORTHCH:  cpu time    0.0120: real time    0.0124
 BZINTS: Fermi energy: -4.066437; 18.000000 electrons
         Band energy:-163.049977;  BLOECHL correction:  0.000000
       DOS:  cpu time    0.0000: real time    0.0005
    CHARGE:  cpu time    0.0530: real time    0.0523
    MIXING:  cpu time    0.0020: real time    0.0024
    --------------------------------------------
      LOOP:  cpu time    0.8629: real time    0.8640

 eigenvalue-minimisations  :   742
 total energy-change (2. order) : 0.6031089E-01  (-0.2330465E-01)
 number of electron      18.0000016 magnetization 
 augmentation part       -0.5517149 magnetization 

 Broyden mixing:
  rms(total) = 0.35382E-01    rms(broyden)= 0.35381E-01
  rms(prec ) = 0.37191E-01
  weight for this iteration     100.00

 eigenvalues of (default mixing * dielectric matrix)
  average eigenvalue GAMMA=   1.5005
  1.9184  1.9184  0.6648

 Free energy of the ion-electron system (eV)
  ---------------------------------------------------
  alpha Z        PSCENC =        10.89288288
  Ewald energy   TEWEN  =      5368.65661653
  -Hartree energ DENC   =     -6050.06610063
  -exchange      EXHF   =         0.00000000
  -V(xc)+E(xc)   XCENC  =       -35.29692021
  PAW double counting   =       465.17581288     -389.26947993
  entropy T*S    EENTRO =         0.00000000
  eigenvalues    EBANDS =      -163.04997658
  atomic energy  EATOM  =       771.15511399
  Solvation  Ediel_sol  =         0.00000000
  ---------------------------------------------------
  free energy    TOTEN  =       -21.80205107 eV

  energy without entropy =      -21.80205107  energy(sigma->0) =      -21.80205107


--------------------------------------------------------------------------------------------------------




--------------------------------------- Iteration      1(   9)  ---------------------------------------


    POTLOK:  cpu time    0.0510: real time    0.0526
    SETDIJ:  cpu time    0.0030: real time    0.0026
    EDDIAG:  cpu time    0.1310: real time    0.1317
  RMM-DIIS:  cpu time    0.6669: real time    0.6663
    ORTHCH:  cpu time    0.0120: real time    0.0124
 BZINTS: Fermi energy: -3.934314; 18.000000 electrons
         Band energy:-161.687014;  BLOECHL correction:  0.000000
       DOS:  cpu time    0.0000: real time    0.0005
    CHARGE:  cpu time    0.0530: real time    0.0524
    MIXING:  cpu time    0.0020: real time    0.0020
    --------------------------------------------
      LOOP:  cpu time    0.9189: real time    0.9205

 eigenvalue-minimisations  :   800
 total energy-change (2. order) : 0.4877240E-02  (-0.8738062E-03)
 number of electron      18.0000016 magnetization 
 augmentation part       -0.5471806 magnetization 

 Broyden mixing:
  rms(total) = 0.95668E-02    rms(broyden)= 0.95662E-02
  rms(prec ) = 0.11341E-01
  weight for this iteration     100.00

 eigenvalues of (default mixing * dielectric matrix)
  average eigenvalue GAMMA=   1.5082
  0.6670  1.0479  2.4386  1.8794

 Free energy of the ion-electron system (eV)
  ---------------------------------------------------
  alpha Z        PSCENC =        10.89288288
  Ewald energy   TEWEN  =      5368.65661653
  -Hartree energ DENC   =     -6051.39882835
  -exchange      EXHF   =         0.00000000
  -V(xc)+E(xc)   XCENC  =       -35.24463222
  PAW double counting   =       470.49052133     -394.66183378
  entropy T*S    EENTRO =         0.00000000
  eigenvalues    EBANDS =      -161.68701421
  atomic energy  EATOM  =       771.15511399
  Solvation  Ediel_sol  =         0.00000000
  ---------------------------------------------------
  free energy    TOTEN  =       -21.79717383 eV

  energy without entropy =      -21.79717383  energy(sigma->0) =      -21.79717383


--------------------------------------------------------------------------------------------------------




--------------------------------------- Iteration      1(  10)  ---------------------------------------


    POTLOK:  cpu time    0.0510: real time    0.0516
    SETDIJ:  cpu time    0.0030: real time    0.0026
    EDDIAG:  cpu time    0.1320: real time    0.1321
  RMM-DIIS:  cpu time    0.6609: real time    0.6602
    ORTHCH:  cpu time    0.0120: real time    0.0124
 BZINTS: Fermi energy: -3.898590; 18.000000 electrons
         Band energy:-160.522779;  BLOECHL correction:  0.000000
       DOS:  cpu time    0.0000: real time    0.0005
    CHARGE:  cpu time    0.0520: real time    0.0522
    MIXING:  cpu time    0.0030: real time    0.0021
    --------------------------------------------
      LOOP:  cpu time    0.9139: real time    0.9138

 eigenvalue-minimisations  :   799
 total energy-change (2. order) : 0.7535219E-03  (-0.1702496E-03)
 number of electron      18.0000016 magnetization 
 augmentation part       -0.5514488 magnetization 

 Broyden mixing:
  rms(total) = 0.44166E-02    rms(broyden)= 0.44166E-02
  rms(prec ) = 0.57789E-02
  weight for this iteration     100.00

 eigenvalues of (default mixing * dielectric matrix)
  average eigenvalue GAMMA=   1.6687
  0.6676  1.0367  2.1671  2.2359  2.2359

 Free energy of the ion-electron system (eV)
  ---------------------------------------------------
  alpha Z        PSCENC =        10.89288288
  Ewald energy   TEWEN  =      5368.65661653
  -Hartree energ DENC   =     -6052.55342234
  -exchange      EXHF   =         0.00000000
  -V(xc)+E(xc)   XCENC  =       -35.22328540
  PAW double counting   =       472.74322556     -396.94477298
  entropy T*S    EENTRO =         0.00000000
  eigenvalues    EBANDS =      -160.52277856
  atomic energy  EATOM  =       771.15511399
  Solvation  Ediel_sol  =         0.00000000
  ---------------------------------------------------
  free energy    TOTEN  =       -21.79642031 eV

  energy without entropy =      -21.79642031  energy(sigma->0) =      -21.79642031


--------------------------------------------------------------------------------------------------------




--------------------------------------- Iteration      1(  11)  ---------------------------------------


    POTLOK:  cpu time    0.0510: real time    0.0540
    SETDIJ:  cpu time    0.0030: real time    0.0027
    EDDIAG:  cpu time    0.1320: real time    0.1322
  RMM-DIIS:  cpu time    0.6279: real time    0.6273
    ORTHCH:  cpu time    0.0120: real time    0.0123
 BZINTS: Fermi energy: -3.853615; 18.000000 electrons
         Band energy:-159.382614;  BLOECHL correction:  0.000000
       DOS:  cpu time    0.0010: real time    0.0005
    CHARGE:  cpu time    0.0520: real time    0.0524
    MIXING:  cpu time    0.0020: real time    0.0022
    --------------------------------------------
      LOOP:  cpu time    0.8809: real time    0.8836

 eigenvalue-minimisations  :   755
 total energy-change (2. order) : 0.6609811E-04  (-0.1626226E-03)
 number of electron      18.0000016 magnetization 
 augmentation part       -0.5479233 magnetization 

 Broyden mixing:
  rms(total) = 0.53403E-02    rms(broyden)= 0.53403E-02
  rms(prec ) = 0.60246E-02
  weight for this iteration     100.00

 eigenvalues of (default mixing * dielectric matrix)
  average eigenvalue GAMMA=   1.6746
  2.9355  2.6793  0.6682  0.9296  1.4175  1.4175

 Free energy of the ion-electron system (eV)
  ---------------------------------------------------
  alpha Z        PSCENC =        10.89288288
  Ewald energy   TEWEN  =      5368.65661653
  -Hartree energ DENC   =     -6053.71601456
  -exchange      EXHF   =         0.00000000
  -V(xc)+E(xc)   XCENC  =       -35.21008686
  PAW double counting   =       472.20105965     -396.39331147
  entropy T*S    EENTRO =         0.00000000
  eigenvalues    EBANDS =      -159.38261437
  atomic energy  EATOM  =       771.15511399
  Solvation  Ediel_sol  =         0.00000000
  ---------------------------------------------------
  free energy    TOTEN  =       -21.79635421 eV

  energy without entropy =      -21.79635421  energy(sigma->0) =      -21.79635421


--------------------------------------------------------------------------------------------------------




--------------------------------------- Iteration      1(  12)  ---------------------------------------


    POTLOK:  cpu time    0.0520: real time    0.0522
    SETDIJ:  cpu time    0.0030: real time    0.0027
    EDDIAG:  cpu time    0.1320: real time    0.1319
  RMM-DIIS:  cpu time    0.6129: real time    0.6130
    ORTHCH:  cpu time    0.0120: real time    0.0124
 BZINTS: Fermi energy: -3.823526; 18.000000 electrons
         Band energy:-158.671654;  BLOECHL correction:  0.000000
       DOS:  cpu time    0.0010: real time    0.0005
    CHARGE:  cpu time    0.0530: real time    0.0527
    MIXING:  cpu time    0.0020: real time    0.0023
    --------------------------------------------
      LOOP:  cpu time    0.8679: real time    0.8677

 eigenvalue-minimisations  :   732
 total energy-change (2. order) : 0.1650853E-03  (-0.5221631E-04)
 number of electron      18.0000016 magnetization 
 augmentation part       -0.5504990 magnetization 

 Broyden mixing:
  rms(total) = 0.17342E-02    rms(broyden)= 0.17342E-02
  rms(prec ) = 0.22361E-02
  weight for this iteration     100.00

 eigenvalues of (default mixing * dielectric matrix)
  average eigenvalue GAMMA=   1.9559
  3.8785  2.7471  2.7471  0.6682  0.9635  1.4157  1.2711

 Free energy of the ion-electron system (eV)
  ---------------------------------------------------
  alpha Z        PSCENC =        10.89288288
  Ewald energy   TEWEN  =      5368.65661653
  -Hartree energ DENC   =     -6054.43301613
  -exchange      EXHF   =         0.00000000
  -V(xc)+E(xc)   XCENC  =       -35.20619921
  PAW double counting   =       472.37324877     -396.56318150
  entropy T*S    EENTRO =         0.00000000
  eigenvalues    EBANDS =      -158.67165445
  atomic energy  EATOM  =       771.15511399
  Solvation  Ediel_sol  =         0.00000000
  ---------------------------------------------------
  free energy    TOTEN  =       -21.79618913 eV

  energy without entropy =      -21.79618913  energy(sigma->0) =      -21.79618913


--------------------------------------------------------------------------------------------------------




--------------------------------------- Iteration      1(  13)  ---------------------------------------


    POTLOK:  cpu time    0.0520: real time    0.0547
    SETDIJ:  cpu time    0.0030: real time    0.0027
    EDDIAG:  cpu time    0.1330: real time    0.1324
  RMM-DIIS:  cpu time    0.5529: real time    0.5535
    ORTHCH:  cpu time    0.0120: real time    0.0123
 BZINTS: Fermi energy: -3.774301; 18.000000 electrons
         Band energy:-157.899946;  BLOECHL correction:  0.000000
       DOS:  cpu time    0.0010: real time    0.0005
    CHARGE:  cpu time    0.0520: real time    0.0525
    MIXING:  cpu time    0.0030: real time    0.0024
    --------------------------------------------
      LOOP:  cpu time    0.8089: real time    0.8111

 eigenvalue-minimisations  :   683
 total energy-change (2. order) :-0.3401478E-03  (-0.1679103E-04)
 number of electron      18.0000016 magnetization 
 augmentation part       -0.5489294 magnetization 

 Broyden mixing:
  rms(total) = 0.20183E-02    rms(broyden)= 0.20183E-02
  rms(prec ) = 0.22087E-02
  weight for this iteration     100.00

 eigenvalues of (default mixing * dielectric matrix)
  average eigenvalue GAMMA=   1.9174
  4.8526  2.7038  2.3835  1.4213  1.4213  0.6683  0.9440  0.9440

 Free energy of the ion-electron system (eV)
  ---------------------------------------------------
  alpha Z        PSCENC =        10.89288288
  Ewald energy   TEWEN  =      5368.65661653
  -Hartree energ DENC   =     -6055.20703878
  -exchange      EXHF   =         0.00000000
  -V(xc)+E(xc)   XCENC  =       -35.19907337
  PAW double counting   =       472.32765053     -396.52273499
  entropy T*S    EENTRO =         0.00000000
  eigenvalues    EBANDS =      -157.89994607
  atomic energy  EATOM  =       771.15511399
  Solvation  Ediel_sol  =         0.00000000
  ---------------------------------------------------
  free energy    TOTEN  =       -21.79652927 eV

  energy without entropy =      -21.79652927  energy(sigma->0) =      -21.79652927


--------------------------------------------------------------------------------------------------------




--------------------------------------- Iteration      1(  14)  ---------------------------------------


    POTLOK:  cpu time    0.0520: real time    0.0533
    SETDIJ:  cpu time    0.0040: real time    0.0027
    EDDIAG:  cpu time    0.1320: real time    0.1326
  RMM-DIIS:  cpu time    0.5359: real time    0.5359
    ORTHCH:  cpu time    0.0130: real time    0.0123
 BZINTS: Fermi energy: -3.761181; 18.000000 electrons
         Band energy:-157.732397;  BLOECHL correction:  0.000000
       DOS:  cpu time    0.0000: real time    0.0005
    CHARGE:  cpu time    0.0520: real time    0.0523
    MIXING:  cpu time    0.0030: real time    0.0025
    --------------------------------------------
      LOOP:  cpu time    0.7919: real time    0.7922

 eigenvalue-minimisations  :   617
 total energy-change (2. order) :-0.5693510E-04  (-0.2628207E-05)
 number of electron      18.0000016 magnetization 
 augmentation part       -0.5500961 magnetization 

 Broyden mixing:
  rms(total) = 0.49016E-03    rms(broyden)= 0.49015E-03
  rms(prec ) = 0.62596E-03
  weight for this iteration     100.00

 eigenvalues of (default mixing * dielectric matrix)
  average eigenvalue GAMMA=   2.1800
  6.6018  2.9594  2.3945  2.3945  1.5095  0.6683  1.1858  0.9531  0.9531

 Free energy of the ion-electron system (eV)
  ---------------------------------------------------
  alpha Z        PSCENC =        10.89288288
  Ewald energy   TEWEN  =      5368.65661653
  -Hartree energ DENC   =     -6055.37724794
  -exchange      EXHF   =         0.00000000
  -V(xc)+E(xc)   XCENC  =       -35.20118236
  PAW double counting   =       472.14129949     -396.33167132
  entropy T*S    EENTRO =         0.00000000
  eigenvalues    EBANDS =      -157.73239749
  atomic energy  EATOM  =       771.15511399
  Solvation  Ediel_sol  =         0.00000000
  ---------------------------------------------------
  free energy    TOTEN  =       -21.79658621 eV

  energy without entropy =      -21.79658621  energy(sigma->0) =      -21.79658621


--------------------------------------------------------------------------------------------------------




--------------------------------------- Iteration      1(  15)  ---------------------------------------


    POTLOK:  cpu time    0.0520: real time    0.0545
    SETDIJ:  cpu time    0.0040: real time    0.0027
    EDDIAG:  cpu time    0.1320: real time    0.1330
  RMM-DIIS:  cpu time    0.4299: real time    0.4292
    ORTHCH:  cpu time    0.0120: real time    0.0123
 BZINTS: Fermi energy: -3.739203; 18.000000 electrons
         Band energy:-157.573556;  BLOECHL correction:  0.000000
       DOS:  cpu time    0.0000: real time    0.0005
    CHARGE:  cpu time    0.0520: real time    0.0523
    MIXING:  cpu time    0.0030: real time    0.0026
    --------------------------------------------
      LOOP:  cpu time    0.6849: real time    0.6870

 eigenvalue-minimisations  :   470
 total energy-change (2. order) :-0.1257060E-03  (-0.1135212E-05)
 number of electron      18.0000016 magnetization 
 augmentation part       -0.5498432 magnetization 

 Broyden mixing:
  rms(total) = 0.26340E-03    rms(broyden)= 0.26340E-03
  rms(prec ) = 0.32595E-03
  weight for this iteration     100.00

 eigenvalues of (default mixing * dielectric matrix)
  average eigenvalue GAMMA=   2.1562
  6.7472  3.5205  2.6186  1.7696  1.6268  1.6268  0.6684  1.0325  1.0185  0.9327

 Free energy of the ion-electron system (eV)
  ---------------------------------------------------
  alpha Z        PSCENC =        10.89288288
  Ewald energy   TEWEN  =      5368.65661653
  -Hartree energ DENC   =     -6055.53631805
  -exchange      EXHF   =         0.00000000
  -V(xc)+E(xc)   XCENC  =       -35.20089623
  PAW double counting   =       472.16596829     -396.35652381
  entropy T*S    EENTRO =         0.00000000
  eigenvalues    EBANDS =      -157.57355552
  atomic energy  EATOM  =       771.15511399
  Solvation  Ediel_sol  =         0.00000000
  ---------------------------------------------------
  free energy    TOTEN  =       -21.79671192 eV

  energy without entropy =      -21.79671192  energy(sigma->0) =      -21.79671192


--------------------------------------------------------------------------------------------------------




--------------------------------------- Iteration      1(  16)  ---------------------------------------


    POTLOK:  cpu time    0.0520: real time    0.0521
    SETDIJ:  cpu time    0.0040: real time    0.0032
    EDDIAG:  cpu time    0.1310: real time    0.1317
  RMM-DIIS:  cpu time    0.4139: real time    0.4131
    ORTHCH:  cpu time    0.0110: real time    0.0120
 BZINTS: Fermi energy: -3.729066; 18.000000 electrons
         Band energy:-157.515014;  BLOECHL correction:  0.000000
       DOS:  cpu time    0.0010: real time    0.0005
    CHARGE:  cpu time    0.0510: real time    0.0517
    MIXING:  cpu time    0.0030: real time    0.0028
    --------------------------------------------
      LOOP:  cpu time    0.6669: real time    0.6671

 eigenvalue-minimisations  :   422
 total energy-change (2. order) :-0.4086790E-04  (-0.2709544E-06)
 number of electron      18.0000016 magnetization 
 augmentation part       -0.5499712 magnetization 

 Broyden mixing:
  rms(total) = 0.15305E-03    rms(broyden)= 0.15305E-03
  rms(prec ) = 0.18036E-03
  weight for this iteration     100.00

 eigenvalues of (default mixing * dielectric matrix)
  average eigenvalue GAMMA=   2.2918
  7.4247  3.7325  2.9523  2.6734  2.1198  1.5610  0.6684  1.0987  1.0987  0.9683
  0.9117

 Free energy of the ion-electron system (eV)
  ---------------------------------------------------
  alpha Z        PSCENC =        10.89288288
  Ewald energy   TEWEN  =      5368.65661653
  -Hartree energ DENC   =     -6055.59408744
  -exchange      EXHF   =         0.00000000
  -V(xc)+E(xc)   XCENC  =       -35.20080793
  PAW double counting   =       472.21469177     -396.40614841
  entropy T*S    EENTRO =         0.00000000
  eigenvalues    EBANDS =      -157.51501418
  atomic energy  EATOM  =       771.15511399
  Solvation  Ediel_sol  =         0.00000000
  ---------------------------------------------------
  free energy    TOTEN  =       -21.79675278 eV

  energy without entropy =      -21.79675278  energy(sigma->0) =      -21.79675278


--------------------------------------------------------------------------------------------------------




--------------------------------------- Iteration      1(  17)  ---------------------------------------


    POTLOK:  cpu time    0.0510: real time    0.0527
    SETDIJ:  cpu time    0.0040: real time    0.0032
    EDDIAG:  cpu time    0.1340: real time    0.1335
  RMM-DIIS:  cpu time    0.3889: real time    0.3893
    ORTHCH:  cpu time    0.0120: real time    0.0120
 BZINTS: Fermi energy: -3.722625; 18.000000 electrons
         Band energy:-157.484349;  BLOECHL correction:  0.000000
       DOS:  cpu time    0.0000: real time    0.0005
    CHARGE:  cpu time    0.0520: real time    0.0516
    MIXING:  cpu time    0.0030: real time    0.0029
    --------------------------------------------
      LOOP:  cpu time    0.6449: real time    0.6458

 eigenvalue-minimisations  :   356
 total energy-change (2. order) :-0.3171498E-04  (-0.2326443E-06)
 number of electron      18.0000016 magnetization 
 augmentation part       -0.5500069 magnetization 

 Broyden mixing:
  rms(total) = 0.11469E-03    rms(broyden)= 0.11469E-03
  rms(prec ) = 0.13080E-03
  weight for this iteration     100.00

 eigenvalues of (default mixing * dielectric matrix)
  average eigenvalue GAMMA=   2.2934
  7.7018  4.7287  2.9185  2.4807  2.1401  1.4737  1.4737  0.6684  1.0390  1.0390
  0.9285  0.9285

 Free energy of the ion-electron system (eV)
  ---------------------------------------------------
  alpha Z        PSCENC =        10.89288288
  Ewald energy   TEWEN  =      5368.65661653
  -Hartree energ DENC   =     -6055.62544214
  -exchange      EXHF   =         0.00000000
  -V(xc)+E(xc)   XCENC  =       -35.20097754
  PAW double counting   =       472.17788511     -396.36851437
  entropy T*S    EENTRO =         0.00000000
  eigenvalues    EBANDS =      -157.48434895
  atomic energy  EATOM  =       771.15511399
  Solvation  Ediel_sol  =         0.00000000
  ---------------------------------------------------
  free energy    TOTEN  =       -21.79678450 eV

  energy without entropy =      -21.79678450  energy(sigma->0) =      -21.79678450


--------------------------------------------------------------------------------------------------------




--------------------------------------- Iteration      1(  18)  ---------------------------------------


    POTLOK:  cpu time    0.0490: real time    0.0505
    SETDIJ:  cpu time    0.0040: real time    0.0032
    EDDIAG:  cpu time    0.1330: real time    0.1331
  RMM-DIIS:  cpu time    0.3339: real time    0.3335
    ORTHCH:  cpu time    0.0120: real time    0.0120
 BZINTS: Fermi energy: -3.721320; 18.000000 electrons
         Band energy:-157.482175;  BLOECHL correction:  0.000000
       DOS:  cpu time    0.0010: real time    0.0005
    --------------------------------------------
      LOOP:  cpu time    0.5329: real time    0.5328

 eigenvalue-minimisations  :   199
 total energy-change (2. order) :-0.4409651E-05  (-0.4042875E-07)
 number of electron      18.0000016 magnetization 
 augmentation part       -0.5500069 magnetization 

 Free energy of the ion-electron system (eV)
  ---------------------------------------------------
  alpha Z        PSCENC =        10.89288288
  Ewald energy   TEWEN  =      5368.65661653
  -Hartree energ DENC   =     -6055.62750347
  -exchange      EXHF   =         0.00000000
  -V(xc)+E(xc)   XCENC  =       -35.20093323
  PAW double counting   =       472.18470203     -396.37549274
  entropy T*S    EENTRO =         0.00000000
  eigenvalues    EBANDS =      -157.48217491
  atomic energy  EATOM  =       771.15511399
  Solvation  Ediel_sol  =         0.00000000
  ---------------------------------------------------
  free energy    TOTEN  =       -21.79678891 eV

  energy without entropy =      -21.79678891  energy(sigma->0) =      -21.79678891


--------------------------------------------------------------------------------------------------------




 average (electrostatic) potential at core
  the test charge radii are     1.2296  0.9698
  (the norm of the test charge is              1.0000)
       1 -47.2002       2 -95.0391       3 -95.0391
 
 
 
 E-fermi :  -3.7213     XC(G=0):  -2.5026     alpha+bet : -2.3217


 k-point     1 :       0.0000    0.0000    0.0000
  band No.  band energies     occupation 
      1     -17.7883      2.00000
      2     -16.5803      2.00000
      3      -9.3088      2.00000
      4      -6.3479      2.00000
      5      -6.3479      2.00000
      6      -5.4867      2.00000
      7      -5.2423      2.00000
      8      -5.2422      2.00000
      9      -3.7664      2.00000
     10      -0.9948      0.00000
     11      -0.9948      0.00000
     12      -0.7711      0.00000
     13      -0.7711      0.00000
     14       1.6640      0.00000

 k-point     2 :       0.0714    0.0000    0.0000
  band No.  band energies     occupation 
      1     -17.7171      2.00000
      2     -16.5462      2.00000
      3      -9.2243      2.00000
      4      -6.5145      2.00000
      5      -6.2693      2.00000
      6      -5.8906      2.00000
      7      -5.3628      2.00000
      8      -4.9502      2.00000
      9      -3.8035      2.00000
     10      -1.1049      0.00000
     11      -0.9803      0.00000
     12      -0.8661      0.00000
     13      -0.8558      0.00000
     14       1.8037      0.00000

 k-point     3 :       0.1429    0.0000    0.0000
  band No.  band energies     occupation 
      1     -17.5110      2.00000
      2     -16.4478      2.00000
      3      -8.9986      2.00000
      4      -6.9278      2.00000
      5      -6.4330      2.00000
      6      -6.0455      2.00000
      7      -5.6639      2.00000
      8      -4.7995      2.00000
      9      -3.9597      2.00000
     10      -1.3661      0.00000
     11      -1.2176      0.00000
     12      -1.0678      0.00000
     13      -0.5515      0.00000
     14       2.1298      0.00000

 k-point     4 :       0.2143    0.0000    0.0000
  band No.  band energies     occupation 
      1     -17.1935      2.00000
      2     -16.2974      2.00000
      3      -8.7479      2.00000
      4      -7.3825      2.00000
      5      -6.9947      2.00000
      6      -6.0324      2.00000
      7      -5.7136      2.00000
      8      -4.9323      2.00000
      9      -4.2853      2.00000
     10      -1.5873      0.00000
     11      -1.3146      0.00000
     12      -1.0577      0.00000
     13      -0.1883      0.00000
     14       2.5823      0.00000

 k-point     5 :       0.2857    0.0000    0.0000
  band No.  band energies     occupation 
      1     -16.8071      2.00000
      2     -16.1169      2.00000
      3      -8.7486      2.00000
      4      -7.6104      2.00000
      5      -7.5492      2.00000
      6      -6.3806      2.00000
      7      -5.3383      2.00000
      8      -5.1963      2.00000
      9      -4.6257      2.00000
     10      -1.5578      0.00000
     11      -1.5082      0.00000
     12      -0.6700      0.00000
     13       0.1206      0.00000
     14       3.1299      0.00000

 k-point     6 :       0.3571   -0.0000    0.0000
  band No.  band energies     occupation 
      1     -16.4178      2.00000
      2     -15.9397      2.00000
      3      -9.0509      2.00000
      4      -8.0398      2.00000
      5      -7.6527      2.00000
      6      -6.6564      2.00000
      7      -5.4264      2.00000
      8      -5.0037      2.00000
      9      -4.7003      2.00000
     10      -1.5979      0.00000
     11      -1.3792      0.00000
     12      -0.2509      0.00000
     13       0.3328      0.00000
     14       3.5135      0.00000

 k-point     7 :       0.4286    0.0000    0.0000
  band No.  band energies     occupation 
      1     -16.1172      2.00000
      2     -15.8069      2.00000
      3      -9.3495      2.00000
      4      -8.3836      2.00000
      5      -7.7429      2.00000
      6      -6.8312      2.00000
      7      -5.5644      2.00000
      8      -4.7833      2.00000
      9      -4.5127      2.00000
     10      -1.5976      0.00000
     11      -1.1694      0.00000
     12       0.0394      0.00000
     13       0.4494      0.00000
     14       2.7896      0.00000

 k-point     8 :       0.5000    0.0000    0.0000
  band No.  band energies     occupation 
      1     -16.0020      2.00000
      2     -15.7572      2.00000
      3      -9.4680      2.00000
      4      -8.5078      2.00000
      5      -7.7970      2.00000
      6      -6.8909      2.00000
      7      -5.6089      2.00000
      8      -4.7088      2.00000
      9      -4.3870      2.00000
     10      -1.5817      0.00000
     11      -1.0658      0.00000
     12       0.1367      0.00000
     13       0.4857      0.00000
     14       2.4159      0.00000

 k-point     9 :       0.0714    0.0714    0.0000
  band No.  band energies     occupation 
      1     -17.5784      2.00000
      2     -16.4799      2.00000
      3      -9.0679      2.00000
      4      -6.8007      2.00000
      5      -6.2611      2.00000
      6      -6.1220      2.00000
      7      -5.6353      2.00000
      8      -4.7625      2.00000
      9      -3.9002      2.00000
     10      -1.2646      0.00000
     11      -1.2433      0.00000
     12      -1.0133      0.00000
     13      -0.6206      0.00000
     14       2.0311      0.00000

 k-point    10 :       0.1429    0.0714    0.0000
  band No.  band energies     occupation 
      1     -17.3162      2.00000
      2     -16.3551      2.00000
      3      -8.8177      2.00000
      4      -7.2248      2.00000
      5      -6.7269      2.00000
      6      -6.0721      2.00000
      7      -5.8639      2.00000
      8      -4.7212      2.00000
      9      -4.1470      2.00000
     10      -1.5633      0.00000
     11      -1.2635      0.00000
     12      -1.2325      0.00000
     13      -0.2456      0.00000
     14       2.4310      0.00000

 k-point    11 :       0.2143    0.0714    0.0000
  band No.  band energies     occupation 
      1     -16.9629      2.00000
      2     -16.1883      2.00000
      3      -8.6700      2.00000
      4      -7.5441      2.00000
      5      -7.2651      2.00000
      6      -6.4539      2.00000
      7      -5.5753      2.00000
      8      -4.9126      2.00000
      9      -4.4831      2.00000
     10      -1.7014      0.00000
     11      -1.3733      0.00000
     12      -1.0106      0.00000
     13       0.1068      0.00000
     14       2.9340      0.00000

 k-point    12 :       0.2857    0.0714    0.0000
  band No.  band energies     occupation 
      1     -16.5718      2.00000
      2     -16.0068      2.00000
      3      -8.8533      2.00000
      4      -7.8207      2.00000
      5      -7.6003      2.00000
      6      -6.7006      2.00000
      7      -5.3783      2.00000
      8      -5.1984      2.00000
      9      -4.6187      2.00000
     10      -1.6842      0.00000
     11      -1.3715      0.00000
     12      -0.6013      0.00000
     13       0.3488      0.00000
     14       3.4974      0.00000

 k-point    13 :       0.3571    0.0714    0.0000
  band No.  band energies     occupation 
      1     -16.2211      2.00000
      2     -15.8481      2.00000
      3      -9.1622      2.00000
      4      -8.2753      2.00000
      5      -7.6591      2.00000
      6      -6.8369      2.00000
      7      -5.4439      2.00000
      8      -5.2386      2.00000
      9      -4.4622      2.00000
     10      -1.5970      0.00000
     11      -1.2461      0.00000
     12      -0.1957      0.00000
     13       0.4357      0.00000
     14       3.2611      0.00000

 k-point    14 :       0.4286    0.0714    0.0000
  band No.  band energies     occupation 
      1     -16.0078      2.00000
      2     -15.7539      2.00000
      3      -9.3662      2.00000
      4      -8.5302      2.00000
      5      -7.7559      2.00000
      6      -6.8954      2.00000
      7      -5.5804      2.00000
      8      -5.1249      2.00000
      9      -4.2661      2.00000
     10      -1.5623      0.00000
     11      -1.0675      0.00000
     12       0.1171      0.00000
     13       0.3654      0.00000
     14       2.6025      0.00000

 k-point    15 :       0.1429    0.1429    0.0000
  band No.  band energies     occupation 
      1     -17.0173      2.00000
      2     -16.2130      2.00000
      3      -8.6430      2.00000
      4      -7.4981      2.00000
      5      -7.0503      2.00000
      6      -6.6550      2.00000
      7      -5.6959      2.00000
      8      -4.7073      2.00000
      9      -4.4184      2.00000
     10      -1.7665      0.00000
     11      -1.3273      0.00000
     12      -1.2262      0.00000
     13       0.1423      0.00000
     14       2.9073      0.00000

 k-point    16 :       0.2143    0.1429    0.0000
  band No.  band energies     occupation 
      1     -16.6557      2.00000
      2     -16.0420      2.00000
      3      -8.6934      2.00000
      4      -7.6064      2.00000
      5      -7.5357      2.00000
      6      -6.9231      2.00000
      7      -5.7191      2.00000
      8      -4.9032      2.00000
      9      -4.5607      2.00000
     10      -1.8091      0.00000
     11      -1.3093      0.00000
     12      -0.9790      0.00000
     13       0.4340      0.00000
     14       3.4464      0.00000

 k-point    17 :       0.2857    0.1429    0.0000
  band No.  band energies     occupation 
      1     -16.2952      2.00000
      2     -15.8732      2.00000
      3      -8.9163      2.00000
      4      -8.1810      2.00000
      5      -7.5109      2.00000
      6      -6.9634      2.00000
      7      -5.8430      2.00000
      8      -5.2134      2.00000
      9      -4.4572      2.00000
     10      -1.6373      0.00000
     11      -1.2548      0.00000
     12      -0.6246      0.00000
     13       0.5691      0.00000
     14       3.7762      0.00000

 k-point    18 :       0.3571    0.1429    0.0000
  band No.  band energies     occupation 
      1     -16.0206      2.00000
      2     -15.7463      2.00000
      3      -9.1081      2.00000
      4      -8.5768      2.00000
      5      -7.6286      2.00000
      6      -6.9218      2.00000
      7      -5.8474      2.00000
      8      -5.4926      2.00000
      9      -4.2347      2.00000
     10      -1.5702      0.00000
     11      -1.0433      0.00000
     12      -0.3078      0.00000
     13       0.5585      0.00000
     14       3.0806      0.00000

 k-point    19 :       0.4286    0.1429    0.0000
  band No.  band energies     occupation 
      1     -15.9164      2.00000
      2     -15.6987      2.00000
      3      -9.1800      2.00000
      4      -8.7174      2.00000
      5      -7.7081      2.00000
      6      -6.8893      2.00000
      7      -5.8274      2.00000
      8      -5.6087      2.00000
      9      -4.1057      2.00000
     10      -1.6176      0.00000
     11      -0.8708      0.00000
     12      -0.1666      0.00000
     13       0.5149      0.00000
     14       2.7234      0.00000

 k-point    20 :       0.2143    0.2143    0.0000
  band No.  band energies     occupation 
      1     -16.3220      2.00000
      2     -15.8816      2.00000
      3      -8.7972      2.00000
      4      -8.1346      2.00000
      5      -7.4022      2.00000
      6      -7.0427      2.00000
      7      -6.1478      2.00000
      8      -5.0913      2.00000
      9      -4.4705      2.00000
     10      -1.6671      0.00000
     11      -1.2449      0.00000
     12      -0.8272      0.00000
     13       0.6435      0.00000
     14       3.9532      0.00000

 k-point    21 :       0.2857    0.2143    0.0000
  band No.  band energies     occupation 
      1     -16.0307      2.00000
      2     -15.7402      2.00000
      3      -8.8603      2.00000
      4      -8.6110      2.00000
      5      -7.4098      2.00000
      6      -6.9557      2.00000
      7      -6.5091      2.00000
      8      -5.4003      2.00000
      9      -4.2573      2.00000
     10      -1.6072      0.00000
     11      -1.0084      0.00000
     12      -0.6438      0.00000
     13       0.7552      0.00000
     14       3.6435      0.00000

 k-point    22 :       0.3571    0.2143    0.0000
  band No.  band energies     occupation 
      1     -15.8582      2.00000
      2     -15.6559      2.00000
      3      -8.8789      2.00000
      4      -8.8534      2.00000
      5      -7.5997      2.00000
      6      -6.8251      2.00000
      7      -6.6075      2.00000
      8      -5.6577      2.00000
      9      -4.0175      2.00000
     10      -1.7810      0.00000
     11      -0.6513      0.00000
     12      -0.5338      0.00000
     13       0.8044      0.00000
     14       3.1052      0.00000

 k-point    23 :       0.2857    0.2857    0.0000
  band No.  band energies     occupation 
      1     -15.8385      2.00000
      2     -15.6396      2.00000
      3      -8.9420      2.00000
      4      -8.6513      2.00000
      5      -7.4270      2.00000
      6      -7.1063      2.00000
      7      -6.7890      2.00000
      8      -5.6820      2.00000
      9      -3.9836      2.00000
     10      -1.8657      0.00000
     11      -0.6796      0.00000
     12      -0.5637      0.00000
     13       0.9331      0.00000
     14       3.4710      0.00000

 k-point    24 :       0.3571    0.2857    0.0000
  band No.  band energies     occupation 
      1     -15.7680      2.00000
      2     -15.6017      2.00000
      3      -9.0638      2.00000
      4      -8.4516      2.00000
      5      -7.6746      2.00000
      6      -7.2130      2.00000
      7      -6.6679      2.00000
      8      -5.8451      2.00000
      9      -3.8189      2.00000
     10      -2.0453      0.00000
     11      -0.6999      0.00000
     12      -0.3422      0.00000
     13       1.0110      0.00000
     14       3.3513      0.00000


--------------------------------------------------------------------------------------------------------


 soft charge-density along one line, spin component           1
         0         1         2         3         4         5         6         7         8         9
 total charge-density along one line
 
 pseudopotential strength for first ion, spin component:           1
-10.073  -0.000   0.000   0.000   0.000   0.111   0.000  -0.000
 -0.000 -10.074  -0.000  -0.000   0.000   0.000   0.111   0.000
  0.000  -0.000 -10.053  -0.000  -0.000  -0.000   0.000   0.109
  0.000  -0.000  -0.000 -10.074  -0.000  -0.000   0.000   0.000
  0.000   0.000  -0.000  -0.000 -10.073  -0.000  -0.000   0.000
  0.111   0.000  -0.000  -0.000  -0.000   0.097  -0.000   0.000
  0.000   0.111   0.000   0.000  -0.000  -0.000   0.097  -0.000
 -0.000   0.000   0.109   0.000   0.000   0.000  -0.000   0.097
 -0.000   0.000   0.000   0.111   0.000  -0.000  -0.000  -0.000
 -0.000  -0.000   0.000   0.000   0.111   0.000   0.000  -0.000
  0.000   0.000  -0.005   0.000  -0.000  -0.000  -0.000   0.000
 -0.000  -0.000   0.001  -0.000   0.000   0.000   0.000  -0.000
 -0.000   0.000  -0.000  -0.000  -0.007   0.000  -0.000   0.000
 -0.000   0.000   0.000  -0.000   0.000  -0.000  -0.000  -0.000
 -0.007  -0.000   0.000   0.000  -0.000  -0.000  -0.000  -0.000
  0.000  -0.000   0.000   0.000   0.004  -0.000   0.000  -0.000
  0.000  -0.000  -0.000   0.000  -0.000  -0.000   0.000   0.000
  0.004   0.000  -0.000  -0.000   0.000   0.000  -0.000   0.000
 total augmentation occupancy for first ion, spin component:           1
  0.965   0.000  -0.000  -0.000  -0.000   0.601   0.000  -0.000  -0.000  -0.000   0.000   0.000   0.000   0.000  -0.066  -0.000
  0.000   0.907  -0.000   0.000   0.000  -0.000   0.839   0.000   0.000   0.000   0.000   0.000   0.000   0.000   0.000   0.000
 -0.000  -0.000   1.029   0.000   0.000  -0.000   0.000   0.502   0.000   0.000   0.111  -0.019  -0.000   0.000   0.000   0.000
  0.000   0.000   0.000   0.907  -0.000   0.000   0.000   0.000   0.839   0.000   0.000   0.000   0.000   0.000   0.000  -0.000
 -0.000  -0.000   0.000   0.000   0.965  -0.000   0.000   0.000  -0.000   0.601   0.000  -0.000  -0.066   0.000  -0.000   0.007
  0.601   0.000  -0.000   0.000  -0.000   0.678   0.000  -0.000   0.000  -0.000   0.000  -0.000   0.000   0.000  -0.136  -0.000
 -0.000   0.839   0.000   0.000   0.000   0.000   1.081  -0.000   0.000   0.000   0.000   0.000   0.000   0.000  -0.000  -0.000
 -0.000   0.000   0.502  -0.000   0.000  -0.000   0.000   0.476   0.000   0.000   0.059  -0.021  -0.000  -0.000   0.000   0.000
 -0.000   0.000   0.000   0.839   0.000   0.000   0.000  -0.000   1.081   0.000   0.000   0.000  -0.000  -0.000  -0.000  -0.000
 -0.000   0.000   0.000   0.000   0.601  -0.000   0.000   0.000   0.000   0.678   0.000  -0.000  -0.136   0.000  -0.000   0.023
 -0.000   0.000   0.111   0.000   0.000   0.000   0.000   0.059   0.000   0.000   1.207  -0.185  -0.000   0.000   0.000   0.000
  0.000   0.000  -0.019   0.000  -0.000   0.000   0.000  -0.021   0.000  -0.000  -0.185   0.042   0.000   0.000   0.000   0.000
  0.000   0.000  -0.000   0.000  -0.066   0.000   0.000  -0.000   0.000  -0.136   0.000   0.000   0.217   0.000   0.000  -0.032
  0.000   0.000   0.000   0.000   0.000   0.000   0.000  -0.000  -0.000   0.000   0.000   0.000   0.000   0.264  -0.000   0.000
 -0.066   0.000   0.000   0.000  -0.000  -0.136   0.000   0.000   0.000  -0.000   0.000   0.000   0.000   0.000   0.217  -0.000
 -0.000   0.000   0.000   0.000   0.007  -0.000   0.000   0.000  -0.000   0.023   0.000   0.000  -0.032   0.000  -0.000   0.005
  0.000   0.000   0.000  -0.000   0.000  -0.000   0.000   0.000  -0.000  -0.000   0.000  -0.000   0.000  -0.038  -0.000   0.000
  0.007   0.000  -0.000  -0.000   0.000   0.023   0.000  -0.000   0.000   0.000  -0.000  -0.000  -0.000   0.000  -0.032   0.000


------------------------ aborting loop because EDIFF is reached ----------------------------------------


    CHARGE:  cpu time    0.0510: real time    0.0519
    FORLOC:  cpu time    0.0050: real time    0.0049
    FORNL :  cpu time    0.0950: real time    0.0947
    STRESS:  cpu time    0.5119: real time    0.5125
    FORCOR:  cpu time    0.0590: real time    0.0576
    FORHAR:  cpu time    0.0130: real time    0.0132
    MIXING:  cpu time    0.0030: real time    0.0030
    OFIELD:  cpu time    0.0000: real time    0.0000

  DFT-D2 method for vdW energy calculation
  -------------------------------------------------------------------

  Parameters of vdW forcefield:
         C6(Jnm^6/mol)     R0(A)
   -----------------------------
   Mo      24.670          1.639
   S        5.570          1.683

  IVDW =   1
  VDW_RADIUS =    50.000 A
  VDW_S6 =     0.750
  VDW_SR =     1.000
  VDW_D =    20.000
  LVDW_EWALD = F

  Number of pair interactions contributing to vdW energy:   11979
  Edisp (eV):   -0.59080
    FORVDW:  cpu time    0.0110: real time    0.0166

  FORCE on cell =-STRESS in cart. coord.  units (eV):
  Direction    XX          YY          ZZ          XY          YZ          ZX
  --------------------------------------------------------------------------------------
  Alpha Z    10.89288    10.89288    10.89288
  Ewald    5935.52296  5935.52341 -6502.38985     0.00019     0.00000     0.00012
  Hartree  6017.36871  6017.36872 -5979.09718     0.00002    -0.00000    -0.00000
  E(xc)     -70.29681   -70.29681   -70.90172    -0.00000    -0.00000    -0.00000
  Local  -12231.98828-12231.98861 12196.42621    -0.00021    -0.00000    -0.00006
  n-local   127.22801   125.71899   131.68281    -0.26310    -0.00000    -0.00001
  augment   -25.56620   -25.56612   -26.66780     0.00007     0.00000    -0.00000
  Kinetic   236.07470   238.50528   239.80573    -7.51245     0.00001     0.00002
  Fock        0.00000     0.00000     0.00000     0.00000     0.00000     0.00000
  vdW         0.16052     0.16052    -0.13380     0.00000     0.00000    -0.00000
  -------------------------------------------------------------------------------------
  Total      -0.14262    -0.14262    -0.38272     0.00000     0.00000    -0.00000
  in kB      -0.83954    -0.83954    -2.25286     0.00000     0.00000    -0.00000
  external pressure =       -1.31 kB  Pullay stress =        0.00 kB


 VOLUME and BASIS-vectors are now :
 -----------------------------------------------------------------------------
  energy-cutoff  :      450.00
  volume of cell :      272.18
      direct lattice vectors                 reciprocal lattice vectors
     3.190315730  0.000000000  0.000000000     0.313448600  0.180969634  0.000000000
    -1.595157865  2.762894468  0.000000000     0.000000000  0.361939267  0.000000000
     0.000000000  0.000000000 30.879004300     0.000000000  0.000000000  0.032384464

  length of vectors
     3.190315730  3.190315730 30.879004300     0.361939267  0.361939267  0.032384464


 FORCES acting on ions
    electron-ion (+dipol)            ewald-force                    non-local-force                 convergence-correction
 -----------------------------------------------------------------------------------------------
   -.953E-05 -.170E-05 -.105E-04   0.931E-04 -.108E-03 0.343E-06   0.520E-16 0.000E+00 0.508E-20   0.380E-09 -.335E-09 0.857E-07
   -.853E-03 0.494E-03 0.596E+03   -.864E-04 0.538E-04 -.601E+03   0.139E-16 -.694E-17 0.480E+01   -.701E-08 0.316E-08 0.233E-02
   0.864E-03 0.494E-03 -.596E+03   -.674E-05 0.538E-04 0.601E+03   -.139E-16 -.520E-17 -.480E+01   0.799E-08 0.316E-08 -.233E-02
 -----------------------------------------------------------------------------------------------
   0.207E-05 0.986E-03 0.208E-04   0.253E-13 0.199E-13 0.000E+00   0.520E-16 -.121E-16 0.000E+00   0.137E-08 0.599E-08 0.224E-06
 
 
 POSITION                                       TOTAL-FORCE (eV/Angst)
 -----------------------------------------------------------------------------------
     -0.00000      1.84193      3.71975        -0.000000      0.000000     -0.000000
      1.59516      0.92096      2.15487         0.000000     -0.000000      0.116124
      1.59516      0.92096      5.28464         0.000000      0.000000     -0.116124
 -----------------------------------------------------------------------------------
    total drift:                                0.000002      0.000986      0.000021


--------------------------------------------------------------------------------------------------------



  FREE ENERGIE OF THE ION-ELECTRON SYSTEM (eV)
  ---------------------------------------------------
  free  energy   TOTEN  =       -22.38758713 eV

  energy  without entropy=      -22.38758713  energy(sigma->0) =      -22.38758713
 


--------------------------------------------------------------------------------------------------------


    POTLOK:  cpu time    0.0550: real time    0.0548


--------------------------------------------------------------------------------------------------------


     LOOP+:  cpu time   15.8136: real time   15.9569
    4ORBIT:  cpu time    0.0000: real time    0.0000
 BZINTS: Fermi energy: -3.721320; 18.000000 electrons
         Band energy:-157.482175;  BLOECHL correction:  0.000000

 total amount of memory used by VASP MPI-rank0    70277. kBytes
=======================================================================

   base      :      30000. kBytes
   nonl-proj :      20921. kBytes
   fftplans  :       4304. kBytes
   grid      :       6871. kBytes
   one-center:         31. kBytes
   wavefun   :       8150. kBytes
 
  
  
 General timing and accounting informations for this job:
 ========================================================
  
                  Total CPU time used (sec):       17.066
                            User time (sec):       16.568
                          System time (sec):        0.498
                         Elapsed time (sec):       18.009
  
                   Maximum memory used (kb):       63348.
                   Average memory used (kb):           0.
  
                          Minor page faults:        17255
                          Major page faults:          185
                 Voluntary context switches:         2693
