perl: warning: Setting locale failed.
perl: warning: Please check that your locale settings:
	LANGUAGE = (unset),
	LC_ALL = (unset),
	LC_CTYPE = "UTF-8",
	LANG = "en_US.iso885915"
    are supported and installed on your system.
perl: warning: Falling back to the standard locale ("C").
Starting job 28532156 ("jobname") on c14-5 at Fri Nov 8 11:20:37 CET 2019
 running on    4 total cores
 distrk:  each k-point on    4 cores,    1 groups
 distr:  one band on    2 cores,    2 groups
 using from now: INCAR     
 vasp.5.4.4.18Apr17-6-g9f103f2a35 (build Jun 30 2017 11:15:00) complex          
  
 POSCAR found type information on POSCAR  Mo S 
 POSCAR found :  2 types and       3 ions
 scaLAPACK will be used
 LDA part: xc-table for Pade appr. of Perdew
 POSCAR, INCAR and KPOINTS ok, starting setup
 FFT: planning ...
 WAVECAR not read
 WARNING: random wavefunctions but no delay for mixing, default for NELMDL
 entering main loop
       N       E                     dE             d eps       ncg     rms          rms(c)
DAV:   1     0.150106260819E+03    0.15011E+03   -0.63798E+03   672   0.107E+03
DAV:   2    -0.408435179979E+01   -0.15419E+03   -0.14497E+03  1178   0.174E+02
DAV:   3    -0.229857028459E+02   -0.18901E+02   -0.18720E+02   944   0.784E+01
DAV:   4    -0.234001227884E+02   -0.41442E+00   -0.41211E+00   884   0.145E+01
DAV:   5    -0.234097021820E+02   -0.95794E-02   -0.95743E-02   866   0.213E+00    0.689E+00
RMM:   6    -0.222484540184E+02    0.11612E+01   -0.54442E+00   709   0.125E+01    0.261E+00
RMM:   7    -0.218647051802E+02    0.38375E+00   -0.55539E-01   701   0.342E+00    0.150E+00
RMM:   8    -0.218045252744E+02    0.60180E-01   -0.23191E-01   745   0.253E+00    0.354E-01
RMM:   9    -0.217996576832E+02    0.48676E-02   -0.88298E-03   802   0.612E-01    0.964E-02
RMM:  10    -0.217988935456E+02    0.76414E-03   -0.17170E-03   804   0.223E-01    0.446E-02
RMM:  11    -0.217988272301E+02    0.66316E-04   -0.16410E-03   757   0.192E-01    0.546E-02
RMM:  12    -0.217986584730E+02    0.16876E-03   -0.53011E-04   732   0.130E-01    0.177E-02
RMM:  13    -0.217989952256E+02   -0.33675E-03   -0.16650E-04   685   0.735E-02    0.204E-02
RMM:  14    -0.217990496658E+02   -0.54440E-04   -0.26523E-05   622   0.282E-02    0.491E-03
RMM:  15    -0.217991760800E+02   -0.12641E-03   -0.11149E-05   476   0.175E-02    0.260E-03
RMM:  16    -0.217992166517E+02   -0.40572E-04   -0.26934E-06   426   0.840E-03    0.153E-03
RMM:  17    -0.217992476170E+02   -0.30965E-04   -0.23964E-06   359   0.695E-03    0.111E-03
RMM:  18    -0.217992523403E+02   -0.47233E-05   -0.42271E-07   205   0.411E-03
 Error reading item 'IVDW' from file INCAR
   1 F= -.21799252E+02 E0= -.21799252E+02  d E =0.000000E+00

Currently Loaded Modulefiles:
  1) Anaconda3/5.1.0       3) vesta/3.3.8           5) intel/2016.1
  2) gnuplot/5.0.4         4) imagemagick/6.7.9-0   6) vasp/5.4.1.Feb16

Job script resource usage:
       JobID  MaxVMSize     MaxRSS 
------------ ---------- ---------- 
28532156.ba+    216888K      2579K 

Job step resource usage:
       JobID    JobName  AllocCPUS  MaxVMSize     MaxRSS    Elapsed ExitCode 
------------ ---------- ---------- ---------- ---------- ---------- -------- 
28532156        jobname          4                         00:00:30      0:0 
28532156.0    pmi_proxy          1    279832K       538K   00:00:28      0:0 

Job 28532156 ("jobname") completed on c14-5 at Fri Nov 8 11:21:06 CET 2019
