perl: warning: Setting locale failed.
perl: warning: Please check that your locale settings:
	LANGUAGE = (unset),
	LC_ALL = (unset),
	LC_CTYPE = "UTF-8",
	LANG = "en_US.iso885915"
    are supported and installed on your system.
perl: warning: Falling back to the standard locale ("C").
Starting job 28533321 ("jobname") on c15-8 at Fri Nov 8 12:22:17 CET 2019
 running on    4 total cores
 distrk:  each k-point on    4 cores,    1 groups
 distr:  one band on    2 cores,    2 groups
 using from now: INCAR     
 vasp.5.4.4.18Apr17-6-g9f103f2a35 (build Jun 30 2017 11:15:00) complex          
  
 POSCAR found type information on POSCAR  Mo S 
 POSCAR found :  2 types and       3 ions
 scaLAPACK will be used
 LDA part: xc-table for Pade appr. of Perdew
 POSCAR, INCAR and KPOINTS ok, starting setup
 FFT: planning ...
 WAVECAR not read
 WARNING: random wavefunctions but no delay for mixing, default for NELMDL
 entering main loop
       N       E                     dE             d eps       ncg     rms          rms(c)
DAV:   1     0.138778281746E+03    0.13878E+03   -0.54219E+03   672   0.810E+02
DAV:   2    -0.544662635432E+01   -0.14422E+03   -0.13508E+03  1164   0.162E+02
DAV:   3    -0.230311674941E+02   -0.17585E+02   -0.17422E+02   942   0.743E+01
DAV:   4    -0.233974728628E+02   -0.36631E+00   -0.36458E+00   824   0.134E+01
DAV:   5    -0.234075675961E+02   -0.10095E-01   -0.10080E-01   906   0.216E+00    0.689E+00
RMM:   6    -0.222464705908E+02    0.11611E+01   -0.54284E+00   707   0.123E+01    0.262E+00
RMM:   7    -0.218623619576E+02    0.38411E+00   -0.55710E-01   699   0.342E+00    0.151E+00
RMM:   8    -0.218020510723E+02    0.60311E-01   -0.23305E-01   742   0.251E+00    0.354E-01
RMM:   9    -0.217971738320E+02    0.48772E-02   -0.87381E-03   800   0.606E-01    0.957E-02
RMM:  10    -0.217964203102E+02    0.75352E-03   -0.17025E-03   799   0.219E-01    0.442E-02
RMM:  11    -0.217963542121E+02    0.66098E-04   -0.16262E-03   755   0.189E-01    0.534E-02
RMM:  12    -0.217961891267E+02    0.16509E-03   -0.52216E-04   732   0.128E-01    0.173E-02
RMM:  13    -0.217965292746E+02   -0.34015E-03   -0.16791E-04   683   0.725E-02    0.202E-02
RMM:  14    -0.217965862097E+02   -0.56935E-04   -0.26282E-05   617   0.284E-02    0.490E-03
RMM:  15    -0.217967119157E+02   -0.12571E-03   -0.11352E-05   470   0.172E-02    0.263E-03
RMM:  16    -0.217967527836E+02   -0.40868E-04   -0.27095E-06   422   0.849E-03    0.153E-03
RMM:  17    -0.217967844986E+02   -0.31715E-04   -0.23264E-06   356   0.695E-03    0.115E-03
RMM:  18    -0.217967889082E+02   -0.44097E-05   -0.40429E-07   199   0.418E-03
   1 F= -.22387587E+02 E0= -.22387587E+02  d E =0.000000E+00

Currently Loaded Modulefiles:
  1) Anaconda3/5.1.0       3) vesta/3.3.8           5) intel/2016.1
  2) gnuplot/5.0.4         4) imagemagick/6.7.9-0   6) vasp/5.4.1.Feb16

Job script resource usage:
       JobID  MaxVMSize     MaxRSS 
------------ ---------- ---------- 
28533321.ba+    216888K      2399K 

Job step resource usage:
       JobID    JobName  AllocCPUS  MaxVMSize     MaxRSS    Elapsed ExitCode 
------------ ---------- ---------- ---------- ---------- ---------- -------- 
28533321        jobname          4                         00:00:21      0:0 
28533321.0    pmi_proxy          1    279832K       522K   00:00:19      0:0 

Job 28533321 ("jobname") completed on c15-8 at Fri Nov 8 12:22:36 CET 2019
