perl: warning: Setting locale failed.
perl: warning: Please check that your locale settings:
	LANGUAGE = (unset),
	LC_ALL = (unset),
	LC_CTYPE = "UTF-8",
	LANG = "en_US.iso885915"
    are supported and installed on your system.
perl: warning: Falling back to the standard locale ("C").
Starting job 28531328 ("jobname") on c15-18 at Fri Nov 8 09:51:15 CET 2019
 running on    4 total cores
 distrk:  each k-point on    4 cores,    1 groups
 distr:  one band on    2 cores,    2 groups
 using from now: INCAR     
 vasp.5.4.4.18Apr17-6-g9f103f2a35 (build Jun 30 2017 11:15:00) complex          
  
 POSCAR found type information on POSCAR  Mo S 
 POSCAR found :  2 types and       6 ions
 scaLAPACK will be used
 LDA part: xc-table for Pade appr. of Perdew
 POSCAR, INCAR and KPOINTS ok, starting setup
 FFT: planning ...
 WAVECAR not read
 entering main loop
       N       E                     dE             d eps       ncg     rms          rms(c)
DAV:   1     0.284201265603E+03    0.28420E+03   -0.16048E+04  1056   0.157E+03
  WARNING: DENTET: can't reach specified precision
  Number of Electrons is NELECT =   35.9923168037969     
DAV:   2    -0.156115377810E+02   -0.29981E+03   -0.29381E+03  1562   0.276E+02
DAV:   3    -0.456849757723E+02   -0.30073E+02   -0.29877E+02  1306   0.948E+01
DAV:   4    -0.467950023841E+02   -0.11100E+01   -0.11073E+01  1556   0.196E+01
DAV:   5    -0.468213092341E+02   -0.26307E-01   -0.26294E-01  1366   0.310E+00    0.973E+00
RMM:   6    -0.444250488387E+02    0.23963E+01   -0.24164E+01  1184   0.197E+01    0.333E+00
RMM:   7    -0.436941789319E+02    0.73087E+00   -0.20426E+00  1176   0.579E+00    0.177E+00
RMM:   8    -0.436312895673E+02    0.62889E-01   -0.82061E-01  1250   0.332E+00    0.803E-01
RMM:   9    -0.436191386634E+02    0.12151E-01   -0.27583E-01  1298   0.222E+00    0.530E-01
RMM:  10    -0.436040156188E+02    0.15123E-01   -0.43837E-02  1284   0.984E-01    0.505E-02
RMM:  11    -0.436043847018E+02   -0.36908E-03   -0.64133E-03  1479   0.252E-01    0.536E-02
RMM:  12    -0.436043842867E+02    0.41508E-06   -0.21698E-03  1336   0.203E-01    0.514E-02
RMM:  13    -0.436042899997E+02    0.94287E-04   -0.62702E-04  1311   0.105E-01    0.110E-02
RMM:  14    -0.436043693928E+02   -0.79393E-04   -0.86193E-05  1049   0.376E-02    0.665E-03
RMM:  15    -0.436044160469E+02   -0.46654E-04   -0.58419E-05  1042   0.351E-02    0.987E-03
RMM:  16    -0.436044365862E+02   -0.20539E-04   -0.30704E-05   864   0.265E-02    0.266E-03
RMM:  17    -0.436044864446E+02   -0.49858E-04   -0.12610E-05   801   0.165E-02    0.423E-03
RMM:  18    -0.436045305399E+02   -0.44095E-04   -0.53807E-06   790   0.117E-02    0.150E-03
RMM:  19    -0.436045437539E+02   -0.13214E-04   -0.20950E-06   518   0.592E-03    0.721E-04
RMM:  20    -0.436045502780E+02   -0.65241E-05   -0.17650E-06   552   0.602E-03
 Error reading item 'IVDW' from file INCAR
   1 F= -.43604550E+02 E0= -.43604550E+02  d E =0.000000E+00

Currently Loaded Modulefiles:
  1) Anaconda3/5.1.0       3) vesta/3.3.8           5) intel/2016.1
  2) gnuplot/5.0.4         4) imagemagick/6.7.9-0   6) vasp/5.4.1.Feb16

Job script resource usage:
       JobID  MaxVMSize     MaxRSS 
------------ ---------- ---------- 
28531328.ba+    499280K      6003K 

Job step resource usage:
       JobID    JobName  AllocCPUS  MaxVMSize     MaxRSS    Elapsed ExitCode 
------------ ---------- ---------- ---------- ---------- ---------- -------- 
28531328        jobname          4                         00:00:41      0:0 
28531328.0    pmi_proxy          1   1488620K    296483K   00:00:38      0:0 

Job 28531328 ("jobname") completed on c15-18 at Fri Nov 8 09:51:54 CET 2019
