<?xml version="1.0" encoding="ISO-8859-1"?>
<modeling>
 <generator>
  <i name="program" type="string">vasp </i>
  <i name="version" type="string">5.4.4.18Apr17-6-g9f103f2a35  </i>
  <i name="subversion" type="string">(build Jun 30 2017 11:15:00) complex            parallel </i>
  <i name="platform" type="string">STALLO_VASP_5.4.4 </i>
  <i name="date" type="string">2019 11 08 </i>
  <i name="time" type="string">12:22:18 </i>
 </generator>
 <incar>
  <i type="string" name="PREC">normal    ! low/normal/accurate</i>
  <i type="string" name="ALGO"> Fast      ! Algorithm for electronic re</i>
  <i type="int" name="ISPIN">     1</i>
  <i type="int" name="NELMIN">     4</i>
  <i name="EDIFF">      0.00001000</i>
  <i type="int" name="NSW">     0</i>
  <i name="ENCUT">    450.00000000</i>
  <i type="logical" name="LREAL"> F  </i>
  <i type="int" name="ISMEAR">    -5</i>
  <i name="SIGMA">      0.20000000</i>
  <i type="logical" name="LWAVE"> F  </i>
  <v type="int" name="KPOINT_BSE">    -1     0     0     0</v>
 </incar>
 <structure name="primitive_cell" >
  <crystal>
   <varray name="basis" >
    <v>       3.19031573       0.00000000       0.00000000 </v>
    <v>      -1.59515786       2.76289447       0.00000000 </v>
    <v>       0.00000000       0.00000000      30.87900430 </v>
   </varray>
   <i name="volume">    272.18315887 </i>
   <varray name="rec_basis" >
    <v>       0.31344860       0.18096963       0.00000000 </v>
    <v>       0.00000000       0.36193927       0.00000000 </v>
    <v>       0.00000000       0.00000000       0.03238446 </v>
   </varray>
  </crystal>
  <varray name="positions" >
   <v>       0.33333300      -0.33333300       0.12046214 </v>
   <v>      -0.33333400       0.33333300       0.17114009 </v>
   <v>      -0.33333300       0.33333300       0.06978420 </v>
  </varray>
 </structure>
 <varray name="primitive_index" >
  <v type="int" >        1 </v>
  <v type="int" >        3 </v>
  <v type="int" >        2 </v>
 </varray>
 <kpoints>
  <generation param="Gamma">
   <v type="int" name="divisions">      14       14        1 </v>
   <v name="usershift">      0.00000000       0.00000000       0.00000000 </v>
   <v name="genvec1">      0.07142857       0.00000000       0.00000000 </v>
   <v name="genvec2">      0.00000000       0.07142857       0.00000000 </v>
   <v name="genvec3">      0.00000000       0.00000000       1.00000000 </v>
   <v name="shift">      0.00000000       0.00000000       0.00000000 </v>
  </generation>
  <varray name="kpointlist" >
   <v>       0.00000000       0.00000000       0.00000000 </v>
   <v>       0.07142857       0.00000000       0.00000000 </v>
   <v>       0.14285714       0.00000000       0.00000000 </v>
   <v>       0.21428571       0.00000000       0.00000000 </v>
   <v>       0.28571429       0.00000000       0.00000000 </v>
   <v>       0.35714286      -0.00000000       0.00000000 </v>
   <v>       0.42857143       0.00000000       0.00000000 </v>
   <v>       0.50000000       0.00000000       0.00000000 </v>
   <v>       0.07142857       0.07142857       0.00000000 </v>
   <v>       0.14285714       0.07142857       0.00000000 </v>
   <v>       0.21428571       0.07142857       0.00000000 </v>
   <v>       0.28571429       0.07142857       0.00000000 </v>
   <v>       0.35714286       0.07142857       0.00000000 </v>
   <v>       0.42857143       0.07142857       0.00000000 </v>
   <v>       0.14285714       0.14285714       0.00000000 </v>
   <v>       0.21428571       0.14285714       0.00000000 </v>
   <v>       0.28571429       0.14285714       0.00000000 </v>
   <v>       0.35714286       0.14285714       0.00000000 </v>
   <v>       0.42857143       0.14285714       0.00000000 </v>
   <v>       0.21428571       0.21428571       0.00000000 </v>
   <v>       0.28571429       0.21428571       0.00000000 </v>
   <v>       0.35714286       0.21428571       0.00000000 </v>
   <v>       0.28571429       0.28571429       0.00000000 </v>
   <v>       0.35714286       0.28571429       0.00000000 </v>
  </varray>
  <varray name="weights" >
   <v>       0.00510204 </v>
   <v>       0.03061224 </v>
   <v>       0.03061224 </v>
   <v>       0.03061224 </v>
   <v>       0.03061224 </v>
   <v>       0.03061224 </v>
   <v>       0.03061224 </v>
   <v>       0.01530612 </v>
   <v>       0.03061224 </v>
   <v>       0.06122449 </v>
   <v>       0.06122449 </v>
   <v>       0.06122449 </v>
   <v>       0.06122449 </v>
   <v>       0.06122449 </v>
   <v>       0.03061224 </v>
   <v>       0.06122449 </v>
   <v>       0.06122449 </v>
   <v>       0.06122449 </v>
   <v>       0.03061224 </v>
   <v>       0.03061224 </v>
   <v>       0.06122449 </v>
   <v>       0.06122449 </v>
   <v>       0.03061224 </v>
   <v>       0.03061224 </v>
  </varray>
  <varray name="tetrahedronlist"  type="int" >
   <v type="int" >       12        2        2        2        9 </v>
   <v type="int" >       12        1        2        2        2 </v>
   <v type="int" >        6        1        1        2        2 </v>
   <v type="int" >        6        2        2        9        9 </v>
   <v type="int" >       12        3        9        9       10 </v>
   <v type="int" >       12        2        3        9        9 </v>
   <v type="int" >       12        2        2        3        9 </v>
   <v type="int" >       12        3        9       10       10 </v>
   <v type="int" >       12        3        3        9       10 </v>
   <v type="int" >       12        2        3        3        9 </v>
   <v type="int" >       12        4       10       10       11 </v>
   <v type="int" >       12        3        4       10       10 </v>
   <v type="int" >       12        3        3        4       10 </v>
   <v type="int" >       12        4       10       11       11 </v>
   <v type="int" >       12        4        4       10       11 </v>
   <v type="int" >       12        3        4        4       10 </v>
   <v type="int" >       12        5       11       11       12 </v>
   <v type="int" >       12        4        5       11       11 </v>
   <v type="int" >       12        4        4        5       11 </v>
   <v type="int" >       12        5       11       12       12 </v>
   <v type="int" >       12        5        5       11       12 </v>
   <v type="int" >       12        4        5        5       11 </v>
   <v type="int" >       12        6       12       12       13 </v>
   <v type="int" >       12        5        6       12       12 </v>
   <v type="int" >       12        5        5        6       12 </v>
   <v type="int" >       12        6       12       13       13 </v>
   <v type="int" >       12        6        6       12       13 </v>
   <v type="int" >       12        5        6        6       12 </v>
   <v type="int" >       12        7       13       13       14 </v>
   <v type="int" >       12        6        7       13       13 </v>
   <v type="int" >       12        6        6        7       13 </v>
   <v type="int" >       12        7       13       14       14 </v>
   <v type="int" >       12        7        7       13       14 </v>
   <v type="int" >       12        6        7        7       13 </v>
   <v type="int" >       12        8       14       14       14 </v>
   <v type="int" >       12        7        8       14       14 </v>
   <v type="int" >       12        7        7        8       14 </v>
   <v type="int" >        6        8        8       14       14 </v>
   <v type="int" >       12        7        8        8       14 </v>
   <v type="int" >       12       10       10       10       15 </v>
   <v type="int" >       12        9       10       10       10 </v>
   <v type="int" >        6        9        9       10       10 </v>
   <v type="int" >        6       10       10       15       15 </v>
   <v type="int" >       12       11       15       15       16 </v>
   <v type="int" >       12       10       11       15       15 </v>
   <v type="int" >       12       10       10       11       15 </v>
   <v type="int" >       12       11       15       16       16 </v>
   <v type="int" >       12       11       11       15       16 </v>
   <v type="int" >       12       10       11       11       15 </v>
   <v type="int" >       12       12       16       16       17 </v>
   <v type="int" >       12       11       12       16       16 </v>
   <v type="int" >       12       11       11       12       16 </v>
   <v type="int" >       12       12       16       17       17 </v>
   <v type="int" >       12       12       12       16       17 </v>
   <v type="int" >       12       11       12       12       16 </v>
   <v type="int" >       12       13       17       17       18 </v>
   <v type="int" >       12       12       13       17       17 </v>
   <v type="int" >       12       12       12       13       17 </v>
   <v type="int" >       12       13       17       18       18 </v>
   <v type="int" >       12       13       13       17       18 </v>
   <v type="int" >       12       12       13       13       17 </v>
   <v type="int" >       12       14       18       18       19 </v>
   <v type="int" >       12       13       14       18       18 </v>
   <v type="int" >       12       13       13       14       18 </v>
   <v type="int" >       12       14       18       19       19 </v>
   <v type="int" >       12       14       14       18       19 </v>
   <v type="int" >       12       13       14       14       18 </v>
   <v type="int" >        6       14       14       19       19 </v>
   <v type="int" >       12       14       14       14       19 </v>
   <v type="int" >       12       16       16       16       20 </v>
   <v type="int" >       12       15       16       16       16 </v>
   <v type="int" >        6       15       15       16       16 </v>
   <v type="int" >        6       16       16       20       20 </v>
   <v type="int" >       12       17       20       20       21 </v>
   <v type="int" >       12       16       17       20       20 </v>
   <v type="int" >       12       16       16       17       20 </v>
   <v type="int" >       12       17       20       21       21 </v>
   <v type="int" >       12       17       17       20       21 </v>
   <v type="int" >       12       16       17       17       20 </v>
   <v type="int" >       12       18       21       21       22 </v>
   <v type="int" >       12       17       18       21       21 </v>
   <v type="int" >       12       17       17       18       21 </v>
   <v type="int" >       12       18       21       22       22 </v>
   <v type="int" >       12       18       18       21       22 </v>
   <v type="int" >       12       17       18       18       21 </v>
   <v type="int" >       12       19       22       22       22 </v>
   <v type="int" >       12       18       19       22       22 </v>
   <v type="int" >       12       18       18       19       22 </v>
   <v type="int" >        6       19       19       22       22 </v>
   <v type="int" >       12       18       19       19       22 </v>
   <v type="int" >       12       21       21       21       23 </v>
   <v type="int" >       12       20       21       21       21 </v>
   <v type="int" >        6       20       20       21       21 </v>
   <v type="int" >        6       21       21       23       23 </v>
   <v type="int" >       12       22       23       23       24 </v>
   <v type="int" >       12       21       22       23       23 </v>
   <v type="int" >       12       21       21       22       23 </v>
   <v type="int" >       12       22       23       24       24 </v>
   <v type="int" >       12       22       22       23       24 </v>
   <v type="int" >       12       21       22       22       23 </v>
   <v type="int" >        6       22       22       24       24 </v>
   <v type="int" >       12       22       22       22       24 </v>
   <v type="int" >        6       24       24       24       24 </v>
   <v type="int" >       12       23       24       24       24 </v>
   <v type="int" >        6       23       23       24       24 </v>
  </varray>
  <i name="volumeweight">      0.00085034 </i>
 </kpoints>
 <parameters>
  <separator name="general" >
   <i type="string" name="SYSTEM">unknown system</i>
   <i type="logical" name="LCOMPAT"> F  </i>
  </separator>
  <separator name="electronic" >
   <i type="string" name="PREC">normal</i>
   <i name="ENMAX">    450.00000000</i>
   <i name="ENAUG">    345.27800000</i>
   <i name="EDIFF">      0.00001000</i>
   <i type="int" name="IALGO">    68</i>
   <i type="int" name="IWAVPR">    10</i>
   <i type="int" name="NBANDS">    14</i>
   <i name="NELECT">     18.00000000</i>
   <i type="int" name="TURBO">     0</i>
   <i type="int" name="IRESTART">     0</i>
   <i type="int" name="NREBOOT">     0</i>
   <i type="int" name="NMIN">     0</i>
   <i name="EREF">      0.00000000</i>
   <separator name="electronic smearing" >
    <i type="int" name="ISMEAR">    -5</i>
    <i name="SIGMA">      0.20000000</i>
    <i name="KSPACING">      0.50000000</i>
    <i type="logical" name="KGAMMA"> T  </i>
   </separator>
   <separator name="electronic projectors" >
    <i type="logical" name="LREAL"> F  </i>
    <v name="ROPT">      0.00000000      0.00000000</v>
    <i type="int" name="LMAXPAW">  -100</i>
    <i type="int" name="LMAXMIX">     2</i>
    <i type="logical" name="NLSPLINE"> F  </i>
   </separator>
   <separator name="electronic startup" >
    <i type="int" name="ISTART">     0</i>
    <i type="int" name="ICHARG">     2</i>
    <i type="int" name="INIWAV">     1</i>
   </separator>
   <separator name="electronic spin" >
    <i type="int" name="ISPIN">     1</i>
    <i type="logical" name="LNONCOLLINEAR"> F  </i>
    <v name="MAGMOM">      1.00000000      1.00000000      1.00000000</v>
    <i name="NUPDOWN">     -1.00000000</i>
    <i type="logical" name="LSORBIT"> F  </i>
    <v name="SAXIS">      0.00000000      0.00000000      1.00000000</v>
    <i type="logical" name="LSPIRAL"> F  </i>
    <v name="QSPIRAL">      0.00000000      0.00000000      0.00000000</v>
    <i type="logical" name="LZEROZ"> F  </i>
   </separator>
   <separator name="electronic exchange-correlation" >
    <i type="logical" name="LASPH"> F  </i>
    <i type="logical" name="LMETAGGA"> F  </i>
   </separator>
   <separator name="electronic convergence" >
    <i type="int" name="NELM">    60</i>
    <i type="int" name="NELMDL">     0</i>
    <i type="int" name="NELMIN">     4</i>
    <i name="ENINI">    450.00000000</i>
    <separator name="electronic convergence detail" >
     <i type="logical" name="LDIAG"> T  </i>
     <i type="logical" name="LSUBROT"> F  </i>
     <i name="WEIMIN">      0.00000000</i>
     <i name="EBREAK">      0.00000018</i>
     <i name="DEPER">      0.30000000</i>
     <i type="int" name="NRMM">     4</i>
     <i name="TIME">      0.40000000</i>
    </separator>
   </separator>
   <separator name="electronic mixer" >
    <i name="AMIX">      0.40000000</i>
    <i name="BMIX">      1.00000000</i>
    <i name="AMIN">      0.10000000</i>
    <i name="AMIX_MAG">      1.60000000</i>
    <i name="BMIX_MAG">      1.00000000</i>
    <separator name="electronic mixer details" >
     <i type="int" name="IMIX">     4</i>
     <i type="logical" name="MIXFIRST"> F  </i>
     <i type="int" name="MAXMIX">   -45</i>
     <i name="WC">    100.00000000</i>
     <i type="int" name="INIMIX">     1</i>
     <i type="int" name="MIXPRE">     1</i>
     <i type="int" name="MREMOVE">     5</i>
    </separator>
   </separator>
   <separator name="electronic dipolcorrection" >
    <i type="logical" name="LDIPOL"> F  </i>
    <i type="logical" name="LMONO"> F  </i>
    <i type="int" name="IDIPOL">     0</i>
    <i name="EPSILON">      1.00000000</i>
    <v name="DIPOL">   -100.00000000   -100.00000000   -100.00000000</v>
    <i name="EFIELD">      0.00000000</i>
   </separator>
  </separator>
  <separator name="grids" >
   <i type="int" name="NGX">    18</i>
   <i type="int" name="NGY">    18</i>
   <i type="int" name="NGZ">   160</i>
   <i type="int" name="NGXF">    36</i>
   <i type="int" name="NGYF">    36</i>
   <i type="int" name="NGZF">   320</i>
   <i type="logical" name="ADDGRID"> F  </i>
  </separator>
  <separator name="ionic" >
   <i type="int" name="NSW">     0</i>
   <i type="int" name="IBRION">    -1</i>
   <i type="int" name="MDALGO">     0</i>
   <i type="int" name="ISIF">     2</i>
   <i name="PSTRESS">      0.00000000</i>
   <i name="EDIFFG">      0.00010000</i>
   <i type="int" name="NFREE">     0</i>
   <i name="POTIM">      0.50000000</i>
   <i name="SMASS">     -3.00000000</i>
   <i name="SCALEE">      1.00000000</i>
  </separator>
  <separator name="ionic md" >
   <i name="TEBEG">      0.00010000</i>
   <i name="TEEND">      0.00010000</i>
   <i type="int" name="NBLOCK">     1</i>
   <i type="int" name="KBLOCK">     1</i>
   <i type="int" name="NPACO">   256</i>
   <i name="APACO">     16.00000000</i>
  </separator>
  <separator name="symmetry" >
   <i type="int" name="ISYM">     2</i>
   <i name="SYMPREC">      0.00001000</i>
  </separator>
  <separator name="dos" >
   <i type="int" name="LORBIT">     0</i>
   <v name="RWIGS">     -1.00000000     -1.00000000</v>
   <i type="int" name="NEDOS">   301</i>
   <i name="EMIN">     10.00000000</i>
   <i name="EMAX">    -10.00000000</i>
   <i name="EFERMI">      0.00000000</i>
  </separator>
  <separator name="writing" >
   <i type="int" name="NWRITE">     2</i>
   <i type="logical" name="LWAVE"> F  </i>
   <i type="logical" name="LDOWNSAMPLE"> F  </i>
   <i type="logical" name="LCHARG"> T  </i>
   <i type="logical" name="LPARD"> F  </i>
   <i type="logical" name="LVTOT"> F  </i>
   <i type="logical" name="LVHAR"> F  </i>
   <i type="logical" name="LELF"> F  </i>
   <i type="logical" name="LOPTICS"> F  </i>
   <v name="STM">      0.00000000      0.00000000      0.00000000      0.00000000      0.00000000      0.00000000      0.00000000</v>
  </separator>
  <separator name="performance" >
   <i type="int" name="NPAR">     2</i>
   <i type="int" name="NSIM">     4</i>
   <i type="int" name="NBLK">    -1</i>
   <i type="logical" name="LPLANE"> T  </i>
   <i type="logical" name="LSCALAPACK"> T  </i>
   <i type="logical" name="LSCAAWARE"> F  </i>
   <i type="logical" name="LSCALU"> F  </i>
   <i type="logical" name="LASYNC"> F  </i>
   <i type="logical" name="LORBITALREAL"> F  </i>
  </separator>
  <separator name="miscellaneous" >
   <i type="int" name="IDIOT">     3</i>
   <i type="int" name="ISPECIAL">     0</i>
   <i type="logical" name="LMUSIC"> F  </i>
   <v name="POMASS">     95.94000000     32.06600000</v>
   <v name="DARWINR">      0.00000000      0.00000000</v>
   <v name="DARWINV">      1.00000000      1.00000000</v>
   <i type="logical" name="LCORR"> T  </i>
  </separator>
  <i type="logical" name="GGA_COMPAT"> T  </i>
  <i type="logical" name="LBERRY"> F  </i>
  <i type="int" name="ICORELEVEL">     0</i>
  <i type="logical" name="LDAU"> F  </i>
  <i type="int" name="I_CONSTRAINED_M">     0</i>
  <separator name="electronic exchange-correlation" >
   <i type="string" name="GGA">--</i>
   <i type="int" name="VOSKOWN">     0</i>
   <i type="logical" name="LHFCALC"> F  </i>
   <i type="string" name="PRECFOCK"></i>
   <i type="logical" name="LSYMGRAD"> F  </i>
   <i type="logical" name="LHFONE"> F  </i>
   <i type="logical" name="LRHFCALC"> F  </i>
   <i type="logical" name="LTHOMAS"> F  </i>
   <i type="logical" name="LMODELHF"> F  </i>
   <i name="ENCUT4O">     -1.00000000</i>
   <i type="int" name="EXXOEP">     0</i>
   <i type="int" name="FOURORBIT">     0</i>
   <i name="AEXX">      0.00000000</i>
   <i name="HFALPHA">      0.00000000</i>
   <i name="MCALPHA">      0.00000000</i>
   <i name="ALDAX">      1.00000000</i>
   <i name="AGGAX">      1.00000000</i>
   <i name="ALDAC">      1.00000000</i>
   <i name="AGGAC">      1.00000000</i>
   <i type="int" name="NKREDX">     1</i>
   <i type="int" name="NKREDY">     1</i>
   <i type="int" name="NKREDZ">     1</i>
   <i type="logical" name="SHIFTRED"> F  </i>
   <i type="logical" name="ODDONLY"> F  </i>
   <i type="logical" name="EVENONLY"> F  </i>
   <i type="int" name="LMAXFOCK">     0</i>
   <i type="int" name="NMAXFOCKAE">     0</i>
   <i type="logical" name="LFOCKAEDFT"> F  </i>
   <i name="HFSCREEN">      0.00000000</i>
   <i name="HFSCREENC">      0.00000000</i>
   <i type="int" name="NBANDSGWLOW">     0</i>
  </separator>
  <separator name="vdW DFT" >
   <i type="logical" name="LUSE_VDW"> F  </i>
   <i name="Zab_VDW">     -0.84910000</i>
   <i name="PARAM1">      0.12340000</i>
   <i name="PARAM2">      1.00000000</i>
   <i name="PARAM3">      0.00000000</i>
  </separator>
  <separator name="model GW" >
   <i type="int" name="MODEL_GW">     0</i>
   <i name="MODEL_EPS0">     54.43663177</i>
   <i name="MODEL_ALPHA">      1.00000000</i>
  </separator>
  <separator name="linear response parameters" >
   <i type="logical" name="LEPSILON"> F  </i>
   <i type="logical" name="LRPA"> F  </i>
   <i type="logical" name="LNABLA"> F  </i>
   <i type="logical" name="LVEL"> F  </i>
   <i type="int" name="KINTER">     0</i>
   <i name="CSHIFT">      0.10000000</i>
   <i name="OMEGAMAX">     -1.00000000</i>
   <i name="DEG_THRESHOLD">      0.00200000</i>
   <i name="RTIME">     -0.10000000</i>
   <i name="WPLASMAI">      0.00000000</i>
   <v name="DFIELD">      0.00000000      0.00000000      0.00000000</v>
   <v name="WPLASMA">      0.00000000      0.00000000      0.00000000      0.00000000      0.00000000      0.00000000      0.00000000      0.00000000      0.00000000</v>
  </separator>
  <separator name="orbital magnetization" >
   <i type="logical" name="NUCIND"> F  </i>
   <v name="MAGPOS">      0.00000000      0.00000000      0.00000000</v>
   <i type="logical" name="LNICSALL"> T  </i>
   <i type="logical" name="ORBITALMAG"> F  </i>
   <i type="logical" name="LMAGBLOCH"> F  </i>
   <i type="logical" name="LCHIMAG"> F  </i>
   <i type="logical" name="LGAUGE"> T  </i>
   <i type="int" name="MAGATOM">     0</i>
   <v name="MAGDIPOL">      0.00000000      0.00000000      0.00000000</v>
   <v name="AVECCONST">      0.00000000      0.00000000      0.00000000</v>
  </separator>
  <separator name="response functions" >
   <i type="logical" name="LADDER"> F  </i>
   <i type="logical" name="LRPAFORCE"> F  </i>
   <i type="logical" name="LFXC"> F  </i>
   <i type="logical" name="LHARTREE"> T  </i>
   <i type="int" name="IBSE">     0</i>
   <v type="int" name="KPOINT">    -1     0     0     0</v>
   <i type="logical" name="LTCTE"> F  </i>
   <i type="logical" name="LTETE"> F  </i>
   <i type="logical" name="LTRIPLET"> F  </i>
   <i type="logical" name="LFXCEPS"> F  </i>
   <i type="logical" name="LFXHEG"> F  </i>
   <i type="int" name="NATURALO">     2</i>
   <i type="logical" name="L2ORDER"> F  </i>
   <i type="logical" name="LMP2LT"> F  </i>
   <i type="logical" name="LUSEW"> F  </i>
   <i name="ENCUTGW">     -2.00000000</i>
   <i name="ENCUTGWSOFT">     -2.00000000</i>
   <i name="ENCUTLF">     -1.00000000</i>
   <i type="int" name="LMAXMP2">    -1</i>
   <i name="SCISSOR">      0.00000000</i>
   <i type="int" name="NOMEGA">     0</i>
   <i type="int" name="NOMEGAR">     0</i>
   <i type="int" name="NBANDSGW">    -1</i>
   <i type="int" name="NBANDSO">    -1</i>
   <i type="int" name="NBANDSV">    -1</i>
   <i type="int" name="NELM">     1</i>
   <i type="int" name="NELMHF">     1</i>
   <i type="int" name="DIM">     3</i>
   <i type="int" name="ANTIRES">     0</i>
   <i name="OMEGAMAX">    -30.00000000</i>
   <i name="OMEGAMIN">    -30.00000000</i>
   <i name="OMEGATL">   -200.00000000</i>
   <i type="int" name="OMEGAGRID">   140</i>
   <i name="CSHIFT">     -0.10000000</i>
   <i type="logical" name="SELFENERGY"> F  </i>
   <i type="logical" name="LSPECTRAL"> F  </i>
   <i type="logical" name="LSPECTRALGW"> F  </i>
   <i type="logical" name="LSINGLES"> F  </i>
   <i type="logical" name="LFERMIGW"> F  </i>
   <i type="logical" name="ODDONLYGW"> F  </i>
   <i type="logical" name="EVENONLYGW"> F  </i>
   <i type="int" name="NKREDLFX">     1</i>
   <i type="int" name="NKREDLFY">     1</i>
   <i type="int" name="NKREDLFZ">     1</i>
   <i type="int" name="MAXMEM">  2800</i>
   <i type="int" name="TELESCOPE">     0</i>
   <i type="int" name="TAUPAR">     1</i>
   <i type="int" name="OMEGAPAR">    -1</i>
   <i name="LAMBDA">      1.00000000</i>
  </separator>
  <separator name="External order field" >
   <i name="OFIELD_KAPPA">      0.00000000</i>
   <v name="OFIELD_K">      0.00000000      0.00000000      0.00000000</v>
   <i name="OFIELD_Q6_NEAR">      0.00000000</i>
   <i name="OFIELD_Q6_FAR">      0.00000000</i>
   <i name="OFIELD_A">      0.00000000</i>
  </separator>
 </parameters>
 <atominfo>
  <atoms>       3 </atoms>
  <types>       2 </types>
  <array name="atoms" >
   <dimension dim="1">ion</dimension>
   <field type="string">element</field>
   <field type="int">atomtype</field>
   <set>
    <rc><c>Mo</c><c>   1</c></rc>
    <rc><c>S </c><c>   2</c></rc>
    <rc><c>S </c><c>   2</c></rc>
   </set>
  </array>
  <array name="atomtypes" >
   <dimension dim="1">type</dimension>
   <field type="int">atomspertype</field>
   <field type="string">element</field>
   <field>mass</field>
   <field>valence</field>
   <field type="string">pseudopotential</field>
   <set>
    <rc><c>   1</c><c>Mo</c><c>     95.94000000</c><c>      6.00000000</c><c> PAW_PBE Mo 08Apr2002                   </c></rc>
    <rc><c>   2</c><c>S </c><c>     32.06600000</c><c>      6.00000000</c><c>  PAW_PBE S 17Jan2003                   </c></rc>
   </set>
  </array>
 </atominfo>
 <structure name="initialpos" >
  <crystal>
   <varray name="basis" >
    <v>       3.19031573       0.00000000       0.00000000 </v>
    <v>      -1.59515786       2.76289447       0.00000000 </v>
    <v>       0.00000000       0.00000000      30.87900430 </v>
   </varray>
   <i name="volume">    272.18315887 </i>
   <varray name="rec_basis" >
    <v>       0.31344860       0.18096963       0.00000000 </v>
    <v>       0.00000000       0.36193927       0.00000000 </v>
    <v>       0.00000000       0.00000000       0.03238446 </v>
   </varray>
  </crystal>
  <varray name="positions" >
   <v>       0.33333300       0.66666700       0.12046214 </v>
   <v>       0.66666700       0.33333300       0.06978420 </v>
   <v>       0.66666600       0.33333300       0.17114009 </v>
  </varray>
 </structure>
 <calculation>
  <scstep>
   <time name="dav">    0.68    0.68</time>
   <time name="total">    0.74    0.79</time>
   <energy>
    <i name="alphaZ">     10.89288288 </i>
    <i name="ewald">   5368.65661653 </i>
    <i name="hartreedc">  -6042.21104469 </i>
    <i name="XCdc">    -36.31053806 </i>
    <i name="pawpsdc">    406.88651198 </i>
    <i name="pawaedc">   -329.34073203 </i>
    <i name="eentropy">      0.00000000 </i>
    <i name="bandstr">    -10.95052885 </i>
    <i name="atom">    771.15511399 </i>
    <i name="e_fr_energy">    138.77828175 </i>
    <i name="e_wo_entrp">    138.77828175 </i>
    <i name="e_0_energy">    138.77828175 </i>
   </energy>
  </scstep>
  <scstep>
   <time name="dav">    1.04    1.05</time>
   <time name="total">    1.05    1.05</time>
   <energy>
    <i name="e_fr_energy">     -5.44662635 </i>
    <i name="e_wo_entrp">     -5.44662635 </i>
    <i name="e_0_energy">     -5.44662635 </i>
   </energy>
  </scstep>
  <scstep>
   <time name="dav">    0.88    0.88</time>
   <time name="total">    0.88    0.88</time>
   <energy>
    <i name="e_fr_energy">    -23.03116749 </i>
    <i name="e_wo_entrp">    -23.03116749 </i>
    <i name="e_0_energy">    -23.03116749 </i>
   </energy>
  </scstep>
  <scstep>
   <time name="dav">    0.78    0.78</time>
   <time name="total">    0.78    0.78</time>
   <energy>
    <i name="e_fr_energy">    -23.39747286 </i>
    <i name="e_wo_entrp">    -23.39747286 </i>
    <i name="e_0_energy">    -23.39747286 </i>
   </energy>
  </scstep>
  <scstep>
   <time name="dav">    0.84    0.84</time>
   <time name="total">    0.89    0.90</time>
   <energy>
    <i name="e_fr_energy">    -23.40756760 </i>
    <i name="e_wo_entrp">    -23.40756760 </i>
    <i name="e_0_energy">    -23.40756760 </i>
   </energy>
  </scstep>
  <scstep>
   <time name="diag">    0.13    0.13</time>
   <time name="diis">    0.58    0.58</time>
   <time name="orth">    0.01    0.01</time>
   <time name="total">    0.84    0.84</time>
   <energy>
    <i name="e_fr_energy">    -22.24647059 </i>
    <i name="e_wo_entrp">    -22.24647059 </i>
    <i name="e_0_energy">    -22.24647059 </i>
   </energy>
  </scstep>
  <scstep>
   <time name="diag">    0.13    0.13</time>
   <time name="diis">    0.57    0.57</time>
   <time name="orth">    0.01    0.01</time>
   <time name="total">    0.83    0.83</time>
   <energy>
    <i name="e_fr_energy">    -21.86236196 </i>
    <i name="e_wo_entrp">    -21.86236196 </i>
    <i name="e_0_energy">    -21.86236196 </i>
   </energy>
  </scstep>
  <scstep>
   <time name="diag">    0.13    0.13</time>
   <time name="diis">    0.61    0.61</time>
   <time name="orth">    0.01    0.01</time>
   <time name="total">    0.86    0.86</time>
   <energy>
    <i name="e_fr_energy">    -21.80205107 </i>
    <i name="e_wo_entrp">    -21.80205107 </i>
    <i name="e_0_energy">    -21.80205107 </i>
   </energy>
  </scstep>
  <scstep>
   <time name="diag">    0.13    0.13</time>
   <time name="diis">    0.67    0.67</time>
   <time name="orth">    0.01    0.01</time>
   <time name="total">    0.92    0.92</time>
   <energy>
    <i name="e_fr_energy">    -21.79717383 </i>
    <i name="e_wo_entrp">    -21.79717383 </i>
    <i name="e_0_energy">    -21.79717383 </i>
   </energy>
  </scstep>
  <scstep>
   <time name="diag">    0.13    0.13</time>
   <time name="diis">    0.66    0.66</time>
   <time name="orth">    0.01    0.01</time>
   <time name="total">    0.91    0.91</time>
   <energy>
    <i name="e_fr_energy">    -21.79642031 </i>
    <i name="e_wo_entrp">    -21.79642031 </i>
    <i name="e_0_energy">    -21.79642031 </i>
   </energy>
  </scstep>
  <scstep>
   <time name="diag">    0.13    0.13</time>
   <time name="diis">    0.63    0.63</time>
   <time name="orth">    0.01    0.01</time>
   <time name="total">    0.88    0.88</time>
   <energy>
    <i name="e_fr_energy">    -21.79635421 </i>
    <i name="e_wo_entrp">    -21.79635421 </i>
    <i name="e_0_energy">    -21.79635421 </i>
   </energy>
  </scstep>
  <scstep>
   <time name="diag">    0.13    0.13</time>
   <time name="diis">    0.61    0.61</time>
   <time name="orth">    0.01    0.01</time>
   <time name="total">    0.87    0.87</time>
   <energy>
    <i name="e_fr_energy">    -21.79618913 </i>
    <i name="e_wo_entrp">    -21.79618913 </i>
    <i name="e_0_energy">    -21.79618913 </i>
   </energy>
  </scstep>
  <scstep>
   <time name="diag">    0.13    0.13</time>
   <time name="diis">    0.55    0.55</time>
   <time name="orth">    0.01    0.01</time>
   <time name="total">    0.81    0.81</time>
   <energy>
    <i name="e_fr_energy">    -21.79652927 </i>
    <i name="e_wo_entrp">    -21.79652927 </i>
    <i name="e_0_energy">    -21.79652927 </i>
   </energy>
  </scstep>
  <scstep>
   <time name="diag">    0.13    0.13</time>
   <time name="diis">    0.54    0.54</time>
   <time name="orth">    0.01    0.01</time>
   <time name="total">    0.79    0.79</time>
   <energy>
    <i name="e_fr_energy">    -21.79658621 </i>
    <i name="e_wo_entrp">    -21.79658621 </i>
    <i name="e_0_energy">    -21.79658621 </i>
   </energy>
  </scstep>
  <scstep>
   <time name="diag">    0.13    0.13</time>
   <time name="diis">    0.43    0.43</time>
   <time name="orth">    0.01    0.01</time>
   <time name="total">    0.68    0.69</time>
   <energy>
    <i name="e_fr_energy">    -21.79671192 </i>
    <i name="e_wo_entrp">    -21.79671192 </i>
    <i name="e_0_energy">    -21.79671192 </i>
   </energy>
  </scstep>
  <scstep>
   <time name="diag">    0.13    0.13</time>
   <time name="diis">    0.41    0.41</time>
   <time name="orth">    0.01    0.01</time>
   <time name="total">    0.67    0.67</time>
   <energy>
    <i name="e_fr_energy">    -21.79675278 </i>
    <i name="e_wo_entrp">    -21.79675278 </i>
    <i name="e_0_energy">    -21.79675278 </i>
   </energy>
  </scstep>
  <scstep>
   <time name="diag">    0.13    0.13</time>
   <time name="diis">    0.39    0.39</time>
   <time name="orth">    0.01    0.01</time>
   <time name="total">    0.64    0.65</time>
   <energy>
    <i name="e_fr_energy">    -21.79678450 </i>
    <i name="e_wo_entrp">    -21.79678450 </i>
    <i name="e_0_energy">    -21.79678450 </i>
   </energy>
  </scstep>
  <scstep>
   <time name="diag">    0.13    0.13</time>
   <time name="diis">    0.33    0.33</time>
   <time name="orth">    0.01    0.01</time>
   <time name="total">    0.53    0.53</time>
   <energy>
    <i name="alphaZ">     10.89288288 </i>
    <i name="ewald">   5368.65661653 </i>
    <i name="hartreedc">  -6055.62750347 </i>
    <i name="XCdc">    -35.20093323 </i>
    <i name="pawpsdc">    472.18470203 </i>
    <i name="pawaedc">   -396.37549274 </i>
    <i name="eentropy">      0.00000000 </i>
    <i name="bandstr">   -157.48217491 </i>
    <i name="atom">    771.15511399 </i>
    <i name="e_fr_energy">    -21.79678891 </i>
    <i name="e_wo_entrp">    -21.79678891 </i>
    <i name="e_0_energy">    -21.79678891 </i>
   </energy>
  </scstep>
  <structure>
   <crystal>
    <varray name="basis" >
     <v>       3.19031573       0.00000000       0.00000000 </v>
     <v>      -1.59515786       2.76289447       0.00000000 </v>
     <v>       0.00000000       0.00000000      30.87900430 </v>
    </varray>
    <i name="volume">    272.18315887 </i>
    <varray name="rec_basis" >
     <v>       0.31344860       0.18096963       0.00000000 </v>
     <v>       0.00000000       0.36193927       0.00000000 </v>
     <v>       0.00000000       0.00000000       0.03238446 </v>
    </varray>
   </crystal>
   <varray name="positions" >
    <v>       0.33333300       0.66666700       0.12046214 </v>
    <v>       0.66666700       0.33333300       0.06978420 </v>
    <v>       0.66666600       0.33333300       0.17114009 </v>
   </varray>
  </structure>
  <varray name="forces" >
   <v>      -0.00000000       0.00000000      -0.00000000 </v>
   <v>       0.00000000      -0.00000000       0.11612399 </v>
   <v>       0.00000000       0.00000000      -0.11612399 </v>
  </varray>
  <varray name="stress" >
   <v>      -0.83954207       0.00000000      -0.00000000 </v>
   <v>       0.00000000      -0.83954207       0.00000000 </v>
   <v>       0.00000000       0.00000000      -2.25285955 </v>
  </varray>
  <energy>
   <i name="e_fr_energy">    -22.38758713 </i>
   <i name="e_wo_entrp">    -22.38758713 </i>
   <i name="e_0_energy">      0.00000000 </i>
  </energy>
  <time name="totalsc">   15.81   15.96</time>
  <eigenvalues>
   <array>
    <dimension dim="1">band</dimension>
    <dimension dim="2">kpoint</dimension>
    <dimension dim="3">spin</dimension>
    <field>eigene</field>
    <field>occ</field>
    <set>
     <set comment="spin 1">
      <set comment="kpoint 1">
       <r>  -17.7883    1.0000 </r>
       <r>  -16.5803    1.0000 </r>
       <r>   -9.3088    1.0000 </r>
       <r>   -6.3479    1.0000 </r>
       <r>   -6.3479    1.0000 </r>
       <r>   -5.4867    1.0000 </r>
       <r>   -5.2423    1.0000 </r>
       <r>   -5.2422    1.0000 </r>
       <r>   -3.7664    1.0000 </r>
       <r>   -0.9948    0.0000 </r>
       <r>   -0.9948    0.0000 </r>
       <r>   -0.7711    0.0000 </r>
       <r>   -0.7711    0.0000 </r>
       <r>    1.6640    0.0000 </r>
      </set>
      <set comment="kpoint 2">
       <r>  -17.7171    1.0000 </r>
       <r>  -16.5462    1.0000 </r>
       <r>   -9.2243    1.0000 </r>
       <r>   -6.5145    1.0000 </r>
       <r>   -6.2693    1.0000 </r>
       <r>   -5.8906    1.0000 </r>
       <r>   -5.3628    1.0000 </r>
       <r>   -4.9502    1.0000 </r>
       <r>   -3.8035    1.0000 </r>
       <r>   -1.1049    0.0000 </r>
       <r>   -0.9803    0.0000 </r>
       <r>   -0.8661    0.0000 </r>
       <r>   -0.8558    0.0000 </r>
       <r>    1.8037    0.0000 </r>
      </set>
      <set comment="kpoint 3">
       <r>  -17.5110    1.0000 </r>
       <r>  -16.4478    1.0000 </r>
       <r>   -8.9986    1.0000 </r>
       <r>   -6.9278    1.0000 </r>
       <r>   -6.4330    1.0000 </r>
       <r>   -6.0455    1.0000 </r>
       <r>   -5.6639    1.0000 </r>
       <r>   -4.7995    1.0000 </r>
       <r>   -3.9597    1.0000 </r>
       <r>   -1.3661    0.0000 </r>
       <r>   -1.2176    0.0000 </r>
       <r>   -1.0678    0.0000 </r>
       <r>   -0.5515    0.0000 </r>
       <r>    2.1298    0.0000 </r>
      </set>
      <set comment="kpoint 4">
       <r>  -17.1935    1.0000 </r>
       <r>  -16.2974    1.0000 </r>
       <r>   -8.7479    1.0000 </r>
       <r>   -7.3825    1.0000 </r>
       <r>   -6.9947    1.0000 </r>
       <r>   -6.0324    1.0000 </r>
       <r>   -5.7136    1.0000 </r>
       <r>   -4.9323    1.0000 </r>
       <r>   -4.2853    1.0000 </r>
       <r>   -1.5873    0.0000 </r>
       <r>   -1.3146    0.0000 </r>
       <r>   -1.0577    0.0000 </r>
       <r>   -0.1883    0.0000 </r>
       <r>    2.5823    0.0000 </r>
      </set>
      <set comment="kpoint 5">
       <r>  -16.8071    1.0000 </r>
       <r>  -16.1169    1.0000 </r>
       <r>   -8.7486    1.0000 </r>
       <r>   -7.6104    1.0000 </r>
       <r>   -7.5492    1.0000 </r>
       <r>   -6.3806    1.0000 </r>
       <r>   -5.3383    1.0000 </r>
       <r>   -5.1963    1.0000 </r>
       <r>   -4.6257    1.0000 </r>
       <r>   -1.5578    0.0000 </r>
       <r>   -1.5082    0.0000 </r>
       <r>   -0.6700    0.0000 </r>
       <r>    0.1206    0.0000 </r>
       <r>    3.1299    0.0000 </r>
      </set>
      <set comment="kpoint 6">
       <r>  -16.4178    1.0000 </r>
       <r>  -15.9397    1.0000 </r>
       <r>   -9.0509    1.0000 </r>
       <r>   -8.0398    1.0000 </r>
       <r>   -7.6527    1.0000 </r>
       <r>   -6.6564    1.0000 </r>
       <r>   -5.4264    1.0000 </r>
       <r>   -5.0037    1.0000 </r>
       <r>   -4.7003    1.0000 </r>
       <r>   -1.5979    0.0000 </r>
       <r>   -1.3792    0.0000 </r>
       <r>   -0.2509    0.0000 </r>
       <r>    0.3328    0.0000 </r>
       <r>    3.5135    0.0000 </r>
      </set>
      <set comment="kpoint 7">
       <r>  -16.1172    1.0000 </r>
       <r>  -15.8069    1.0000 </r>
       <r>   -9.3495    1.0000 </r>
       <r>   -8.3836    1.0000 </r>
       <r>   -7.7429    1.0000 </r>
       <r>   -6.8312    1.0000 </r>
       <r>   -5.5644    1.0000 </r>
       <r>   -4.7833    1.0000 </r>
       <r>   -4.5127    1.0000 </r>
       <r>   -1.5976    0.0000 </r>
       <r>   -1.1694    0.0000 </r>
       <r>    0.0394    0.0000 </r>
       <r>    0.4494    0.0000 </r>
       <r>    2.7896    0.0000 </r>
      </set>
      <set comment="kpoint 8">
       <r>  -16.0020    1.0000 </r>
       <r>  -15.7572    1.0000 </r>
       <r>   -9.4680    1.0000 </r>
       <r>   -8.5078    1.0000 </r>
       <r>   -7.7970    1.0000 </r>
       <r>   -6.8909    1.0000 </r>
       <r>   -5.6089    1.0000 </r>
       <r>   -4.7088    1.0000 </r>
       <r>   -4.3870    1.0000 </r>
       <r>   -1.5817    0.0000 </r>
       <r>   -1.0658    0.0000 </r>
       <r>    0.1367    0.0000 </r>
       <r>    0.4857    0.0000 </r>
       <r>    2.4159    0.0000 </r>
      </set>
      <set comment="kpoint 9">
       <r>  -17.5784    1.0000 </r>
       <r>  -16.4799    1.0000 </r>
       <r>   -9.0679    1.0000 </r>
       <r>   -6.8007    1.0000 </r>
       <r>   -6.2611    1.0000 </r>
       <r>   -6.1220    1.0000 </r>
       <r>   -5.6353    1.0000 </r>
       <r>   -4.7625    1.0000 </r>
       <r>   -3.9002    1.0000 </r>
       <r>   -1.2646    0.0000 </r>
       <r>   -1.2433    0.0000 </r>
       <r>   -1.0133    0.0000 </r>
       <r>   -0.6206    0.0000 </r>
       <r>    2.0311    0.0000 </r>
      </set>
      <set comment="kpoint 10">
       <r>  -17.3162    1.0000 </r>
       <r>  -16.3551    1.0000 </r>
       <r>   -8.8177    1.0000 </r>
       <r>   -7.2248    1.0000 </r>
       <r>   -6.7269    1.0000 </r>
       <r>   -6.0721    1.0000 </r>
       <r>   -5.8639    1.0000 </r>
       <r>   -4.7212    1.0000 </r>
       <r>   -4.1470    1.0000 </r>
       <r>   -1.5633    0.0000 </r>
       <r>   -1.2635    0.0000 </r>
       <r>   -1.2325    0.0000 </r>
       <r>   -0.2456    0.0000 </r>
       <r>    2.4310    0.0000 </r>
      </set>
      <set comment="kpoint 11">
       <r>  -16.9629    1.0000 </r>
       <r>  -16.1883    1.0000 </r>
       <r>   -8.6700    1.0000 </r>
       <r>   -7.5441    1.0000 </r>
       <r>   -7.2651    1.0000 </r>
       <r>   -6.4539    1.0000 </r>
       <r>   -5.5753    1.0000 </r>
       <r>   -4.9126    1.0000 </r>
       <r>   -4.4831    1.0000 </r>
       <r>   -1.7014    0.0000 </r>
       <r>   -1.3733    0.0000 </r>
       <r>   -1.0106    0.0000 </r>
       <r>    0.1068    0.0000 </r>
       <r>    2.9340    0.0000 </r>
      </set>
      <set comment="kpoint 12">
       <r>  -16.5718    1.0000 </r>
       <r>  -16.0068    1.0000 </r>
       <r>   -8.8533    1.0000 </r>
       <r>   -7.8207    1.0000 </r>
       <r>   -7.6003    1.0000 </r>
       <r>   -6.7006    1.0000 </r>
       <r>   -5.3783    1.0000 </r>
       <r>   -5.1984    1.0000 </r>
       <r>   -4.6187    1.0000 </r>
       <r>   -1.6842    0.0000 </r>
       <r>   -1.3715    0.0000 </r>
       <r>   -0.6013    0.0000 </r>
       <r>    0.3488    0.0000 </r>
       <r>    3.4974    0.0000 </r>
      </set>
      <set comment="kpoint 13">
       <r>  -16.2211    1.0000 </r>
       <r>  -15.8481    1.0000 </r>
       <r>   -9.1622    1.0000 </r>
       <r>   -8.2753    1.0000 </r>
       <r>   -7.6591    1.0000 </r>
       <r>   -6.8369    1.0000 </r>
       <r>   -5.4439    1.0000 </r>
       <r>   -5.2386    1.0000 </r>
       <r>   -4.4622    1.0000 </r>
       <r>   -1.5970    0.0000 </r>
       <r>   -1.2461    0.0000 </r>
       <r>   -0.1957    0.0000 </r>
       <r>    0.4357    0.0000 </r>
       <r>    3.2611    0.0000 </r>
      </set>
      <set comment="kpoint 14">
       <r>  -16.0078    1.0000 </r>
       <r>  -15.7539    1.0000 </r>
       <r>   -9.3662    1.0000 </r>
       <r>   -8.5302    1.0000 </r>
       <r>   -7.7559    1.0000 </r>
       <r>   -6.8954    1.0000 </r>
       <r>   -5.5804    1.0000 </r>
       <r>   -5.1249    1.0000 </r>
       <r>   -4.2661    1.0000 </r>
       <r>   -1.5623    0.0000 </r>
       <r>   -1.0675    0.0000 </r>
       <r>    0.1171    0.0000 </r>
       <r>    0.3654    0.0000 </r>
       <r>    2.6025    0.0000 </r>
      </set>
      <set comment="kpoint 15">
       <r>  -17.0173    1.0000 </r>
       <r>  -16.2130    1.0000 </r>
       <r>   -8.6430    1.0000 </r>
       <r>   -7.4981    1.0000 </r>
       <r>   -7.0503    1.0000 </r>
       <r>   -6.6550    1.0000 </r>
       <r>   -5.6959    1.0000 </r>
       <r>   -4.7073    1.0000 </r>
       <r>   -4.4184    1.0000 </r>
       <r>   -1.7665    0.0000 </r>
       <r>   -1.3273    0.0000 </r>
       <r>   -1.2262    0.0000 </r>
       <r>    0.1423    0.0000 </r>
       <r>    2.9073    0.0000 </r>
      </set>
      <set comment="kpoint 16">
       <r>  -16.6557    1.0000 </r>
       <r>  -16.0420    1.0000 </r>
       <r>   -8.6934    1.0000 </r>
       <r>   -7.6064    1.0000 </r>
       <r>   -7.5357    1.0000 </r>
       <r>   -6.9231    1.0000 </r>
       <r>   -5.7191    1.0000 </r>
       <r>   -4.9032    1.0000 </r>
       <r>   -4.5607    1.0000 </r>
       <r>   -1.8091    0.0000 </r>
       <r>   -1.3093    0.0000 </r>
       <r>   -0.9790    0.0000 </r>
       <r>    0.4340    0.0000 </r>
       <r>    3.4464    0.0000 </r>
      </set>
      <set comment="kpoint 17">
       <r>  -16.2952    1.0000 </r>
       <r>  -15.8732    1.0000 </r>
       <r>   -8.9163    1.0000 </r>
       <r>   -8.1810    1.0000 </r>
       <r>   -7.5109    1.0000 </r>
       <r>   -6.9634    1.0000 </r>
       <r>   -5.8430    1.0000 </r>
       <r>   -5.2134    1.0000 </r>
       <r>   -4.4572    1.0000 </r>
       <r>   -1.6373    0.0000 </r>
       <r>   -1.2548    0.0000 </r>
       <r>   -0.6246    0.0000 </r>
       <r>    0.5691    0.0000 </r>
       <r>    3.7762    0.0000 </r>
      </set>
      <set comment="kpoint 18">
       <r>  -16.0206    1.0000 </r>
       <r>  -15.7463    1.0000 </r>
       <r>   -9.1081    1.0000 </r>
       <r>   -8.5768    1.0000 </r>
       <r>   -7.6286    1.0000 </r>
       <r>   -6.9218    1.0000 </r>
       <r>   -5.8474    1.0000 </r>
       <r>   -5.4926    1.0000 </r>
       <r>   -4.2347    1.0000 </r>
       <r>   -1.5702    0.0000 </r>
       <r>   -1.0433    0.0000 </r>
       <r>   -0.3078    0.0000 </r>
       <r>    0.5585    0.0000 </r>
       <r>    3.0806    0.0000 </r>
      </set>
      <set comment="kpoint 19">
       <r>  -15.9164    1.0000 </r>
       <r>  -15.6987    1.0000 </r>
       <r>   -9.1800    1.0000 </r>
       <r>   -8.7174    1.0000 </r>
       <r>   -7.7081    1.0000 </r>
       <r>   -6.8893    1.0000 </r>
       <r>   -5.8274    1.0000 </r>
       <r>   -5.6087    1.0000 </r>
       <r>   -4.1057    1.0000 </r>
       <r>   -1.6176    0.0000 </r>
       <r>   -0.8708    0.0000 </r>
       <r>   -0.1666    0.0000 </r>
       <r>    0.5149    0.0000 </r>
       <r>    2.7234    0.0000 </r>
      </set>
      <set comment="kpoint 20">
       <r>  -16.3220    1.0000 </r>
       <r>  -15.8816    1.0000 </r>
       <r>   -8.7972    1.0000 </r>
       <r>   -8.1346    1.0000 </r>
       <r>   -7.4022    1.0000 </r>
       <r>   -7.0427    1.0000 </r>
       <r>   -6.1478    1.0000 </r>
       <r>   -5.0913    1.0000 </r>
       <r>   -4.4705    1.0000 </r>
       <r>   -1.6671    0.0000 </r>
       <r>   -1.2449    0.0000 </r>
       <r>   -0.8272    0.0000 </r>
       <r>    0.6435    0.0000 </r>
       <r>    3.9532    0.0000 </r>
      </set>
      <set comment="kpoint 21">
       <r>  -16.0307    1.0000 </r>
       <r>  -15.7402    1.0000 </r>
       <r>   -8.8603    1.0000 </r>
       <r>   -8.6110    1.0000 </r>
       <r>   -7.4098    1.0000 </r>
       <r>   -6.9557    1.0000 </r>
       <r>   -6.5091    1.0000 </r>
       <r>   -5.4003    1.0000 </r>
       <r>   -4.2573    1.0000 </r>
       <r>   -1.6072    0.0000 </r>
       <r>   -1.0084    0.0000 </r>
       <r>   -0.6438    0.0000 </r>
       <r>    0.7552    0.0000 </r>
       <r>    3.6435    0.0000 </r>
      </set>
      <set comment="kpoint 22">
       <r>  -15.8582    1.0000 </r>
       <r>  -15.6559    1.0000 </r>
       <r>   -8.8789    1.0000 </r>
       <r>   -8.8534    1.0000 </r>
       <r>   -7.5997    1.0000 </r>
       <r>   -6.8251    1.0000 </r>
       <r>   -6.6075    1.0000 </r>
       <r>   -5.6577    1.0000 </r>
       <r>   -4.0175    1.0000 </r>
       <r>   -1.7810    0.0000 </r>
       <r>   -0.6513    0.0000 </r>
       <r>   -0.5338    0.0000 </r>
       <r>    0.8044    0.0000 </r>
       <r>    3.1052    0.0000 </r>
      </set>
      <set comment="kpoint 23">
       <r>  -15.8385    1.0000 </r>
       <r>  -15.6396    1.0000 </r>
       <r>   -8.9420    1.0000 </r>
       <r>   -8.6513    1.0000 </r>
       <r>   -7.4270    1.0000 </r>
       <r>   -7.1063    1.0000 </r>
       <r>   -6.7890    1.0000 </r>
       <r>   -5.6820    1.0000 </r>
       <r>   -3.9836    1.0000 </r>
       <r>   -1.8657    0.0000 </r>
       <r>   -0.6796    0.0000 </r>
       <r>   -0.5637    0.0000 </r>
       <r>    0.9331    0.0000 </r>
       <r>    3.4710    0.0000 </r>
      </set>
      <set comment="kpoint 24">
       <r>  -15.7680    1.0000 </r>
       <r>  -15.6017    1.0000 </r>
       <r>   -9.0638    1.0000 </r>
       <r>   -8.4516    1.0000 </r>
       <r>   -7.6746    1.0000 </r>
       <r>   -7.2130    1.0000 </r>
       <r>   -6.6679    1.0000 </r>
       <r>   -5.8451    1.0000 </r>
       <r>   -3.8189    1.0000 </r>
       <r>   -2.0453    0.0000 </r>
       <r>   -0.6999    0.0000 </r>
       <r>   -0.3422    0.0000 </r>
       <r>    1.0110    0.0000 </r>
       <r>    3.3513    0.0000 </r>
      </set>
     </set>
    </set>
   </array>
  </eigenvalues>
  <separator name="orbital magnetization" >
   <v name="MAGDIPOLOUT">      0.00000000      0.00000000      0.00000000</v>
  </separator>
  <dos>
   <i name="efermi">     -3.72131956 </i>
   <total>
    <array>
     <dimension dim="1">gridpoints</dimension>
     <dimension dim="2">spin</dimension>
     <field>energy</field>
     <field>total</field>
     <field>integrated</field>
     <set>
      <set comment="spin 1">
       <r>   -19.7883     0.0000     0.0000 </r>
       <r>   -19.7025     0.0000     0.0000 </r>
       <r>   -19.6167     0.0000     0.0000 </r>
       <r>   -19.5309     0.0000     0.0000 </r>
       <r>   -19.4451     0.0000     0.0000 </r>
       <r>   -19.3593     0.0000     0.0000 </r>
       <r>   -19.2735     0.0000     0.0000 </r>
       <r>   -19.1877     0.0000     0.0000 </r>
       <r>   -19.1019     0.0000     0.0000 </r>
       <r>   -19.0161     0.0000     0.0000 </r>
       <r>   -18.9303     0.0000     0.0000 </r>
       <r>   -18.8445     0.0000     0.0000 </r>
       <r>   -18.7587     0.0000     0.0000 </r>
       <r>   -18.6729     0.0000     0.0000 </r>
       <r>   -18.5871     0.0000     0.0000 </r>
       <r>   -18.5013     0.0000     0.0000 </r>
       <r>   -18.4155     0.0000     0.0000 </r>
       <r>   -18.3297     0.0000     0.0000 </r>
       <r>   -18.2438     0.0000     0.0000 </r>
       <r>   -18.1580     0.0000     0.0000 </r>
       <r>   -18.0722     0.0000     0.0000 </r>
       <r>   -17.9864     0.0000     0.0000 </r>
       <r>   -17.9006     0.0000     0.0000 </r>
       <r>   -17.8148     0.0000     0.0000 </r>
       <r>   -17.7290     0.7162     0.0212 </r>
       <r>   -17.6432     0.5227     0.0662 </r>
       <r>   -17.5574     0.5732     0.1147 </r>
       <r>   -17.4716     0.5457     0.1614 </r>
       <r>   -17.3858     0.5863     0.2099 </r>
       <r>   -17.3000     0.5930     0.2615 </r>
       <r>   -17.2142     0.6063     0.3129 </r>
       <r>   -17.1284     0.6321     0.3659 </r>
       <r>   -17.0426     0.6617     0.4214 </r>
       <r>   -16.9568     0.6832     0.4792 </r>
       <r>   -16.8710     0.7141     0.5391 </r>
       <r>   -16.7852     0.7457     0.6017 </r>
       <r>   -16.6994     0.7792     0.6672 </r>
       <r>   -16.6135     0.8439     0.7364 </r>
       <r>   -16.5277     1.9219     0.8602 </r>
       <r>   -16.4419     2.0910     1.0391 </r>
       <r>   -16.3561     2.3404     1.2292 </r>
       <r>   -16.2703     2.5672     1.4350 </r>
       <r>   -16.1845     2.9188     1.6703 </r>
       <r>   -16.0987     3.3882     1.9389 </r>
       <r>   -16.0129     4.9110     2.2671 </r>
       <r>   -15.9271     3.8958     2.6784 </r>
       <r>   -15.8413     4.7968     3.0298 </r>
       <r>   -15.7555    13.2536     3.4825 </r>
       <r>   -15.6697     2.8270     3.8181 </r>
       <r>   -15.5839     0.0000     4.0000 </r>
       <r>   -15.4981     0.0000     4.0000 </r>
       <r>   -15.4123     0.0000     4.0000 </r>
       <r>   -15.3265     0.0000     4.0000 </r>
       <r>   -15.2407     0.0000     4.0000 </r>
       <r>   -15.1549     0.0000     4.0000 </r>
       <r>   -15.0691     0.0000     4.0000 </r>
       <r>   -14.9833     0.0000     4.0000 </r>
       <r>   -14.8974     0.0000     4.0000 </r>
       <r>   -14.8116     0.0000     4.0000 </r>
       <r>   -14.7258     0.0000     4.0000 </r>
       <r>   -14.6400     0.0000     4.0000 </r>
       <r>   -14.5542     0.0000     4.0000 </r>
       <r>   -14.4684     0.0000     4.0000 </r>
       <r>   -14.3826     0.0000     4.0000 </r>
       <r>   -14.2968     0.0000     4.0000 </r>
       <r>   -14.2110     0.0000     4.0000 </r>
       <r>   -14.1252     0.0000     4.0000 </r>
       <r>   -14.0394     0.0000     4.0000 </r>
       <r>   -13.9536     0.0000     4.0000 </r>
       <r>   -13.8678     0.0000     4.0000 </r>
       <r>   -13.7820     0.0000     4.0000 </r>
       <r>   -13.6962     0.0000     4.0000 </r>
       <r>   -13.6104     0.0000     4.0000 </r>
       <r>   -13.5246     0.0000     4.0000 </r>
       <r>   -13.4388     0.0000     4.0000 </r>
       <r>   -13.3530     0.0000     4.0000 </r>
       <r>   -13.2671     0.0000     4.0000 </r>
       <r>   -13.1813     0.0000     4.0000 </r>
       <r>   -13.0955     0.0000     4.0000 </r>
       <r>   -13.0097     0.0000     4.0000 </r>
       <r>   -12.9239     0.0000     4.0000 </r>
       <r>   -12.8381     0.0000     4.0000 </r>
       <r>   -12.7523     0.0000     4.0000 </r>
       <r>   -12.6665     0.0000     4.0000 </r>
       <r>   -12.5807     0.0000     4.0000 </r>
       <r>   -12.4949     0.0000     4.0000 </r>
       <r>   -12.4091     0.0000     4.0000 </r>
       <r>   -12.3233     0.0000     4.0000 </r>
       <r>   -12.2375     0.0000     4.0000 </r>
       <r>   -12.1517     0.0000     4.0000 </r>
       <r>   -12.0659     0.0000     4.0000 </r>
       <r>   -11.9801     0.0000     4.0000 </r>
       <r>   -11.8943     0.0000     4.0000 </r>
       <r>   -11.8085     0.0000     4.0000 </r>
       <r>   -11.7227     0.0000     4.0000 </r>
       <r>   -11.6368     0.0000     4.0000 </r>
       <r>   -11.5510     0.0000     4.0000 </r>
       <r>   -11.4652     0.0000     4.0000 </r>
       <r>   -11.3794     0.0000     4.0000 </r>
       <r>   -11.2936     0.0000     4.0000 </r>
       <r>   -11.2078     0.0000     4.0000 </r>
       <r>   -11.1220     0.0000     4.0000 </r>
       <r>   -11.0362     0.0000     4.0000 </r>
       <r>   -10.9504     0.0000     4.0000 </r>
       <r>   -10.8646     0.0000     4.0000 </r>
       <r>   -10.7788     0.0000     4.0000 </r>
       <r>   -10.6930     0.0000     4.0000 </r>
       <r>   -10.6072     0.0000     4.0000 </r>
       <r>   -10.5214     0.0000     4.0000 </r>
       <r>   -10.4356     0.0000     4.0000 </r>
       <r>   -10.3498     0.0000     4.0000 </r>
       <r>   -10.2640     0.0000     4.0000 </r>
       <r>   -10.1782     0.0000     4.0000 </r>
       <r>   -10.0924     0.0000     4.0000 </r>
       <r>   -10.0065     0.0000     4.0000 </r>
       <r>    -9.9207     0.0000     4.0000 </r>
       <r>    -9.8349     0.0000     4.0000 </r>
       <r>    -9.7491     0.0000     4.0000 </r>
       <r>    -9.6633     0.0000     4.0000 </r>
       <r>    -9.5775     0.0000     4.0000 </r>
       <r>    -9.4917     0.0000     4.0000 </r>
       <r>    -9.4059     0.9973     4.0309 </r>
       <r>    -9.3201     1.0425     4.1325 </r>
       <r>    -9.2343     1.8609     4.2535 </r>
       <r>    -9.1485     1.8416     4.4048 </r>
       <r>    -9.0627     2.6086     4.5841 </r>
       <r>    -8.9769     3.1385     4.8301 </r>
       <r>    -8.8911     5.1719     5.1565 </r>
       <r>    -8.8053     3.6749     5.5206 </r>
       <r>    -8.7195     5.1095     5.9049 </r>
       <r>    -8.6337     2.4378     6.2776 </r>
       <r>    -8.5479     1.5815     6.4459 </r>
       <r>    -8.4621     1.8565     6.6305 </r>
       <r>    -8.3763     1.1846     6.7604 </r>
       <r>    -8.2904     1.0039     6.8543 </r>
       <r>    -8.2046     0.8883     6.9350 </r>
       <r>    -8.1188     0.7683     7.0059 </r>
       <r>    -8.0330     0.7105     7.0692 </r>
       <r>    -7.9472     0.6875     7.1292 </r>
       <r>    -7.8614     0.6645     7.1872 </r>
       <r>    -7.7756     2.6787     7.2660 </r>
       <r>    -7.6898     3.9449     7.5765 </r>
       <r>    -7.6040     6.8655     8.0676 </r>
       <r>    -7.5182     5.2250     8.5576 </r>
       <r>    -7.4324     3.5741     8.9136 </r>
       <r>    -7.3466     1.2780     9.1374 </r>
       <r>    -7.2608     1.0677     9.2379 </r>
       <r>    -7.1750     1.3947     9.3512 </r>
       <r>    -7.0892     1.2861     9.4622 </r>
       <r>    -7.0034     3.3546     9.6217 </r>
       <r>    -6.9176     4.9808    10.0337 </r>
       <r>    -6.8318     3.8749    10.6820 </r>
       <r>    -6.7460     2.7552    10.9036 </r>
       <r>    -6.6601     2.6895    11.1713 </r>
       <r>    -6.5743     2.0024    11.3897 </r>
       <r>    -6.4885     1.8160    11.5521 </r>
       <r>    -6.4027     1.5631    11.6960 </r>
       <r>    -6.3169     1.9042    11.8332 </r>
       <r>    -6.2311     0.9687    12.0085 </r>
       <r>    -6.1453     0.9477    12.0907 </r>
       <r>    -6.0595     3.5812    12.2822 </r>
       <r>    -5.9737     1.0786    12.4401 </r>
       <r>    -5.8879     0.8449    12.5269 </r>
       <r>    -5.8021     2.9970    12.7023 </r>
       <r>    -5.7163     6.3224    13.0110 </r>
       <r>    -5.6305     4.1163    13.4075 </r>
       <r>    -5.5447     3.7220    13.8147 </r>
       <r>    -5.4589     3.2606    14.1111 </r>
       <r>    -5.3731     3.1457    14.4212 </r>
       <r>    -5.2873     1.5480    14.5896 </r>
       <r>    -5.2015     2.4306    14.7761 </r>
       <r>    -5.1157     2.5638    15.0106 </r>
       <r>    -5.0298     2.1717    15.2135 </r>
       <r>    -4.9440     2.1280    15.3904 </r>
       <r>    -4.8582     2.6066    15.5993 </r>
       <r>    -4.7724     2.8850    15.8293 </r>
       <r>    -4.6866     0.3999    16.0027 </r>
       <r>    -4.6008     2.1357    16.1280 </r>
       <r>    -4.5150     4.1922    16.4337 </r>
       <r>    -4.4292     2.7716    16.7438 </r>
       <r>    -4.3434     2.7056    16.9782 </r>
       <r>    -4.2576     2.5020    17.2044 </r>
       <r>    -4.1718     2.1114    17.4046 </r>
       <r>    -4.0860     1.7589    17.5675 </r>
       <r>    -4.0002     1.3995    17.7114 </r>
       <r>    -3.9144     1.3916    17.8306 </r>
       <r>    -3.8286     1.0730    17.9391 </r>
       <r>    -3.7428     0.0000    18.0000 </r>
       <r>    -3.6570     0.0000    18.0000 </r>
       <r>    -3.5712     0.0000    18.0000 </r>
       <r>    -3.4854     0.0000    18.0000 </r>
       <r>    -3.3996     0.0000    18.0000 </r>
       <r>    -3.3137     0.0000    18.0000 </r>
       <r>    -3.2279     0.0000    18.0000 </r>
       <r>    -3.1421     0.0000    18.0000 </r>
       <r>    -3.0563     0.0000    18.0000 </r>
       <r>    -2.9705     0.0000    18.0000 </r>
       <r>    -2.8847     0.0000    18.0000 </r>
       <r>    -2.7989     0.0000    18.0000 </r>
       <r>    -2.7131     0.0000    18.0000 </r>
       <r>    -2.6273     0.0000    18.0000 </r>
       <r>    -2.5415     0.0000    18.0000 </r>
       <r>    -2.4557     0.0000    18.0000 </r>
       <r>    -2.3699     0.0000    18.0000 </r>
       <r>    -2.2841     0.0000    18.0000 </r>
       <r>    -2.1983     0.0000    18.0000 </r>
       <r>    -2.1125     0.0000    18.0000 </r>
       <r>    -2.0267     0.3699    18.0168 </r>
       <r>    -1.9409     0.5035    18.0543 </r>
       <r>    -1.8551     0.6409    18.1033 </r>
       <r>    -1.7693     3.2153    18.2493 </r>
       <r>    -1.6834     4.3938    18.5729 </r>
       <r>    -1.5976   115.7486    19.2502 </r>
       <r>    -1.5118     0.6857    19.7683 </r>
       <r>    -1.4260     2.0653    19.8836 </r>
       <r>    -1.3402     6.1592    20.1830 </r>
       <r>    -1.2544     7.9030    20.7614 </r>
       <r>    -1.1686     4.2676    21.1770 </r>
       <r>    -1.0828     5.6611    21.6025 </r>
       <r>    -0.9970     3.0363    21.9895 </r>
       <r>    -0.9112     2.3791    22.2461 </r>
       <r>    -0.8254     2.8176    22.4648 </r>
       <r>    -0.7396     2.2896    22.6708 </r>
       <r>    -0.6538     3.6830    23.0054 </r>
       <r>    -0.5680     2.6197    23.2138 </r>
       <r>    -0.4822     2.4546    23.4298 </r>
       <r>    -0.3964     2.0814    23.6244 </r>
       <r>    -0.3106     1.5363    23.7901 </r>
       <r>    -0.2248     1.5087    23.9190 </r>
       <r>    -0.1390     1.4971    24.0497 </r>
       <r>    -0.0531     1.4413    24.1757 </r>
       <r>     0.0327     1.3854    24.2970 </r>
       <r>     0.1185     4.9318    24.4531 </r>
       <r>     0.2043     1.0220    24.5728 </r>
       <r>     0.2901     1.1331    24.6652 </r>
       <r>     0.3759     3.4354    24.8074 </r>
       <r>     0.4617     3.2859    25.2013 </r>
       <r>     0.5475     2.1971    25.4175 </r>
       <r>     0.6333     1.6400    25.5717 </r>
       <r>     0.7191     1.4067    25.7027 </r>
       <r>     0.8049     1.2314    25.8076 </r>
       <r>     0.8907     0.8788    25.8982 </r>
       <r>     0.9765     0.7498    25.9633 </r>
       <r>     1.0623     0.0000    26.0000 </r>
       <r>     1.1481     0.0000    26.0000 </r>
       <r>     1.2339     0.0000    26.0000 </r>
       <r>     1.3197     0.0000    26.0000 </r>
       <r>     1.4055     0.0000    26.0000 </r>
       <r>     1.4913     0.0000    26.0000 </r>
       <r>     1.5772     0.0000    26.0000 </r>
       <r>     1.6630     0.0000    26.0000 </r>
       <r>     1.7488     0.2660    26.0113 </r>
       <r>     1.8346     0.2836    26.0391 </r>
       <r>     1.9204     0.3237    26.0652 </r>
       <r>     2.0062     0.3638    26.0947 </r>
       <r>     2.0920     0.3561    26.1262 </r>
       <r>     2.1778     0.3567    26.1562 </r>
       <r>     2.2636     0.3794    26.1878 </r>
       <r>     2.3494     0.4021    26.2213 </r>
       <r>     2.4352     0.4673    26.2574 </r>
       <r>     2.5210     0.7740    26.3106 </r>
       <r>     2.6068     1.2369    26.3909 </r>
       <r>     2.6926     1.0432    26.4888 </r>
       <r>     2.7784     0.9967    26.5740 </r>
       <r>     2.8642     1.0864    26.6631 </r>
       <r>     2.9500     1.1666    26.7600 </r>
       <r>     3.0358     1.2622    26.8642 </r>
       <r>     3.1216     1.3326    26.9749 </r>
       <r>     3.2074     1.4380    27.0936 </r>
       <r>     3.2933     1.6147    27.2227 </r>
       <r>     3.3791     2.2118    27.3953 </r>
       <r>     3.4649     1.9348    27.5710 </r>
       <r>     3.5507     1.2127    27.7092 </r>
       <r>     3.6365     1.0938    27.8082 </r>
       <r>     3.7223     0.8470    27.8857 </r>
       <r>     3.8081     0.6495    27.9529 </r>
       <r>     3.8939     0.2655    27.9921 </r>
       <r>     3.9797     0.0000    28.0000 </r>
       <r>     4.0655     0.0000    28.0000 </r>
       <r>     4.1513     0.0000    28.0000 </r>
       <r>     4.2371     0.0000    28.0000 </r>
       <r>     4.3229     0.0000    28.0000 </r>
       <r>     4.4087     0.0000    28.0000 </r>
       <r>     4.4945     0.0000    28.0000 </r>
       <r>     4.5803     0.0000    28.0000 </r>
       <r>     4.6661     0.0000    28.0000 </r>
       <r>     4.7519     0.0000    28.0000 </r>
       <r>     4.8377     0.0000    28.0000 </r>
       <r>     4.9236     0.0000    28.0000 </r>
       <r>     5.0094     0.0000    28.0000 </r>
       <r>     5.0952     0.0000    28.0000 </r>
       <r>     5.1810     0.0000    28.0000 </r>
       <r>     5.2668     0.0000    28.0000 </r>
       <r>     5.3526     0.0000    28.0000 </r>
       <r>     5.4384     0.0000    28.0000 </r>
       <r>     5.5242     0.0000    28.0000 </r>
       <r>     5.6100     0.0000    28.0000 </r>
       <r>     5.6958     0.0000    28.0000 </r>
       <r>     5.7816     0.0000    28.0000 </r>
       <r>     5.8674     0.0000    28.0000 </r>
       <r>     5.9532     0.0000    28.0000 </r>
      </set>
     </set>
    </array>
   </total>
  </dos>
 </calculation>
 <structure name="finalpos" >
  <crystal>
   <varray name="basis" >
    <v>       3.19031573       0.00000000       0.00000000 </v>
    <v>      -1.59515786       2.76289447       0.00000000 </v>
    <v>       0.00000000       0.00000000      30.87900430 </v>
   </varray>
   <i name="volume">    272.18315887 </i>
   <varray name="rec_basis" >
    <v>       0.31344860       0.18096963       0.00000000 </v>
    <v>       0.00000000       0.36193927       0.00000000 </v>
    <v>       0.00000000       0.00000000       0.03238446 </v>
   </varray>
  </crystal>
  <varray name="positions" >
   <v>       0.33333300       0.66666700       0.12046214 </v>
   <v>       0.66666700       0.33333300       0.06978420 </v>
   <v>       0.66666600       0.33333300       0.17114009 </v>
  </varray>
 </structure>
</modeling>
