   6   6   0   0
  0.1953567E+02  0.3192274E-09  0.3192274E-09  0.1328155E-08  0.5000000E-15
  1.000000000000000E-004
  CAR 
 unknown system                          
      9.49288635    -11.91043192  301      4.64592657      1.00000000
    -11.910  0.0000E+00  0.0000E+00
    -11.839  0.0000E+00  0.0000E+00
    -11.768  0.0000E+00  0.0000E+00
    -11.696  0.0000E+00  0.0000E+00
    -11.625  0.0000E+00  0.0000E+00
    -11.554  0.0000E+00  0.0000E+00
    -11.482  0.0000E+00  0.0000E+00
    -11.411  0.0000E+00  0.0000E+00
    -11.340  0.0000E+00  0.0000E+00
    -11.268  0.0000E+00  0.0000E+00
    -11.197  0.0000E+00  0.0000E+00
    -11.126  0.0000E+00  0.0000E+00
    -11.054  0.0000E+00  0.0000E+00
    -10.983  0.0000E+00  0.0000E+00
    -10.912  0.0000E+00  0.0000E+00
    -10.840  0.0000E+00  0.0000E+00
    -10.769  0.0000E+00  0.0000E+00
    -10.698  0.0000E+00  0.0000E+00
    -10.626  0.0000E+00  0.0000E+00
    -10.555  0.0000E+00  0.0000E+00
    -10.484  0.0000E+00  0.0000E+00
    -10.412  0.0000E+00  0.0000E+00
    -10.341  0.0000E+00  0.0000E+00
    -10.270  0.0000E+00  0.0000E+00
    -10.198  0.0000E+00  0.0000E+00
    -10.127  0.0000E+00  0.0000E+00
    -10.055  0.0000E+00  0.0000E+00
     -9.984  0.0000E+00  0.0000E+00
     -9.913  0.0000E+00  0.0000E+00
     -9.841  0.3366E+00  0.9243E-02
     -9.770  0.1138E+01  0.6047E-01
     -9.699  0.1160E+01  0.1414E+00
     -9.627  0.1038E+01  0.2151E+00
     -9.556  0.1128E+01  0.2924E+00
     -9.485  0.1210E+01  0.3760E+00
     -9.413  0.1218E+01  0.4630E+00
     -9.342  0.1193E+01  0.5486E+00
     -9.271  0.1222E+01  0.6344E+00
     -9.199  0.1272E+01  0.7233E+00
     -9.128  0.1322E+01  0.8159E+00
     -9.057  0.1373E+01  0.9120E+00
     -8.985  0.1424E+01  0.1012E+01
     -8.914  0.1485E+01  0.1115E+01
     -8.843  0.1548E+01  0.1224E+01
     -8.771  0.1615E+01  0.1337E+01
     -8.700  0.1783E+01  0.1455E+01
     -8.629  0.2991E+01  0.1629E+01
     -8.557  0.3659E+01  0.1845E+01
     -8.486  0.4432E+01  0.2152E+01
     -8.415  0.4918E+01  0.2484E+01
     -8.343  0.5278E+01  0.2849E+01
     -8.272  0.5831E+01  0.3244E+01
     -8.201  0.6539E+01  0.3685E+01
     -8.129  0.7322E+01  0.4179E+01
     -8.058  0.8536E+01  0.4905E+01
     -7.986  0.7905E+01  0.5489E+01
     -7.915  0.8825E+01  0.6063E+01
     -7.844  0.8269E+01  0.6758E+01
     -7.772  0.7404E+01  0.7451E+01
     -7.701  0.5364E+01  0.7859E+01
     -7.630  0.0000E+00  0.8000E+01
     -7.558  0.0000E+00  0.8000E+01
     -7.487  0.0000E+00  0.8000E+01
     -7.416  0.0000E+00  0.8000E+01
     -7.344  0.0000E+00  0.8000E+01
     -7.273  0.0000E+00  0.8000E+01
     -7.202  0.0000E+00  0.8000E+01
     -7.130  0.0000E+00  0.8000E+01
     -7.059  0.0000E+00  0.8000E+01
     -6.988  0.0000E+00  0.8000E+01
     -6.916  0.0000E+00  0.8000E+01
     -6.845  0.0000E+00  0.8000E+01
     -6.774  0.0000E+00  0.8000E+01
     -6.702  0.0000E+00  0.8000E+01
     -6.631  0.0000E+00  0.8000E+01
     -6.560  0.0000E+00  0.8000E+01
     -6.488  0.0000E+00  0.8000E+01
     -6.417  0.0000E+00  0.8000E+01
     -6.346  0.0000E+00  0.8000E+01
     -6.274  0.0000E+00  0.8000E+01
     -6.203  0.0000E+00  0.8000E+01
     -6.132  0.0000E+00  0.8000E+01
     -6.060  0.0000E+00  0.8000E+01
     -5.989  0.0000E+00  0.8000E+01
     -5.918  0.0000E+00  0.8000E+01
     -5.846  0.0000E+00  0.8000E+01
     -5.775  0.0000E+00  0.8000E+01
     -5.703  0.0000E+00  0.8000E+01
     -5.632  0.0000E+00  0.8000E+01
     -5.561  0.0000E+00  0.8000E+01
     -5.489  0.0000E+00  0.8000E+01
     -5.418  0.0000E+00  0.8000E+01
     -5.347  0.0000E+00  0.8000E+01
     -5.275  0.0000E+00  0.8000E+01
     -5.204  0.0000E+00  0.8000E+01
     -5.133  0.0000E+00  0.8000E+01
     -5.061  0.0000E+00  0.8000E+01
     -4.990  0.0000E+00  0.8000E+01
     -4.919  0.0000E+00  0.8000E+01
     -4.847  0.0000E+00  0.8000E+01
     -4.776  0.0000E+00  0.8000E+01
     -4.705  0.0000E+00  0.8000E+01
     -4.633  0.0000E+00  0.8000E+01
     -4.562  0.0000E+00  0.8000E+01
     -4.491  0.0000E+00  0.8000E+01
     -4.419  0.0000E+00  0.8000E+01
     -4.348  0.0000E+00  0.8000E+01
     -4.277  0.0000E+00  0.8000E+01
     -4.205  0.0000E+00  0.8000E+01
     -4.134  0.0000E+00  0.8000E+01
     -4.063  0.0000E+00  0.8000E+01
     -3.991  0.0000E+00  0.8000E+01
     -3.920  0.0000E+00  0.8000E+01
     -3.849  0.0000E+00  0.8000E+01
     -3.777  0.0000E+00  0.8000E+01
     -3.706  0.0000E+00  0.8000E+01
     -3.634  0.0000E+00  0.8000E+01
     -3.563  0.0000E+00  0.8000E+01
     -3.492  0.0000E+00  0.8000E+01
     -3.420  0.0000E+00  0.8000E+01
     -3.349  0.0000E+00  0.8000E+01
     -3.278  0.0000E+00  0.8000E+01
     -3.206  0.0000E+00  0.8000E+01
     -3.135  0.0000E+00  0.8000E+01
     -3.064  0.0000E+00  0.8000E+01
     -2.992  0.0000E+00  0.8000E+01
     -2.921  0.0000E+00  0.8000E+01
     -2.850  0.0000E+00  0.8000E+01
     -2.778  0.0000E+00  0.8000E+01
     -2.707  0.0000E+00  0.8000E+01
     -2.636  0.0000E+00  0.8000E+01
     -2.564  0.0000E+00  0.8000E+01
     -2.493  0.0000E+00  0.8000E+01
     -2.422  0.0000E+00  0.8000E+01
     -2.350  0.0000E+00  0.8000E+01
     -2.279  0.0000E+00  0.8000E+01
     -2.208  0.0000E+00  0.8000E+01
     -2.136  0.0000E+00  0.8000E+01
     -2.065  0.0000E+00  0.8000E+01
     -1.994  0.0000E+00  0.8000E+01
     -1.922  0.0000E+00  0.8000E+01
     -1.851  0.0000E+00  0.8000E+01
     -1.780  0.0000E+00  0.8000E+01
     -1.708  0.0000E+00  0.8000E+01
     -1.637  0.1913E-02  0.8000E+01
     -1.565  0.2190E+00  0.8004E+01
     -1.494  0.1201E+01  0.8051E+01
     -1.423  0.2638E+01  0.8189E+01
     -1.351  0.3031E+01  0.8399E+01
     -1.280  0.3171E+01  0.8631E+01
     -1.209  0.3628E+01  0.8871E+01
     -1.137  0.4317E+01  0.9153E+01
     -1.066  0.9971E+01  0.9637E+01
     -0.995  0.9670E+01  0.1036E+02
     -0.923  0.7096E+01  0.1098E+02
     -0.852  0.5405E+01  0.1142E+02
     -0.781  0.5779E+01  0.1177E+02
     -0.709  0.6693E+01  0.1222E+02
     -0.638  0.8859E+01  0.1276E+02
     -0.567  0.3298E+01  0.1318E+02
     -0.495  0.2689E+01  0.1339E+02
     -0.424  0.2322E+01  0.1357E+02
     -0.353  0.2044E+01  0.1372E+02
     -0.281  0.1877E+01  0.1386E+02
     -0.210  0.1787E+01  0.1399E+02
     -0.139  0.1748E+01  0.1412E+02
     -0.067  0.1816E+01  0.1425E+02
      0.004  0.2035E+01  0.1438E+02
      0.075  0.3750E+01  0.1457E+02
      0.147  0.5061E+01  0.1491E+02
      0.218  0.4702E+01  0.1524E+02
      0.289  0.8716E+01  0.1570E+02
      0.361  0.1083E+02  0.1639E+02
      0.432  0.8027E+01  0.1723E+02
      0.503  0.6195E+01  0.1778E+02
      0.575  0.3624E+01  0.1814E+02
      0.646  0.3096E+01  0.1838E+02
      0.718  0.3397E+01  0.1864E+02
      0.789  0.3295E+01  0.1888E+02
      0.860  0.4121E+01  0.1914E+02
      0.932  0.5662E+01  0.1949E+02
      1.003  0.9067E+01  0.1998E+02
      1.074  0.1465E+02  0.2076E+02
      1.146  0.6569E+01  0.2161E+02
      1.217  0.4486E+01  0.2195E+02
      1.288  0.4527E+01  0.2228E+02
      1.360  0.4940E+01  0.2265E+02
      1.431  0.4605E+01  0.2299E+02
      1.502  0.4061E+01  0.2330E+02
      1.574  0.3351E+01  0.2356E+02
      1.645  0.3730E+01  0.2382E+02
      1.716  0.2176E+01  0.2406E+02
      1.788  0.3205E+01  0.2430E+02
      1.859  0.3181E+01  0.2452E+02
      1.930  0.2880E+01  0.2474E+02
      2.002  0.2904E+01  0.2501E+02
      2.073  0.3841E+01  0.2525E+02
      2.144  0.6308E+01  0.2563E+02
      2.216  0.6718E+01  0.2608E+02
      2.287  0.7225E+01  0.2658E+02
      2.358  0.9606E+01  0.2726E+02
      2.430  0.1032E+02  0.2791E+02
      2.501  0.7206E+01  0.2854E+02
      2.572  0.4860E+01  0.2898E+02
      2.644  0.3421E+01  0.2926E+02
      2.715  0.4202E+01  0.2955E+02
      2.787  0.4919E+01  0.2987E+02
      2.858  0.5396E+01  0.3023E+02
      2.929  0.6001E+01  0.3064E+02
      3.001  0.5581E+01  0.3106E+02
      3.072  0.2850E+01  0.3137E+02
      3.143  0.1603E+01  0.3151E+02
      3.215  0.2243E+01  0.3165E+02
      3.286  0.3358E+01  0.3183E+02
      3.357  0.5537E+01  0.3213E+02
      3.429  0.1485E+02  0.3278E+02
      3.500  0.5880E+01  0.3339E+02
      3.571  0.5741E+01  0.3381E+02
      3.643  0.5670E+01  0.3421E+02
      3.714  0.4819E+01  0.3459E+02
      3.785  0.4079E+01  0.3491E+02
      3.857  0.3438E+01  0.3517E+02
      3.928  0.2794E+01  0.3539E+02
      3.999  0.2706E+01  0.3559E+02
      4.071  0.2084E+01  0.3577E+02
      4.142  0.9290E+00  0.3584E+02
      4.213  0.3689E+00  0.3588E+02
      4.285  0.3480E+00  0.3591E+02
      4.356  0.3271E+00  0.3593E+02
      4.427  0.4927E+00  0.3597E+02
      4.499  0.2063E+00  0.3599E+02
      4.570  0.3644E-01  0.3600E+02
      4.641  0.0000E+00  0.3600E+02
      4.713  0.0000E+00  0.3600E+02
      4.784  0.0000E+00  0.3600E+02
      4.856  0.0000E+00  0.3600E+02
      4.927  0.0000E+00  0.3600E+02
      4.998  0.0000E+00  0.3600E+02
      5.070  0.0000E+00  0.3600E+02
      5.141  0.0000E+00  0.3600E+02
      5.212  0.0000E+00  0.3600E+02
      5.284  0.0000E+00  0.3600E+02
      5.355  0.0000E+00  0.3600E+02
      5.426  0.0000E+00  0.3600E+02
      5.498  0.0000E+00  0.3600E+02
      5.569  0.0000E+00  0.3600E+02
      5.640  0.0000E+00  0.3600E+02
      5.712  0.0000E+00  0.3600E+02
      5.783  0.0000E+00  0.3600E+02
      5.854  0.0000E+00  0.3600E+02
      5.926  0.0000E+00  0.3600E+02
      5.997  0.2327E+01  0.3613E+02
      6.068  0.5211E+01  0.3637E+02
      6.140  0.5284E+01  0.3671E+02
      6.211  0.7017E+01  0.3715E+02
      6.282  0.6340E+01  0.3765E+02
      6.354  0.1564E+02  0.3842E+02
      6.425  0.5304E+01  0.3936E+02
      6.496  0.3656E+01  0.3961E+02
      6.568  0.7112E+01  0.3997E+02
      6.639  0.5826E+01  0.4046E+02
      6.710  0.6972E+01  0.4090E+02
      6.782  0.1027E+02  0.4156E+02
      6.853  0.7900E+01  0.4229E+02
      6.924  0.6421E+01  0.4281E+02
      6.996  0.2975E+01  0.4313E+02
      7.067  0.2539E+01  0.4333E+02
      7.139  0.2060E+01  0.4350E+02
      7.210  0.1385E+01  0.4362E+02
      7.281  0.9414E+00  0.4370E+02
      7.353  0.1014E+01  0.4377E+02
      7.424  0.1240E+01  0.4397E+02
      7.495  0.0000E+00  0.4400E+02
      7.567  0.0000E+00  0.4400E+02
      7.638  0.0000E+00  0.4400E+02
      7.709  0.0000E+00  0.4400E+02
      7.781  0.0000E+00  0.4400E+02
      7.852  0.0000E+00  0.4400E+02
      7.923  0.0000E+00  0.4400E+02
      7.995  0.0000E+00  0.4400E+02
      8.066  0.0000E+00  0.4400E+02
      8.137  0.0000E+00  0.4400E+02
      8.209  0.0000E+00  0.4400E+02
      8.280  0.0000E+00  0.4400E+02
      8.351  0.0000E+00  0.4400E+02
      8.423  0.0000E+00  0.4400E+02
      8.494  0.0000E+00  0.4400E+02
      8.565  0.0000E+00  0.4400E+02
      8.637  0.0000E+00  0.4400E+02
      8.708  0.0000E+00  0.4400E+02
      8.779  0.0000E+00  0.4400E+02
      8.851  0.0000E+00  0.4400E+02
      8.922  0.0000E+00  0.4400E+02
      8.993  0.0000E+00  0.4400E+02
      9.065  0.0000E+00  0.4400E+02
      9.136  0.0000E+00  0.4400E+02
      9.208  0.0000E+00  0.4400E+02
      9.279  0.0000E+00  0.4400E+02
      9.350  0.0000E+00  0.4400E+02
      9.422  0.0000E+00  0.4400E+02
      9.493  0.0000E+00  0.4400E+02
