unknown system                          
   1.00000000000000     
     3.190316    0.000000    0.000000
    -1.595158    2.762894    0.000000
     0.000000    0.000000   38.879004
   Mo   S 
     1     2
Direct
  0.333333  0.666667  0.095675
  0.666667  0.333333  0.055425
  0.666666  0.333333  0.135925
 
   24   24  300
 0.53431     0.54219     0.56342     0.60029     0.65662     0.73157     0.81877     0.91046     0.99988      1.0813    
  1.1495      1.1965      1.2108      1.1860      1.1315      1.0666     0.99987     0.92355     0.83182     0.73644    
 0.65660     0.60019     0.56303     0.54105     0.54179     0.54255     0.56198     0.60098     0.66229     0.74691    
 0.85234     0.97256      1.0968      1.2114      1.3066      1.3798      1.4252      1.4285      1.3793      1.2885    
  1.1817      1.0755     0.96925     0.85992     0.75508     0.66711     0.60246     0.56119     0.56361     0.55103    
 0.56293     0.60166     0.66705     0.75687     0.87093      1.0089      1.1626      1.3144      1.4463      1.5490    
  1.6202      1.6545      1.6400      1.5676      1.4444      1.2946      1.1439      1.0045     0.87656     0.76122    
 0.66680     0.60095     0.60253     0.57229     0.56804     0.59903     0.66732     0.76321     0.88254      1.0305    
  1.2036      1.3837      1.5513      1.6927      1.7948      1.8482      1.8544      1.8158      1.7233      1.5714    
  1.3833      1.1972      1.0322     0.88486     0.75663     0.66100     0.65660     0.60934     0.58405     0.59441    
 0.65660     0.75785     0.88131      1.0347      1.2246      1.4287      1.6213      1.7970      1.9451      2.0336    
  2.0480      2.0125      1.9451      1.8259      1.6418      1.4266      1.2246      1.0429     0.87598     0.74128    
 0.72044     0.65594     0.61481     0.59657     0.63634     0.73556     0.86073      1.0094      1.2067      1.4385    
  1.6570      1.8510      2.0369      2.1872      2.2451      2.2102      2.1341      2.0305      1.8672      1.6478    
  1.4237      1.2200      1.0228     0.84319     0.79571     0.70287     0.65387     0.61376     0.61786     0.70049    
 0.82677     0.96370      1.1442      1.3897      1.6442      1.8562      2.0505      2.2466      2.3819      2.3972    
  2.3254      2.2202      2.0686      1.8490      1.6057      1.3879      1.1806     0.96774     0.89007     0.75092    
 0.68906     0.64251     0.61233     0.65990     0.78247     0.91755      1.0674      1.2904      1.5692      1.8163    
  2.0123      2.2094      2.3961      2.4888      2.4650      2.3803      2.2514      2.0435      1.7794      1.5356    
  1.3258      1.1052     0.99987     0.81012     0.71570     0.66852     0.62077     0.62235     0.72065     0.86344    
 0.99988      1.1783      1.4417      1.7229      1.9451      2.1324      2.3230      2.4640      2.4955      2.4480    
  2.3615      2.2006      1.9451      1.6705      1.4438      1.2313      1.1021     0.88316     0.74199     0.68134    
 0.63349     0.59913     0.64797     0.78010     0.92346      1.0719      1.2892      1.5695      1.8272      2.0310    
  2.2193      2.3805      2.4491      2.4243      2.3639      2.2618      2.0611      1.7871      1.5343      1.3233    
  1.1724     0.95564     0.77774     0.68543     0.63837     0.59348     0.59245     0.68066     0.81872     0.95946    
  1.1340      1.3766      1.6403      1.8675      2.0685      2.2526      2.3639      2.3648      2.3049      2.2268    
  2.0889      1.8590      1.5997      1.3778      1.2053      1.0067     0.81953     0.69344     0.63213     0.59140    
 0.56777     0.60474     0.70781     0.83693     0.98540      1.1829      1.4187      1.6437      1.8459      2.0427    
  2.2023      2.2623      2.2250      2.1473      2.0400      1.8652      1.6329      1.4054      1.2108      1.0266    
 0.85133     0.70966     0.62375     0.57816     0.55335     0.56286     0.62374     0.72353     0.84876      1.0108    
  1.2108      1.4152      1.5994      1.7759      1.9451      2.0616      2.0867      2.0371      1.9451      1.8083    
  1.6196      1.4087      1.1948      1.0202     0.86044     0.72458     0.62374     0.56037     0.52948     0.53036    
 0.56574     0.63282     0.72848     0.85850      1.0250      1.2084      1.3805      1.5323      1.6709      1.7890    
  1.8601      1.8653      1.8084      1.7012      1.5529      1.3774      1.1544     0.99658     0.84867     0.72650    
 0.63030     0.55547     0.50814     0.49698     0.51809     0.56166     0.62784     0.72457     0.85368      1.0070    
  1.1699      1.3225      1.4466      1.5379      1.6032      1.6388      1.6262      1.5559      1.4419      1.3051    
  1.0874     0.95915     0.82616     0.71449     0.63186     0.56369     0.50765     0.48023     0.48608     0.51178    
 0.55331     0.62057     0.71380     0.82364     0.95112      1.0969      1.2348      1.3300      1.3814      1.4119    
  1.4217      1.3874      1.3060      1.2015     0.99988     0.90645     0.79836     0.69702     0.62377     0.56974    
 0.52069     0.48670     0.48045     0.49228     0.51318     0.55511     0.62374     0.70071     0.77783     0.87562    
 0.99988      1.1132      1.1803      1.2104      1.2246      1.2135      1.1620      1.0838     0.90311     0.83972    
 0.76342     0.68065     0.61457     0.56990     0.53231     0.50174     0.49165     0.49817     0.50657     0.52468    
 0.57134     0.63596     0.69025     0.73721     0.80567     0.89591     0.97329      1.0180      1.0404      1.0446    
  1.0185     0.96448     0.80869     0.76719     0.72057     0.66463     0.61291     0.57656     0.54829     0.52272    
 0.51061     0.51599     0.52314     0.52556     0.54327     0.58940     0.64342     0.68127     0.71057     0.75124    
 0.80074     0.84249     0.87123     0.88713     0.88159     0.85083     0.72529     0.70011     0.67550     0.64642    
 0.61679     0.59551     0.58059     0.56435     0.55117     0.55131     0.55951     0.56049     0.55605     0.56573    
 0.59752     0.63646     0.66649     0.68709     0.70453     0.72136     0.73852     0.75458     0.76091     0.74943    
 0.65662     0.64514     0.63603     0.62795     0.62074     0.61884     0.62299     0.62614     0.62377     0.62153    
 0.62538     0.62964     0.62375     0.60851     0.59749     0.60217     0.62077     0.64157     0.65396     0.65656    
 0.65660     0.66074     0.66647     0.66578     0.60249     0.60242     0.60567     0.61378     0.62592     0.64243    
 0.66468     0.69019     0.71151     0.72288     0.72654     0.72844     0.72768     0.71512     0.68548     0.64800    
 0.62031     0.61132     0.61381     0.61476     0.60966     0.60367     0.60171     0.60244     0.56322     0.57066    
 0.58391     0.60563     0.63582     0.67147     0.71069     0.75383     0.79816     0.83451     0.85379     0.85653    
 0.85113     0.84116     0.81883     0.77528     0.71550     0.65784     0.61797     0.59657     0.58385     0.57263    
 0.56371     0.56047     0.54063     0.55061     0.56997     0.60168     0.64781     0.70484     0.76650     0.82944    
 0.89260     0.95150     0.99589      1.0156      1.0092     0.98578     0.95495     0.91577     0.85898     0.78284    
 0.70218     0.63701     0.59473     0.56839     0.55033     0.54034     0.71675     0.73056     0.76949     0.83604    
 0.93398      1.0612      1.2084      1.3638      1.5155      1.6525      1.7645      1.8396      1.8635      1.8285    
  1.7455      1.6368      1.5155      1.3777      1.2223      1.0663     0.93397     0.83596     0.76908     0.72935    
 0.73013     0.73091     0.76674     0.83808     0.94683      1.0923      1.2691      1.4673      1.6707      1.8592    
  2.0171      2.1361      2.2061      2.2097      2.1356      1.9979      1.8278      1.6482      1.4639      1.2772    
  1.1008     0.95186     0.83967     0.76596     0.76967     0.74655     0.76898     0.83881     0.95432      1.1109    
  1.3052      1.5331      1.7815      2.0264      2.2425      2.4131      2.5290      2.5794      2.5499      2.4328    
  2.2406      2.0056      1.7619      1.5285      1.3110      1.1154     0.95407     0.83805     0.83840     0.78304    
 0.77859     0.83475     0.95205      1.1175      1.3230      1.5702      1.8513      2.1421      2.4161      2.6509    
  2.8232      2.9145      2.9210      2.8454      2.6832      2.4375      2.1417      1.8444      1.5720      1.3255    
  1.1106     0.94541     0.93397     0.84429     0.80398     0.82855     0.93397      1.1037      1.3160      1.5745    
  1.8824      2.2120      2.5309      2.8256      3.0736      3.2289      3.2661      3.2067      3.0736      2.8561    
  2.5525      2.2098      1.8824      1.5833      1.3104      1.0863      1.0495     0.92401     0.85063     0.83139    
 0.90334      1.0654      1.2780      1.5335      1.8544      2.2223      2.5828      2.9174      3.2321      3.4830    
  3.5950      3.5582      3.4270      3.2253      2.9345      2.5731      2.2067      1.8685      1.5477      1.2595    
  1.1842      1.0116     0.91246     0.85384     0.87446      1.0091      1.2170      1.4581      1.7622      2.1485    
  2.5550      2.9227      3.2682      3.5962      3.8222      3.8681      3.7625      3.5683      3.2873      2.9152    
  2.5144      2.1465      1.8006      1.4623      1.3423      1.1056     0.97600     0.89322     0.86133     0.94517    
  1.1389      1.3715      1.6398      2.0013      2.4350      2.8459      3.2061      3.5569      3.8667      4.0274    
  4.0022      3.8501      3.6013      3.2391      2.8070      2.3997      2.0386      1.6795      1.5155      1.2130    
  1.0342     0.93408     0.86634     0.88528      1.0394      1.2692      1.5155      1.8242      2.2378      2.6829    
  3.0736      3.4252      3.7600      4.0011      4.0676      3.9843      3.8006      3.4971      3.0736      2.6275    
  2.2400      1.8802      1.6744      1.3324      1.0927     0.96378     0.87929     0.84304     0.92854      1.1329    
  1.3748      1.6424      1.9987      2.4349      2.8575      3.2262      3.5678      3.8505      3.9854      3.9593    
  3.8330      3.6126      3.2580      2.8151      2.3976      2.0347      1.7886      1.4447      1.1586     0.98482    
 0.88649     0.82239     0.83809     0.97987      1.2018      1.4486      1.7480      2.1327      2.5503      2.9349    
  3.2877      3.6029      3.8032      3.8337      3.7409      3.5757      3.3092      2.9259      2.5074      2.1340    
  1.8490      1.5243      1.2251      1.0083     0.88323     0.80852     0.78361     0.85442      1.0236      1.2436    
  1.5018      1.8252      2.1992      2.5680      2.9120      3.2385      3.4989      3.6128      3.5734      3.4409    
  3.2357      2.9325      2.5566      2.1852      1.8635      1.5588      1.2731      1.0366     0.87775     0.78579    
 0.74439     0.76957     0.87774      1.0513      1.2704      1.5421      1.8635      2.1955      2.5071      2.8032    
  3.0736      3.2582      3.3063      3.2322      3.0736      2.8375      2.5284      2.1886      1.8378      1.5520    
  1.2877      1.0582     0.88007     0.76102     0.70068     0.70146     0.76644     0.88959      1.0624      1.2856    
  1.5571      1.8523      2.1369      2.3956      2.6278      2.8171      2.9269      2.9324      2.8375      2.6599    
  2.4173      2.1335      1.7696      1.5136      1.2703      1.0603     0.88773     0.75262     0.66622     0.64163    
 0.67650     0.75904     0.88520      1.0582      1.2755      1.5247      1.7861      2.0339      2.2428      2.4021    
  2.5119      2.5635      2.5360      2.4210      2.2380      2.0154      1.6588      1.4483      1.2322      1.0417    
 0.88851     0.76112     0.66140     0.61081     0.61693     0.66577     0.75035     0.87670      1.0409      1.2294    
  1.4399      1.6689      1.8838      2.0429      2.1398      2.1943      2.2045      2.1460      2.0177      1.8489    
  1.5155      1.3569      1.1803      1.0122     0.87776     0.77065     0.67923     0.61758     0.60193     0.62341    
 0.67144     0.75547     0.87774      1.0159      1.1587      1.3245      1.5155      1.6879      1.8003      1.8585    
  1.8824      1.8616      1.7809      1.6571      1.3562      1.2441      1.1153     0.97989     0.86483     0.77705    
 0.70358     0.64666     0.62275     0.62949     0.65162     0.69566     0.77871     0.88728     0.98986      1.0877    
  1.2083      1.3485      1.4681      1.5427      1.5807      1.5850      1.5431      1.4589      1.1979      1.1228    
  1.0392     0.94610     0.85970     0.79296     0.73915     0.69358     0.66875     0.67009     0.68175     0.69649    
 0.73392     0.80647     0.89173     0.96369      1.0289      1.1059      1.1894      1.2587      1.3055      1.3279    
  1.3163      1.2675      1.0546      1.0087     0.96163     0.91066     0.86163     0.82451     0.79712     0.77123    
 0.75132     0.74826     0.75679     0.76099     0.76249     0.78150     0.82655     0.88235     0.93195     0.97396    
  1.0133      1.0504      1.0834      1.1085      1.1150      1.0948     0.93398     0.91262     0.89364     0.87784    
 0.86632     0.86380     0.87017     0.87683     0.87776     0.87782     0.88267     0.88627     0.87775     0.85837    
 0.84333     0.84615     0.86634     0.89229     0.91257     0.92460     0.93397     0.94522     0.95374     0.95045    
 0.83836     0.83699     0.84102     0.85390     0.87575     0.90657     0.94618     0.98980      1.0273      1.0505    
  1.0603      1.0623      1.0556      1.0312     0.98491     0.92855     0.88316     0.86034     0.85392     0.85056    
 0.84461     0.83967     0.83889     0.83962     0.76926     0.78136     0.80383     0.84094     0.89342     0.95746    
  1.0290      1.1053      1.1801      1.2409      1.2756      1.2835      1.2728      1.2479      1.2020      1.1279    
  1.0340     0.94304     0.87457     0.83138     0.80376     0.78343     0.76979     0.76512     0.72890     0.74619    
 0.78061     0.83616     0.91536      1.0136      1.1220      1.2334      1.3424      1.4403      1.5129      1.5471    
  1.5404      1.5022      1.4439      1.3668      1.2645      1.1393      1.0108     0.90402     0.82889     0.77894    
 0.74581     0.72854     0.96219     0.98635      1.0556      1.1710      1.3341      1.5398      1.7748      2.0222    
  2.2642      2.4824      2.6593      2.7764      2.8146      2.7646      2.6390      2.4657      2.2641      2.0370    
  1.7896      1.5454      1.3342      1.1709      1.0552     0.98504     0.98588     0.98668      1.0494      1.1727    
  1.3552      1.5922      1.8738      2.1852      2.5036      2.8006      3.0509      3.2377      3.3441      3.3478    
  3.2373      3.0306      2.7673      2.4799      2.1817      1.8824      1.6011      1.3605      1.1744      1.0487    
  1.0558      1.0160      1.0550      1.1735      1.3658      1.6223      1.9347      2.2943      2.6816      3.0638    
  3.4040      3.6739      3.8544      3.9278      3.8766      3.6948      3.4021      3.0418      2.6608      2.2893    
  1.9408      1.6270      1.3655      1.1727      1.1735      1.0798      1.0751      1.1696      1.3607      1.6292    
  1.9614      2.3543      2.7948      3.2499      3.6805      4.0498      4.3208      4.4642      4.4712      4.3444    
  4.0842      3.7031      3.2494      2.7874      2.3561      1.9639      1.6219      1.3536      1.3342      1.1815    
  1.1189      1.1648      1.3342      1.6042      1.9459      2.3587      2.8412      3.3575      3.8623      4.3264    
  4.7106      4.9533      5.0196      4.9297      4.7106      4.3587      3.8851      3.3551      2.8412      2.3681    
  1.9401      1.5858      1.5275      1.3134      1.1930      1.1726      1.2915      1.5444      1.8831      2.2945    
  2.7979      3.3683      3.9380      4.4720      4.9589      5.3360      5.5128      5.4738      5.2765      4.9517    
  4.4901      3.9278      3.3519      2.8130      2.3097      1.8637      1.7492      1.4622      1.2908      1.2058    
  1.2506      1.4596      1.7841      2.1756      2.6612      3.2565      3.8877      4.4776      5.0249      5.5154    
  5.8457      5.9253      5.7824      5.4858      5.0451      4.4697      3.8447      3.2545      2.7018      2.1800    
  1.9995      1.6235      1.3972      1.2628      1.2289      1.3644      1.6589      2.0306      2.4712      3.0372    
  3.7005      4.3478      4.9313      5.4737      5.9242      6.1579      6.1313      5.9068      5.5208      4.9662    
  4.3066      3.6631      3.0768      2.5131      2.2641      1.8009      1.5026      1.3272      1.2315      1.2755    
  1.5080      1.8604      2.2641      2.7636      3.3992      4.0839      4.7106      5.2746      5.7797      6.1302    
  6.2329      6.1124      5.8228      5.3508      4.7106      4.0252      3.4015      2.8229      2.5055      1.9880    
  1.6098      1.3848      1.2489      1.2105      1.3475      1.6522      2.0327      2.4715      3.0315      3.6972    
  4.3572      4.9504      5.4840      5.9067      6.1135      6.0857      5.8880      5.5315      4.9841      4.3123    
  3.6576      3.0696      2.6848      2.1589      1.7220      1.4357      1.2665      1.1761      1.2152      1.4305    
  1.7679      2.1631      2.6416      3.2341      3.8769      4.4859      5.0425      5.5213      5.8255      5.8893    
  5.7595      5.4924      5.0654      4.4763      3.8315      3.2355      2.7863      2.2817      1.8277      1.4881    
  1.2774      1.1572      1.1308      1.2469      1.5045      1.8475      2.2579      2.7610      3.3367      3.9157    
  4.4616      4.9634      5.3527      5.5329      5.4912      5.2913      4.9604      4.4833      3.9036      3.3218    
  2.8146      2.3386      1.9020      1.5401      1.2869      1.1355      1.0730      1.1182      1.2869      1.5559    
  1.8992      2.3210      2.8147      3.3328      3.8312      4.2996      4.7106      4.9866      5.0653      4.9590    
  4.7106      4.3360      3.8538      3.3254      2.7744      2.3316      1.9257      1.5753      1.3010      1.1146    
  1.0193      1.0199      1.1201      1.3110      1.5798      1.9234      2.3368      2.7898      3.2387      3.6554    
  4.0254      4.3175      4.4822      4.4879      4.3390      4.0595      3.6785      3.2349      2.6645      2.2704    
  1.8992      1.5775      1.3134      1.1097     0.98057     0.94162     0.99120      1.1164      1.3108      1.5752    
  1.9044      2.2821      2.6822      3.0687      3.4043      3.6656      3.8421      3.9176      3.8675      3.6856    
  3.3994      3.0492      2.4889      2.1626      1.8353      1.5456      1.3098      1.1185     0.97501     0.90243    
 0.90883     0.97962      1.1073      1.2974      1.5445      1.8323      2.1540      2.4997      2.8266      3.0812    
  3.2474      3.3388      3.3495      3.2538      3.0547      2.7898      2.2642      2.0137      1.7451      1.4924    
  1.2869      1.1246     0.99408     0.90953     0.88664     0.91562     0.98602      1.1088      1.2869      1.4961    
  1.7221      1.9796      2.2641      2.5219      2.7016      2.8025      2.8412      2.8055      2.6810      2.4895    
  2.0144      1.8338      1.6336      1.4306      1.2581      1.1262      1.0222     0.94693     0.91494     0.92193    
 0.95206      1.0140      1.1281      1.2816      1.4409      1.6045      1.7961      2.0061      2.1861      2.3044    
  2.3654      2.3699      2.3047      2.1765      1.7639      1.6418      1.5078      1.3660      1.2382      1.1408    
  1.0675      1.0118     0.98317     0.98407     0.99666      1.0147      1.0621      1.1550      1.2719      1.3847    
  1.4971      1.6239      1.7546      1.8627      1.9350      1.9665      1.9462      1.8721      1.5329      1.4592    
  1.3819      1.3023      1.2302      1.1783      1.1451      1.1201      1.1044      1.1051      1.1140      1.1144    
  1.1108      1.1286      1.1805      1.2521      1.3250      1.3951      1.4639      1.5283      1.5827      1.6197    
  1.6266      1.5947      1.3341      1.3013      1.2709      1.2464      1.2315      1.2324      1.2491      1.2705    
  1.2869      1.2987      1.3082      1.3076      1.2869      1.2511      1.2207      1.2137      1.2315      1.2618    
  1.2910      1.3140      1.3342      1.3535      1.3652      1.3590      1.1734      1.1738      1.1828      1.2059    
  1.2443      1.2981      1.3662      1.4409      1.5082      1.5548      1.5776      1.5797      1.5603      1.5125    
  1.4358      1.3474      1.2732      1.2280      1.2059      1.1929      1.1819      1.1749      1.1736      1.1744    
  1.0553      1.0780      1.1188      1.1827      1.2706      1.3776      1.4972      1.6231      1.7449      1.8444    
  1.9046      1.9212      1.9017      1.8519      1.7680      1.6470      1.5024      1.3623      1.2507      1.1726    
  1.1187      1.0802      1.0559      1.0477     0.98457      1.0156      1.0772      1.1729      1.3042      1.4644    
  1.6410      1.8226      1.9986      2.1544      2.2696      2.3262      2.3191      2.2582      2.1581      2.0244    
  1.8556      1.6592      1.4613      1.2922      1.1652      1.0754      1.0152     0.98414      1.3025      1.3419    
  1.4553      1.6407      1.8960      2.2120      2.5715      2.9528      3.3303      3.6750      3.9559      4.1419    
  4.2040      4.1292      3.9342      3.6572      3.3303      2.9687      2.5873      2.2179      1.8960      1.6407    
  1.4548      1.3405      1.3414      1.3422      1.4429      1.6389      1.9244      2.2903      2.7228      3.2024    
  3.6989      4.1707      4.5757      4.8790      5.0484      5.0523      4.8784      4.5540      4.1354      3.6738    
  3.1989      2.7319      2.2998      1.9301      1.6407      1.4420      1.4555      1.3929      1.4547      1.6397    
  1.9378      2.3345      2.8180      3.3762      3.9829      4.5917      5.1455      5.5921      5.8898      6.0050    
  5.9134      5.6143      5.1435      4.5684      3.9607      3.3708      2.8244      2.3395      1.9375      1.6388    
  1.6434      1.4983      1.4933      1.6393      1.9302      2.3418      2.8569      3.4709      4.1660      4.8966    
  5.6019      6.2164      6.6724      6.9155      6.9230      6.6977      6.2531      5.6260      4.8959      4.1579    
  3.4727      2.8596      2.3340      1.9227      1.8960      1.6596      1.5677      1.6418      1.8960      2.3030    
  2.8297      3.4754      4.2370      5.0687      5.9033      6.6812      7.3265      7.7417      7.8673      7.7166    
  7.3265      6.7155      5.9274      5.0660      4.2371      3.4855      2.8237      2.2834      2.1989      1.8656    
  1.6837      1.6620      1.8424      2.2170      2.7327      3.3761      4.1689      5.0799      6.0215      6.9282    
  7.7498      8.3805      8.6921      8.6505      8.3170      7.7420      6.9475      6.0107      5.0625      4.1851    
  3.3925      2.7120      2.5443      2.0998      1.8331      1.7142      1.7903      2.0972      2.5816      3.1925    
  3.9611      4.9033      5.9300      6.9341      7.8758      8.6962      9.2450      9.3988      9.1776      8.6647    
  7.8973      6.9257      5.8844      4.9013      4.0044      3.1971      2.9287      2.3552      1.9987      1.7972    
  1.7610      1.9637      2.3928      2.9620      3.6647      4.5636      5.6232      6.7040      7.7204      8.6517    
  9.3982      9.7904      9.7622      9.3798      8.7018      7.7575      6.6601      5.5833      4.6055      3.7091    
  3.3303      2.6315      2.1683      1.8937      1.7623      1.8385      2.1738      2.6947      3.3303      4.1316    
  5.1406      6.2528      7.3265      8.3150      9.1748      9.7609      9.9448      9.7420      9.2206      8.3961    
  7.3265      6.1903      5.1429      4.1945      3.6995      2.9162      2.3415      1.9874      1.7851      1.7444    
  1.9478      2.3866      2.9635      3.6632      4.5550      5.6169      6.7113      7.7386      8.6614      9.3792    
  9.7432      9.7136      9.3592      8.7119      7.7745      6.6636      5.5747      4.5954      3.9829      3.1737    
  2.5172      2.0762      1.8137      1.6899      1.7593      2.0708      2.5660      3.1780      3.9369      4.8749    
  5.9138      6.9387      7.8916      8.7011      9.2235      9.3610      9.1533      8.6704      7.9159      6.9285    
  5.8654      4.8765      4.1523      3.3613      2.6766      2.1646      1.8390      1.6595      1.6314      1.8066    
  2.1823      2.6979      3.3360      4.1253      5.0404      5.9921      6.9128      7.7523      8.3982      8.7147    
  8.6704      8.3329      7.7493      6.9359      5.9791      5.0246      4.2040      3.4527      2.7872      2.2456    
  1.8631      1.6326      1.5425      1.6141      1.8631      2.2626      2.7844      3.4339      4.2040      5.0364    
  5.8651      6.6499      7.3265      7.7793      7.9188      7.7498      7.3265      6.6887      5.8891      5.0284    
  4.1397      3.4453      2.8236      2.2973      1.8885      1.6104      1.4680      1.4685      1.6160      1.8992    
  2.3021      2.8211      3.4507      4.1561      4.8799      5.5723      6.1905      6.6718      6.9391      6.9449    
  6.6945      6.2268      5.5970      4.8758      3.9612      3.3493      2.7843      2.2996      1.9054      1.6059    
  1.4176      1.3586      1.4285      1.6129      1.9028      2.2971      2.7897      3.3618      3.9803      4.5946    
  5.1458      5.5860      5.8818      5.9998      5.9086      5.6074      5.1409      4.5738      3.6816      3.1775    
  2.6849      2.2516      1.8978      1.6151      1.4086      1.3038      1.3104      1.4133      1.6034      1.8848    
  2.2502      2.6815      3.1685      3.6934      4.1983      4.6102      4.8939      5.0487      5.0598      4.9006    
  4.5822      4.1594      3.3303      2.9432      2.5418      2.1694      1.8631      1.6207      1.4316      1.3112    
  1.2765      1.3176      1.4233      1.6044      1.8631      2.1730      2.5173      2.9073      3.3303      3.7184    
  4.0041      4.1741      4.2370      4.1771      3.9822      3.6842      2.9446      2.6664      2.3668      2.0710    
  1.8185      1.6227      1.4710      1.3642      1.3168      1.3241      1.3695      1.4626      1.6250      1.8433    
  2.0817      2.3360      2.6265      2.9357      3.2034      3.3870      3.4827      3.4873      3.3871      3.1934    
  2.5601      2.3747      2.1737      1.9676      1.7837      1.6421      1.5368      1.4601      1.4202      1.4180    
  1.4342      1.4631      1.5311      1.6572      1.8194      1.9874      2.1625      2.3557      2.5500      2.7110    
  2.8184      2.8624      2.8301      2.7209      2.2048      2.0969      1.9823      1.8671      1.7651      1.6921    
  1.6466      1.6163      1.5997      1.6012      1.6104      1.6099      1.6064      1.6292      1.6944      1.7884    
  1.8914      1.9964      2.1017      2.1997      2.2803      2.3318      2.3390      2.2929      1.8960      1.8528    
  1.8119      1.7797      1.7623      1.7675      1.7951      1.8315      1.8631      1.8863      1.9002      1.8955    
  1.8631      1.8111      1.7650      1.7475      1.7623      1.7961      1.8333      1.8662      1.8960      1.9226    
  1.9372      1.9284      1.6433      1.6514      1.6729      1.7142      1.7775      1.8628      1.9677      2.0818    
  2.1858      2.2612      2.2997      2.3021      2.2673      2.1906      2.0763      1.9476      1.8362      1.7601    
  1.7144      1.6836      1.6599      1.6449      1.6398      1.6406      1.4550      1.4965      1.5676      1.6727    
  1.8116      1.9779      2.1626      2.3559      2.5416      2.6943      2.7898      2.8186      2.7869      2.7025    
  2.5661      2.3811      2.1680      1.9615      1.7904      1.6619      1.5675      1.4988      1.4556      1.4410    
  1.3400      1.3926      1.4956      1.6503      1.8558      2.1022      2.3738      2.6546      2.9275      3.1689    
  3.3485      3.4394      3.4318      3.3363      3.1728      2.9549      2.6897      2.3932      2.0990      1.8430    
  1.6422      1.4937      1.3921      1.3395      1.7737      1.8329      2.0042      2.2823      2.6623      3.1333    
  3.6764      4.2647      4.8610      5.4166      5.8755      6.1811      6.2851      6.1675      5.8522      5.3974    
  4.8610      4.2818      3.6934      3.1396      2.6623      2.2822      2.0037      1.8314      1.8324      1.8334    
  1.9823      2.2727      2.6969      3.2450      3.9034      4.6492      5.4409      6.2141      6.8940      7.4090    
  7.6943      7.6983      7.4082      6.8709      6.1766      5.4143      4.6455      3.9131      3.2551      2.7028    
  2.2745      1.9813      2.0044      1.9134      2.0036      2.2734      2.7126      3.3075      4.0489      4.9252    
  5.9017      6.9089      7.8512      8.6279      9.1489      9.3438      9.1742      8.6517      7.8492      6.8841    
  5.8780      4.9194      4.0556      3.3127      2.7122      2.2726      2.2851      2.0753      2.0698      2.2806    
  2.7028      3.3150      4.1057      5.0755      6.2032      7.4233      8.6354      9.7169      10.535      10.976    
  10.984      10.562      9.7561      8.6611      7.4223      6.1943      5.0773      4.1086      3.3068      2.6950    
  2.6623      2.3169      2.1885      2.2979      2.6623      3.2584      4.0612      5.0801      6.3162      7.7098    
  9.1577      10.541      11.705      12.473      12.722      12.446      11.705      10.577      9.1833      7.7068    
  6.3161      5.0909      4.0549      3.2376      3.1194      2.6239      2.3631      2.3400      2.5993      3.1388    
  3.9140      4.9250      6.2059      7.7215      9.3546      10.984      12.479      13.635      14.234      14.189    
  13.567      12.470      11.004      9.3431      7.7031      6.2234      4.9426      3.8918      3.6475      2.9774    