unknown system                          
   1.00000000000000     
     3.190316    0.000000    0.000000
    -1.595158    2.762894    0.000000
     0.000000    0.000000   38.879004
   Mo   S 
     1     2
Direct
  0.333333  0.666667  0.095675
  0.666667  0.333333  0.055425
  0.666666  0.333333  0.135925
 
   24   24  300
 0.53431008374E+00 0.54218503326E+00 0.56341972290E+00 0.60028698816E+00 0.65661947629E+00
 0.73156862047E+00 0.81876525231E+00 0.91045709286E+00 0.99988225581E+00 0.10813436787E+01
 0.11495121919E+01 0.11964821329E+01 0.12107611700E+01 0.11859576546E+01 0.11315200968E+01
 0.10666003719E+01 0.99987483369E+00 0.92354740765E+00 0.83181769470E+00 0.73643697227E+00
 0.65659585840E+00 0.60018552394E+00 0.56302750851E+00 0.54105466838E+00 0.54178864411E+00
 0.54254583750E+00 0.56198198787E+00 0.60097656817E+00 0.66228527269E+00 0.74690906855E+00
 0.85233709879E+00 0.97256024843E+00 0.10968423803E+01 0.12113844833E+01 0.13066314514E+01
 0.13797650751E+01 0.14252163749E+01 0.14285022800E+01 0.13793167261E+01 0.12885035578E+01
 0.11816661207E+01 0.10754909674E+01 0.96925480422E+00 0.85992050109E+00 0.75507523548E+00
 0.66710723801E+00 0.60245705753E+00 0.56118732865E+00 0.56360868185E+00 0.55102572642E+00
 0.56292729083E+00 0.60166372613E+00 0.66705245699E+00 0.75687260839E+00 0.87092714495E+00
 0.10088784155E+01 0.11625541855E+01 0.13143596423E+01 0.14462674941E+01 0.15489970059E+01
 0.16201595284E+01 0.16544887752E+01 0.16400166191E+01 0.15676010122E+01 0.14443971052E+01
 0.12945769122E+01 0.11439081640E+01 0.10045425272E+01 0.87655835747E+00 0.76122115557E+00
 0.66679655484E+00 0.60094607608E+00 0.60253418235E+00 0.57228849319E+00 0.56803689370E+00
 0.59902658557E+00 0.66731745177E+00 0.76320769523E+00 0.88254114348E+00 0.10304584244E+01
 0.12036038329E+01 0.13836878660E+01 0.15512571928E+01 0.16926782134E+01 0.17948040876E+01
 0.18481782316E+01 0.18543818057E+01 0.18158460176E+01 0.17232719151E+01 0.15714460904E+01
 0.13832645128E+01 0.11971675351E+01 0.10322096175E+01 0.88486238776E+00 0.75662753908E+00
 0.66100263428E+00 0.65659584397E+00 0.60933659161E+00 0.58405288397E+00 0.59440701041E+00
 0.65660185210E+00 0.75785391814E+00 0.88131083167E+00 0.10347089952E+01 0.12245614381E+01
 0.14286644796E+01 0.16212597696E+01 0.17969809998E+01 0.19450847634E+01 0.20336320553E+01
 0.20480175960E+01 0.20124997191E+01 0.19450818703E+01 0.18259358850E+01 0.16417665848E+01
 0.14266487494E+01 0.12245599904E+01 0.10429178484E+01 0.87597719784E+00 0.74128437001E+00
 0.72044437597E+00 0.65594228629E+00 0.61480951923E+00 0.59657247609E+00 0.63633764659E+00
 0.73555893434E+00 0.86072843734E+00 0.10093646825E+01 0.12067188922E+01 0.14384656490E+01
 0.16569920434E+01 0.18509881601E+01 0.20368997973E+01 0.21871899872E+01 0.22450742686E+01
 0.22102403125E+01 0.21341433249E+01 0.20305266195E+01 0.18672336586E+01 0.16478333408E+01
 0.14237130447E+01 0.12199986873E+01 0.10227800824E+01 0.84319395548E+00 0.79571190226E+00
 0.70286631911E+00 0.65387482961E+00 0.61376274183E+00 0.61785866861E+00 0.70049012680E+00
 0.82676972251E+00 0.96369979159E+00 0.11441944024E+01 0.13897310832E+01 0.16442343237E+01
 0.18561765759E+01 0.20505489758E+01 0.22465927775E+01 0.23819119470E+01 0.23972373413E+01
 0.23253615258E+01 0.22201521595E+01 0.20685847903E+01 0.18489961297E+01 0.16056607835E+01
 0.13878581136E+01 0.11805951348E+01 0.96774384620E+00 0.89007467556E+00 0.75092314823E+00
 0.68906393818E+00 0.64250636056E+00 0.61232792028E+00 0.65990116514E+00 0.78247186667E+00
 0.91755119117E+00 0.10674284958E+01 0.12904398024E+01 0.15691773577E+01 0.18162923353E+01
 0.20123342335E+01 0.22093938947E+01 0.23960655031E+01 0.24888480459E+01 0.24649845145E+01
 0.23803141218E+01 0.22513799603E+01 0.20435168999E+01 0.17794062721E+01 0.15356246778E+01
 0.13258046961E+01 0.11052077911E+01 0.99987484131E+00 0.81011894307E+00 0.71570159647E+00
 0.66852293810E+00 0.62077233317E+00 0.62234882801E+00 0.72064540861E+00 0.86343596073E+00
 0.99987913465E+00 0.11782549204E+01 0.14416516900E+01 0.17229358661E+01 0.19450872820E+01
 0.21324492936E+01 0.23229756912E+01 0.24639532770E+01 0.24955154923E+01 0.24480404129E+01
 0.23614673208E+01 0.22005527697E+01 0.19450819035E+01 0.16705064345E+01 0.14438159401E+01
 0.12313489899E+01 0.11021411901E+01 0.88316327731E+00 0.74198638627E+00 0.68133889297E+00
 0.63348553505E+00 0.59912832792E+00 0.64797113793E+00 0.78009887818E+00 0.92345901452E+00
 0.10719319093E+01 0.12892314756E+01 0.15695415447E+01 0.18272319677E+01 0.20310257594E+01
 0.22193135602E+01 0.23804607046E+01 0.24490772534E+01 0.24243243860E+01 0.23639414756E+01
 0.22617737199E+01 0.20610974405E+01 0.17871437979E+01 0.15343051775E+01 0.13233104163E+01
 0.11724072534E+01 0.95564297539E+00 0.77774063307E+00 0.68543074098E+00 0.63837428597E+00
 0.59347970621E+00 0.59245130489E+00 0.68065894780E+00 0.81872043697E+00 0.95945794841E+00
 0.11339763993E+01 0.13766131494E+01 0.16403202761E+01 0.18675085314E+01 0.20684692370E+01
 0.22526094388E+01 0.23638628486E+01 0.23648377180E+01 0.23049190238E+01 0.22268367557E+01
 0.20889047539E+01 0.18589754312E+01 0.15997106735E+01 0.13778057831E+01 0.12053496736E+01
 0.10067277848E+01 0.81952608727E+00 0.69343826847E+00 0.63213213779E+00 0.59139983622E+00
 0.56776658881E+00 0.60473560366E+00 0.70780617825E+00 0.83693056981E+00 0.98539814591E+00
 0.11828885150E+01 0.14187252110E+01 0.16436532201E+01 0.18458715966E+01 0.20426847117E+01
 0.22022581503E+01 0.22622586384E+01 0.22249558613E+01 0.21473155638E+01 0.20399672016E+01
 0.18652215676E+01 0.16328518461E+01 0.14053543990E+01 0.12107612118E+01 0.10266003968E+01
 0.85132634532E+00 0.70965799848E+00 0.62374941762E+00 0.57815627223E+00 0.55334945681E+00
 0.56285623827E+00 0.62373984296E+00 0.72352679369E+00 0.84876174346E+00 0.10108292889E+01
 0.12107622478E+01 0.14151586355E+01 0.15994331189E+01 0.17758657497E+01 0.19450873225E+01
 0.20616324176E+01 0.20866547775E+01 0.20370670045E+01 0.19450848370E+01 0.18082808904E+01
 0.16195783676E+01 0.14086570033E+01 0.11948149912E+01 0.10201928136E+01 0.86043794918E+00
 0.72457652035E+00 0.62374103950E+00 0.56036719467E+00 0.52947501546E+00 0.53035592762E+00
 0.56574035062E+00 0.63282100563E+00 0.72847936367E+00 0.85849919448E+00 0.10249875507E+01
 0.12084375904E+01 0.13805252621E+01 0.15323335520E+01 0.16708518886E+01 0.17889767100E+01
 0.18600887101E+01 0.18653135796E+01 0.18083707651E+01 0.17011840209E+01 0.15529091634E+01
 0.13773639402E+01 0.11544301661E+01 0.99657816939E+00 0.84866968653E+00 0.72649818426E+00
 0.63029903618E+00 0.55547082618E+00 0.50814195452E+00 0.49698388247E+00 0.51809361053E+00
 0.56165598664E+00 0.62784367060E+00 0.72456723543E+00 0.85367972047E+00 0.10070351207E+01
 0.11699456031E+01 0.13225273370E+01 0.14465696669E+01 0.15379496162E+01 0.16032106107E+01
 0.16387545174E+01 0.16261777450E+01 0.15558508542E+01 0.14419307502E+01 0.13051204909E+01
 0.10874401782E+01 0.95915024953E+00 0.82616385431E+00 0.71448959039E+00 0.63185542776E+00
 0.56369054363E+00 0.50764657333E+00 0.48023476349E+00 0.48607965984E+00 0.51177732540E+00
 0.55331454240E+00 0.62056742365E+00 0.71379785212E+00 0.82363508921E+00 0.95111654129E+00
 0.10968863497E+01 0.12347682540E+01 0.13300090618E+01 0.13813896939E+01 0.14118867136E+01
 0.14217041005E+01 0.13874357123E+01 0.13060182353E+01 0.12015320903E+01 0.99988227358E+00
 0.90645063503E+00 0.79836225750E+00 0.69701757168E+00 0.62376949845E+00 0.56974385994E+00
 0.52068596922E+00 0.48670208780E+00 0.48045097419E+00 0.49227648446E+00 0.51317565794E+00
 0.55511421043E+00 0.62373982273E+00 0.70070748377E+00 0.77783329968E+00 0.87562491052E+00
 0.99987914484E+00 0.11131945502E+01 0.11803002147E+01 0.12104182065E+01 0.12245614761E+01
 0.12135485023E+01 0.11619730349E+01 0.10838151212E+01 0.90311232179E+00 0.83971682590E+00
 0.76342093488E+00 0.68064680915E+00 0.61456862829E+00 0.56990224403E+00 0.53230998510E+00
 0.50174018579E+00 0.49165060521E+00 0.49816594524E+00 0.50657363135E+00 0.52467832540E+00
 0.57133687587E+00 0.63596227585E+00 0.69024867654E+00 0.73721327640E+00 0.80567434893E+00
 0.89591314958E+00 0.97328952763E+00 0.10180124800E+01 0.10404211167E+01 0.10446418110E+01
 0.10184681761E+01 0.96448149994E+00 0.80868562042E+00 0.76719256712E+00 0.72056532090E+00
 0.66462975125E+00 0.61291115556E+00 0.57655765778E+00 0.54829313917E+00 0.52272023939E+00
 0.51060632295E+00 0.51598800645E+00 0.52313954522E+00 0.52556288953E+00 0.54326983318E+00
 0.58940354979E+00 0.64341809604E+00 0.68126699713E+00 0.71056577795E+00 0.75124410073E+00
 0.80074358304E+00 0.84249089458E+00 0.87123118736E+00 0.88713477370E+00 0.88158797472E+00
 0.85082612905E+00 0.72528826160E+00 0.70011259029E+00 0.67550240833E+00 0.64642456007E+00
 0.61678952643E+00 0.59551197771E+00 0.58059306419E+00 0.56434790244E+00 0.55117018283E+00
 0.55131369022E+00 0.55950622066E+00 0.56049045181E+00 0.55605047710E+00 0.56572750099E+00
 0.59751513639E+00 0.63645960561E+00 0.66648530489E+00 0.68709356375E+00 0.70452556511E+00
 0.72135682408E+00 0.73851667062E+00 0.75457867280E+00 0.76090802690E+00 0.74943350526E+00
 0.65661947756E+00 0.64513860164E+00 0.63602503428E+00 0.62794546968E+00 0.62073800424E+00
 0.61884140545E+00 0.62299079861E+00 0.62614189329E+00 0.62376948568E+00 0.62153045313E+00
 0.62538107873E+00 0.62963668067E+00 0.62374938465E+00 0.60851164471E+00 0.59748714439E+00
 0.60217321255E+00 0.62077232988E+00 0.64157217358E+00 0.65396447141E+00 0.65655873452E+00
 0.65660186779E+00 0.66074031283E+00 0.66647129340E+00 0.66577978858E+00 0.60248645635E+00
 0.60241639811E+00 0.60567373354E+00 0.61377502882E+00 0.62591644684E+00 0.64243463445E+00
 0.66467523924E+00 0.69019106067E+00 0.71151033047E+00 0.72287650310E+00 0.72654367322E+00
 0.72844316847E+00 0.72768287808E+00 0.71512067353E+00 0.68547621177E+00 0.64799754276E+00
 0.62030556858E+00 0.61132405102E+00 0.61380821755E+00 0.61476452092E+00 0.60966336863E+00
 0.60366569889E+00 0.60170922293E+00 0.60244206644E+00 0.56321888182E+00 0.57065814282E+00
 0.58390502845E+00 0.60562824525E+00 0.63582418406E+00 0.67146698817E+00 0.71068651390E+00
 0.75383118845E+00 0.79816140306E+00 0.83450527179E+00 0.85378846790E+00 0.85652582101E+00
 0.85112551382E+00 0.84116303460E+00 0.81882861733E+00 0.77528224493E+00 0.71550075860E+00
 0.65783615844E+00 0.61796988240E+00 0.59657197419E+00 0.58385202977E+00 0.57263050709E+00
 0.56370931037E+00 0.56047101476E+00 0.54063128702E+00 0.55061439696E+00 0.56996693707E+00
 0.60167970557E+00 0.64781333624E+00 0.70483919590E+00 0.76650134683E+00 0.82943586493E+00
 0.89260356984E+00 0.95149999931E+00 0.99588693415E+00 0.10155894487E+01 0.10092212126E+01
 0.98578205373E+00 0.95495177815E+00 0.91576793534E+00 0.85898203259E+00 0.78284215225E+00
 0.70217513096E+00 0.63701355700E+00 0.59472595672E+00 0.56838607545E+00 0.55033451742E+00
 0.54034365441E+00 0.71675063830E+00 0.73055653106E+00 0.76948830273E+00 0.83604447823E+00
 0.93398000074E+00 0.10611713657E+01 0.12084131128E+01 0.13637991618E+01 0.15155185576E+01
 0.16525115016E+01 0.17645175935E+01 0.18396240728E+01 0.18634795564E+01 0.18285321921E+01
 0.17454782432E+01 0.16368466987E+01 0.15154709713E+01 0.13776821066E+01 0.12222739305E+01
 0.10663452535E+01 0.93397188440E+00 0.83596225828E+00 0.76908047069E+00 0.72934764175E+00
 0.73012961597E+00 0.73090512897E+00 0.76673982217E+00 0.83808210236E+00 0.94682776559E+00
 0.10922968074E+01 0.12691489709E+01 0.14672930662E+01 0.16706503795E+01 0.18591699177E+01
 0.20170509983E+01 0.21360500229E+01 0.22061413962E+01 0.22096505889E+01 0.21356237064E+01
 0.19978888912E+01 0.18277744363E+01 0.16481853403E+01 0.14639085318E+01 0.12771575871E+01
 0.11008299451E+01 0.95186256769E+00 0.83967242243E+00 0.76595596993E+00 0.76966533658E+00
 0.74655470068E+00 0.76897757680E+00 0.83881115751E+00 0.95432392416E+00 0.11108721365E+01
 0.13051983781E+01 0.15331367816E+01 0.17815100598E+01 0.20263903980E+01 0.22424990401E+01
 0.24131149760E+01 0.25289777874E+01 0.25794410994E+01 0.25499479952E+01 0.24327743277E+01
 0.22405852554E+01 0.20056052968E+01 0.17618750471E+01 0.15284850634E+01 0.13110119161E+01
 0.11154004716E+01 0.95406703924E+00 0.83805294672E+00 0.83839680812E+00 0.78303796476E+00
 0.77859175566E+00 0.83475077518E+00 0.95205473533E+00 0.11174569331E+01 0.13230175889E+01
 0.15702139247E+01 0.18512907481E+01 0.21421440231E+01 0.24161237132E+01 0.26508710874E+01
 0.28232128858E+01 0.29144922682E+01 0.29210406946E+01 0.28454283602E+01 0.26831842052E+01
 0.24374651459E+01 0.21416965568E+01 0.18444301426E+01 0.15719779747E+01 0.13254544269E+01
 0.11105644710E+01 0.94540708554E+00 0.93397186997E+00 0.84429371898E+00 0.80398396704E+00
 0.82855133959E+00 0.93396677830E+00 0.11037295707E+01 0.13159621152E+01 0.15745475958E+01
 0.18823799278E+01 0.22120004838E+01 0.25309426100E+01 0.28255953140E+01 0.30736203988E+01
 0.32289479219E+01 0.32660793438E+01 0.32066702809E+01 0.30736155505E+01 0.28560930171E+01
 0.25524965037E+01 0.22098175584E+01 0.18823920676E+01 0.15832858057E+01 0.13104270639E+01
 0.10863055896E+01 0.10494973880E+01 0.92401250378E+00 0.85062649811E+00 0.83139323468E+00
 0.90334485162E+00 0.10654418056E+01 0.12779755063E+01 0.15334905968E+01 0.18544363689E+01
 0.22222694981E+01 0.25827932013E+01 0.29173526637E+01 0.32321087215E+01 0.34829792280E+01
 0.35949795764E+01 0.35582081211E+01 0.34269720301E+01 0.32253486137E+01 0.29344574657E+01
 0.25730985841E+01 0.22067120760E+01 0.18685154409E+01 0.15477343805E+01 0.12595277738E+01
 0.11841632483E+01 0.10115750626E+01 0.91246025954E+00 0.85384100798E+00 0.87446331261E+00
 0.10091191695E+01 0.12170269952E+01 0.14580927007E+01 0.17621678404E+01 0.21484684042E+01
 0.25550348374E+01 0.29227377290E+01 0.32682375059E+01 0.35962269613E+01 0.38222129853E+01
 0.38681260755E+01 0.37625164121E+01 0.35683151857E+01 0.32872922828E+01 0.29152081748E+01
 0.25143858127E+01 0.21465325418E+01 0.18005706002E+01 0.14622890795E+01 0.13423204999E+01
 0.11055506377E+01 0.97599908300E+00 0.89322105351E+00 0.86132760463E+00 0.94516770643E+00
 0.11389038459E+01 0.13714767722E+01 0.16397816770E+01 0.20012510938E+01 0.24350154898E+01
 0.28458687340E+01 0.32061346788E+01 0.35569422032E+01 0.38667077661E+01 0.40273901529E+01
 0.40022279762E+01 0.38501256041E+01 0.36012753684E+01 0.32390595140E+01 0.28069890381E+01
 0.23996689672E+01 0.20385654626E+01 0.16795260516E+01 0.15154709789E+01 0.12129559434E+01
 0.10342262787E+01 0.93408128212E+00 0.86634263853E+00 0.88527844725E+00 0.10393526416E+01
 0.12691709827E+01 0.15154767914E+01 0.18242413807E+01 0.22377639910E+01 0.26828699977E+01
 0.30736272154E+01 0.34251793985E+01 0.37599953311E+01 0.40011376629E+01 0.40675677841E+01
 0.39843461434E+01 0.38006270969E+01 0.34970633500E+01 0.30736155837E+01 0.26275062274E+01
 0.22400003977E+01 0.18802359128E+01 0.16743907945E+01 0.13324310556E+01 0.10927356680E+01
 0.96377777849E+00 0.87928731824E+00 0.84303684332E+00 0.92854488745E+00 0.11328504781E+01
 0.13747911891E+01 0.16424026980E+01 0.19987116757E+01 0.24349166784E+01 0.28574872042E+01
 0.32262162732E+01 0.35677913900E+01 0.38504583677E+01 0.39854383111E+01 0.39592873263E+01
 0.38329834250E+01 0.36126000752E+01 0.32579567715E+01 0.28151217399E+01 0.23976317081E+01
 0.20346510287E+01 0.17886429849E+01 0.14446552814E+01 0.11585664928E+01 0.98482441866E+00
 0.88649188936E+00 0.82238519373E+00 0.83808934923E+00 0.97986616903E+00 0.12018365878E+01
 0.14486211631E+01 0.17480023657E+01 0.21327184548E+01 0.25502524805E+01 0.29349045039E+01
 0.32876760572E+01 0.36029340535E+01 0.38031600736E+01 0.38337475991E+01 0.37409375872E+01
 0.35757303015E+01 0.33092440869E+01 0.29258767043E+01 0.25073681570E+01 0.21340042692E+01
 0.18489887686E+01 0.15243111676E+01 0.12250844294E+01 0.10082561524E+01 0.88323283202E+00
 0.80852451483E+00 0.78360979668E+00 0.85442341785E+00 0.10235889848E+01 0.12435798414E+01
 0.15018072338E+01 0.18252267704E+01 0.21992481106E+01 0.25679577127E+01 0.29120465188E+01
 0.32385009602E+01 0.34988794185E+01 0.36127603791E+01 0.35733689949E+01 0.34408719923E+01
 0.32356621341E+01 0.29325142702E+01 0.25565831201E+01 0.21851731634E+01 0.18634795982E+01
 0.15587713756E+01 0.12730724203E+01 0.10365581054E+01 0.87774639252E+00 0.78579023078E+00
 0.74439398442E+00 0.76957478018E+00 0.87774136364E+00 0.10512913140E+01 0.12704256103E+01
 0.15421185350E+01 0.18634938186E+01 0.21955218412E+01 0.25070877383E+01 0.28032128449E+01
 0.30736272558E+01 0.32582266011E+01 0.33063481974E+01 0.32322263343E+01 0.30736204724E+01
 0.28375086609E+01 0.25283929340E+01 0.21886291624E+01 0.18378294775E+01 0.15520496491E+01
 0.12876895012E+01 0.10582256927E+01 0.88006850410E+00 0.76102240713E+00 0.70068185142E+00
 0.70145702213E+00 0.76644298467E+00 0.88958588168E+00 0.10623871427E+01 0.12856014668E+01
 0.15570542070E+01 0.18522808422E+01 0.21369145137E+01 0.23955779546E+01 0.26278319609E+01
 0.28171046730E+01 0.29269338096E+01 0.29324058990E+01 0.28375431173E+01 0.26599032253E+01
 0.24173110797E+01 0.21334734361E+01 0.17695775570E+01 0.15136368809E+01 0.12703440437E+01
 0.10602525810E+01 0.88772809347E+00 0.75262004458E+00 0.66621743963E+00 0.64162844287E+00
 0.67650359388E+00 0.75904392006E+00 0.88520485410E+00 0.10581910682E+01 0.12754855765E+01
 0.15246652588E+01 0.17861071653E+01 0.20338543218E+01 0.22428239572E+01 0.24020553664E+01
 0.25118642454E+01 0.25635439133E+01 0.25360025746E+01 0.24209597588E+01 0.22380239996E+01
 0.20154315435E+01 0.16588005696E+01 0.14482775388E+01 0.12321785019E+01 0.10417160987E+01
 0.88851011786E+00 0.76111853014E+00 0.66139631740E+00 0.61080836140E+00 0.61692939629E+00
 0.66577093723E+00 0.75035341453E+00 0.87669929218E+00 0.10408500774E+01 0.12294123719E+01
 0.14399306947E+01 0.16688548619E+01 0.18837738888E+01 0.20429017963E+01 0.21397779536E+01
 0.21943297394E+01 0.22045471817E+01 0.21459985465E+01 0.20176999297E+01 0.18488599691E+01
 0.15155185753E+01 0.13568604168E+01 0.11803460619E+01 0.10121872491E+01 0.87775617324E+00
 0.77065165234E+00 0.67922574298E+00 0.61758119391E+00 0.60192626835E+00 0.62340535260E+00
 0.67144365209E+00 0.75547259773E+00 0.87774134341E+00 0.10158974331E+01 0.11586718655E+01
 0.13244821073E+01 0.15154768015E+01 0.16879083063E+01 0.18002785425E+01 0.18585192522E+01
 0.18823799658E+01 0.18616212263E+01 0.17809252167E+01 0.16571034217E+01 0.13562057914E+01
 0.12441211160E+01 0.11152701722E+01 0.97988880573E+00 0.86483195698E+00 0.77705465222E+00
 0.70357737930E+00 0.64665921745E+00 0.62275281223E+00 0.62949369650E+00 0.65162328382E+00
 0.69565827406E+00 0.77871168207E+00 0.88727623231E+00 0.98986098984E+00 0.10877129994E+01
 0.12083341658E+01 0.13485114408E+01 0.14680875288E+01 0.15427450643E+01 0.15806966095E+01
 0.15850447875E+01 0.15431316342E+01 0.14589177199E+01 0.11979376307E+01 0.11227619695E+01
 0.10392383509E+01 0.94609972836E+00 0.85969550168E+00 0.79295902526E+00 0.73914717079E+00
 0.69358254151E+00 0.66875024650E+00 0.67008681180E+00 0.68175286974E+00 0.69648577927E+00
 0.73391851057E+00 0.80646780785E+00 0.89172957566E+00 0.96368753148E+00 0.10288771608E+01
 0.11059436981E+01 0.11893918162E+01 0.12587262015E+01 0.13054866207E+01 0.13278536033E+01
 0.13162587506E+01 0.12675295069E+01 0.10546042782E+01 0.10087283687E+01 0.96162808798E+00
 0.91065524336E+00 0.86163353496E+00 0.82450890025E+00 0.79712466754E+00 0.77122545444E+00
 0.75131954637E+00 0.74826237957E+00 0.75678567493E+00 0.76099195392E+00 0.76249284341E+00
 0.78150089352E+00 0.82655085978E+00 0.88234514171E+00 0.93195480138E+00 0.97396225106E+00
 0.10132848436E+01 0.10503581693E+01 0.10834201030E+01 0.11084552906E+01 0.11150377909E+01
 0.10948429857E+01 0.93398000201E+00 0.91262064167E+00 0.89364163485E+00 0.87783755541E+00
 0.86632279958E+00 0.86379773659E+00 0.87017099494E+00 0.87682822731E+00 0.87775616046E+00
 0.87781816868E+00 0.88266814682E+00 0.88626600476E+00 0.87774635955E+00 0.85837337547E+00
 0.84332716271E+00 0.84614612417E+00 0.86634263524E+00 0.89228632656E+00 0.91257400521E+00
 0.92459561481E+00 0.93396679400E+00 0.94521729896E+00 0.95373906803E+00 0.95044868899E+00
 0.83836294888E+00 0.83698714409E+00 0.84101948722E+00 0.85389563566E+00 0.87575312903E+00
 0.90657257215E+00 0.94618270663E+00 0.98980065904E+00 0.10272707106E+01 0.10504895629E+01
 0.10603355602E+01 0.10623387968E+01 0.10556068511E+01 0.10311970979E+01 0.98490737973E+00
 0.92855215317E+00 0.88315630921E+00 0.86034385236E+00 0.85392397399E+00 0.85055955122E+00
 0.84461219183E+00 0.83966976296E+00 0.83889414458E+00 0.83961860461E+00 0.76926493484E+00
 0.78135544030E+00 0.80383173002E+00 0.84093650865E+00 0.89341825782E+00 0.95746243195E+00
 0.10289862205E+01 0.11052753337E+01 0.11801226807E+01 0.12408689806E+01 0.12756273410E+01
 0.12834934268E+01 0.12728490620E+01 0.12479424269E+01 0.12019545889E+01 0.11278783115E+01
 0.10340029141E+01 0.94303892136E+00 0.87457294935E+00 0.83137719109E+00 0.80376058605E+00
 0.78342775322E+00 0.76978581569E+00 0.76512035479E+00 0.72889641420E+00 0.74618568793E+00
 0.78061411243E+00 0.83616283916E+00 0.91536341165E+00 0.10136353323E+01 0.11220206271E+01
 0.12333849408E+01 0.13424352807E+01 0.14403283494E+01 0.15128955236E+01 0.15471122158E+01
 0.15403809571E+01 0.15021945084E+01 0.14439139621E+01 0.13668323763E+01 0.12645392681E+01
 0.11392521457E+01 0.10108337523E+01 0.90402189038E+00 0.82889122190E+00 0.77894328497E+00
 0.74581336957E+00 0.72854432951E+00 0.96219206867E+00 0.98634714004E+00 0.10555671938E+01
 0.11709604625E+01 0.13341379020E+01 0.15398442126E+01 0.17748188698E+01 0.20222193210E+01
 0.22641500264E+01 0.24823866167E+01 0.26592820984E+01 0.27763989397E+01 0.28146430123E+01
 0.27646165063E+01 0.26390177727E+01 0.24656947788E+01 0.22641100392E+01 0.20370319148E+01
 0.17895857119E+01 0.15453519033E+01 0.13341678737E+01 0.11709337969E+01 0.10551504074E+01
 0.98503738383E+00 0.98588154911E+00 0.98668445692E+00 0.10494484936E+01 0.11727334823E+01
 0.13552069570E+01 0.15921509282E+01 0.18738242622E+01 0.21851687087E+01 0.25036114701E+01
 0.28006076159E+01 0.30509356243E+01 0.32377225144E+01 0.33440650035E+01 0.33477991201E+01
 0.32372650298E+01 0.30305648515E+01 0.27673076199E+01 0.24798976497E+01 0.21817182207E+01
 0.18823529759E+01 0.16011426949E+01 0.13605079394E+01 0.11744474619E+01 0.10486641440E+01
 0.10557535810E+01 0.10159653561E+01 0.10550385224E+01 0.11735151619E+01 0.13658204760E+01
 0.16222627010E+01 0.19347160718E+01 0.22942883842E+01 0.26816253831E+01 0.30637678724E+01
 0.34040206056E+01 0.36739472656E+01 0.38543830014E+01 0.39278107252E+01 0.38766281042E+01
 0.36948218817E+01 0.34020572589E+01 0.30418136420E+01 0.26608356473E+01 0.22892798315E+01
 0.19407523086E+01 0.16269834281E+01 0.13655340082E+01 0.11727087189E+01 0.11734762916E+01
 0.10797533629E+01 0.10750517414E+01 0.11696258050E+01 0.13606818803E+01 0.16291515251E+01
 0.19613559531E+01 0.23543072838E+01 0.27948165682E+01 0.32499126928E+01 0.36804973533E+01
 0.40498213681E+01 0.43207931039E+01 0.44641900472E+01 0.44711704901E+01 0.43444356851E+01
 0.40841629365E+01 0.37031398593E+01 0.32493651824E+01 0.27874174839E+01 0.23560730330E+01
 0.19639036582E+01 0.16218580243E+01 0.13536437868E+01 0.13341678593E+01 0.11815271238E+01
 0.11189112377E+01 0.11648430510E+01 0.13341524573E+01 0.16041725634E+01 0.19459057031E+01
 0.23587023077E+01 0.28411865464E+01 0.33575433532E+01 0.38623408164E+01 0.43264019841E+01
 0.47105834696E+01 0.49533077800E+01 0.50195860105E+01 0.49297163737E+01 0.47105890676E+01
 0.43586832396E+01 0.38850865706E+01 0.33551475833E+01 0.28412155403E+01 0.23680699044E+01
 0.19401491486E+01 0.15857591630E+01 0.15275216433E+01 0.13133828432E+01 0.11929634637E+01
 0.11726130255E+01 0.12915427680E+01 0.15444330201E+01 0.18831429178E+01 0.22944548829E+01
 0.27979266066E+01 0.33682954957E+01 0.39380254207E+01 0.44720121118E+01 0.49589188781E+01
 0.53360064396E+01 0.55128427057E+01 0.54737909739E+01 0.52764944487E+01 0.49516659701E+01
 0.44901401743E+01 0.39277793422E+01 0.33518566918E+01 0.28129560381E+01 0.23096930013E+01
 0.18636785771E+01 0.17491807629E+01 0.14621506945E+01 0.12908248299E+01 0.12058212096E+01
 0.12505539236E+01 0.14596000522E+01 0.17841181989E+01 0.21756191858E+01 0.26611501211E+01
 0.32564846055E+01 0.38876885999E+01 0.44776490534E+01 0.50248902962E+01 0.55154340325E+01
 0.58456721473E+01 0.59252930038E+01 0.57823660020E+01 0.54858259262E+01 0.50451045966E+01
 0.44697270307E+01 0.38446816128E+01 0.32544905706E+01 0.27018437750E+01 0.21799795012E+01
 0.19995120448E+01 0.16234818465E+01 0.13972429939E+01 0.12627796909E+01 0.12288904378E+01
 0.13644406605E+01 0.16588800024E+01 0.20306312896E+01 0.24711571994E+01 0.30372346027E+01
 0.37005066538E+01 0.43478478572E+01 0.49313194797E+01 0.54736957915E+01 0.59242414186E+01
 0.61579164218E+01 0.61313361738E+01 0.59068325882E+01 0.55207629140E+01 0.49661898227E+01
 0.43066240119E+01 0.36630774724E+01 0.30767506128E+01 0.25130958988E+01 0.22641100468E+01
 0.18008882452E+01 0.15026473307E+01 0.13272441207E+01 0.12315120880E+01 0.12754530870E+01
 0.15079820605E+01 0.18603944412E+01 0.22641113634E+01 0.27636475443E+01 0.33991657139E+01
 0.40838787445E+01 0.47106019826E+01 0.52745839916E+01 0.57796920491E+01 0.61301819169E+01
 0.62328999950E+01 0.61123881505E+01 0.58227709536E+01 0.53507926169E+01 0.47105891009E+01
 0.40251525599E+01 0.34014540935E+01 0.28229313593E+01 0.25055253721E+01 0.19880059237E+01
 0.16097610564E+01 0.13847600489E+01 0.12489046810E+01 0.12105415639E+01 0.13474767148E+01
 0.16521671145E+01 0.20326592740E+01 0.24714608196E+01 0.30314870805E+01 0.36971775165E+01
 0.43572046250E+01 0.49503855333E+01 0.54840121802E+01 0.59067346612E+01 0.61135446086E+01
 0.60857317510E+01 0.58880453141E+01 0.55314518200E+01 0.49840863471E+01 0.43123134288E+01
 0.36575742230E+01 0.30695512954E+01 0.26847837297E+01 0.21589381928E+01 0.17219774856E+01
 0.14356780988E+01 0.12664779587E+01 0.11761411118E+01 0.12152474517E+01 0.14305133882E+01
 0.17678657069E+01 0.21630657406E+01 0.26415954243E+01 0.32341100308E+01 0.38769375086E+01
 0.44858916748E+01 0.50424925067E+01 0.55212598829E+01 0.58254580070E+01 0.58893044466E+01
 0.57595012672E+01 0.54924295782E+01 0.50653519689E+01 0.44762959031E+01 0.38314653585E+01
 0.32355263253E+01 0.27862933966E+01 0.22816753274E+01 0.18276640893E+01 0.14880796700E+01
 0.12774297642E+01 0.11571846898E+01 0.11307608244E+01 0.12469381542E+01 0.15045209586E+01
 0.18474683343E+01 0.22578602574E+01 0.27610321266E+01 0.33366978779E+01 0.39156554673E+01
 0.44616319178E+01 0.49633734874E+01 0.53527287793E+01 0.55328925445E+01 0.54911742941E+01
 0.52913335792E+01 0.49604453208E+01 0.44833244181E+01 0.39035509738E+01 0.33218006553E+01
 0.28146430541E+01 0.23386370268E+01 0.19019596918E+01 0.15400948714E+01 0.12869090406E+01
 0.11355133135E+01 0.10729742620E+01 0.11182155838E+01 0.12869049362E+01 0.15558575314E+01
 0.18992466525E+01 0.23209670675E+01 0.28146706715E+01 0.33328045521E+01 0.38311715510E+01
 0.42995905109E+01 0.47106020231E+01 0.49866229227E+01 0.50652952545E+01 0.49589656280E+01
 0.47105835432E+01 0.43360341915E+01 0.38537798403E+01 0.33254373214E+01 0.27744373908E+01
 0.23315776835E+01 0.19257358031E+01 0.15753112962E+01 0.13010055659E+01 0.11146402877E+01
 0.10192788013E+01 0.10199277461E+01 0.11201210699E+01 0.13110480096E+01 0.15797655026E+01
 0.19234310823E+01 0.23367890431E+01 0.27898363824E+01 0.32386545015E+01 0.36553853418E+01
 0.40254493003E+01 0.43174554031E+01 0.44821935458E+01 0.44878807879E+01 0.43389798192E+01
 0.40594913212E+01 0.36784917812E+01 0.32349167830E+01 0.26644622049E+01 0.22704203281E+01
 0.18991697834E+01 0.15774567317E+01 0.13133839759E+01 0.11096739814E+01 0.98057288862E+00
 0.94161950711E+00 0.99120305404E+00 0.11163569299E+01 0.13107909845E+01 0.15752210162E+01
 0.19044267618E+01 0.22821200544E+01 0.26821812962E+01 0.30687347659E+01 0.34043458232E+01
 0.36655697254E+01 0.38421035981E+01 0.39176122800E+01 0.38675209241E+01 0.36856228021E+01
 0.33994437297E+01 0.30491969022E+01 0.24888616298E+01 0.21626478777E+01 0.18352973896E+01
 0.15456236861E+01 0.13098225031E+01 0.11184903067E+01 0.97501341569E+00 0.90243183647E+00
 0.90883197618E+00 0.97962236605E+00 0.11072990211E+01 0.12974456049E+01 0.15445489824E+01
 0.18322664961E+01 0.21540078688E+01 0.24996506194E+01 0.28265904513E+01 0.30812295137E+01
 0.32474267516E+01 0.33388244810E+01 0.33494790108E+01 0.32538452163E+01 0.30547100008E+01
 0.27898109968E+01 0.22641500442E+01 0.20136591302E+01 0.17450950319E+01 0.14924292683E+01
 0.12868958493E+01 0.11245566126E+01 0.99408040232E+00 0.90952804861E+00 0.88663660855E+00
 0.91561806345E+00 0.98602296915E+00 0.11088215606E+01 0.12869049159E+01 0.14961051691E+01
 0.17220997692E+01 0.19795676187E+01 0.22641113736E+01 0.25219381680E+01 0.27015550900E+01
 0.28024958083E+01 0.28411865843E+01 0.28055351775E+01 0.26810222322E+01 0.24895062452E+01
 0.20143659602E+01 0.18338023013E+01 0.16335784443E+01 0.14306269388E+01 0.12580529129E+01
 0.11262173594E+01 0.10222349901E+01 0.94693245421E+00 0.91493575258E+00 0.92192602355E+00
 0.95205579670E+00 0.10140359613E+01 0.11281457526E+01 0.12816341893E+01 0.14409496577E+01
 0.16044831480E+01 0.17960731800E+01 0.20061306018E+01 0.21860554626E+01 0.23044317544E+01
 0.23653883164E+01 0.23698689985E+01 0.23047246855E+01 0.21764711809E+01 0.17639078676E+01
 0.16417886986E+01 0.15078480383E+01 0.13660493196E+01 0.12381522080E+01 0.11407558682E+01
 0.10675334816E+01 0.10117987036E+01 0.98316938565E+00 0.98407131343E+00 0.99666398201E+00
 0.10147343173E+01 0.10620632680E+01 0.11550206076E+01 0.12719244136E+01 0.13847243980E+01
 0.14970710595E+01 0.16239430496E+01 0.17546242732E+01 0.18627297604E+01 0.19349946884E+01
 0.19664813707E+01 0.19462302723E+01 0.18720855310E+01 0.15329488149E+01 0.14592347125E+01
 0.13819303609E+01 0.13023264453E+01 0.12301654810E+01 0.11783058061E+01 0.11450683624E+01
 0.11200935649E+01 0.11044001204E+01 0.11051199009E+01 0.11139864637E+01 0.11144082746E+01
 0.11108343586E+01 0.11286124445E+01 0.11804536298E+01 0.12521017534E+01 0.13250255847E+01
 0.13950651583E+01 0.14639125784E+01 0.15283323829E+01 0.15827378001E+01 0.16197136275E+01