    3    3    1    1
  0.1142331E+03  0.3190316E-09  0.3190316E-09  0.3887900E-08  0.5000000E-15
  1.000000000000000E-004
  CAR 
 unknown system                          
     18     10     14
 
  0.0000000E+00  0.0000000E+00  0.0000000E+00  0.1562500E-01
    1      -18.247135   1.000000
    2      -17.038728   1.000000
    3       -9.756664   1.000000
    4       -6.795061   1.000000
    5       -6.794806   1.000000
    6       -5.935827   1.000000
    7       -5.687591   1.000000
    8       -5.687126   1.000000
    9       -4.212685   1.000000
   10       -1.438693   0.000000
   11       -1.437911   0.000000
   12       -1.215894   0.000000
   13       -1.215220   0.000000
   14        1.190999   0.000000
 
  0.1250000E+00  0.0000000E+00  0.0000000E+00  0.9375000E-01
    1      -18.033084   1.000000
    2      -16.936301   1.000000
    3       -9.512052   1.000000
    4       -7.259422   1.000000
    5       -6.742324   1.000000
    6       -6.560852   1.000000
    7       -6.023826   1.000000
    8       -5.256629   1.000000
    9       -4.351617   1.000000
   10       -1.721400   0.000000
   11       -1.654717   0.000000
   12       -1.453135   0.000000
   13       -1.084511   0.000000
   14        1.557289   0.000000
 
  0.2500000E+00  0.0000000E+00  0.0000000E+00  0.9375000E-01
    1      -17.464548   1.000000
    2      -16.667403   1.000000
    3       -9.146194   1.000000
    4       -7.987753   1.000000
    5       -7.723840   1.000000
    6       -6.660558   1.000000
    7       -5.975074   1.000000
    8       -5.508511   1.000000
    9       -4.920251   1.000000
   10       -2.045538   0.000000
   11       -1.870581   0.000000
   12       -1.327326   0.000000
   13       -0.469441   0.000000
   14        2.383752   0.000000
 
  0.3750000E+00 -0.5551115E-16  0.0000000E+00  0.9375000E-01
    1      -16.789607   1.000000
    2      -16.358833   1.000000
    3       -9.585359   1.000000
    4       -8.592631   1.000000
    5       -8.118885   1.000000
    6       -7.159070   1.000000
    7       -5.917590   1.000000
    8       -5.384967   1.000000
    9       -5.114310   1.000000
   10       -2.053025   0.000000
   11       -1.773202   0.000000
   12       -0.608438   0.000000
   13       -0.076664   0.000000
   14        2.948012   0.000000
 
  0.5000000E+00  0.0000000E+00  0.0000000E+00  0.4687500E-01
    1      -16.461372   1.000000
    2      -16.215502   1.000000
    3       -9.918568   1.000000
    4       -8.958938   1.000000
    5       -8.244624   1.000000
    6       -7.340255   1.000000
    7       -6.055932   1.000000
    8       -5.158132   1.000000
    9       -4.833052   1.000000
   10       -2.031435   0.000000
   11       -1.516833   0.000000
   12       -0.308971   0.000000
   13        0.038623   0.000000
   14        1.993193   0.000000
 
  0.1250000E+00  0.1250000E+00  0.0000000E+00  0.9375000E-01
    1      -17.640402   1.000000
    2      -16.749205   1.000000
    3       -9.164899   1.000000
    4       -7.824732   1.000000
    5       -7.305101   1.000000
    6       -6.838512   1.000000
    7       -6.222234   1.000000
    8       -5.122091   1.000000
    9       -4.724453   1.000000
   10       -2.120615   0.000000
   11       -1.743208   0.000000
   12       -1.730887   0.000000
   13       -0.490335   0.000000
   14        2.167591   0.000000
 
  0.2500000E+00  0.1250000E+00  0.0000000E+00  0.1875000E+00
    1      -17.007015   1.000000
    2      -16.450556   1.000000
    3       -9.228792   1.000000
    4       -8.251137   1.000000
    5       -7.987849   1.000000
    6       -7.343715   1.000000
    7       -6.123119   1.000000
    8       -5.484672   1.000000
    9       -5.008102   1.000000
   10       -2.204261   0.000000
   11       -1.757594   0.000000
   12       -1.260650   0.000000
   13        0.015226   0.000000
   14        3.136983   0.000000
 
  0.3750000E+00  0.1250000E+00  0.0000000E+00  0.1875000E+00
    1      -16.476605   1.000000
    2      -16.206609   1.000000
    3       -9.630684   1.000000
    4       -9.014779   1.000000
    5       -8.116757   1.000000
    6       -7.361245   1.000000
    7       -6.107887   1.000000
    8       -5.965766   1.000000
    9       -4.681315   1.000000
   10       -2.012388   0.000000
   11       -1.502228   0.000000
   12       -0.636628   0.000000
   13        0.049290   0.000000
   14        2.518849   0.000000
 
  0.2500000E+00  0.2500000E+00  0.0000000E+00  0.9375000E-01
    1      -16.491632   1.000000
    2      -16.197716   1.000000
    3       -9.270142   1.000000
    4       -9.064829   1.000000
    5       -7.790690   1.000000
    6       -7.409864   1.000000
    7       -7.090613   1.000000
    8       -5.833288   1.000000
    9       -4.711193   1.000000
   10       -2.063296   0.000000
   11       -1.451636   0.000000
   12       -1.135291   0.000000
   13        0.333012   0.000000
   14        3.349203   0.000000
 
  0.3750000E+00  0.2500000E+00  0.0000000E+00  0.9375000E-01
    1      -16.256680   1.000000
    2      -16.078663   1.000000
    3       -9.449432   1.000000
    4       -9.100852   1.000000
    5       -8.073976   1.000000
    6       -7.412092   1.000000
    7       -7.183671   1.000000
    8       -6.218649   1.000000
    9       -4.343864   1.000000
   10       -2.389616   0.000000
   11       -1.074276   0.000000
   12       -0.902292   0.000000
   13        0.476329   0.000000
   14        2.762678   0.000000
