unknown system                          
   1.00000000000000     
     3.190316    0.000000    0.000000
    -1.595158    2.762894    0.000000
     0.000000    0.000000   38.879004
   Mo   S 
     1     2
Direct
  0.333333  0.666667  0.095675
  0.666667  0.333333  0.055425
  0.666666  0.333333  0.135925
 
   12   12  150
 0.21825E-02 0.11985E-01 0.91330     0.50548E-03 0.99986     0.11976E-01 0.42547E-02 0.23958E-02 0.89303E-02 0.36648E-03
 0.12829E-01 0.63756E-02 0.32852E-02 0.14515E-02 0.13309E-02 0.21595E-02 0.16490E-01 0.73585E-02 0.36147E-01 0.40592E-02
 0.10902     0.26570E-02 0.19769E-02 0.31334E-02 0.60807E-03 0.24333E-02 0.22153E-02 0.14829E-02 0.23673E-01 0.93927E-02
 0.99581E-02 0.66289E-02 0.24759E-01 0.10537E-01 0.48998E-01 0.79814E-02 0.97032E-03 0.13742E-03 0.94096E-03 0.34409E-02
 0.34937E-02 0.18807E-02 0.55770E-02 0.47882E-02 0.12529E-01 0.94142     0.23862E-01 0.12182E-02 0.16749E-01 0.73243E-02
 0.13874E-02 0.54391E-03 0.31602E-01 0.99841E-02 0.22744E-01 0.14123E-01 0.12036     0.15610E-01 0.31915E-01 0.35253E-01
 0.11269E-02 0.94008E-03 0.87896E-04 0.89584E-04 0.30348E-03 0.15577E-01 0.13809E-01 0.95387     0.17316E-01 0.39104E-02
 0.56458E-02 0.69089E-02 0.27554E-01 0.18782E-02 0.90635E-03 0.59444E-04 0.12793E-02 0.12619E-01 0.51535E-01 0.43477E-01
 0.24744E-01 0.48287E-02 0.19714E-01 0.17995E-01 0.80397E-02 0.36637     0.34653E-03 0.18434E-03 0.55159E-03 0.82683E-03
 0.96227E-01 0.21202E-02 0.11834E-01 0.40872E-02 0.10751E-01 0.33503     0.85099E-02 0.37997     0.28756E-01 0.15189E-03
 0.94754     0.80162E-03 0.35156E-03 0.73085E-03 0.29226     0.15079E-02 0.69812     0.71248     0.80099E-02 0.53935E-03
 0.13001     0.24862E-01 0.28576E-02 0.75631E-04 0.24510E-03 0.71979E-04 0.46992E-02 0.60581E-02 0.95088     0.11911E-02
 0.14447E-02 0.57174E-01 0.62715E-02 0.30746E-03 0.27855E-02 0.88241E-03 0.23132E-03 0.22494E-03 0.43068E-02 0.22493E-03
 0.15708E-01 0.43226     0.28297E-02 0.16705E-02 0.10392E-02 0.11088E-02 0.31897E-02 0.10457E-02 0.94102E-02 0.33577E-03
 0.21982E-01 0.39788E-03 0.54604E-03 0.21875E-02 0.35576E-02 0.79685E-02 0.26812E-01 0.37748E-02 0.19167     0.65989    
 0.29151E-01 0.58456E-01 0.27684E-01 0.27462E-02 0.15711     0.65459E-02 0.48435E-02 0.31980E-02 0.55238E-02 0.67691E-01
 0.63519E-01 0.52934E-01 0.97645     0.34489E-01 0.75313     0.64288E-01 0.11484E-01 0.89703E-02 0.25677E-02 0.30627    
 0.61222E-02 0.98814E-02 0.80702E-01 0.30556     0.72055E-01 0.21470     0.11194     0.70397E-01 0.11404     0.53169    
 0.21644E-01 0.70016E-03 0.63625E-01 0.12892E-01 0.97342E-01 0.19786E-01 0.17327     0.40385E-01 0.66513     0.41209    
 0.75657     0.10961E-01 0.99790     0.74951E-02 0.89180E-01 0.27677E-02 0.52429E-01 0.40031     0.10877     0.74988    
 0.44115     0.79735E-01 0.92198     0.10338     0.10052E-01 0.21960E-01 0.46891E-03 0.12344E-02 0.22357E-02 0.68494    
 0.79441E-01 0.40992     0.84216E-01 0.14328     0.48102E-01 0.20265     0.98598     0.11531E-01 0.44375E-01 0.29197E-03
 0.15154     0.30937E-01 0.10867     0.99204     0.82584     0.43624E-01 0.72278     0.97380E-01 0.44117E-01 0.94168E-01
 0.19605E-02 0.29324E-02 0.13628E-02 0.38721E-02 0.29204     0.16158E-01 0.61555E-01 0.10364     0.73870E-01 0.53838    
 0.35187E-01 0.10450     0.13065E-01 0.59319E-03 0.39370E-02 0.17283     0.16417E-02 0.16184E-01 0.26121     0.12958E-01
 0.30862     0.33812     0.98652     0.28492E-02 0.98619E-02 0.13002E-01 0.33618E-01 0.34124E-03 0.62578E-02 0.40215E-03
 0.10030     0.51000     0.14453     0.83612E-02 0.49561E-02 0.20920E-01 0.47484E-02 0.12706E-02 0.67600E-02 0.25157E-01
 0.12845E-02 0.45817E-02 0.31755E-02 0.10015E-02 0.13671E-01 0.51029E-01 0.45096E-02 0.30703E-02 0.29052E-02 0.49556E-01
 0.11470E-01 0.76567E-02 0.96285     0.24771E-02 0.79301E-01 0.10357E-01 0.15867E-02 0.39234E-02 0.40607E-02 0.80623E-02
 0.27172E-01 0.18108E-01 0.22621     0.67919     0.14713     0.86464     0.84770E-01 0.13725E-01 0.45956E-01 0.75434E-02
 0.65847E-02 0.54467E-02 0.16489E-01 0.94042     0.19048     0.24934     0.82289     0.21415     0.66194     0.90535    
 0.46993E-01 0.21422E-01 0.84357E-02 0.17830E-01 0.14161E-01 0.44346E-01 0.24929     0.98293     0.41113     0.95585    
 0.47169     0.31640     0.28216     0.47726     0.95983     0.28402E-02 0.58047E-01 0.36437E-01 0.99662     0.15290    
 0.93146     0.39900     0.99543     0.77180     0.89471     0.66610E-01 0.41205     0.15917E-01 0.14561E-01 0.99378E-02
 0.11958     0.94060     0.46921     0.99839     0.92894     0.55352     0.95098     0.30546     0.63105E-01 0.98679    
 0.21482E-02 0.58062E-01 0.11659E-01 0.75905     0.33637     0.76824     0.56678     0.82212     0.35978     0.99714    
 0.60237     0.48113E-01 0.11377     0.13151E-02 0.70334E-01 0.78287E-01 0.28290     0.83479     0.96418     0.34184    
 0.96667     0.37955     0.16972     0.13408     0.79727E-02 0.16832     0.30738E-02 0.12234E-01 0.21229     0.85839E-01
 0.24574     0.92308     0.33340     0.56627     0.10581     0.93031E-01 0.18338E-01 0.19342E-02 0.30443E-02 0.15161E-01
 0.61054E-02 0.81241     0.25642     0.74939E-01 0.38808     0.38721     0.18544     0.10340E-01 0.11614E-01 0.86579E-02
 0.85002E-02 0.13726E-02 0.76014E-01 0.19213E-02 0.38172E-01 0.27373     0.16835     0.39417E-01 0.12882E-01 0.15521E-01
 0.74583E-02 0.43490E-02 0.13975E-01 0.26386     0.53384E-02 0.75588     0.58254E-02 0.35685E-02 0.21201E-01 0.45701E-01
 0.63842E-02 0.55396E-02 0.69655E-02 0.17202     0.34658E-01 0.37573E-01 0.31082     0.12619E-01 0.40632E-01 0.20412    
 0.38658E-02 0.59444E-02 0.60972E-02 0.11531E-01 0.37326E-01 0.56253E-01 0.31119     0.57584     0.39350     0.80261    
 0.19216     0.45544E-01 0.48148E-01 0.11254E-01 0.10438E-01 0.94397E-02 0.33900E-01 0.41550     0.38858     0.54304    
 0.78082     0.55022     0.71410     0.79294     0.12462     0.38184E-01 0.19992E-01 0.19695E-01 0.26932E-01 0.12508    
 0.47969     0.83387     0.70615     0.91802     0.71928     0.62076     0.49221     0.34334     0.32941     0.87075E-02
 0.41441E-01 0.77986E-01 0.73624     0.49778     0.92312     0.71940     0.90299     0.81298     0.80650     0.24433    
 0.39874     0.32015E-01 0.20363E-01 0.26873E-01 0.22764     0.78326     0.72214     0.89936     0.85668     0.76635    
 0.85793     0.55428     0.23673     0.31445     0.73107E-02 0.23070     0.40866E-01 0.63257     0.62691     0.81097    
 0.77067     0.94619     0.69098     0.87044     0.60471     0.12850     0.60801E-01 0.46763E-02 0.53211E-01 0.15334    
 0.48950     0.79247     0.86001     0.68454     0.85678     0.65442     0.37883     0.19958     0.22147E-01 0.29890E-01
 0.73833E-02 0.28482E-01 0.24777     0.27259     0.52447     0.90391     0.63381     0.66844     0.22457     0.12452    
 0.30708E-01 0.55927E-02 0.58985E-02 0.15598E-01 0.16788E-01 0.35183     0.33679     0.25943     0.53741     0.50584    
 0.15908     0.27170E-01 0.20460E-01 0.14314E-01 0.12386E-01 0.45182E-02 0.31489E-01 0.67695E-02 0.48374E-01 0.19355    
 0.22957     0.11615     0.26210E-01 0.23346E-01 0.14895E-01 0.12036E-01 0.27339E-01 0.87120E-01 0.15735E-01 0.74904E-01
 0.12806E-01 0.10010E-01 0.33838E-01 0.54834E-01 0.10275E-01 0.10969E-01 0.15598E-01 0.84696E-01 0.77480E-01 0.11352    
 0.26521     0.42936E-01 0.54799E-01 0.57890E-01 0.88375E-02 0.98053E-02 0.10615E-01 0.17748E-01 0.55896E-01 0.13278    
 0.43922     0.64109     0.60854     0.72555     0.35338     0.11464     0.65665E-01 0.17646E-01 0.16835E-01 0.15942E-01
 0.58986E-01 0.39979     0.57750     0.73612     0.83926     0.77034     0.79235     0.72999     0.24435     0.62268E-01
 0.38991E-01 0.26124E-01 0.46847E-01 0.25230     0.65226     0.85621     0.86439     0.92668     0.86508     0.79756    
 0.65708     0.38678     0.29358     0.19524E-01 0.49441E-01 0.14958     0.71318     0.75641     0.92793     0.90222    
 0.94096     0.90157     0.85104     0.48801     0.48962     0.61991E-01 0.29671E-01 0.61249E-01 0.38177     0.80740    
 0.86753     0.93989     0.93942     0.91191     0.90239     0.73215     0.47827     0.28614     0.18306E-01 0.92924E-01
 0.10827     0.67791     0.79446     0.90066     0.91303     0.95053     0.87184     0.86730     0.68500     0.24770    
 0.71128E-01 0.12095E-01 0.68828E-01 0.25825     0.64743     0.84578     0.90155     0.87167     0.90000     0.80655    
 0.57059     0.29385     0.48077E-01 0.30443E-01 0.15607E-01 0.55006E-01 0.32594     0.50041     0.72533     0.87860    
 0.80290     0.77200     0.38671     0.19325     0.52250E-01 0.13224E-01 0.12271E-01 0.22687E-01 0.37553E-01 0.29622    
 0.45751     0.49976     0.67430     0.62978     0.21355     0.60093E-01 0.34266E-01 0.23400E-01 0.20439E-01 0.11725E-01
 0.34054E-01 0.17448E-01 0.77340E-01 0.24185     0.32222     0.24192     0.46939E-01 0.35302E-01 0.25180E-01 0.25858E-01
 0.49841E-01 0.87980E-01 0.36909E-01 0.64756E-01 0.22934E-01 0.21238E-01 0.53845E-01 0.74709E-01 0.16677E-01 0.18674E-01
 0.28664E-01 0.10323     0.15419     0.23665     0.32426     0.11146     0.89656E-01 0.56638E-01 0.16119E-01 0.16175E-01
 0.16099E-01 0.25691E-01 0.86289E-01 0.24726     0.56645     0.72130     0.73121     0.76105     0.51203     0.22211    
 0.97338E-01 0.25690E-01 0.24914E-01 0.24134E-01 0.97954E-01 0.46521     0.69322     0.82205     0.87767     0.85521    
 0.84278     0.75840     0.37175     0.10084     0.67990E-01 0.33263E-01 0.77226E-01 0.38683     0.74054     0.88145    
 0.90941     0.93420     0.90828     0.86298     0.74284     0.46967     0.37536     0.35210E-01 0.67267E-01 0.24994    
 0.75552     0.84843     0.93382     0.93579     0.94725     0.92518     0.88164     0.64507     0.60002     0.11501    
 0.42454E-01 0.12197     0.53039     0.84595     0.90972     0.94671     0.95009     0.93856     0.92124     0.81649    
 0.64468     0.38355     0.37309E-01 0.10104     0.22068     0.74813     0.86204     0.92627     0.93875     0.94994    
 0.91721     0.88977     0.75890     0.39434     0.11555     0.25842E-01 0.11590     0.39404     0.74617     0.88166    
 0.92046     0.91698     0.91969     0.86818     0.69667     0.42223     0.10534     0.49079E-01 0.34052E-01 0.11286    
 0.44929     0.65534     0.81658     0.88992     0.86503     0.83213     0.53898     0.30665     0.97558E-01 0.30423E-01
 0.27217E-01 0.41736E-01 0.79622E-01 0.38490     0.58014     0.65371     0.75127     0.71513     0.31008     0.11776    
 0.56890E-01 0.38796E-01 0.39566E-01 0.28239E-01 0.47941E-01 0.36687E-01 0.13168     0.34029     0.42311     0.37620    
 0.78494E-01 0.52366E-01 0.38583E-01 0.48805E-01 0.95248E-01 0.14336     0.80377E-01 0.83850E-01 0.36339E-01 0.37544E-01
 0.85658E-01 0.11159     0.24813E-01 0.26751E-01 0.46754E-01 0.15602     0.27548     0.38907     0.44033     0.22642    
 0.15155     0.70456E-01 0.24066E-01 0.24198E-01 0.21296E-01 0.35653E-01 0.12806     0.36266     0.65880     0.77944    
 0.79928     0.80382     0.61501     0.33430     0.14402     0.35711E-01 0.34557E-01 0.34370E-01 0.14798     0.53428    
 0.75161     0.85437     0.88980     0.88077     0.86559     0.78678     0.46576     0.15283     0.10744     0.43574E-01
 0.11972     0.48534     0.78136     0.88310     0.90990     0.92363     0.90789     0.87597     0.78288     0.54242    
 0.48611     0.55253E-01 0.10079     0.34585     0.79014     0.86842     0.92022     0.92240     0.92927     0.91505    
 0.88629     0.71616     0.67319     0.19690     0.60685E-01 0.21584     0.62168     0.86747     0.90844     0.92898    
 0.92797     0.92470     0.91423     0.85193     0.73457     0.50308     0.66797E-01 0.14060     0.34638     0.79965    
 0.88322     0.91950     0.92452     0.93011     0.91506     0.89828     0.81225     0.51654     0.18980     0.47825E-01
 0.19387     0.50766     0.80816     0.89347     0.91430     0.91156     0.91460     0.88592     0.77067     0.53854    
 0.19170     0.79470E-01 0.64981E-01 0.19892     0.56140     0.73904     0.85187     0.88891     0.87657     0.85703    
 0.64348     0.42646     0.16516     0.60134E-01 0.50497E-01 0.72332E-01 0.14472     0.50473     0.66422     0.72681    
 0.78700     0.76347     0.40940     0.19505     0.93744E-01 0.64518E-01 0.70871E-01 0.57445E-01 0.73509E-01 0.66085E-01
 0.21159     0.44675     0.50365     0.47844     0.12046     0.78547E-01 0.60352E-01 0.85448E-01 0.16273     0.22515    
 0.14881     0.12671     0.55957E-01 0.60185E-01 0.13039     0.16242     0.34935E-01 0.37223E-01 0.73111E-01 0.22968    
 0.40353     0.52230     0.54837     0.35060     0.24216     0.98129E-01 0.33893E-01 0.33901E-01 0.28126E-01 0.48961E-01
 0.17220     0.44054     0.70355     0.80281     0.82670     0.81695     0.65681     0.42813     0.19747     0.48494E-01
 0.46738E-01 0.48376E-01 0.19647     0.58080     0.76596     0.84745     0.87044     0.86739     0.85719     0.78520    
 0.51531     0.20982     0.15691     0.55996E-01 0.17250     0.53214     0.78770     0.85016     0.85996     0.86025    
 0.85615     0.84776     0.79080     0.57271     0.55998     0.80760E-01 0.13916     0.42444     0.79083     0.84307    
 0.84706     0.80415     0.81254     0.84217     0.85521     0.73690     0.68971     0.30527     0.82201E-01 0.32654    
 0.65566     0.85955     0.85622     0.81241     0.75967     0.80850     0.85999     0.85040     0.77504     0.57275    
 0.11532     0.18632     0.46560     0.81131     0.86864     0.85636     0.80812     0.81165     0.85369     0.87811    
 0.83450     0.59278     0.29031     0.84528E-01 0.29424     0.58251     0.83534     0.87469     0.86083     0.83988    
 0.86349     0.86802     0.79851     0.62161     0.29075     0.13997     0.11884     0.30767     0.62316     0.77423    
 0.84877     0.85671     0.84639     0.84838     0.69296     0.51462     0.24870     0.11466     0.98083E-01 0.12799    
 0.23642     0.59109     0.68930     0.74893     0.78985     0.77457     0.47746     0.26906     0.14722     0.11134    
 0.12862     0.11197     0.11637     0.10884     0.31190     0.51212     0.54749     0.53883     0.16385     0.11242    
 0.93900E-01 0.13789     0.24625     0.32064     0.24271     0.18530     0.80203E-01 0.90923E-01 0.18227     0.21306    
 0.48408E-01 0.52105E-01 0.10643     0.30059     0.49739     0.61204     0.61638     0.45498     0.34364     0.12828    
 0.46452E-01 0.47107E-01 0.38511E-01 0.65552E-01 0.20717     0.47993     0.72450     0.81779     0.84383     0.81991    
 0.67931     0.50429     0.23364     0.63064E-01 0.62191E-01 0.65011E-01 0.23122     0.59735     0.76262     0.83193    
 0.84760     0.84916     0.84201     0.76620     0.53813     0.25344     0.20910     0.69536E-01 0.22180     0.54120    
 0.77768     0.80631     0.77982     0.75022     0.77389     0.80734     0.78255     0.56428     0.56787     0.11851    
 0.16221     0.49394     0.77280     0.80449     0.71368     0.52156     0.52922     0.70987     0.81102     0.74447    
 0.68882     0.40905     0.11107     0.40474     0.67698     0.84455     0.77387     0.52918     0.32200     0.52736    
 0.77544     0.84012     0.80472     0.59397     0.19276     0.22215     0.57556     0.81057     0.84967     0.74689    
 0.52715     0.52541     0.74675     0.85353     0.84851     0.65071     0.37983     0.13808     0.37456     0.64921    
 0.85206     0.85157     0.77654     0.70928     0.78225     0.84585     0.81247     0.68407     0.37469     0.21537    
 0.18043     0.40626     0.65815     0.80124     0.83771     0.81259     0.80292     0.83418     0.71623     0.57656    
 0.33203     0.18025     0.15692     0.19565     0.34074     0.62612     0.69085     0.75519     0.77760     0.76851    
 0.51331     0.32902     0.21130     0.17372     0.19759     0.17716     0.16787     0.17288     0.41220     0.52030    
 0.56090     0.56336     0.19785     0.14928     0.13752     0.20014     0.32840     0.40928     0.34144     0.23538    
 0.10973     0.13542     0.22432     0.24506     0.64920E-01 0.71116E-01 0.14204     0.36017     0.56303     0.67162    
 0.66483     0.54901     0.41941     0.14777     0.63062E-01 0.64687E-01 0.53680E-01 0.84507E-01 0.22798     0.48755    
 0.73099     0.82883     0.85459     0.81891     0.69762     0.54514     0.23963     0.79581E-01 0.81237E-01 0.82002E-01
 0.24546     0.58777     0.75928     0.83265     0.85246     0.85748     0.84252     0.74905     0.54602     0.26566    
 0.24263     0.87590E-01 0.24782     0.52759     0.76804     0.79718     0.76982     0.73424     0.76342     0.80046    
 0.77192     0.53934     0.53026     0.16509     0.17007     0.54022     0.75599     0.79822     0.68335     0.46658    
 0.47058     0.68200     0.79907     0.75580     0.69112     0.43805     0.14316     0.40548     0.69777     0.84528    
 0.76361     0.47034     0.24707     0.47120     0.76282     0.84378     0.82679     0.56949     0.24903     0.22999    
 0.61795     0.80745     0.85718     0.73318     0.47129     0.46498     0.73586     0.85518     0.85668     0.66908    
 0.38088     0.17707     0.37031     0.67887     0.86075     0.85457     0.76363     0.68400     0.77017     0.85137    
 0.81987     0.69568     0.38766     0.24578     0.21030     0.41537     0.65703     0.82457     0.84139     0.80039    
 0.79314     0.83805     0.72384     0.58900     0.35417     0.21105     0.19391     0.22900     0.37115     0.59781    
 0.69121     0.76402     0.76559     0.76262     0.52276     0.35573     0.24216     0.20410     0.22801     0.20655    
 0.19384     0.22540     0.44711     0.49099     0.55744     0.55696     0.21767     0.18019     0.16933     0.23023    
 0.34888     0.42473     0.36479     0.24016     0.13901     0.18625     0.23849     0.25337     0.83213E-01 0.92873E-01
 0.17100     0.38904     0.57791     0.67731     0.67296     0.59294     0.42592     0.15884     0.86683E-01 0.85075E-01
 0.77993E-01 0.10826     0.23152     0.44009     0.68218     0.79739     0.82419     0.77665     0.66435     0.50462    
 0.22694     0.10223     0.10556     0.10252     0.24157     0.54940     0.73232     0.82429     0.85942     0.86630    
 0.83416     0.71611     0.52150     0.25368     0.24155     0.11043     0.24459     0.48365     0.74459     0.80786    
 0.81354     0.79883     0.80912     0.81063     0.74380     0.49930     0.45701     0.18093     0.16166     0.51609    
 0.72148     0.80673     0.75766     0.66377     0.66279     0.75835     0.80506     0.74190     0.65292     0.34774    
 0.14298     0.31454     0.66692     0.83911     0.80921     0.66210     0.53004     0.66617     0.80660     0.83714    
 0.79919     0.46575     0.20775     0.19049     0.51704     0.76414     0.86520     0.80068     0.66641     0.65647    
 0.80484     0.85849     0.82488     0.58930     0.29850     0.17390     0.29360     0.60382     0.82791     0.85829    
 0.80735     0.76232     0.81250     0.85844     0.78200     0.60308     0.32961     0.24014     0.21687     0.34184    
 0.57180     0.80207     0.83381     0.80622     0.80121     0.83496     0.67453     0.49364     0.29330     0.21587    
 0.22217     0.23186     0.29888     0.47850     0.65128     0.74809     0.73809     0.73546     0.48168     0.30302    
 0.19850     0.18724     0.22855     0.21208     0.18278     0.19793     0.35874     0.42795     0.52991     0.51132    
 0.21970     0.18245     0.15223     0.18918     0.28839     0.35663     0.29416     0.18896     0.13750     0.19782    
 0.22660     0.24864     0.10575     0.11361     0.17171     0.33582     0.48479     0.58157     0.58713     0.50883    
 0.33519     0.15708     0.11386     0.10847     0.12573     0.14936     0.22115     0.32119     0.51772     0.65585    
 0.68857     0.62726     0.50884     0.36985     0.21167     0.14169     0.14513     0.13843     0.23668     0.48035    
 0.62558     0.73882     0.80516     0.81248     0.75297     0.61659     0.44606     0.24490     0.22185     0.13631    
 0.22661     0.39794     0.66862     0.77328     0.80248     0.80267     0.80186     0.76991     0.65928     0.42856    
 0.33968     0.14904     0.13597     0.39726     0.61457     0.75936     0.77540     0.75697     0.75052     0.77634    
 0.76182     0.64436     0.50127     0.21254     0.10971     0.19350     0.51454     0.76642     0.79990     0.74926    
 0.70364     0.75637     0.79739     0.75669     0.65214     0.32000     0.14872     0.14618     0.33958     0.61276    
 0.81185     0.80812     0.75658     0.74479     0.81320     0.79908     0.69080     0.44900     0.23387     0.15422    
 0.23408     0.46053     0.69052     0.79772     0.79922     0.78118     0.80221     0.80207     0.63044     0.45434    
 0.27708     0.21389     0.19890     0.28211     0.43765     0.66290     0.74781     0.76615     0.75662     0.76221    
 0.50912     0.33444     0.23454     0.19763     0.20875     0.20916     0.23289     0.32282     0.50155     0.64776    
 0.65533     0.63282     0.36724     0.19587     0.14627     0.16248     0.20585     0.19579     0.16205     0.14579    
 0.21860     0.31907     0.46241     0.42326     0.20743     0.15228     0.11003     0.13974     0.23140     0.29474    
 0.23028     0.14121     0.10661     0.15897     0.20733     0.24815     0.14405     0.13355     0.14164     0.22073    
 0.32841     0.43553     0.44781     0.34381     0.20686     0.13624     0.13820     0.14705     0.22142     0.23554    
 0.22471     0.21027     0.31425     0.41789     0.44615     0.39498     0.30415     0.24313     0.21983     0.21980    
 0.22405     0.20951     0.26693     0.41137     0.42397     0.50436     0.59248     0.59302     0.52479     0.43618    
 0.35875     0.27056     0.22430     0.18295     0.22608     0.30589     0.53835     0.63167     0.65324     0.66700    
 0.66317     0.61358     0.50978     0.34979     0.23293     0.13409     0.13146     0.27316     0.41651     0.59053    
 0.67263     0.68264     0.66904     0.66737     0.60552     0.45261     0.30108     0.15067     0.10372     0.13812    
 0.31608     0.54908     0.65108     0.66744     0.65639     0.67847     0.65662     0.52776     0.40903     0.20620    
 0.10570     0.10694     0.20897     0.38202     0.60058     0.67629     0.67902     0.66274     0.68426     0.57728    
 0.45156     0.28256     0.12018     0.69561E-01 0.12208     0.28843     0.44626     0.57535     0.66082     0.67240    
 0.66034     0.58272     0.39191     0.28410     0.13166     0.69319E-01 0.64173E-01 0.13358     0.27713     0.42167    
 0.50891     0.62236     0.59043     0.54472     0.30690     0.21134     0.12122     0.63889E-01 0.58001E-01 0.67197E-01
 0.11965     0.20667     0.30531     0.44716     0.51458     0.43731     0.25151     0.14104     0.10559     0.73070E-01
 0.65913E-01 0.63959E-01 0.73476E-01 0.10352     0.15372     0.21819     0.38364     0.33315     0.20867     0.14432    
 0.10241     0.10094     0.12092     0.13900     0.11738     0.10373     0.10228     0.14332     0.20855     0.28432    
 0.22251     0.17006     0.13295     0.16008     0.20660     0.27220     0.28384     0.21554     0.14719     0.13136    
 0.17836     0.22594     0.35690     0.37213     0.26606     0.18750     0.22296     0.23390     0.23141     0.22441    
 0.20779     0.21529     0.27835     0.34021     0.34465     0.31706     0.37575     0.39732     0.25832     0.26499    
 0.29668     0.28759     0.27673     0.29017     0.33267     0.35408     0.28014     0.26851     0.26432     0.27868    
 0.43464     0.39780     0.35010     0.35928     0.37145     0.37925     0.37068     0.32818     0.21159     0.17660    
 0.18615     0.24196     0.25359     0.36092     0.43007     0.41189     0.40035     0.40954     0.37514     0.29653    
 0.20656     0.16194     0.13845     0.15054     0.22602     0.28970     0.34868     0.40184     0.40387     0.40852    
 0.36692     0.27793     0.22883     0.13780     0.79369E-01 0.80142E-01 0.13540     0.21852     0.30236     0.36061    
 0.41052     0.39542     0.37094     0.28119     0.23621     0.13059     0.35583E-01 0.14822E-01 0.36836E-01 0.13165    
 0.23008     0.28388     0.36780     0.41566     0.36465     0.28673     0.21995     0.13024     0.25826E-01 0.38942E-02
 0.34623E-02 0.26207E-01 0.12862     0.23645     0.26132     0.40129     0.35345     0.29321     0.21619     0.13901    
 0.36110E-01 0.34671E-02 0.14474E-02 0.36139E-02 0.35942E-01 0.13700     0.21470     0.27858     0.39825     0.27320    
 0.22172     0.15369     0.79479E-01 0.15583E-01 0.35034E-02 0.35890E-02 0.15687E-01 0.77283E-01 0.16327     0.20092    
 0.35539     0.31289     0.25357     0.19875     0.13550     0.76281E-01 0.36783E-01 0.26918E-01 0.34581E-01 0.78935E-01
 0.13831     0.19166     0.25429     0.39044     0.34880     0.23596     0.18657     0.17067     0.13484     0.12618    
 0.13205     0.14121     0.15877     0.17835     0.25705     0.34231     0.44885     0.46562     0.30298     0.22473    
 0.21681     0.16062     0.14080     0.16036     0.19446     0.24426     0.34508     0.43143     0.42908     0.40372    
 0.51682     0.40523     0.19957     0.17419     0.15839     0.14938     0.17408     0.24364     0.36220     0.44180    
 0.34809     0.33513     0.30178     0.32944     0.40803     0.23542     0.16932     0.16575     0.18410     0.23756    
 0.31153     0.36073     0.24246     0.23574     0.26053     0.25621     0.19814     0.24188     0.23572     0.19008    
 0.19057     0.21604     0.23708     0.24483     0.19427     0.19873     0.18186     0.19207     0.21818     0.17196    
 0.16914     0.19474     0.18992     0.19239     0.18278     0.17472     0.16040     0.12014     0.79544E-01 0.78629E-01
 0.11539     0.16030     0.16042     0.15983     0.19411     0.18888     0.16649     0.14905     0.14375     0.75156E-01
 0.16261E-01 0.56595E-02 0.17408E-01 0.74319E-01 0.13921     0.15449     0.17878     0.22350     0.17736     0.15333    
 0.15705     0.74257E-01 0.69062E-02 0.15132E-03 0.11263E-03 0.69793E-02 0.74474E-01 0.16341     0.16576     0.25290    
 0.22443     0.18086     0.20793     0.11904     0.16814E-01 0.11600E-03 0.66116E-05 0.11774E-03 0.16865E-01 0.11836    
 0.20718     0.21736     0.36325     0.21577     0.23763     0.19544     0.78911E-01 0.58821E-02 0.11085E-03 0.14396E-03
 0.58772E-02 0.77319E-01 0.19647     0.24187     0.36026     0.36975     0.31594     0.26293     0.17778     0.77086E-01
 0.17413E-01 0.69201E-02 0.16056E-01 0.78988E-01 0.18471     0.25426     0.31408     0.49212     0.44735     0.29167    
 0.26437     0.20276     0.11548     0.73724E-01 0.76048E-01 0.12080     0.19692     0.23772     0.32828     0.41755    
 0.43283     0.43142     0.27852     0.23944     0.21616     0.16551     0.15629     0.17279     0.19402     0.23474    
 0.32944     0.41885     0.40893     0.40403     0.51494     0.33925     0.20832     0.20294     0.17857     0.16819    
 0.19080     0.25208     0.35216     0.42154     0.33367     0.31242     0.28045     0.37326     0.40407     0.23917    
 0.20179     0.20152     0.21365     0.26115     0.32038     0.35391     0.23456     0.22542     0.25046     0.22380    
 0.21091     0.28961     0.26533     0.21734     0.22544     0.24929     0.26295     0.24943     0.19477     0.18784    
 0.17032     0.19184     0.21433     0.17711     0.20268     0.23239     0.22049     0.22377     0.21386     0.19132    
 0.16987     0.12348     0.78743E-01 0.75701E-01 0.11755     0.17783     0.17838     0.18927     0.22551     0.22554    
 0.19595     0.17124     0.15824     0.83432E-01 0.18219E-01 0.68014E-02 0.19760E-01 0.81000E-01 0.15422     0.18039    
 0.20554     0.25883     0.20539     0.17614     0.17068     0.81810E-01 0.91205E-02 0.28131E-03 0.23951E-03 0.91094E-02
 0.83326E-01 0.16894     0.18902     0.26568     0.26143     0.19019     0.20686     0.12048     0.19103E-01 0.25031E-03
 0.14268E-04 0.24631E-03 0.19137E-01 0.12124     0.20809     0.22135     0.37204     0.22433     0.21646     0.19344    
 0.77026E-01 0.67672E-02 0.24131E-03 0.30216E-03 0.66857E-02 0.76970E-01 0.18251     0.24924     0.32086     0.39205    
 0.31940     0.23681     0.16798     0.77520E-01 0.19661E-01 0.86907E-02 0.18611E-01 0.77708E-01 0.17562     0.23414    
 0.31390     0.44837     0.43141     0.28612     0.25757     0.18401     0.11818     0.83582E-01 0.83969E-01 0.12183    
 0.18870     0.22471     0.31736     0.39406     0.31935     0.30413     0.22428     0.23146     0.23740     0.25387    
 0.28665     0.27200     0.22222     0.20870     0.25692     0.31020     0.30162     0.31124     0.37535     0.29093    
 0.29905     0.36635     0.36733     0.35382     0.33954     0.33134     0.32776     0.32155     0.25678     0.22788    
 0.22492     0.37949     0.44338     0.40628     0.45331     0.47906     0.45779     0.44137     0.40399     0.33344    
 0.21246     0.16120     0.17620     0.18908     0.30448     0.48435     0.50701     0.48930     0.50908     0.49822    
 0.44683     0.32260     0.22394     0.14936     0.12180     0.15917     0.23472     0.31180     0.45546     0.51702    
 0.50285     0.50009     0.46256     0.33877     0.26379     0.15650     0.84297E-01 0.80524E-01 0.14970     0.28358    
 0.36376     0.45663     0.50210     0.51235     0.46086     0.36488     0.28700     0.16561     0.50164E-01 0.25374E-01
 0.52831E-01 0.15960     0.28366     0.37928     0.44961     0.50434     0.45129     0.36960     0.27076     0.16222    
 0.46164E-01 0.10179E-01 0.10195E-01 0.45830E-01 0.16683     0.25740     0.34656     0.43748     0.45564     0.32974    
 0.23172     0.15171     0.51774E-01 0.10419E-01 0.60515E-02 0.99804E-02 0.52182E-01 0.15409     0.23329     0.30201    
 0.43603     0.30856     0.19235     0.15855     0.82417E-01 0.24614E-01 0.99955E-02 0.11037E-01 0.24305E-01 0.83309E-01
 0.14443     0.23217     0.29362     0.36992     0.26216     0.15939     0.12162     0.84606E-01 0.53090E-01 0.43397E-01
 0.51623E-01 0.83823E-01 0.12611     0.15945     0.25904     0.32180     0.31332     0.22424     0.17921     0.14249    
 0.15057     0.16900     0.16593     0.15187     0.15155     0.16179     0.23373     0.29351     0.18904     0.18793    