       N       E                     dE             d eps       ncg     rms          rms(c)
DAV:   1     0.878060997456E+02    0.87806E+02   -0.43351E+03   326   0.493E+02
DAV:   2    -0.119807208015E+02   -0.99787E+02   -0.91606E+02   484   0.129E+02
DAV:   3    -0.231542177895E+02   -0.11173E+02   -0.11029E+02   382   0.554E+01
DAV:   4    -0.233659771469E+02   -0.21176E+00   -0.21074E+00   376   0.920E+00
DAV:   5    -0.233704626314E+02   -0.44855E-02   -0.44815E-02   358   0.126E+00    0.691E+00
RMM:   6    -0.222110961605E+02    0.11594E+01   -0.54091E+00   293   0.116E+01    0.263E+00
RMM:   7    -0.218290429432E+02    0.38205E+00   -0.58207E-01   293   0.334E+00    0.155E+00
RMM:   8    -0.217680209375E+02    0.61022E-01   -0.23528E-01   307   0.246E+00    0.347E-01
RMM:   9    -0.217633814811E+02    0.46395E-02   -0.83344E-03   335   0.550E-01    0.915E-02
RMM:  10    -0.217627337765E+02    0.64770E-03   -0.15302E-03   340   0.203E-01    0.428E-02
RMM:  11    -0.217626790854E+02    0.54691E-04   -0.15100E-03   319   0.171E-01    0.480E-02
RMM:  12    -0.217626110589E+02    0.68027E-04   -0.43259E-04   311   0.112E-01    0.144E-02
RMM:  13    -0.217630338848E+02   -0.42283E-03   -0.13857E-04   307   0.588E-02    0.173E-02
RMM:  14    -0.217631073903E+02   -0.73506E-04   -0.25677E-05   326   0.246E-02    0.489E-03
RMM:  15    -0.217632345933E+02   -0.12720E-03   -0.16507E-05   290   0.150E-02    0.372E-03
RMM:  16    -0.217632704720E+02   -0.35879E-04   -0.27352E-06   239   0.666E-03    0.230E-03
RMM:  17    -0.217633082118E+02   -0.37740E-04   -0.20117E-06   204   0.648E-03    0.203E-03
RMM:  18    -0.217633117817E+02   -0.35699E-05   -0.19170E-07   156   0.263E-03    0.170E-03
RMM:  19    -0.217633204706E+02   -0.86889E-05   -0.54662E-07   182   0.358E-03    0.168E-03
RMM:  20    -0.217633221951E+02   -0.17245E-05   -0.10224E-07   140   0.197E-03    0.158E-03
RMM:  21    -0.217633230169E+02   -0.82175E-06   -0.12929E-08    72   0.919E-04
   1 F= -.22354032E+02 E0= -.22354032E+02  d E =-.815571E-10
