 vasp.5.4.4.18Apr17-6-g9f103f2a35 (build Jun 30 2017 11:15:00) complex          
  
 executed on    STALLO_VASP_5.4.4 date 2019.11.08  11:47:43
 running on    4 total cores
 distrk:  each k-point on    4 cores,    1 groups
 distr:  one band on NCORES_PER_BAND=   2 cores,    2 groups


--------------------------------------------------------------------------------------------------------


 INCAR:
 POTCAR:   PAW_PBE Mo 08Apr2002                   
 POTCAR:    PAW_PBE S 17Jan2003                   
 POTCAR:   PAW_PBE Mo 08Apr2002                   
   VRHFIN =Mo: 4p5s4d                                                           
   LEXCH  = PE                                                                  
   EATOM  =   217.5180 eV,   15.9871 Ry                                         
                                                                                
   TITEL  = PAW_PBE Mo 08Apr2002                                                
   LULTRA =        F    use ultrasoft PP ?                                      
   IUNSCR =        1    unscreen: 0-lin 1-nonlin 2-no                           
   RPACOR =    2.200    partial core radius                                     
   POMASS =   95.940; ZVAL   =    6.000    mass and valenz                      
   RCORE  =    2.750    outmost cutoff radius                                   
   RWIGS  =    2.750; RWIGS  =    1.455    wigner-seitz radius (au A)           
   ENMAX  =  224.584; ENMIN  =  168.438 eV                                      
   RCLOC  =    2.111    cutoff for local pot                                    
   LCOR   =        T    correct aug charges                                     
   LPAW   =        T    paw PP                                                  
   EAUG   =  345.278                                                            
   DEXC   =    -.088                                                            
   RMAX   =    3.077    core radius for proj-oper                               
   RAUG   =    1.300    factor for augmentation sphere                          
   RDEP   =    2.815    radius for radial grids                                 
   QCUT   =   -4.063; QGAM   =    8.126    optimization parameters              
                                                                                
   Description                                                                  
     l     E      TYP  RCUT    TYP  RCUT                                        
     2   .000     23  2.500                                                     
     2   .000     23  2.500                                                     
     0   .000     23  2.600                                                     
     0  1.000     23  2.600                                                     
     1   .400     23  2.750                                                     
     1  2.000     23  2.750                                                     
     3   .000      7   .000                                                     
  local pseudopotential read in
  partial core-charges read in
  atomic valenz-charges read in
  non local Contribution for L=           2  read in
    real space projection operators read in
  non local Contribution for L=           2  read in
    real space projection operators read in
  non local Contribution for L=           0  read in
    real space projection operators read in
  non local Contribution for L=           0  read in
    real space projection operators read in
  non local Contribution for L=           1  read in
    real space projection operators read in
  non local Contribution for L=           1  read in
    real space projection operators read in
    PAW grid and wavefunctions read in
 
   number of l-projection  operators is LMAX  =           6
   number of lm-projection operators is LMMAX =          18
 
 POTCAR:    PAW_PBE S 17Jan2003                   
   VRHFIN =S : s2p4                                                             
   LEXCH  = PE                                                                  
   EATOM  =   276.8230 eV,   20.3459 Ry                                         
                                                                                
   TITEL  = PAW_PBE S 17Jan2003                                                 
   LULTRA =        F    use ultrasoft PP ?                                      
   IUNSCR =        1    unscreen: 0-lin 1-nonlin 2-no                           
   RPACOR =    1.500    partial core radius                                     
   POMASS =   32.066; ZVAL   =    6.000    mass and valenz                      
   RCORE  =    1.900    outmost cutoff radius                                   
   RWIGS  =    2.200; RWIGS  =    1.164    wigner-seitz radius (au A)           
   ENMAX  =  280.000; ENMIN  =  194.016 eV                                      
   ICORE  =        2    local potential                                         
   LCOR   =        T    correct aug charges                                     
   LPAW   =        T    paw PP                                                  
   EAUG   =  335.092                                                            
   DEXC   =     .000                                                            
   RMAX   =    2.867    core radius for proj-oper                               
   RAUG   =    1.300    factor for augmentation sphere                          
   RDEP   =    1.954    radius for radial grids                                 
   QCUT   =   -4.360; QGAM   =    8.721    optimization parameters              
                                                                                
   Description                                                                  
     l     E      TYP  RCUT    TYP  RCUT                                        
     0   .000     23  1.900                                                     
     0   .000     23  1.900                                                     
     1   .000     23  1.900                                                     
     1   .000     23  1.900                                                     
     2   .000     23  1.900                                                     
  local pseudopotential read in
  partial core-charges read in
  atomic valenz-charges read in
  non local Contribution for L=           0  read in
    real space projection operators read in
  non local Contribution for L=           0  read in
    real space projection operators read in
  non local Contribution for L=           1  read in
    real space projection operators read in
  non local Contribution for L=           1  read in
    real space projection operators read in
    PAW grid and wavefunctions read in
 
   number of l-projection  operators is LMAX  =           4
   number of lm-projection operators is LMMAX =           8
 

 ----------------------------------------------------------------------------- 
|                                                                             |
|  ADVICE TO THIS USER RUNNING 'VASP/VAMP'   (HEAR YOUR MASTER'S VOICE ...):  |
|                                                                             |
|      You have a (more or less) 'small supercell' and for smaller cells      |
|      it is recommended  to use the reciprocal-space projection scheme!      |
|      The real space optimization is not  efficient for small cells and it   |
|      is also less accurate ...                                              |
|      Therefore set LREAL=.FALSE. in the  INCAR file                         |
|                                                                             |
 ----------------------------------------------------------------------------- 

 Optimization of the real space projectors (new method)

 maximal supplied QI-value         = 13.61
 optimisation between [QCUT,QGAM] = [  8.03, 16.19] = [ 18.05, 73.41] Ry 
 Optimized for a Real-space Cutoff    1.97 Angstroem

   l    n(q)    QCUT    max X(q) W(low)/X(q) W(high)/X(q)  e(spline) 
   2      9     8.028     3.671    0.48E-05    0.25E-04    0.70E-07
   2      9     8.028    25.193    0.26E-03    0.70E-03    0.27E-06
   0     10     8.028    26.379    0.19E-04    0.25E-05    0.73E-08
   0     10     8.028    49.709    0.28E-04    0.49E-04    0.74E-07
   1      9     8.028     7.852    0.15E-04    0.15E-05    0.29E-07
   1      9     8.028    10.693    0.92E-04    0.27E-04    0.86E-07
 Optimization of the real space projectors (new method)

 maximal supplied QI-value         = 19.84
 optimisation between [QCUT,QGAM] = [  7.94, 16.07] = [ 17.64, 72.34] Ry 
 Optimized for a Real-space Cutoff    1.55 Angstroem

   l    n(q)    QCUT    max X(q) W(low)/X(q) W(high)/X(q)  e(spline) 
   0      7     7.937     5.487    0.27E-04    0.20E-04    0.12E-07
   0      7     7.937    85.627    0.10E-03    0.36E-03    0.16E-06
   1      7     7.937     3.530    0.15E-04    0.55E-04    0.56E-07
   1      7     7.937    42.714    0.49E-03    0.85E-03    0.12E-06
 PAW_PBE Mo 08Apr2002                   :
 energy of atom  1       EATOM= -217.5180
 kinetic energy error for atom=    0.0235 (will be added to EATOM!!)
  PAW_PBE S 17Jan2003                   :
 energy of atom  2       EATOM= -276.8230
 kinetic energy error for atom=    0.0359 (will be added to EATOM!!)
 
 
 POSCAR: MoS2_mp-2815_computed                   
  positions in cartesian coordinates
  velocities in cartesian coordinates
  No initial velocities read in
 exchange correlation table for  LEXCH =        8
   RHO(1)=    0.500       N(1)  =     2000
   RHO(2)=  100.500       N(2)  =     4000
 


--------------------------------------------------------------------------------------------------------


 ion  position               nearest neighbor table
   1  0.333  0.667  0.096-   3 2.42   2 2.42   2 2.42   3 2.42   3 2.42   2 2.42
   2  0.667  0.333  0.055-   1 2.42   1 2.42   1 2.42
   3  0.667  0.333  0.136-   1 2.42   1 2.42   1 2.42
 
  LATTYP: Found a hexagonal cell.
 ALAT       =     3.1903157300
 C/A-ratio  =    12.1865694779
  
  Lattice vectors:
  
 A1 = (   3.1903157300,   0.0000000000,   0.0000000000)
 A2 = (  -1.5951578650,   2.7628944683,   0.0000000000)
 A3 = (   0.0000000000,   0.0000000000,  38.8790043000)


Analysis of symmetry for initial positions (statically):
=====================================================================
 Subroutine PRICEL returns:
 Original cell was already a primitive cell.
 

 Routine SETGRP: Setting up the symmetry group for a 
 hexagonal supercell.


 Subroutine GETGRP returns: Found 12 space group operations
 (whereof  6 operations were pure point group operations)
 out of a pool of 24 trial point group operations.


The static configuration has the point symmetry C_3v.
 The point group associated with its full space group is D_3h.


Analysis of symmetry for dynamics (positions and initial velocities):
=====================================================================
 Subroutine PRICEL returns:
 Original cell was already a primitive cell.
 

 Routine SETGRP: Setting up the symmetry group for a 
 hexagonal supercell.


 Subroutine GETGRP returns: Found 12 space group operations
 (whereof  6 operations were pure point group operations)
 out of a pool of 24 trial point group operations.


The dynamic configuration has the point symmetry C_3v.
 The point group associated with its full space group is D_3h.


 Subroutine INISYM returns: Found 12 space group operations
 (whereof  6 operations are pure point group operations),
 and found     1 'primitive' translations

 
 
 KPOINTS: k-density: 4.0                          

Automatic generation of k-mesh.
Space group operators:
 irot       det(A)        alpha          n_x          n_y          n_z        tau_x        tau_y        tau_z
    1     1.000000     0.000000     1.000000     0.000000     0.000000     0.000000     0.000000     0.000000
    2     1.000000   120.000000     0.000000     0.000000    -1.000000     0.000000     0.000000     0.000000
    3     1.000000   120.000000     0.000000     0.000000     1.000000     0.000000     0.000000     0.000000
    4    -1.000000   180.000000     1.000000    -0.000000     0.000000     0.000000     0.000000     0.000000
    5    -1.000000   179.999999     0.500000    -0.866025     0.000000     0.000000     0.000000     0.000000
    6    -1.000000   180.000000    -0.500000    -0.866025     0.000000     0.000000     0.000000     0.000000
    7    -1.000000    60.000000     0.000000     0.000000    -1.000000     0.000000     0.000000     0.191350
    8    -1.000000   180.000000     0.000000     0.000000     1.000000     0.000000     0.000000     0.191350
    9    -1.000000    60.000000     0.000000     0.000000     1.000000     0.000000     0.000001     0.191350
   10     1.000000   180.000000     0.866025    -0.500000     0.000000     0.000000     0.000000     0.191350
   11     1.000000   180.000000     0.000000     1.000000     0.000000     0.000000     0.000000     0.191350
   12     1.000000   180.000000     0.866025     0.500000     0.000000    -0.000000     0.000001     0.191350
 
 Subroutine IBZKPT returns following result:
 ===========================================
 
 Found     10 irreducible k-points:
 
 Following reciprocal coordinates:
            Coordinates               Weight
  0.000000  0.000000  0.000000      1.000000
  0.125000  0.000000  0.000000      6.000000
  0.250000  0.000000  0.000000      6.000000
  0.375000 -0.000000  0.000000      6.000000
  0.500000  0.000000  0.000000      3.000000
  0.125000  0.125000  0.000000      6.000000
  0.250000  0.125000  0.000000     12.000000
  0.375000  0.125000  0.000000     12.000000
  0.250000  0.250000  0.000000      6.000000
  0.375000  0.250000  0.000000      6.000000
 
 Following cartesian coordinates:
            Coordinates               Weight
  0.000000  0.000000  0.000000      1.000000
  0.039181  0.022621  0.000000      6.000000
  0.078362  0.045242  0.000000      6.000000
  0.117543  0.067864  0.000000      6.000000
  0.156724  0.090485  0.000000      3.000000
  0.039181  0.067864  0.000000      6.000000
  0.078362  0.090485  0.000000     12.000000
  0.117543  0.113106  0.000000     12.000000
  0.078362  0.135727  0.000000      6.000000
  0.117543  0.158348  0.000000      6.000000
 


--------------------------------------------------------------------------------------------------------




 Dimension of arrays:
   k-points           NKPTS =     10   k-points in BZ     NKDIM =     10   number of bands    NBANDS=     14
   number of dos      NEDOS =   2401   number of ions     NIONS =      3
   non local maximal  LDIM  =      6   non local SUM 2l+1 LMDIM =     18
   total plane-waves  NPLWV =  21600
   max r-space proj   IRMAX =   2054   max aug-charges    IRDMAX=   4246
   dimension x,y,z NGX =    12 NGY =   12 NGZ =  150
   dimension x,y,z NGXF=    24 NGYF=   24 NGZF=  300
   support grid    NGXF=    24 NGYF=   24 NGZF=  300
   ions per type =               1   2
   NGX,Y,Z   is equivalent  to a cutoff of   6.25,  6.25,  6.41 a.u.
   NGXF,Y,Z  is equivalent  to a cutoff of  12.51, 12.51, 12.83 a.u.

 SYSTEM =  unknown system                          
 POSCAR =  MoS2_mp-2815_computed                   

 Startparameter for this run:
   NWRITE =      2    write-flag & timer
   PREC   = normal    normal or accurate (medium, high low for compatibility)
   ISTART =      0    job   : 0-new  1-cont  2-samecut
   ICHARG =      2    charge: 1-file 2-atom 10-const
   ISPIN  =      1    spin polarized calculation?
   LNONCOLLINEAR =      F non collinear calculations
   LSORBIT =      F    spin-orbit coupling
   INIWAV =      1    electr: 0-lowe 1-rand  2-diag
   LASPH  =      F    aspherical Exc in radial PAW
   METAGGA=      F    non-selfconsistent MetaGGA calc.

 Electronic Relaxation 1
   ENCUT  =  250.0 eV  18.37 Ry    4.29 a.u.   4.11  4.11 50.12*2*pi/ulx,y,z
   ENINI  =  250.0     initial cutoff
   ENAUG  =  345.3 eV  augmentation charge cutoff
   NELM   =     60;   NELMIN=  4; NELMDL= -5     # of ELM steps 
   EDIFF  = 0.1E-05   stopping-criterion for ELM
   LREAL  =      T    real-space projection
   NLSPLINE    = F    spline interpolate recip. space projectors
   LCOMPAT=      F    compatible to vasp.4.4
   GGA_COMPAT  = T    GGA compatible to vasp.4.4-vasp.4.6
   LMAXPAW     = -100 max onsite density
   LMAXMIX     =    2 max onsite mixed and CHGCAR
   VOSKOWN=      0    Vosko Wilk Nusair interpolation
   ROPT   =   -0.00050  -0.00050
 Ionic relaxation
   EDIFFG = 0.1E-04   stopping-criterion for IOM
   NSW    =      0    number of steps for IOM
   NBLOCK =      1;   KBLOCK =      1    inner block; outer block 
   IBRION =     -1    ionic relax: 0-MD 1-quasi-New 2-CG
   NFREE  =      0    steps in history (QN), initial steepest desc. (CG)
   ISIF   =      2    stress and relaxation
   IWAVPR =     10    prediction:  0-non 1-charg 2-wave 3-comb
   ISYM   =      2    0-nonsym 1-usesym 2-fastsym
   LCORR  =      T    Harris-Foulkes like correction to forces

   POTIM  = 0.5000    time-step for ionic-motion
   TEIN   =    0.0    initial temperature
   TEBEG  =    0.0;   TEEND  =   0.0 temperature during run
   SMASS  =  -3.00    Nose mass-parameter (am)
   estimated Nose-frequenzy (Omega)   =  0.10E-29 period in steps =****** mass=  -0.233E-27a.u.
   SCALEE = 1.0000    scale energy and forces
   NPACO  =    256;   APACO  = 16.0  distance and # of slots for P.C.
   PSTRESS=    0.0 pullay stress

  Mass of Ions in am
   POMASS =  95.94 32.07
  Ionic Valenz
   ZVAL   =   6.00  6.00
  Atomic Wigner-Seitz radii
   RWIGS  =  -1.00 -1.00
  virtual crystal weights 
   VCA    =   1.00  1.00
   NELECT =      18.0000    total number of electrons
   NUPDOWN=      -1.0000    fix difference up-down

 DOS related values:
   EMIN   = -12.00;   EMAX   = 12.00  energy-range for DOS
   EFERMI =   0.00
   ISMEAR =     0;   SIGMA  =   0.20  broadening in eV -4-tet -1-fermi 0-gaus

 Electronic relaxation 2 (details)
   IALGO  =     68    algorithm
   LDIAG  =      T    sub-space diagonalisation (order eigenvalues)
   LSUBROT=      F    optimize rotation matrix (better conditioning)
   TURBO    =      0    0=normal 1=particle mesh
   IRESTART =      0    0=no restart 2=restart with 2 vectors
   NREBOOT  =      0    no. of reboots
   NMIN     =      0    reboot dimension
   EREF     =   0.00    reference energy to select bands
   IMIX   =      4    mixing-type and parameters
     AMIX     =   0.40;   BMIX     =  1.00
     AMIX_MAG =   1.60;   BMIX_MAG =  1.00
     AMIN     =   0.10
     WC   =   100.;   INIMIX=   1;  MIXPRE=   1;  MAXMIX= -45

 Intra band minimization:
   WEIMIN = 0.0000     energy-eigenvalue tresh-hold
   EBREAK =  0.18E-07  absolut break condition
   DEPER  =   0.30     relativ break condition  

   TIME   =   0.40     timestep for ELM

  volume/ion in A,a.u.               =     114.23       770.88
  Fermi-wavevector in a.u.,A,eV,Ry     =   0.613095  1.158582  5.114237  0.375886
  Thomas-Fermi vector in A             =   1.669621
 
 Write flags
   LWAVE        =      F    write WAVECAR
   LDOWNSAMPLE  =      F    k-point downsampling of WAVECAR
   LCHARG       =      T    write CHGCAR
   LVTOT        =      F    write LOCPOT, total local potential
   LVHAR        =      F    write LOCPOT, Hartree potential only
   LELF         =      T    write electronic localiz. function (ELF)
   LORBIT       =     11    0 simple, 1 ext, 2 COOP (PROOUT), +10 PAW based schemes


 Dipole corrections
   LMONO  =      F    monopole corrections only (constant potential shift)
   LDIPOL =      F    correct potential (dipole corrections)
   IDIPOL =      0    1-x, 2-y, 3-z, 4-all directions 
   EPSILON=  1.0000000 bulk dielectric constant

 Exchange correlation treatment:
   GGA     =    --    GGA type
   LEXCH   =     8    internal setting for exchange type
   VOSKOWN=      0    Vosko Wilk Nusair interpolation
   LHFCALC =     F    Hartree Fock is set to
   LHFONE  =     F    Hartree Fock one center treatment
   AEXX    =    0.0000 exact exchange contribution

 Linear response parameters
   LEPSILON=     F    determine dielectric tensor
   LRPA    =     F    only Hartree local field effects (RPA)
   LNABLA  =     F    use nabla operator in PAW spheres
   LVEL    =     F    velocity operator in full k-point grid
   LINTERFAST=   F  fast interpolation
   KINTER  =     0    interpolate to denser k-point grid
   CSHIFT  =0.1000    complex shift for real part using Kramers Kronig
   OMEGAMAX=  -1.0    maximum frequency
   DEG_THRESHOLD= 0.2000000E-02 threshold for treating states as degnerate
   RTIME   =   -0.100 relaxation time in fs
  (WPLASMAI=    0.000 imaginary part of plasma frequency in eV, 0.658/RTIME)
   DFIELD  = 0.0000000 0.0000000 0.0000000 field for delta impulse in time
 
 Orbital magnetization related:
   ORBITALMAG=     F  switch on orbital magnetization
   LCHIMAG   =     F  perturbation theory with respect to B field
   DQ        =  0.001000  dq finite difference perturbation B field
   LLRAUG    =     F  two centre corrections for induced B field



--------------------------------------------------------------------------------------------------------


 Static calculation
 charge density and potential will be updated during run
 non-spin polarized calculation
 RMM-DIIS sequential band-by-band and
  variant of blocked Davidson during initial phase
 perform sub-space diagonalisation
    before iterative eigenvector-optimisation
 modified Broyden-mixing scheme, WC =      100.0
 initial mixing is a Kerker type mixing with AMIX =  0.4000 and BMIX =      1.0000
 Hartree-type preconditioning will be used
 using additional bands            5
 real space projection scheme for non local part
 use partial core corrections
 calculate Harris-corrections to forces 
   (improved forces if not selfconsistent)
 use gradient corrections 
 use of overlap-Matrix (Vanderbilt PP)
 Gauss-broadening in eV      SIGMA  =   0.20


--------------------------------------------------------------------------------------------------------


  energy-cutoff  :      250.00
  volume of cell :      342.70
      direct lattice vectors                 reciprocal lattice vectors
     3.190315730  0.000000000  0.000000000     0.313448600  0.180969634  0.000000000
    -1.595157865  2.762894468  0.000000000     0.000000000  0.361939267  0.000000000
     0.000000000  0.000000000 38.879004300     0.000000000  0.000000000  0.025720823

  length of vectors
     3.190315730  3.190315730 38.879004300     0.361939267  0.361939267  0.025720823


 
 k-points in units of 2pi/SCALE and weight: k-density: 4.0                          
   0.00000000  0.00000000  0.00000000       0.016
   0.03918108  0.02262120  0.00000000       0.094
   0.07836215  0.04524241  0.00000000       0.094
   0.11754323  0.06786361  0.00000000       0.094
   0.15672430  0.09048482  0.00000000       0.047
   0.03918108  0.06786361  0.00000000       0.094
   0.07836215  0.09048482  0.00000000       0.188
   0.11754323  0.11310602  0.00000000       0.188
   0.07836215  0.13572723  0.00000000       0.094
   0.11754323  0.15834843  0.00000000       0.094
 
 k-points in reciprocal lattice and weights: k-density: 4.0                          
   0.00000000  0.00000000  0.00000000       0.016
   0.12500000  0.00000000  0.00000000       0.094
   0.25000000  0.00000000  0.00000000       0.094
   0.37500000 -0.00000000  0.00000000       0.094
   0.50000000  0.00000000  0.00000000       0.047
   0.12500000  0.12500000  0.00000000       0.094
   0.25000000  0.12500000  0.00000000       0.188
   0.37500000  0.12500000  0.00000000       0.188
   0.25000000  0.25000000  0.00000000       0.094
   0.37500000  0.25000000  0.00000000       0.094
 
 position of ions in fractional coordinates (direct lattice) 
   0.33333300  0.66666700  0.09567506
   0.66666700  0.33333300  0.05542495
   0.66666600  0.33333300  0.13592518
 
 position of ions in cartesian coordinates  (Angst):
  -0.00000160  1.84193057  3.71975108
   1.59515946  0.92096390  2.15486668
   1.59515627  0.92096390  5.28463547
 


--------------------------------------------------------------------------------------------------------


 k-point  1 :   0.0000 0.0000 0.0000  plane waves:    2975
 k-point  2 :   0.1250 0.0000 0.0000  plane waves:    3009
 k-point  3 :   0.2500 0.0000 0.0000  plane waves:    3073
 k-point  4 :   0.3750-0.0000 0.0000  plane waves:    3099
 k-point  5 :   0.5000 0.0000 0.0000  plane waves:    3128
 k-point  6 :   0.1250 0.1250 0.0000  plane waves:    3042
 k-point  7 :   0.2500 0.1250 0.0000  plane waves:    3071
 k-point  8 :   0.3750 0.1250 0.0000  plane waves:    3079
 k-point  9 :   0.2500 0.2500 0.0000  plane waves:    3102
 k-point 10 :   0.3750 0.2500 0.0000  plane waves:    3096

 maximum and minimum number of plane-waves per node :      1567     1468

 maximum number of plane-waves:      3128
 maximum index in each direction: 
   IXMAX=    4   IYMAX=    4   IZMAX=   50
   IXMIN=   -4   IYMIN=   -4   IZMIN=  -50


 real space projection operators:
  total allocation   :        390.05 KBytes
  max/ min on nodes  :        195.88        194.17


 parallel 3D FFT for wavefunctions:
    minimum data exchange during FFTs selected (reduces bandwidth)
 parallel 3D FFT for charge:
    minimum data exchange during FFTs selected (reduces bandwidth)


 total amount of memory used by VASP MPI-rank0    36802. kBytes
=======================================================================

   base      :      30000. kBytes
   nonlr-proj:        339. kBytes
   fftplans  :       1791. kBytes
   grid      :       2863. kBytes
   one-center:         31. kBytes
   wavefun   :       1778. kBytes
 
     INWAV:  cpu time    0.0010: real time    0.0001
 Broyden mixing: mesh for mixing (old mesh)
   NGX =  9   NGY =  9   NGZ =101
  (NGX  = 24   NGY  = 24   NGZ  =300)
  gives a total of   8181 points

 initial charge density was supplied:
 charge density of overlapping atoms calculated
 number of electron      18.0000000 magnetization 
 keeping initial charge density in first step


--------------------------------------------------------------------------------------------------------


 Maximum index for non-local projection operator          955
 Maximum index for augmentation-charges          987 (set IRDMAX)


--------------------------------------------------------------------------------------------------------


 First call to EWALD:  gamma=   0.253
 Maximum number of real-space cells 6x 6x 1
 Maximum number of reciprocal cells 2x 2x13

    FEWALD:  cpu time    0.0020: real time    0.0015


--------------------------------------- Iteration      1(   1)  ---------------------------------------


    POTLOK:  cpu time    0.0260: real time    0.4150
    SETDIJ:  cpu time    0.0020: real time    0.0028
     EDDAV:  cpu time    0.1510: real time    0.1549
       DOS:  cpu time    0.0020: real time    0.0019
    --------------------------------------------
      LOOP:  cpu time    0.1810: real time    0.5746

 eigenvalue-minimisations  :   326
 total energy-change (2. order) : 0.8780610E+02  (-0.4335149E+03)
 number of electron      18.0000000 magnetization 
 augmentation part       18.0000000 magnetization 

 Free energy of the ion-electron system (eV)
  ---------------------------------------------------
  alpha Z        PSCENC =         8.65149155
  Ewald energy   TEWEN  =      7549.60959185
  -Hartree energ DENC   =     -8212.21483143
  -exchange      EXHF   =         0.00000000
  -V(xc)+E(xc)   XCENC  =       -36.31055997
  PAW double counting   =       406.88651198     -329.34073203
  entropy T*S    EENTRO =        -0.06662834
  eigenvalues    EBANDS =       -70.47731962
  atomic energy  EATOM  =       771.06857575
  Solvation  Ediel_sol  =         0.00000000
  ---------------------------------------------------
  free energy    TOTEN  =        87.80609975 eV

  energy without entropy =       87.87272808  energy(sigma->0) =       87.83941391


--------------------------------------------------------------------------------------------------------




--------------------------------------- Iteration      1(   2)  ---------------------------------------


     EDDAV:  cpu time    0.2070: real time    0.2085
       DOS:  cpu time    0.0020: real time    0.0018
    --------------------------------------------
      LOOP:  cpu time    0.2090: real time    0.2103

 eigenvalue-minimisations  :   484
 total energy-change (2. order) :-0.9978682E+02  (-0.9160583E+02)
 number of electron      18.0000000 magnetization 
 augmentation part       18.0000000 magnetization 

 Free energy of the ion-electron system (eV)
  ---------------------------------------------------
  alpha Z        PSCENC =         8.65149155
  Ewald energy   TEWEN  =      7549.60959185
  -Hartree energ DENC   =     -8212.21483143
  -exchange      EXHF   =         0.00000000
  -V(xc)+E(xc)   XCENC  =       -36.31055997
  PAW double counting   =       406.88651198     -329.34073203
  entropy T*S    EENTRO =        -0.00000000
  eigenvalues    EBANDS =      -170.33076851
  atomic energy  EATOM  =       771.06857575
  Solvation  Ediel_sol  =         0.00000000
  ---------------------------------------------------
  free energy    TOTEN  =       -11.98072080 eV

  energy without entropy =      -11.98072080  energy(sigma->0) =      -11.98072080


--------------------------------------------------------------------------------------------------------




--------------------------------------- Iteration      1(   3)  ---------------------------------------


     EDDAV:  cpu time    0.1690: real time    0.1689
       DOS:  cpu time    0.0020: real time    0.0018
    --------------------------------------------
      LOOP:  cpu time    0.1710: real time    0.1708

 eigenvalue-minimisations  :   382
 total energy-change (2. order) :-0.1117350E+02  (-0.1102887E+02)
 number of electron      18.0000000 magnetization 
 augmentation part       18.0000000 magnetization 

 Free energy of the ion-electron system (eV)
  ---------------------------------------------------
  alpha Z        PSCENC =         8.65149155
  Ewald energy   TEWEN  =      7549.60959185
  -Hartree energ DENC   =     -8212.21483143
  -exchange      EXHF   =         0.00000000
  -V(xc)+E(xc)   XCENC  =       -36.31055997
  PAW double counting   =       406.88651198     -329.34073203
  entropy T*S    EENTRO =        -0.00000000
  eigenvalues    EBANDS =      -181.50426550
  atomic energy  EATOM  =       771.06857575
  Solvation  Ediel_sol  =         0.00000000
  ---------------------------------------------------
  free energy    TOTEN  =       -23.15421779 eV

  energy without entropy =      -23.15421779  energy(sigma->0) =      -23.15421779


--------------------------------------------------------------------------------------------------------




--------------------------------------- Iteration      1(   4)  ---------------------------------------


     EDDAV:  cpu time    0.1670: real time    0.1670
       DOS:  cpu time    0.0010: real time    0.0018
    --------------------------------------------
      LOOP:  cpu time    0.1680: real time    0.1688

 eigenvalue-minimisations  :   376
 total energy-change (2. order) :-0.2117594E+00  (-0.2107389E+00)
 number of electron      18.0000000 magnetization 
 augmentation part       18.0000000 magnetization 

 Free energy of the ion-electron system (eV)
  ---------------------------------------------------
  alpha Z        PSCENC =         8.65149155
  Ewald energy   TEWEN  =      7549.60959185
  -Hartree energ DENC   =     -8212.21483143
  -exchange      EXHF   =         0.00000000
  -V(xc)+E(xc)   XCENC  =       -36.31055997
  PAW double counting   =       406.88651198     -329.34073203
  entropy T*S    EENTRO =        -0.00000000
  eigenvalues    EBANDS =      -181.71602485
  atomic energy  EATOM  =       771.06857575
  Solvation  Ediel_sol  =         0.00000000
  ---------------------------------------------------
  free energy    TOTEN  =       -23.36597715 eV

  energy without entropy =      -23.36597715  energy(sigma->0) =      -23.36597715


--------------------------------------------------------------------------------------------------------




--------------------------------------- Iteration      1(   5)  ---------------------------------------


     EDDAV:  cpu time    0.1610: real time    0.1606
       DOS:  cpu time    0.0010: real time    0.0018
    CHARGE:  cpu time    0.0110: real time    0.0113
    MIXING:  cpu time    0.0020: real time    0.0010
    --------------------------------------------
      LOOP:  cpu time    0.1750: real time    0.1747

 eigenvalue-minimisations  :   358
 total energy-change (2. order) :-0.4485485E-02  (-0.4481543E-02)
 number of electron      17.9999958 magnetization 
 augmentation part       -0.9518341 magnetization 

 Broyden mixing:
  rms(total) = 0.69125E+00    rms(broyden)= 0.69109E+00
  rms(prec ) = 0.71890E+00
  weight for this iteration     100.00

 Free energy of the ion-electron system (eV)
  ---------------------------------------------------
  alpha Z        PSCENC =         8.65149155
  Ewald energy   TEWEN  =      7549.60959185
  -Hartree energ DENC   =     -8212.21483143
  -exchange      EXHF   =         0.00000000
  -V(xc)+E(xc)   XCENC  =       -36.31055997
  PAW double counting   =       406.88651198     -329.34073203
  entropy T*S    EENTRO =        -0.00000000
  eigenvalues    EBANDS =      -181.72051034
  atomic energy  EATOM  =       771.06857575
  Solvation  Ediel_sol  =         0.00000000
  ---------------------------------------------------
  free energy    TOTEN  =       -23.37046263 eV

  energy without entropy =      -23.37046263  energy(sigma->0) =      -23.37046263


--------------------------------------------------------------------------------------------------------




--------------------------------------- Iteration      1(   6)  ---------------------------------------


    POTLOK:  cpu time    0.0200: real time    0.0205
    SETDIJ:  cpu time    0.0020: real time    0.0020
    EDDIAG:  cpu time    0.0260: real time    0.0261
  RMM-DIIS:  cpu time    0.0890: real time    0.0888
    ORTHCH:  cpu time    0.0020: real time    0.0029
       DOS:  cpu time    0.0020: real time    0.0018
    CHARGE:  cpu time    0.0110: real time    0.0110
    MIXING:  cpu time    0.0010: real time    0.0011
    --------------------------------------------
      LOOP:  cpu time    0.1530: real time    0.1542

 eigenvalue-minimisations  :   293
 total energy-change (2. order) : 0.1159366E+01  (-0.5409136E+00)
 number of electron      17.9999953 magnetization 
 augmentation part       -0.4083795 magnetization 

 Broyden mixing:
  rms(total) = 0.26288E+00    rms(broyden)= 0.26270E+00
  rms(prec ) = 0.28539E+00
  weight for this iteration     100.00

 eigenvalues of (default mixing * dielectric matrix)
  average eigenvalue GAMMA=   0.8355
  0.8355

 Free energy of the ion-electron system (eV)
  ---------------------------------------------------
  alpha Z        PSCENC =         8.65149155
  Ewald energy   TEWEN  =      7549.60959185
  -Hartree energ DENC   =     -8210.34561810
  -exchange      EXHF   =         0.00000000
  -V(xc)+E(xc)   XCENC  =       -35.41174469
  PAW double counting   =       426.18696074     -349.53201569
  entropy T*S    EENTRO =        -0.00000003
  eigenvalues    EBANDS =      -182.43833754
  atomic energy  EATOM  =       771.06857575
  Solvation  Ediel_sol  =         0.00000000
  ---------------------------------------------------
  free energy    TOTEN  =       -22.21109616 eV

  energy without entropy =      -22.21109613  energy(sigma->0) =      -22.21109614


--------------------------------------------------------------------------------------------------------




--------------------------------------- Iteration      1(   7)  ---------------------------------------


    POTLOK:  cpu time    0.0200: real time    0.0225
    SETDIJ:  cpu time    0.0020: real time    0.0020
    EDDIAG:  cpu time    0.0260: real time    0.0257
  RMM-DIIS:  cpu time    0.0880: real time    0.0877
    ORTHCH:  cpu time    0.0020: real time    0.0029
       DOS:  cpu time    0.0020: real time    0.0018
    CHARGE:  cpu time    0.0110: real time    0.0110
    MIXING:  cpu time    0.0010: real time    0.0009
    --------------------------------------------
      LOOP:  cpu time    0.1520: real time    0.1546

 eigenvalue-minimisations  :   293
 total energy-change (2. order) : 0.3820532E+00  (-0.5820662E-01)
 number of electron      17.9999955 magnetization 
 augmentation part       -0.6137230 magnetization 

 Broyden mixing:
  rms(total) = 0.15508E+00    rms(broyden)= 0.15506E+00
  rms(prec ) = 0.15923E+00
  weight for this iteration     100.00

 eigenvalues of (default mixing * dielectric matrix)
  average eigenvalue GAMMA=   1.3731
  0.6637  2.0824

 Free energy of the ion-electron system (eV)
  ---------------------------------------------------
  alpha Z        PSCENC =         8.65149155
  Ewald energy   TEWEN  =      7549.60959185
  -Hartree energ DENC   =     -8216.21584433
  -exchange      EXHF   =         0.00000000
  -V(xc)+E(xc)   XCENC  =       -35.55567936
  PAW double counting   =       445.37740523     -368.95728148
  entropy T*S    EENTRO =        -0.00000000
  eigenvalues    EBANDS =      -175.80730216
  atomic energy  EATOM  =       771.06857575
  Solvation  Ediel_sol  =         0.00000000
  ---------------------------------------------------
  free energy    TOTEN  =       -21.82904294 eV

  energy without entropy =      -21.82904294  energy(sigma->0) =      -21.82904294


--------------------------------------------------------------------------------------------------------




--------------------------------------- Iteration      1(   8)  ---------------------------------------


    POTLOK:  cpu time    0.0190: real time    0.0193
    SETDIJ:  cpu time    0.0020: real time    0.0020
    EDDIAG:  cpu time    0.0260: real time    0.0257
  RMM-DIIS:  cpu time    0.0920: real time    0.0917
    ORTHCH:  cpu time    0.0020: real time    0.0029
       DOS:  cpu time    0.0020: real time    0.0018
    CHARGE:  cpu time    0.0110: real time    0.0110
    MIXING:  cpu time    0.0010: real time    0.0014
    --------------------------------------------
      LOOP:  cpu time    0.1550: real time    0.1557

 eigenvalue-minimisations  :   307
 total energy-change (2. order) : 0.6102201E-01  (-0.2352793E-01)
 number of electron      17.9999954 magnetization 
 augmentation part       -0.5605626 magnetization 

 Broyden mixing:
  rms(total) = 0.34713E-01    rms(broyden)= 0.34686E-01
  rms(prec ) = 0.35833E-01
  weight for this iteration     100.00

 eigenvalues of (default mixing * dielectric matrix)
  average eigenvalue GAMMA=   1.5000
  1.9193  1.9193  0.6614

 Free energy of the ion-electron system (eV)
  ---------------------------------------------------
  alpha Z        PSCENC =         8.65149155
  Ewald energy   TEWEN  =      7549.60959185
  -Hartree energ DENC   =     -8220.34519479
  -exchange      EXHF   =         0.00000000
  -V(xc)+E(xc)   XCENC  =       -35.26648030
  PAW double counting   =       471.39669186     -395.49698641
  entropy T*S    EENTRO =        -0.00000000
  eigenvalues    EBANDS =      -171.38571046
  atomic energy  EATOM  =       771.06857575
  Solvation  Ediel_sol  =         0.00000000
  ---------------------------------------------------
  free energy    TOTEN  =       -21.76802094 eV

  energy without entropy =      -21.76802094  energy(sigma->0) =      -21.76802094


--------------------------------------------------------------------------------------------------------




--------------------------------------- Iteration      1(   9)  ---------------------------------------


    POTLOK:  cpu time    0.0200: real time    0.0193
    SETDIJ:  cpu time    0.0020: real time    0.0020
    EDDIAG:  cpu time    0.0250: real time    0.0257
  RMM-DIIS:  cpu time    0.1010: real time    0.1009
    ORTHCH:  cpu time    0.0030: real time    0.0029
       DOS:  cpu time    0.0020: real time    0.0018
    CHARGE:  cpu time    0.0110: real time    0.0110
    MIXING:  cpu time    0.0010: real time    0.0010
    --------------------------------------------
      LOOP:  cpu time    0.1650: real time    0.1646

 eigenvalue-minimisations  :   335
 total energy-change (2. order) : 0.4639456E-02  (-0.8334383E-03)
 number of electron      17.9999954 magnetization 
 augmentation part       -0.5585821 magnetization 

 Broyden mixing:
  rms(total) = 0.91472E-02    rms(broyden)= 0.91419E-02
  rms(prec ) = 0.10220E-01
  weight for this iteration     100.00

 eigenvalues of (default mixing * dielectric matrix)
  average eigenvalue GAMMA=   1.5042
  0.6627  1.0475  2.4400  1.8666

 Free energy of the ion-electron system (eV)
  ---------------------------------------------------
  alpha Z        PSCENC =         8.65149155
  Ewald energy   TEWEN  =      7549.60959185
  -Hartree energ DENC   =     -8221.67795252
  -exchange      EXHF   =         0.00000000
  -V(xc)+E(xc)   XCENC  =       -35.21899989
  PAW double counting   =       476.70349875     -400.87208110
  entropy T*S    EENTRO =        -0.00000000
  eigenvalues    EBANDS =      -170.02750588
  atomic energy  EATOM  =       771.06857575
  Solvation  Ediel_sol  =         0.00000000
  ---------------------------------------------------
  free energy    TOTEN  =       -21.76338148 eV

  energy without entropy =      -21.76338148  energy(sigma->0) =      -21.76338148


--------------------------------------------------------------------------------------------------------




--------------------------------------- Iteration      1(  10)  ---------------------------------------


    POTLOK:  cpu time    0.0190: real time    0.0195
    SETDIJ:  cpu time    0.0030: real time    0.0020
    EDDIAG:  cpu time    0.0250: real time    0.0257
  RMM-DIIS:  cpu time    0.1020: real time    0.1018
    ORTHCH:  cpu time    0.0030: real time    0.0029
       DOS:  cpu time    0.0020: real time    0.0018
    CHARGE:  cpu time    0.0110: real time    0.0110
    MIXING:  cpu time    0.0010: real time    0.0011
    --------------------------------------------
      LOOP:  cpu time    0.1660: real time    0.1658

 eigenvalue-minimisations  :   340
 total energy-change (2. order) : 0.6477045E-03  (-0.1530224E-03)
 number of electron      17.9999954 magnetization 
 augmentation part       -0.5614290 magnetization 

 Broyden mixing:
  rms(total) = 0.42786E-02    rms(broyden)= 0.42743E-02
  rms(prec ) = 0.52025E-02
  weight for this iteration     100.00

 eigenvalues of (default mixing * dielectric matrix)
  average eigenvalue GAMMA=   1.6650
  0.6632  1.0351  2.1771  2.2247  2.2247

 Free energy of the ion-electron system (eV)
  ---------------------------------------------------
  alpha Z        PSCENC =         8.65149155
  Ewald energy   TEWEN  =      7549.60959185
  -Hartree energ DENC   =     -8222.85325607
  -exchange      EXHF   =         0.00000000
  -V(xc)+E(xc)   XCENC  =       -35.19459342
  PAW double counting   =       479.18992931     -403.39057503
  entropy T*S    EENTRO =        -0.00000000
  eigenvalues    EBANDS =      -168.84389772
  atomic energy  EATOM  =       771.06857575
  Solvation  Ediel_sol  =         0.00000000
  ---------------------------------------------------
  free energy    TOTEN  =       -21.76273378 eV

  energy without entropy =      -21.76273378  energy(sigma->0) =      -21.76273378


--------------------------------------------------------------------------------------------------------




--------------------------------------- Iteration      1(  11)  ---------------------------------------


    POTLOK:  cpu time    0.0190: real time    0.0198
    SETDIJ:  cpu time    0.0020: real time    0.0020
    EDDIAG:  cpu time    0.0260: real time    0.0258
  RMM-DIIS:  cpu time    0.0970: real time    0.0971
    ORTHCH:  cpu time    0.0020: real time    0.0029
       DOS:  cpu time    0.0020: real time    0.0018
    CHARGE:  cpu time    0.0110: real time    0.0110
    MIXING:  cpu time    0.0010: real time    0.0012
    --------------------------------------------
      LOOP:  cpu time    0.1600: real time    0.1616

 eigenvalue-minimisations  :   319
 total energy-change (2. order) : 0.5469110E-04  (-0.1510000E-03)
 number of electron      17.9999954 magnetization 
 augmentation part       -0.5589296 magnetization 

 Broyden mixing:
  rms(total) = 0.48007E-02    rms(broyden)= 0.47971E-02
  rms(prec ) = 0.52489E-02
  weight for this iteration     100.00

 eigenvalues of (default mixing * dielectric matrix)
  average eigenvalue GAMMA=   1.6660
  2.8061  2.8061  0.6636  1.4035  1.4035  0.9134

 Free energy of the ion-electron system (eV)
  ---------------------------------------------------
  alpha Z        PSCENC =         8.65149155
  Ewald energy   TEWEN  =      7549.60959185
  -Hartree energ DENC   =     -8224.00643919
  -exchange      EXHF   =         0.00000000
  -V(xc)+E(xc)   XCENC  =       -35.18306352
  PAW double counting   =       478.67731037     -402.86948771
  entropy T*S    EENTRO =        -0.00000000
  eigenvalues    EBANDS =      -167.71065819
  atomic energy  EATOM  =       771.06857575
  Solvation  Ediel_sol  =         0.00000000
  ---------------------------------------------------
  free energy    TOTEN  =       -21.76267909 eV

  energy without entropy =      -21.76267909  energy(sigma->0) =      -21.76267909


--------------------------------------------------------------------------------------------------------




--------------------------------------- Iteration      1(  12)  ---------------------------------------


    POTLOK:  cpu time    0.0200: real time    0.0198
    SETDIJ:  cpu time    0.0030: real time    0.0020
    EDDIAG:  cpu time    0.0250: real time    0.0258
  RMM-DIIS:  cpu time    0.0950: real time    0.0942
    ORTHCH:  cpu time    0.0020: real time    0.0030
       DOS:  cpu time    0.0020: real time    0.0018
    CHARGE:  cpu time    0.0110: real time    0.0110
    MIXING:  cpu time    0.0010: real time    0.0012
    --------------------------------------------
      LOOP:  cpu time    0.1590: real time    0.1588

 eigenvalue-minimisations  :   311
 total energy-change (2. order) : 0.6802653E-04  (-0.4325943E-04)
 number of electron      17.9999954 magnetization 
 augmentation part       -0.5605089 magnetization 

 Broyden mixing:
  rms(total) = 0.14397E-02    rms(broyden)= 0.14307E-02
  rms(prec ) = 0.18301E-02
  weight for this iteration     100.00

 eigenvalues of (default mixing * dielectric matrix)
  average eigenvalue GAMMA=   1.9548
  3.6813  2.8457  2.8457  0.6635  0.9690  1.3393  1.3393

 Free energy of the ion-electron system (eV)
  ---------------------------------------------------
  alpha Z        PSCENC =         8.65149155
  Ewald energy   TEWEN  =      7549.60959185
  -Hartree energ DENC   =     -8224.76510034
  -exchange      EXHF   =         0.00000000
  -V(xc)+E(xc)   XCENC  =       -35.17758596
  PAW double counting   =       478.85198488     -403.04219184
  entropy T*S    EENTRO =        -0.00000000
  eigenvalues    EBANDS =      -166.95937695
  atomic energy  EATOM  =       771.06857575
  Solvation  Ediel_sol  =         0.00000000
  ---------------------------------------------------
  free energy    TOTEN  =       -21.76261106 eV

  energy without entropy =      -21.76261106  energy(sigma->0) =      -21.76261106


--------------------------------------------------------------------------------------------------------




--------------------------------------- Iteration      1(  13)  ---------------------------------------


    POTLOK:  cpu time    0.0200: real time    0.0199
    SETDIJ:  cpu time    0.0030: real time    0.0020
    EDDIAG:  cpu time    0.0250: real time    0.0258
  RMM-DIIS:  cpu time    0.0930: real time    0.0923
    ORTHCH:  cpu time    0.0020: real time    0.0029
       DOS:  cpu time    0.0020: real time    0.0018
    CHARGE:  cpu time    0.0110: real time    0.0110
    MIXING:  cpu time    0.0010: real time    0.0013
    --------------------------------------------
      LOOP:  cpu time    0.1570: real time    0.1569

 eigenvalue-minimisations  :   307
 total energy-change (2. order) :-0.4228259E-03  (-0.1385725E-04)
 number of electron      17.9999954 magnetization 
 augmentation part       -0.5594765 magnetization 

 Broyden mixing:
  rms(total) = 0.17282E-02    rms(broyden)= 0.17209E-02
  rms(prec ) = 0.18425E-02
  weight for this iteration     100.00

 eigenvalues of (default mixing * dielectric matrix)
  average eigenvalue GAMMA=   1.9016
  4.7592  2.6842  2.3938  1.4075  1.4075  0.6636  0.9484  0.9484

 Free energy of the ion-electron system (eV)
  ---------------------------------------------------
  alpha Z        PSCENC =         8.65149155
  Ewald energy   TEWEN  =      7549.60959185
  -Hartree energ DENC   =     -8225.57639163
  -exchange      EXHF   =         0.00000000
  -V(xc)+E(xc)   XCENC  =       -35.17095690
  PAW double counting   =       478.86019124     -403.05536799
  entropy T*S    EENTRO =        -0.00000000
  eigenvalues    EBANDS =      -166.15016777
  atomic energy  EATOM  =       771.06857575
  Solvation  Ediel_sol  =         0.00000000
  ---------------------------------------------------
  free energy    TOTEN  =       -21.76303388 eV

  energy without entropy =      -21.76303388  energy(sigma->0) =      -21.76303388


--------------------------------------------------------------------------------------------------------




--------------------------------------- Iteration      1(  14)  ---------------------------------------


    POTLOK:  cpu time    0.0210: real time    0.0232
    SETDIJ:  cpu time    0.0020: real time    0.0020
    EDDIAG:  cpu time    0.0260: real time    0.0257
  RMM-DIIS:  cpu time    0.0960: real time    0.0957
    ORTHCH:  cpu time    0.0030: real time    0.0029
       DOS:  cpu time    0.0010: real time    0.0018
    CHARGE:  cpu time    0.0110: real time    0.0110
    MIXING:  cpu time    0.0020: real time    0.0014
    --------------------------------------------
      LOOP:  cpu time    0.1620: real time    0.1637

 eigenvalue-minimisations  :   326
 total energy-change (2. order) :-0.7350556E-04  (-0.2567714E-05)
 number of electron      17.9999954 magnetization 
 augmentation part       -0.5604329 magnetization 

 Broyden mixing:
  rms(total) = 0.48855E-03    rms(broyden)= 0.46217E-03
  rms(prec ) = 0.57439E-03
  weight for this iteration     100.00

 eigenvalues of (default mixing * dielectric matrix)
  average eigenvalue GAMMA=   2.1961
  6.6923  3.0469  2.3470  2.3470  0.6636  1.5075  0.9850  0.9850  1.1911

 Free energy of the ion-electron system (eV)
  ---------------------------------------------------
  alpha Z        PSCENC =         8.65149155
  Ewald energy   TEWEN  =      7549.60959185
  -Hartree energ DENC   =     -8225.77975636
  -exchange      EXHF   =         0.00000000
  -V(xc)+E(xc)   XCENC  =       -35.17269820
  PAW double counting   =       478.64785605     -402.83825325
  entropy T*S    EENTRO =        -0.00000000
  eigenvalues    EBANDS =      -165.94991478
  atomic energy  EATOM  =       771.06857575
  Solvation  Ediel_sol  =         0.00000000
  ---------------------------------------------------
  free energy    TOTEN  =       -21.76310739 eV

  energy without entropy =      -21.76310739  energy(sigma->0) =      -21.76310739


--------------------------------------------------------------------------------------------------------




--------------------------------------- Iteration      1(  15)  ---------------------------------------


    POTLOK:  cpu time    0.0190: real time    0.0200
    SETDIJ:  cpu time    0.0020: real time    0.0020
    EDDIAG:  cpu time    0.0260: real time    0.0258
  RMM-DIIS:  cpu time    0.0860: real time    0.0862
    ORTHCH:  cpu time    0.0030: real time    0.0029
       DOS:  cpu time    0.0010: real time    0.0018
    CHARGE:  cpu time    0.0110: real time    0.0110
    MIXING:  cpu time    0.0020: real time    0.0015
    --------------------------------------------
      LOOP:  cpu time    0.1500: real time    0.1511

 eigenvalue-minimisations  :   290
 total energy-change (2. order) :-0.1272030E-03  (-0.1650704E-05)
 number of electron      17.9999954 magnetization 
 augmentation part       -0.5600183 magnetization 

 Broyden mixing:
  rms(total) = 0.37216E-03    rms(broyden)= 0.33702E-03
  rms(prec ) = 0.38307E-03
  weight for this iteration     100.00

 eigenvalues of (default mixing * dielectric matrix)
  average eigenvalue GAMMA=   2.1538
  6.6059  3.4850  2.5970  1.7095  1.7095  1.7117  0.6636  1.0497  1.0497  0.9563

 Free energy of the ion-electron system (eV)
  ---------------------------------------------------
  alpha Z        PSCENC =         8.65149155
  Ewald energy   TEWEN  =      7549.60959185
  -Hartree energ DENC   =     -8226.02065701
  -exchange      EXHF   =         0.00000000
  -V(xc)+E(xc)   XCENC  =       -35.17171920
  PAW double counting   =       478.68094183     -402.87217107
  entropy T*S    EENTRO =        -0.00000000
  eigenvalues    EBANDS =      -165.70928830
  atomic energy  EATOM  =       771.06857575
  Solvation  Ediel_sol  =         0.00000000
  ---------------------------------------------------
  free energy    TOTEN  =       -21.76323459 eV

  energy without entropy =      -21.76323459  energy(sigma->0) =      -21.76323459


--------------------------------------------------------------------------------------------------------




--------------------------------------- Iteration      1(  16)  ---------------------------------------


    POTLOK:  cpu time    0.0200: real time    0.0199
    SETDIJ:  cpu time    0.0020: real time    0.0020
    EDDIAG:  cpu time    0.0260: real time    0.0256
  RMM-DIIS:  cpu time    0.0770: real time    0.0774
    ORTHCH:  cpu time    0.0030: real time    0.0029
       DOS:  cpu time    0.0020: real time    0.0018
    CHARGE:  cpu time    0.0110: real time    0.0111
    MIXING:  cpu time    0.0010: real time    0.0016
    --------------------------------------------
      LOOP:  cpu time    0.1420: real time    0.1423

 eigenvalue-minimisations  :   239
 total energy-change (2. order) :-0.3587865E-04  (-0.2735169E-06)
 number of electron      17.9999954 magnetization 
 augmentation part       -0.5603195 magnetization 

 Broyden mixing:
  rms(total) = 0.22991E-03    rms(broyden)= 0.16728E-03
  rms(prec ) = 0.19355E-03
  weight for this iteration     100.00
  WARNING: grid for Broyden might be to small

 eigenvalues of (default mixing * dielectric matrix)
  average eigenvalue GAMMA=   2.3664
  7.4428  4.6169  2.9440  2.5830  2.1496  1.5021  0.6636  1.2061  0.9999  0.9999
  0.9221

 Free energy of the ion-electron system (eV)
  ---------------------------------------------------
  alpha Z        PSCENC =         8.65149155
  Ewald energy   TEWEN  =      7549.60959185
  -Hartree energ DENC   =     -8226.07533804
  -exchange      EXHF   =         0.00000000
  -V(xc)+E(xc)   XCENC  =       -35.17197944
  PAW double counting   =       478.71192357     -402.90341836
  entropy T*S    EENTRO =        -0.00000000
  eigenvalues    EBANDS =      -165.65411736
  atomic energy  EATOM  =       771.06857575
  Solvation  Ediel_sol  =         0.00000000
  ---------------------------------------------------
  free energy    TOTEN  =       -21.76327047 eV

  energy without entropy =      -21.76327047  energy(sigma->0) =      -21.76327047


--------------------------------------------------------------------------------------------------------




--------------------------------------- Iteration      1(  17)  ---------------------------------------


    POTLOK:  cpu time    0.0200: real time    0.0196
    SETDIJ:  cpu time    0.0020: real time    0.0020
    EDDIAG:  cpu time    0.0250: real time    0.0257
  RMM-DIIS:  cpu time    0.0680: real time    0.0668
    ORTHCH:  cpu time    0.0020: real time    0.0029
       DOS:  cpu time    0.0020: real time    0.0018
    CHARGE:  cpu time    0.0110: real time    0.0110
    MIXING:  cpu time    0.0020: real time    0.0017
    --------------------------------------------
      LOOP:  cpu time    0.1320: real time    0.1315

 eigenvalue-minimisations  :   204
 total energy-change (2. order) :-0.3773982E-04  (-0.2011723E-06)
 number of electron      17.9999954 magnetization 
 augmentation part       -0.5602405 magnetization 

 Broyden mixing:
  rms(total) = 0.20313E-03    rms(broyden)= 0.12805E-03
  rms(prec ) = 0.13708E-03
  weight for this iteration     100.00
  WARNING: grid for Broyden might be to small

 eigenvalues of (default mixing * dielectric matrix)
  average eigenvalue GAMMA=   2.2686
  7.6156  4.7960  2.9276  2.4652  2.1742  1.4865  0.6636  1.3111  0.9960  0.9960
  0.9304  0.8609

 Free energy of the ion-electron system (eV)
  ---------------------------------------------------
  alpha Z        PSCENC =         8.65149155
  Ewald energy   TEWEN  =      7549.60959185
  -Hartree energ DENC   =     -8226.11775879
  -exchange      EXHF   =         0.00000000
  -V(xc)+E(xc)   XCENC  =       -35.17201313
  PAW double counting   =       478.68053136     -402.87133956
  entropy T*S    EENTRO =        -0.00000000
  eigenvalues    EBANDS =      -165.61238725
  atomic energy  EATOM  =       771.06857575
  Solvation  Ediel_sol  =         0.00000000
  ---------------------------------------------------
  free energy    TOTEN  =       -21.76330821 eV

  energy without entropy =      -21.76330821  energy(sigma->0) =      -21.76330821


--------------------------------------------------------------------------------------------------------




--------------------------------------- Iteration      1(  18)  ---------------------------------------


    POTLOK:  cpu time    0.0190: real time    0.0196
    SETDIJ:  cpu time    0.0020: real time    0.0020
    EDDIAG:  cpu time    0.0260: real time    0.0256
  RMM-DIIS:  cpu time    0.0630: real time    0.0629
    ORTHCH:  cpu time    0.0030: real time    0.0029
       DOS:  cpu time    0.0010: real time    0.0018
    CHARGE:  cpu time    0.0110: real time    0.0110
    MIXING:  cpu time    0.0020: real time    0.0018
    --------------------------------------------
      LOOP:  cpu time    0.1270: real time    0.1276

 eigenvalue-minimisations  :   156
 total energy-change (2. order) :-0.3569872E-05  (-0.1917025E-07)
 number of electron      17.9999954 magnetization 
 augmentation part       -0.5602236 magnetization 

 Broyden mixing:
  rms(total) = 0.17019E-03    rms(broyden)= 0.64074E-04
  rms(prec ) = 0.71246E-04
  weight for this iteration     100.00
  WARNING: grid for Broyden might be to small

 eigenvalues of (default mixing * dielectric matrix)
  average eigenvalue GAMMA=   2.3770
  7.6204  5.8077  2.8361  2.8361  2.3088  2.0891  1.5962  0.6636  1.1265  1.1265
  1.0504  0.9568  0.8832

 Free energy of the ion-electron system (eV)
  ---------------------------------------------------
  alpha Z        PSCENC =         8.65149155
  Ewald energy   TEWEN  =      7549.60959185
  -Hartree energ DENC   =     -8226.12107395
  -exchange      EXHF   =         0.00000000
  -V(xc)+E(xc)   XCENC  =       -35.17197015
  PAW double counting   =       478.68844794     -402.87942279
  entropy T*S    EENTRO =        -0.00000000
  eigenvalues    EBANDS =      -165.60895199
  atomic energy  EATOM  =       771.06857575
  Solvation  Ediel_sol  =         0.00000000
  ---------------------------------------------------
  free energy    TOTEN  =       -21.76331178 eV

  energy without entropy =      -21.76331178  energy(sigma->0) =      -21.76331178


--------------------------------------------------------------------------------------------------------




--------------------------------------- Iteration      1(  19)  ---------------------------------------


    POTLOK:  cpu time    0.0190: real time    0.0195
    SETDIJ:  cpu time    0.0030: real time    0.0020
    EDDIAG:  cpu time    0.0250: real time    0.0257
  RMM-DIIS:  cpu time    0.0630: real time    0.0631
    ORTHCH:  cpu time    0.0020: real time    0.0029
       DOS:  cpu time    0.0020: real time    0.0018
    CHARGE:  cpu time    0.0110: real time    0.0111
    MIXING:  cpu time    0.0020: real time    0.0019
    --------------------------------------------
      LOOP:  cpu time    0.1270: real time    0.1279

 eigenvalue-minimisations  :   182
 total energy-change (2. order) :-0.8688933E-05  (-0.5466169E-07)
 number of electron      17.9999954 magnetization 
 augmentation part       -0.5602466 magnetization 

 Broyden mixing:
  rms(total) = 0.16814E-03    rms(broyden)= 0.58411E-04
  rms(prec ) = 0.61781E-04
  weight for this iteration     100.00
  WARNING: grid for Broyden might be to small

 eigenvalues of (default mixing * dielectric matrix)
  average eigenvalue GAMMA=   2.4044
  7.8774  6.0335  3.6357  2.7832  2.4223  1.8363  1.8363  1.5030  0.6636  1.1134
  1.1134  0.9592  0.9592  0.9251

 Free energy of the ion-electron system (eV)
  ---------------------------------------------------
  alpha Z        PSCENC =         8.65149155
  Ewald energy   TEWEN  =      7549.60959185
  -Hartree energ DENC   =     -8226.12648927
  -exchange      EXHF   =         0.00000000
  -V(xc)+E(xc)   XCENC  =       -35.17202182
  PAW double counting   =       478.69280278     -402.88389771
  entropy T*S    EENTRO =        -0.00000000
  eigenvalues    EBANDS =      -165.60337360
  atomic energy  EATOM  =       771.06857575
  Solvation  Ediel_sol  =         0.00000000
  ---------------------------------------------------
  free energy    TOTEN  =       -21.76332047 eV

  energy without entropy =      -21.76332047  energy(sigma->0) =      -21.76332047


--------------------------------------------------------------------------------------------------------




--------------------------------------- Iteration      1(  20)  ---------------------------------------


    POTLOK:  cpu time    0.0200: real time    0.0195
    SETDIJ:  cpu time    0.0020: real time    0.0020
    EDDIAG:  cpu time    0.0260: real time    0.0256
  RMM-DIIS:  cpu time    0.0590: real time    0.0588
    ORTHCH:  cpu time    0.0030: real time    0.0029
       DOS:  cpu time    0.0010: real time    0.0018
    CHARGE:  cpu time    0.0110: real time    0.0111
    MIXING:  cpu time    0.0020: real time    0.0020
    --------------------------------------------
      LOOP:  cpu time    0.1240: real time    0.1237

 eigenvalue-minimisations  :   140
 total energy-change (2. order) :-0.1724530E-05  (-0.1022374E-07)
 number of electron      17.9999954 magnetization 
 augmentation part       -0.5602312 magnetization 

 Broyden mixing:
  rms(total) = 0.15808E-03    rms(broyden)= 0.11403E-04
  rms(prec ) = 0.13664E-04
  weight for this iteration     100.00
  WARNING: grid for Broyden might be to small

 eigenvalues of (default mixing * dielectric matrix)
  average eigenvalue GAMMA=   2.4608
  8.2729  6.4567  4.2355  2.9352  2.6314  2.1204  1.7029  1.7029  0.6636  1.1752
  1.1752  1.0406  0.9588  0.9207  0.9207

 Free energy of the ion-electron system (eV)
  ---------------------------------------------------
  alpha Z        PSCENC =         8.65149155
  Ewald energy   TEWEN  =      7549.60959185
  -Hartree energ DENC   =     -8226.13406087
  -exchange      EXHF   =         0.00000000
  -V(xc)+E(xc)   XCENC  =       -35.17196111
  PAW double counting   =       478.69012761     -402.88119948
  entropy T*S    EENTRO =        -0.00000000
  eigenvalues    EBANDS =      -165.59588750
  atomic energy  EATOM  =       771.06857575
  Solvation  Ediel_sol  =         0.00000000
  ---------------------------------------------------
  free energy    TOTEN  =       -21.76332220 eV

  energy without entropy =      -21.76332220  energy(sigma->0) =      -21.76332220


--------------------------------------------------------------------------------------------------------




--------------------------------------- Iteration      1(  21)  ---------------------------------------


    POTLOK:  cpu time    0.0200: real time    0.0198
    SETDIJ:  cpu time    0.0020: real time    0.0020
    EDDIAG:  cpu time    0.0260: real time    0.0258
  RMM-DIIS:  cpu time    0.0490: real time    0.0484
    ORTHCH:  cpu time    0.0020: real time    0.0029
       DOS:  cpu time    0.0020: real time    0.0018
    --------------------------------------------
      LOOP:  cpu time    0.1010: real time    0.1007

 eigenvalue-minimisations  :    72
 total energy-change (2. order) :-0.8217490E-06  (-0.1292946E-08)
 number of electron      17.9999954 magnetization 
 augmentation part       -0.5602312 magnetization 

 Free energy of the ion-electron system (eV)
  ---------------------------------------------------
  alpha Z        PSCENC =         8.65149155
  Ewald energy   TEWEN  =      7549.60959185
  -Hartree energ DENC   =     -8226.13617919
  -exchange      EXHF   =         0.00000000
  -V(xc)+E(xc)   XCENC  =       -35.17196276
  PAW double counting   =       478.69190323     -402.88299978
  entropy T*S    EENTRO =        -0.00000000
  eigenvalues    EBANDS =      -165.59374367
  atomic energy  EATOM  =       771.06857575
  Solvation  Ediel_sol  =         0.00000000
  ---------------------------------------------------
  free energy    TOTEN  =       -21.76332302 eV

  energy without entropy =      -21.76332302  energy(sigma->0) =      -21.76332302


--------------------------------------------------------------------------------------------------------




 average (electrostatic) potential at core
  the test charge radii are     1.2296  0.9698
  (the norm of the test charge is              1.0000)
       1 -47.6650       2 -95.5172       3 -95.5173
 
 
 
 E-fermi :  -3.3900     XC(G=0):  -2.0771     alpha+bet : -1.8440


 k-point     1 :       0.0000    0.0000    0.0000
  band No.  band energies     occupation 
      1     -18.2471      2.00000
      2     -17.0387      2.00000
      3      -9.7567      2.00000
      4      -6.7951      2.00000
      5      -6.7948      2.00000
      6      -5.9358      2.00000
      7      -5.6876      2.00000
      8      -5.6871      2.00000
      9      -4.2127      2.00000
     10      -1.4387      0.00000
     11      -1.4379      0.00000
     12      -1.2159      0.00000
     13      -1.2152      0.00000
     14       1.1910      0.00000

 k-point     2 :       0.1250    0.0000    0.0000
  band No.  band energies     occupation 
      1     -18.0331      2.00000
      2     -16.9363      2.00000
      3      -9.5121      2.00000
      4      -7.2594      2.00000
      5      -6.7423      2.00000
      6      -6.5609      2.00000
      7      -6.0238      2.00000
      8      -5.2566      2.00000
      9      -4.3516      2.00000
     10      -1.7214      0.00000
     11      -1.6547      0.00000
     12      -1.4531      0.00000
     13      -1.0845      0.00000
     14       1.5573      0.00000

 k-point     3 :       0.2500    0.0000    0.0000
  band No.  band energies     occupation 
      1     -17.4645      2.00000
      2     -16.6674      2.00000
      3      -9.1462      2.00000
      4      -7.9878      2.00000
      5      -7.7238      2.00000
      6      -6.6606      2.00000
      7      -5.9751      2.00000
      8      -5.5085      2.00000
      9      -4.9203      2.00000
     10      -2.0455      0.00000
     11      -1.8706      0.00000
     12      -1.3273      0.00000
     13      -0.4694      0.00000
     14       2.3838      0.00000

 k-point     4 :       0.3750   -0.0000    0.0000
  band No.  band energies     occupation 
      1     -16.7896      2.00000
      2     -16.3588      2.00000
      3      -9.5854      2.00000
      4      -8.5926      2.00000
      5      -8.1189      2.00000
      6      -7.1591      2.00000
      7      -5.9176      2.00000
      8      -5.3850      2.00000
      9      -5.1143      2.00000
     10      -2.0530      0.00000
     11      -1.7732      0.00000
     12      -0.6084      0.00000
     13      -0.0767      0.00000
     14       2.9480      0.00000

 k-point     5 :       0.5000    0.0000    0.0000
  band No.  band energies     occupation 
      1     -16.4614      2.00000
      2     -16.2155      2.00000
      3      -9.9186      2.00000
      4      -8.9589      2.00000
      5      -8.2446      2.00000
      6      -7.3403      2.00000
      7      -6.0559      2.00000
      8      -5.1581      2.00000
      9      -4.8331      2.00000
     10      -2.0314      0.00000
     11      -1.5168      0.00000
     12      -0.3090      0.00000
     13       0.0386      0.00000
     14       1.9932      0.00000

 k-point     6 :       0.1250    0.1250    0.0000
  band No.  band energies     occupation 
      1     -17.6404      2.00000
      2     -16.7492      2.00000
      3      -9.1649      2.00000
      4      -7.8247      2.00000
      5      -7.3051      2.00000
      6      -6.8385      2.00000
      7      -6.2222      2.00000
      8      -5.1221      2.00000
      9      -4.7245      2.00000
     10      -2.1206      0.00000
     11      -1.7432      0.00000
     12      -1.7309      0.00000
     13      -0.4903      0.00000
     14       2.1676      0.00000

 k-point     7 :       0.2500    0.1250    0.0000
  band No.  band energies     occupation 
      1     -17.0070      2.00000
      2     -16.4506      2.00000
      3      -9.2288      2.00000
      4      -8.2511      2.00000
      5      -7.9878      2.00000
      6      -7.3437      2.00000
      7      -6.1231      2.00000
      8      -5.4847      2.00000
      9      -5.0081      2.00000
     10      -2.2043      0.00000
     11      -1.7576      0.00000
     12      -1.2607      0.00000
     13       0.0152      0.00000
     14       3.1370      0.00000

 k-point     8 :       0.3750    0.1250    0.0000
  band No.  band energies     occupation 
      1     -16.4766      2.00000
      2     -16.2066      2.00000
      3      -9.6307      2.00000
      4      -9.0148      2.00000
      5      -8.1168      2.00000
      6      -7.3612      2.00000
      7      -6.1079      2.00000
      8      -5.9658      2.00000
      9      -4.6813      2.00000
     10      -2.0124      0.00000
     11      -1.5022      0.00000
     12      -0.6366      0.00000
     13       0.0493      0.00000
     14       2.5188      0.00000

 k-point     9 :       0.2500    0.2500    0.0000
  band No.  band energies     occupation 
      1     -16.4916      2.00000
      2     -16.1977      2.00000
      3      -9.2701      2.00000
      4      -9.0648      2.00000
      5      -7.7907      2.00000
      6      -7.4099      2.00000
      7      -7.0906      2.00000
      8      -5.8333      2.00000
      9      -4.7112      2.00000
     10      -2.0633      0.00000
     11      -1.4516      0.00000
     12      -1.1353      0.00000
     13       0.3330      0.00000
     14       3.3492      0.00000

 k-point    10 :       0.3750    0.2500    0.0000
  band No.  band energies     occupation 
      1     -16.2567      2.00000
      2     -16.0787      2.00000
      3      -9.4494      2.00000
      4      -9.1009      2.00000
      5      -8.0740      2.00000
      6      -7.4121      2.00000
      7      -7.1837      2.00000
      8      -6.2186      2.00000
      9      -4.3439      2.00000
     10      -2.3896      0.00000
     11      -1.0743      0.00000
     12      -0.9023      0.00000
     13       0.4763      0.00000
     14       2.7627      0.00000


--------------------------------------------------------------------------------------------------------


 soft charge-density along one line, spin component           1
         0         1         2         3         4         5         6         7         8         9
 total charge-density along one line
 
 pseudopotential strength for first ion, spin component:           1
-10.197  -0.000  -0.000   0.000  -0.000   0.123   0.000   0.000
 -0.000 -10.197  -0.000  -0.000  -0.000   0.000   0.123   0.000
 -0.000  -0.000 -10.176  -0.000   0.000   0.000   0.000   0.122
  0.000  -0.000  -0.000 -10.197   0.000  -0.000   0.000   0.000
 -0.000  -0.000   0.000   0.000 -10.197   0.000   0.000  -0.000
  0.123   0.000   0.000  -0.000   0.000   0.096  -0.000  -0.000
  0.000   0.123   0.000   0.000   0.000  -0.000   0.096  -0.000
  0.000   0.000   0.122   0.000  -0.000  -0.000  -0.000   0.096
 -0.000   0.000   0.000   0.123  -0.000   0.000   0.000  -0.000
  0.000   0.000  -0.000  -0.000   0.123  -0.000  -0.000   0.000
 -0.000  -0.000  -0.005  -0.000   0.000   0.000   0.000   0.000
  0.000   0.000   0.001   0.000  -0.000  -0.000  -0.000  -0.000
 -0.000  -0.000  -0.000  -0.000  -0.007   0.000  -0.000   0.000
 -0.000   0.000   0.000  -0.000  -0.000  -0.000  -0.000  -0.000
 -0.007  -0.000   0.000  -0.000  -0.000  -0.000  -0.000  -0.000
  0.000   0.000   0.000   0.000   0.004  -0.000   0.000  -0.000
  0.000  -0.000  -0.000   0.000   0.000  -0.000   0.000   0.000
  0.004   0.000  -0.000   0.000   0.000   0.000  -0.000   0.000
 total augmentation occupancy for first ion, spin component:           1
  0.970  -0.000  -0.000   0.000   0.000   0.662   0.000  -0.000   0.000   0.000  -0.000   0.000   0.000  -0.000  -0.066  -0.000
  0.000   0.911   0.000   0.000   0.000   0.000   0.897   0.000   0.000  -0.000   0.000   0.000  -0.000   0.000   0.000  -0.000
 -0.000   0.000   1.035   0.000   0.000  -0.000  -0.000   0.567   0.000   0.000   0.111  -0.019  -0.000  -0.000   0.000   0.000
 -0.000   0.000   0.000   0.911   0.000  -0.000   0.000   0.000   0.897   0.000   0.000   0.000  -0.000  -0.000   0.000   0.000
  0.000   0.000   0.000  -0.000   0.970   0.000  -0.000   0.000   0.000   0.662   0.000  -0.000  -0.066   0.000  -0.000   0.007
  0.662   0.000  -0.000  -0.000   0.000   0.769   0.000  -0.000  -0.000   0.000   0.000   0.000   0.000  -0.000  -0.143  -0.000
  0.000   0.897  -0.000   0.000  -0.000  -0.000   1.206   0.000   0.000   0.000   0.000   0.000   0.000   0.000   0.000  -0.000
 -0.000   0.000   0.567  -0.000   0.000  -0.000   0.000   0.551   0.000   0.000   0.066  -0.023  -0.000   0.000   0.000   0.000
  0.000   0.000   0.000   0.897  -0.000  -0.000   0.000   0.000   1.206   0.000   0.000   0.000   0.000  -0.000   0.000   0.000
  0.000  -0.000   0.000   0.000   0.662   0.000  -0.000   0.000   0.000   0.769   0.000   0.000  -0.143   0.000  -0.000   0.024
 -0.000   0.000   0.111   0.000   0.000   0.000   0.000   0.066   0.000   0.000   1.210  -0.183   0.000   0.000   0.000   0.000
 -0.000   0.000  -0.019   0.000  -0.000   0.000   0.000  -0.023   0.000   0.000  -0.183   0.041   0.000  -0.000  -0.000  -0.000
  0.000  -0.000  -0.000   0.000  -0.066   0.000  -0.000  -0.000   0.000  -0.143   0.000   0.000   0.217   0.000   0.000  -0.033
 -0.000   0.000  -0.000  -0.000   0.000   0.000   0.000   0.000   0.000  -0.000  -0.000  -0.000   0.000   0.265   0.000   0.000
 -0.066   0.000   0.000  -0.000  -0.000  -0.143   0.000   0.000  -0.000  -0.000   0.000  -0.000   0.000   0.000   0.217  -0.000
 -0.000  -0.000   0.000   0.000   0.007  -0.000   0.000   0.000   0.000   0.024   0.000   0.000  -0.033   0.000  -0.000   0.005
 -0.000  -0.000   0.000   0.000   0.000  -0.000   0.000  -0.000   0.000   0.000   0.000  -0.000   0.000  -0.039   0.000   0.000
  0.007   0.000  -0.000   0.000   0.000   0.024   0.000  -0.000   0.000   0.000   0.000   0.000  -0.000  -0.000  -0.033   0.000


------------------------ aborting loop because EDIFF is reached ----------------------------------------


 


 total charge     
 
# of ion       s       p       d       tot
------------------------------------------
    1        0.414   0.593   4.443   5.450
    2        1.366   2.356   0.000   3.722
    3        1.366   2.356   0.000   3.722
--------------------------------------------------
tot          3.146   5.305   4.443  12.894
 
    CHARGE:  cpu time    0.0110: real time    0.0113
    FORLOC:  cpu time    0.0020: real time    0.0021
    FORNL :  cpu time    0.0410: real time    0.0404
    STRESS:  cpu time    0.1240: real time    0.1249
    FORCOR:  cpu time    0.0230: real time    0.0224
    FORHAR:  cpu time    0.0050: real time    0.0052
    MIXING:  cpu time    0.0020: real time    0.0021
    OFIELD:  cpu time    0.0000: real time    0.0000

  DFT-D2 method for vdW energy calculation
  -------------------------------------------------------------------

  Parameters of vdW forcefield:
         C6(Jnm^6/mol)     R0(A)
   -----------------------------
   Mo      24.670          1.639
   S        5.570          1.683

  IVDW =   1
  VDW_RADIUS =    50.000 A
  VDW_S6 =     0.750
  VDW_SR =     1.000
  VDW_D =    20.000
  LVDW_EWALD = F

  Number of pair interactions contributing to vdW energy:    9597
  Edisp (eV):   -0.59071
    FORVDW:  cpu time    0.0140: real time    0.0194

  FORCE on cell =-STRESS in cart. coord.  units (eV):
  Direction    XX          YY          ZZ          XY          YZ          ZX
  --------------------------------------------------------------------------------------
  Alpha Z     8.65149     8.65149     8.65149
  Ewald    8116.47571  8116.47615 -8683.34290     0.00019     0.00000     0.00012
  Hartree  8187.89782  8187.89783 -8149.65632     0.00002     0.00000    -0.00000
  E(xc)     -70.33551   -70.33548   -70.93990     0.00003    -0.00002    -0.00001
  Local  -16581.94555-16581.94713 16549.41931    -0.00129    -0.00029    -0.00022
  n-local   127.30664   125.92270   131.84966    -0.26492     0.00001     0.00011
  augment   -25.66756   -25.66712   -26.76923     0.00039    -0.00001    -0.00001
  Kinetic   236.13719   238.93245   240.02794    -7.43158     0.00007     0.00009
  Fock        0.00000     0.00000     0.00000     0.00000     0.00000     0.00000
  vdW         0.16060     0.16060    -0.13343     0.00000     0.00000    -0.00000
  -------------------------------------------------------------------------------------
  Total      -0.61384    -0.61384    -0.89338     0.00000     0.00000     0.00000
  in kB      -2.86978    -2.86978    -4.17669     0.00000     0.00000     0.00000
  external pressure =       -3.31 kB  Pullay stress =        0.00 kB


 VOLUME and BASIS-vectors are now :
 -----------------------------------------------------------------------------
  energy-cutoff  :      250.00
  volume of cell :      342.70
      direct lattice vectors                 reciprocal lattice vectors
     3.190315730  0.000000000  0.000000000     0.313448600  0.180969634  0.000000000
    -1.595157865  2.762894468  0.000000000     0.000000000  0.361939267  0.000000000
     0.000000000  0.000000000 38.879004300     0.000000000  0.000000000  0.025720823

  length of vectors
     3.190315730  3.190315730 38.879004300     0.361939267  0.361939267  0.025720823


 FORCES acting on ions
    electron-ion (+dipol)            ewald-force                    non-local-force                 convergence-correction
 -----------------------------------------------------------------------------------------------
   -.952E-05 -.882E-06 -.110E-03   0.931E-04 -.108E-03 0.392E-06   -.694E-17 0.208E-16 0.217E-18   -.341E-09 0.181E-09 0.411E-06
   -.122E-02 -.212E-04 0.619E+03   -.864E-04 0.538E-04 -.624E+03   -.173E-17 0.104E-16 0.496E+01   0.724E-09 -.161E-09 -.585E-03
   0.112E-02 0.106E-02 -.619E+03   -.674E-05 0.538E-04 0.624E+03   -.173E-16 0.208E-16 -.496E+01   -.117E-08 -.214E-09 0.585E-03
 -----------------------------------------------------------------------------------------------
   -.109E-03 0.104E-02 -.630E-03   -.270E-13 -.255E-13 -.114E-12   -.260E-16 0.520E-16 0.000E+00   -.784E-09 -.193E-09 0.110E-05
 
 
 POSITION                                       TOTAL-FORCE (eV/Angst)
 -----------------------------------------------------------------------------------
     -0.00000      1.84193      3.71975         0.000000      0.000000      0.000000
      1.59516      0.92096      2.15487        -0.000000     -0.000000      0.106074
      1.59516      0.92096      5.28464        -0.000000     -0.000000     -0.106074
 -----------------------------------------------------------------------------------
    total drift:                               -0.000109      0.001038     -0.000629


--------------------------------------------------------------------------------------------------------



  FREE ENERGIE OF THE ION-ELECTRON SYSTEM (eV)
  ---------------------------------------------------
  free  energy   TOTEN  =       -22.35403244 eV

  energy  without entropy=      -22.35403244  energy(sigma->0) =      -22.35403244
 


--------------------------------------------------------------------------------------------------------


    POTLOK:  cpu time    0.0220: real time    0.0215


--------------------------------------------------------------------------------------------------------


     LOOP+:  cpu time    3.6624: real time    4.1047
    4ORBIT:  cpu time    0.0000: real time    0.0000
 


 total charge     
 
# of ion       s       p       d       tot
------------------------------------------
    1        0.414   0.593   4.443   5.450
    2        1.366   2.356   0.000   3.722
    3        1.366   2.356   0.000   3.722
--------------------------------------------------
tot          3.146   5.305   4.443  12.894
 

 total amount of memory used by VASP MPI-rank0    36802. kBytes
=======================================================================

   base      :      30000. kBytes
   nonlr-proj:        339. kBytes
   fftplans  :       1791. kBytes
   grid      :       2863. kBytes
   one-center:         31. kBytes
   wavefun   :       1778. kBytes
 
  
  
 General timing and accounting informations for this job:
 ========================================================
  
                  Total CPU time used (sec):        4.838
                            User time (sec):        4.716
                          System time (sec):        0.122
                         Elapsed time (sec):        6.674
  
                   Maximum memory used (kb):       31396.
                   Average memory used (kb):           0.
  
                          Minor page faults:         7935
                          Major page faults:          164
                 Voluntary context switches:         2451
