<?xml version="1.0" encoding="ISO-8859-1"?>
<modeling>
 <generator>
  <i name="program" type="string">vasp </i>
  <i name="version" type="string">5.4.4.18Apr17-6-g9f103f2a35  </i>
  <i name="subversion" type="string">(build Jun 30 2017 11:15:00) complex            parallel </i>
  <i name="platform" type="string">STALLO_VASP_5.4.4 </i>
  <i name="date" type="string">2019 11 08 </i>
  <i name="time" type="string">11:47:43 </i>
 </generator>
 <incar>
  <i type="string" name="PREC">normal    ! low/normal/accurate</i>
  <i type="string" name="ALGO"> Fast      ! Algorithm for electronic re</i>
  <i type="int" name="ISPIN">     1</i>
  <i type="int" name="NELMIN">     4</i>
  <i name="EDIFF">      0.00000100</i>
  <i type="int" name="NSW">     0</i>
  <i name="ENCUT">    250.00000000</i>
  <i type="int" name="NEDOS">  2401</i>
  <i type="string" name="LREAL"> Auto      ! Projection in reciprocal sp</i>
  <i name="EMIN">    -12.00000000</i>
  <i name="EMAX">     12.00000000</i>
  <i type="int" name="ISMEAR">     0</i>
  <i name="SIGMA">      0.20000000</i>
  <i type="logical" name="LWAVE"> F  </i>
  <i type="int" name="LORBIT">    11</i>
  <i type="logical" name="LELF"> T  </i>
  <v type="int" name="KPOINT_BSE">    -1     0     0     0</v>
 </incar>
 <structure name="primitive_cell" >
  <crystal>
   <varray name="basis" >
    <v>       3.19031573       0.00000000       0.00000000 </v>
    <v>      -1.59515786       2.76289447       0.00000000 </v>
    <v>       0.00000000       0.00000000      38.87900430 </v>
   </varray>
   <i name="volume">    342.69920433 </i>
   <varray name="rec_basis" >
    <v>       0.31344860       0.18096963       0.00000000 </v>
    <v>       0.00000000       0.36193927       0.00000000 </v>
    <v>       0.00000000       0.00000000       0.02572082 </v>
   </varray>
  </crystal>
  <varray name="positions" >
   <v>       0.33333300      -0.33333300       0.09567506 </v>
   <v>      -0.33333400       0.33333300       0.13592518 </v>
   <v>      -0.33333300       0.33333300       0.05542495 </v>
  </varray>
 </structure>
 <varray name="primitive_index" >
  <v type="int" >        1 </v>
  <v type="int" >        3 </v>
  <v type="int" >        2 </v>
 </varray>
 <kpoints>
  <generation param="Gamma">
   <v type="int" name="divisions">       8        8        1 </v>
   <v name="usershift">      0.00000000       0.00000000       0.00000000 </v>
   <v name="genvec1">      0.12500000       0.00000000       0.00000000 </v>
   <v name="genvec2">      0.00000000       0.12500000       0.00000000 </v>
   <v name="genvec3">      0.00000000       0.00000000       1.00000000 </v>
   <v name="shift">      0.00000000       0.00000000       0.00000000 </v>
  </generation>
  <varray name="kpointlist" >
   <v>       0.00000000       0.00000000       0.00000000 </v>
   <v>       0.12500000       0.00000000       0.00000000 </v>
   <v>       0.25000000       0.00000000       0.00000000 </v>
   <v>       0.37500000      -0.00000000       0.00000000 </v>
   <v>       0.50000000       0.00000000       0.00000000 </v>
   <v>       0.12500000       0.12500000       0.00000000 </v>
   <v>       0.25000000       0.12500000       0.00000000 </v>
   <v>       0.37500000       0.12500000       0.00000000 </v>
   <v>       0.25000000       0.25000000       0.00000000 </v>
   <v>       0.37500000       0.25000000       0.00000000 </v>
  </varray>
  <varray name="weights" >
   <v>       0.01562500 </v>
   <v>       0.09375000 </v>
   <v>       0.09375000 </v>
   <v>       0.09375000 </v>
   <v>       0.04687500 </v>
   <v>       0.09375000 </v>
   <v>       0.18750000 </v>
   <v>       0.18750000 </v>
   <v>       0.09375000 </v>
   <v>       0.09375000 </v>
  </varray>
 </kpoints>
 <parameters>
  <separator name="general" >
   <i type="string" name="SYSTEM">unknown system</i>
   <i type="logical" name="LCOMPAT"> F  </i>
  </separator>
  <separator name="electronic" >
   <i type="string" name="PREC">normal</i>
   <i name="ENMAX">    250.00000000</i>
   <i name="ENAUG">    345.27800000</i>
   <i name="EDIFF">      0.00000100</i>
   <i type="int" name="IALGO">    68</i>
   <i type="int" name="IWAVPR">    10</i>
   <i type="int" name="NBANDS">    14</i>
   <i name="NELECT">     18.00000000</i>
   <i type="int" name="TURBO">     0</i>
   <i type="int" name="IRESTART">     0</i>
   <i type="int" name="NREBOOT">     0</i>
   <i type="int" name="NMIN">     0</i>
   <i name="EREF">      0.00000000</i>
   <separator name="electronic smearing" >
    <i type="int" name="ISMEAR">     0</i>
    <i name="SIGMA">      0.20000000</i>
    <i name="KSPACING">      0.50000000</i>
    <i type="logical" name="KGAMMA"> T  </i>
   </separator>
   <separator name="electronic projectors" >
    <i type="logical" name="LREAL"> T  </i>
    <v name="ROPT">     -0.00050000     -0.00050000</v>
    <i type="int" name="LMAXPAW">  -100</i>
    <i type="int" name="LMAXMIX">     2</i>
    <i type="logical" name="NLSPLINE"> F  </i>
   </separator>
   <separator name="electronic startup" >
    <i type="int" name="ISTART">     0</i>
    <i type="int" name="ICHARG">     2</i>
    <i type="int" name="INIWAV">     1</i>
   </separator>
   <separator name="electronic spin" >
    <i type="int" name="ISPIN">     1</i>
    <i type="logical" name="LNONCOLLINEAR"> F  </i>
    <v name="MAGMOM">      1.00000000      1.00000000      1.00000000</v>
    <i name="NUPDOWN">     -1.00000000</i>
    <i type="logical" name="LSORBIT"> F  </i>
    <v name="SAXIS">      0.00000000      0.00000000      1.00000000</v>
    <i type="logical" name="LSPIRAL"> F  </i>
    <v name="QSPIRAL">      0.00000000      0.00000000      0.00000000</v>
    <i type="logical" name="LZEROZ"> F  </i>
   </separator>
   <separator name="electronic exchange-correlation" >
    <i type="logical" name="LASPH"> F  </i>
    <i type="logical" name="LMETAGGA"> F  </i>
   </separator>
   <separator name="electronic convergence" >
    <i type="int" name="NELM">    60</i>
    <i type="int" name="NELMDL">    -5</i>
    <i type="int" name="NELMIN">     4</i>
    <i name="ENINI">    250.00000000</i>
    <separator name="electronic convergence detail" >
     <i type="logical" name="LDIAG"> T  </i>
     <i type="logical" name="LSUBROT"> F  </i>
     <i name="WEIMIN">      0.00000000</i>
     <i name="EBREAK">      0.00000002</i>
     <i name="DEPER">      0.30000000</i>
     <i type="int" name="NRMM">     4</i>
     <i name="TIME">      0.40000000</i>
    </separator>
   </separator>
   <separator name="electronic mixer" >
    <i name="AMIX">      0.40000000</i>
    <i name="BMIX">      1.00000000</i>
    <i name="AMIN">      0.10000000</i>
    <i name="AMIX_MAG">      1.60000000</i>
    <i name="BMIX_MAG">      1.00000000</i>
    <separator name="electronic mixer details" >
     <i type="int" name="IMIX">     4</i>
     <i type="logical" name="MIXFIRST"> F  </i>
     <i type="int" name="MAXMIX">   -45</i>
     <i name="WC">    100.00000000</i>
     <i type="int" name="INIMIX">     1</i>
     <i type="int" name="MIXPRE">     1</i>
     <i type="int" name="MREMOVE">     5</i>
    </separator>
   </separator>
   <separator name="electronic dipolcorrection" >
    <i type="logical" name="LDIPOL"> F  </i>
    <i type="logical" name="LMONO"> F  </i>
    <i type="int" name="IDIPOL">     0</i>
    <i name="EPSILON">      1.00000000</i>
    <v name="DIPOL">   -100.00000000   -100.00000000   -100.00000000</v>
    <i name="EFIELD">      0.00000000</i>
   </separator>
  </separator>
  <separator name="grids" >
   <i type="int" name="NGX">    12</i>
   <i type="int" name="NGY">    12</i>
   <i type="int" name="NGZ">   150</i>
   <i type="int" name="NGXF">    24</i>
   <i type="int" name="NGYF">    24</i>
   <i type="int" name="NGZF">   300</i>
   <i type="logical" name="ADDGRID"> F  </i>
  </separator>
  <separator name="ionic" >
   <i type="int" name="NSW">     0</i>
   <i type="int" name="IBRION">    -1</i>
   <i type="int" name="MDALGO">     0</i>
   <i type="int" name="ISIF">     2</i>
   <i name="PSTRESS">      0.00000000</i>
   <i name="EDIFFG">      0.00001000</i>
   <i type="int" name="NFREE">     0</i>
   <i name="POTIM">      0.50000000</i>
   <i name="SMASS">     -3.00000000</i>
   <i name="SCALEE">      1.00000000</i>
  </separator>
  <separator name="ionic md" >
   <i name="TEBEG">      0.00010000</i>
   <i name="TEEND">      0.00010000</i>
   <i type="int" name="NBLOCK">     1</i>
   <i type="int" name="KBLOCK">     1</i>
   <i type="int" name="NPACO">   256</i>
   <i name="APACO">     16.00000000</i>
  </separator>
  <separator name="symmetry" >
   <i type="int" name="ISYM">     2</i>
   <i name="SYMPREC">      0.00001000</i>
  </separator>
  <separator name="dos" >
   <i type="int" name="LORBIT">    11</i>
   <v name="RWIGS">     -1.00000000     -1.00000000</v>
   <i type="int" name="NEDOS">  2401</i>
   <i name="EMIN">    -12.00000000</i>
   <i name="EMAX">     12.00000000</i>
   <i name="EFERMI">      0.00000000</i>
  </separator>
  <separator name="writing" >
   <i type="int" name="NWRITE">     2</i>
   <i type="logical" name="LWAVE"> F  </i>
   <i type="logical" name="LDOWNSAMPLE"> F  </i>
   <i type="logical" name="LCHARG"> T  </i>
   <i type="logical" name="LPARD"> F  </i>
   <i type="logical" name="LVTOT"> F  </i>
   <i type="logical" name="LVHAR"> F  </i>
   <i type="logical" name="LELF"> T  </i>
   <i type="logical" name="LOPTICS"> F  </i>
   <v name="STM">      0.00000000      0.00000000      0.00000000      0.00000000      0.00000000      0.00000000      0.00000000</v>
  </separator>
  <separator name="performance" >
   <i type="int" name="NPAR">     2</i>
   <i type="int" name="NSIM">     4</i>
   <i type="int" name="NBLK">    -1</i>
   <i type="logical" name="LPLANE"> T  </i>
   <i type="logical" name="LSCALAPACK"> T  </i>
   <i type="logical" name="LSCAAWARE"> F  </i>
   <i type="logical" name="LSCALU"> F  </i>
   <i type="logical" name="LASYNC"> F  </i>
   <i type="logical" name="LORBITALREAL"> F  </i>
  </separator>
  <separator name="miscellaneous" >
   <i type="int" name="IDIOT">     3</i>
   <i type="int" name="ISPECIAL">     0</i>
   <i type="logical" name="LMUSIC"> F  </i>
   <v name="POMASS">     95.94000000     32.06600000</v>
   <v name="DARWINR">      0.00000000      0.00000000</v>
   <v name="DARWINV">      1.00000000      1.00000000</v>
   <i type="logical" name="LCORR"> T  </i>
  </separator>
  <i type="logical" name="GGA_COMPAT"> T  </i>
  <i type="logical" name="LBERRY"> F  </i>
  <i type="int" name="ICORELEVEL">     0</i>
  <i type="logical" name="LDAU"> F  </i>
  <i type="int" name="I_CONSTRAINED_M">     0</i>
  <separator name="electronic exchange-correlation" >
   <i type="string" name="GGA">--</i>
   <i type="int" name="VOSKOWN">     0</i>
   <i type="logical" name="LHFCALC"> F  </i>
   <i type="string" name="PRECFOCK"></i>
   <i type="logical" name="LSYMGRAD"> F  </i>
   <i type="logical" name="LHFONE"> F  </i>
   <i type="logical" name="LRHFCALC"> F  </i>
   <i type="logical" name="LTHOMAS"> F  </i>
   <i type="logical" name="LMODELHF"> F  </i>
   <i name="ENCUT4O">     -1.00000000</i>
   <i type="int" name="EXXOEP">     0</i>
   <i type="int" name="FOURORBIT">     0</i>
   <i name="AEXX">      0.00000000</i>
   <i name="HFALPHA">      0.00000000</i>
   <i name="MCALPHA">      0.00000000</i>
   <i name="ALDAX">      1.00000000</i>
   <i name="AGGAX">      1.00000000</i>
   <i name="ALDAC">      1.00000000</i>
   <i name="AGGAC">      1.00000000</i>
   <i type="int" name="NKREDX">     1</i>
   <i type="int" name="NKREDY">     1</i>
   <i type="int" name="NKREDZ">     1</i>
   <i type="logical" name="SHIFTRED"> F  </i>
   <i type="logical" name="ODDONLY"> F  </i>
   <i type="logical" name="EVENONLY"> F  </i>
   <i type="int" name="LMAXFOCK">     0</i>
   <i type="int" name="NMAXFOCKAE">     0</i>
   <i type="logical" name="LFOCKAEDFT"> F  </i>
   <i name="HFSCREEN">      0.00000000</i>
   <i name="HFSCREENC">      0.00000000</i>
   <i type="int" name="NBANDSGWLOW">     0</i>
  </separator>
  <separator name="vdW DFT" >
   <i type="logical" name="LUSE_VDW"> F  </i>
   <i name="Zab_VDW">     -0.84910000</i>
   <i name="PARAM1">      0.12340000</i>
   <i name="PARAM2">      1.00000000</i>
   <i name="PARAM3">      0.00000000</i>
  </separator>
  <separator name="model GW" >
   <i type="int" name="MODEL_GW">     0</i>
   <i name="MODEL_EPS0">     68.53984087</i>
   <i name="MODEL_ALPHA">      1.00000000</i>
  </separator>
  <separator name="linear response parameters" >
   <i type="logical" name="LEPSILON"> F  </i>
   <i type="logical" name="LRPA"> F  </i>
   <i type="logical" name="LNABLA"> F  </i>
   <i type="logical" name="LVEL"> F  </i>
   <i type="int" name="KINTER">     0</i>
   <i name="CSHIFT">      0.10000000</i>
   <i name="OMEGAMAX">     -1.00000000</i>
   <i name="DEG_THRESHOLD">      0.00200000</i>
   <i name="RTIME">     -0.10000000</i>
   <i name="WPLASMAI">      0.00000000</i>
   <v name="DFIELD">      0.00000000      0.00000000      0.00000000</v>
   <v name="WPLASMA">      0.00000000      0.00000000      0.00000000      0.00000000      0.00000000      0.00000000      0.00000000      0.00000000      0.00000000</v>
  </separator>
  <separator name="orbital magnetization" >
   <i type="logical" name="NUCIND"> F  </i>
   <v name="MAGPOS">      0.00000000      0.00000000      0.00000000</v>
   <i type="logical" name="LNICSALL"> T  </i>
   <i type="logical" name="ORBITALMAG"> F  </i>
   <i type="logical" name="LMAGBLOCH"> F  </i>
   <i type="logical" name="LCHIMAG"> F  </i>
   <i type="logical" name="LGAUGE"> T  </i>
   <i type="int" name="MAGATOM">     0</i>
   <v name="MAGDIPOL">      0.00000000      0.00000000      0.00000000</v>
   <v name="AVECCONST">      0.00000000      0.00000000      0.00000000</v>
  </separator>
  <separator name="response functions" >
   <i type="logical" name="LADDER"> F  </i>
   <i type="logical" name="LRPAFORCE"> F  </i>
   <i type="logical" name="LFXC"> F  </i>
   <i type="logical" name="LHARTREE"> T  </i>
   <i type="int" name="IBSE">     0</i>
   <v type="int" name="KPOINT">    -1     0     0     0</v>
   <i type="logical" name="LTCTE"> F  </i>
   <i type="logical" name="LTETE"> F  </i>
   <i type="logical" name="LTRIPLET"> F  </i>
   <i type="logical" name="LFXCEPS"> F  </i>
   <i type="logical" name="LFXHEG"> F  </i>
   <i type="int" name="NATURALO">     2</i>
   <i type="logical" name="L2ORDER"> F  </i>
   <i type="logical" name="LMP2LT"> F  </i>
   <i type="logical" name="LUSEW"> F  </i>
   <i name="ENCUTGW">     -2.00000000</i>
   <i name="ENCUTGWSOFT">     -2.00000000</i>
   <i name="ENCUTLF">     -1.00000000</i>
   <i type="int" name="LMAXMP2">    -1</i>
   <i name="SCISSOR">      0.00000000</i>
   <i type="int" name="NOMEGA">     0</i>
   <i type="int" name="NOMEGAR">     0</i>
   <i type="int" name="NBANDSGW">    -1</i>
   <i type="int" name="NBANDSO">    -1</i>
   <i type="int" name="NBANDSV">    -1</i>
   <i type="int" name="NELM">     1</i>
   <i type="int" name="NELMHF">     1</i>
   <i type="int" name="DIM">     3</i>
   <i type="int" name="ANTIRES">     0</i>
   <i name="OMEGAMAX">    -30.00000000</i>
   <i name="OMEGAMIN">    -30.00000000</i>
   <i name="OMEGATL">   -200.00000000</i>
   <i type="int" name="OMEGAGRID">   140</i>
   <i name="CSHIFT">     -0.10000000</i>
   <i type="logical" name="SELFENERGY"> F  </i>
   <i type="logical" name="LSPECTRAL"> F  </i>
   <i type="logical" name="LSPECTRALGW"> F  </i>
   <i type="logical" name="LSINGLES"> F  </i>
   <i type="logical" name="LFERMIGW"> F  </i>
   <i type="logical" name="ODDONLYGW"> F  </i>
   <i type="logical" name="EVENONLYGW"> F  </i>
   <i type="int" name="NKREDLFX">     1</i>
   <i type="int" name="NKREDLFY">     1</i>
   <i type="int" name="NKREDLFZ">     1</i>
   <i type="int" name="MAXMEM">  2800</i>
   <i type="int" name="TELESCOPE">     0</i>
   <i type="int" name="TAUPAR">     1</i>
   <i type="int" name="OMEGAPAR">    -1</i>
   <i name="LAMBDA">      1.00000000</i>
  </separator>
  <separator name="External order field" >
   <i name="OFIELD_KAPPA">      0.00000000</i>
   <v name="OFIELD_K">      0.00000000      0.00000000      0.00000000</v>
   <i name="OFIELD_Q6_NEAR">      0.00000000</i>
   <i name="OFIELD_Q6_FAR">      0.00000000</i>
   <i name="OFIELD_A">      0.00000000</i>
  </separator>
 </parameters>
 <atominfo>
  <atoms>       3 </atoms>
  <types>       2 </types>
  <array name="atoms" >
   <dimension dim="1">ion</dimension>
   <field type="string">element</field>
   <field type="int">atomtype</field>
   <set>
    <rc><c>Mo</c><c>   1</c></rc>
    <rc><c>S </c><c>   2</c></rc>
    <rc><c>S </c><c>   2</c></rc>
   </set>
  </array>
  <array name="atomtypes" >
   <dimension dim="1">type</dimension>
   <field type="int">atomspertype</field>
   <field type="string">element</field>
   <field>mass</field>
   <field>valence</field>
   <field type="string">pseudopotential</field>
   <set>
    <rc><c>   1</c><c>Mo</c><c>     95.94000000</c><c>      6.00000000</c><c> PAW_PBE Mo 08Apr2002                   </c></rc>
    <rc><c>   2</c><c>S </c><c>     32.06600000</c><c>      6.00000000</c><c>  PAW_PBE S 17Jan2003                   </c></rc>
   </set>
  </array>
 </atominfo>
 <structure name="initialpos" >
  <crystal>
   <varray name="basis" >
    <v>       3.19031573       0.00000000       0.00000000 </v>
    <v>      -1.59515786       2.76289447       0.00000000 </v>
    <v>       0.00000000       0.00000000      38.87900430 </v>
   </varray>
   <i name="volume">    342.69920433 </i>
   <varray name="rec_basis" >
    <v>       0.31344860       0.18096963       0.00000000 </v>
    <v>       0.00000000       0.36193927       0.00000000 </v>
    <v>       0.00000000       0.00000000       0.02572082 </v>
   </varray>
  </crystal>
  <varray name="positions" >
   <v>       0.33333300       0.66666700       0.09567506 </v>
   <v>       0.66666700       0.33333300       0.05542495 </v>
   <v>       0.66666600       0.33333300       0.13592518 </v>
  </varray>
 </structure>
 <calculation>
  <scstep>
   <time name="dav">    0.15    0.15</time>
   <time name="total">    0.18    0.57</time>
   <energy>
    <i name="alphaZ">      8.65149155 </i>
    <i name="ewald">   7549.60959185 </i>
    <i name="hartreedc">  -8212.21483143 </i>
    <i name="XCdc">    -36.31055997 </i>
    <i name="pawpsdc">    406.88651198 </i>
    <i name="pawaedc">   -329.34073203 </i>
    <i name="eentropy">     -0.06662834 </i>
    <i name="bandstr">    -70.47731962 </i>
    <i name="atom">    771.06857575 </i>
    <i name="e_fr_energy">     87.80609975 </i>
    <i name="e_wo_entrp">     87.87272808 </i>
    <i name="e_0_energy">     87.83941391 </i>
   </energy>
  </scstep>
  <scstep>
   <time name="dav">    0.21    0.21</time>
   <time name="total">    0.21    0.21</time>
   <energy>
    <i name="e_fr_energy">    -11.98072080 </i>
    <i name="e_wo_entrp">    -11.98072080 </i>
    <i name="e_0_energy">    -11.98072080 </i>
   </energy>
  </scstep>
  <scstep>
   <time name="dav">    0.17    0.17</time>
   <time name="total">    0.17    0.17</time>
   <energy>
    <i name="e_fr_energy">    -23.15421779 </i>
    <i name="e_wo_entrp">    -23.15421779 </i>
    <i name="e_0_energy">    -23.15421779 </i>
   </energy>
  </scstep>
  <scstep>
   <time name="dav">    0.17    0.17</time>
   <time name="total">    0.17    0.17</time>
   <energy>
    <i name="e_fr_energy">    -23.36597715 </i>
    <i name="e_wo_entrp">    -23.36597715 </i>
    <i name="e_0_energy">    -23.36597715 </i>
   </energy>
  </scstep>
  <scstep>
   <time name="dav">    0.16    0.16</time>
   <time name="total">    0.17    0.17</time>
   <energy>
    <i name="e_fr_energy">    -23.37046263 </i>
    <i name="e_wo_entrp">    -23.37046263 </i>
    <i name="e_0_energy">    -23.37046263 </i>
   </energy>
  </scstep>
  <scstep>
   <time name="diag">    0.03    0.03</time>
   <time name="diis">    0.09    0.09</time>
   <time name="orth">    0.00    0.00</time>
   <time name="total">    0.15    0.15</time>
   <energy>
    <i name="e_fr_energy">    -22.21109616 </i>
    <i name="e_wo_entrp">    -22.21109613 </i>
    <i name="e_0_energy">    -22.21109614 </i>
   </energy>
  </scstep>
  <scstep>
   <time name="diag">    0.03    0.03</time>
   <time name="diis">    0.09    0.09</time>
   <time name="orth">    0.00    0.00</time>
   <time name="total">    0.15    0.15</time>
   <energy>
    <i name="e_fr_energy">    -21.82904294 </i>
    <i name="e_wo_entrp">    -21.82904294 </i>
    <i name="e_0_energy">    -21.82904294 </i>
   </energy>
  </scstep>
  <scstep>
   <time name="diag">    0.03    0.03</time>
   <time name="diis">    0.09    0.09</time>
   <time name="orth">    0.00    0.00</time>
   <time name="total">    0.15    0.16</time>
   <energy>
    <i name="e_fr_energy">    -21.76802094 </i>
    <i name="e_wo_entrp">    -21.76802094 </i>
    <i name="e_0_energy">    -21.76802094 </i>
   </energy>
  </scstep>
  <scstep>
   <time name="diag">    0.02    0.03</time>
   <time name="diis">    0.10    0.10</time>
   <time name="orth">    0.00    0.00</time>
   <time name="total">    0.16    0.16</time>
   <energy>
    <i name="e_fr_energy">    -21.76338148 </i>
    <i name="e_wo_entrp">    -21.76338148 </i>
    <i name="e_0_energy">    -21.76338148 </i>
   </energy>
  </scstep>
  <scstep>
   <time name="diag">    0.02    0.03</time>
   <time name="diis">    0.10    0.10</time>
   <time name="orth">    0.00    0.00</time>
   <time name="total">    0.17    0.17</time>
   <energy>
    <i name="e_fr_energy">    -21.76273378 </i>
    <i name="e_wo_entrp">    -21.76273378 </i>
    <i name="e_0_energy">    -21.76273378 </i>
   </energy>
  </scstep>
  <scstep>
   <time name="diag">    0.03    0.03</time>
   <time name="diis">    0.10    0.10</time>
   <time name="orth">    0.00    0.00</time>
   <time name="total">    0.16    0.16</time>
   <energy>
    <i name="e_fr_energy">    -21.76267909 </i>
    <i name="e_wo_entrp">    -21.76267909 </i>
    <i name="e_0_energy">    -21.76267909 </i>
   </energy>
  </scstep>
  <scstep>
   <time name="diag">    0.02    0.03</time>
   <time name="diis">    0.09    0.09</time>
   <time name="orth">    0.00    0.00</time>
   <time name="total">    0.16    0.16</time>
   <energy>
    <i name="e_fr_energy">    -21.76261106 </i>
    <i name="e_wo_entrp">    -21.76261106 </i>
    <i name="e_0_energy">    -21.76261106 </i>
   </energy>
  </scstep>
  <scstep>
   <time name="diag">    0.02    0.03</time>
   <time name="diis">    0.09    0.09</time>
   <time name="orth">    0.00    0.00</time>
   <time name="total">    0.16    0.16</time>
   <energy>
    <i name="e_fr_energy">    -21.76303388 </i>
    <i name="e_wo_entrp">    -21.76303388 </i>
    <i name="e_0_energy">    -21.76303388 </i>
   </energy>
  </scstep>
  <scstep>
   <time name="diag">    0.03    0.03</time>
   <time name="diis">    0.10    0.10</time>
   <time name="orth">    0.00    0.00</time>
   <time name="total">    0.16    0.16</time>
   <energy>
    <i name="e_fr_energy">    -21.76310739 </i>
    <i name="e_wo_entrp">    -21.76310739 </i>
    <i name="e_0_energy">    -21.76310739 </i>
   </energy>
  </scstep>
  <scstep>
   <time name="diag">    0.03    0.03</time>
   <time name="diis">    0.09    0.09</time>
   <time name="orth">    0.00    0.00</time>
   <time name="total">    0.15    0.15</time>
   <energy>
    <i name="e_fr_energy">    -21.76323459 </i>
    <i name="e_wo_entrp">    -21.76323459 </i>
    <i name="e_0_energy">    -21.76323459 </i>
   </energy>
  </scstep>
  <scstep>
   <time name="diag">    0.03    0.03</time>
   <time name="diis">    0.08    0.08</time>
   <time name="orth">    0.00    0.00</time>
   <time name="total">    0.14    0.14</time>
   <energy>
    <i name="e_fr_energy">    -21.76327047 </i>
    <i name="e_wo_entrp">    -21.76327047 </i>
    <i name="e_0_energy">    -21.76327047 </i>
   </energy>
  </scstep>
  <scstep>
   <time name="diag">    0.02    0.03</time>
   <time name="diis">    0.07    0.07</time>
   <time name="orth">    0.00    0.00</time>
   <time name="total">    0.13    0.13</time>
   <energy>
    <i name="e_fr_energy">    -21.76330821 </i>
    <i name="e_wo_entrp">    -21.76330821 </i>
    <i name="e_0_energy">    -21.76330821 </i>
   </energy>
  </scstep>
  <scstep>
   <time name="diag">    0.03    0.03</time>
   <time name="diis">    0.06    0.06</time>
   <time name="orth">    0.00    0.00</time>
   <time name="total">    0.13    0.13</time>
   <energy>
    <i name="e_fr_energy">    -21.76331178 </i>
    <i name="e_wo_entrp">    -21.76331178 </i>
    <i name="e_0_energy">    -21.76331178 </i>
   </energy>
  </scstep>
  <scstep>
   <time name="diag">    0.02    0.03</time>
   <time name="diis">    0.06    0.06</time>
   <time name="orth">    0.00    0.00</time>
   <time name="total">    0.13    0.13</time>
   <energy>
    <i name="e_fr_energy">    -21.76332047 </i>
    <i name="e_wo_entrp">    -21.76332047 </i>
    <i name="e_0_energy">    -21.76332047 </i>
   </energy>
  </scstep>
  <scstep>
   <time name="diag">    0.03    0.03</time>
   <time name="diis">    0.06    0.06</time>
   <time name="orth">    0.00    0.00</time>
   <time name="total">    0.12    0.12</time>
   <energy>
    <i name="e_fr_energy">    -21.76332220 </i>
    <i name="e_wo_entrp">    -21.76332220 </i>
    <i name="e_0_energy">    -21.76332220 </i>
   </energy>
  </scstep>
  <scstep>
   <time name="diag">    0.03    0.03</time>
   <time name="diis">    0.05    0.05</time>
   <time name="orth">    0.00    0.00</time>
   <time name="total">    0.10    0.10</time>
   <energy>
    <i name="alphaZ">      8.65149155 </i>
    <i name="ewald">   7549.60959185 </i>
    <i name="hartreedc">  -8226.13617919 </i>
    <i name="XCdc">    -35.17196276 </i>
    <i name="pawpsdc">    478.69190323 </i>
    <i name="pawaedc">   -402.88299978 </i>
    <i name="eentropy">     -0.00000000 </i>
    <i name="bandstr">   -165.59374367 </i>
    <i name="atom">    771.06857575 </i>
    <i name="e_fr_energy">    -21.76332302 </i>
    <i name="e_wo_entrp">    -21.76332302 </i>
    <i name="e_0_energy">    -21.76332302 </i>
   </energy>
  </scstep>
  <structure>
   <crystal>
    <varray name="basis" >
     <v>       3.19031573       0.00000000       0.00000000 </v>
     <v>      -1.59515786       2.76289447       0.00000000 </v>
     <v>       0.00000000       0.00000000      38.87900430 </v>
    </varray>
    <i name="volume">    342.69920433 </i>
    <varray name="rec_basis" >
     <v>       0.31344860       0.18096963       0.00000000 </v>
     <v>       0.00000000       0.36193927       0.00000000 </v>
     <v>       0.00000000       0.00000000       0.02572082 </v>
    </varray>
   </crystal>
   <varray name="positions" >
    <v>       0.33333300       0.66666700       0.09567506 </v>
    <v>       0.66666700       0.33333300       0.05542495 </v>
    <v>       0.66666600       0.33333300       0.13592518 </v>
   </varray>
  </structure>
  <varray name="forces" >
   <v>       0.00000000       0.00000000       0.00000000 </v>
   <v>      -0.00000000      -0.00000000       0.10607410 </v>
   <v>      -0.00000000      -0.00000000      -0.10607410 </v>
  </varray>
  <varray name="stress" >
   <v>      -2.86978390      -0.00000000       0.00000000 </v>
   <v>       0.00000000      -2.86978390       0.00000000 </v>
   <v>      -0.00000000       0.00000000      -4.17669489 </v>
  </varray>
  <energy>
   <i name="e_fr_energy">    -22.35403244 </i>
   <i name="e_wo_entrp">    -22.35403244 </i>
   <i name="e_0_energy">     -0.00000000 </i>
  </energy>
  <time name="totalsc">    3.66    4.10</time>
  <eigenvalues>
   <array>
    <dimension dim="1">band</dimension>
    <dimension dim="2">kpoint</dimension>
    <dimension dim="3">spin</dimension>
    <field>eigene</field>
    <field>occ</field>
    <set>
     <set comment="spin 1">
      <set comment="kpoint 1">
       <r>  -18.2471    1.0000 </r>
       <r>  -17.0387    1.0000 </r>
       <r>   -9.7567    1.0000 </r>
       <r>   -6.7951    1.0000 </r>
       <r>   -6.7948    1.0000 </r>
       <r>   -5.9358    1.0000 </r>
       <r>   -5.6876    1.0000 </r>
       <r>   -5.6871    1.0000 </r>
       <r>   -4.2127    1.0000 </r>
       <r>   -1.4387    0.0000 </r>
       <r>   -1.4379    0.0000 </r>
       <r>   -1.2159    0.0000 </r>
       <r>   -1.2152    0.0000 </r>
       <r>    1.1910    0.0000 </r>
      </set>
      <set comment="kpoint 2">
       <r>  -18.0331    1.0000 </r>
       <r>  -16.9363    1.0000 </r>
       <r>   -9.5121    1.0000 </r>
       <r>   -7.2594    1.0000 </r>
       <r>   -6.7423    1.0000 </r>
       <r>   -6.5609    1.0000 </r>
       <r>   -6.0238    1.0000 </r>
       <r>   -5.2566    1.0000 </r>
       <r>   -4.3516    1.0000 </r>
       <r>   -1.7214    0.0000 </r>
       <r>   -1.6547    0.0000 </r>
       <r>   -1.4531    0.0000 </r>
       <r>   -1.0845    0.0000 </r>
       <r>    1.5573    0.0000 </r>
      </set>
      <set comment="kpoint 3">
       <r>  -17.4645    1.0000 </r>
       <r>  -16.6674    1.0000 </r>
       <r>   -9.1462    1.0000 </r>
       <r>   -7.9878    1.0000 </r>
       <r>   -7.7238    1.0000 </r>
       <r>   -6.6606    1.0000 </r>
       <r>   -5.9751    1.0000 </r>
       <r>   -5.5085    1.0000 </r>
       <r>   -4.9203    1.0000 </r>
       <r>   -2.0455    0.0000 </r>
       <r>   -1.8706    0.0000 </r>
       <r>   -1.3273    0.0000 </r>
       <r>   -0.4694    0.0000 </r>
       <r>    2.3838    0.0000 </r>
      </set>
      <set comment="kpoint 4">
       <r>  -16.7896    1.0000 </r>
       <r>  -16.3588    1.0000 </r>
       <r>   -9.5854    1.0000 </r>
       <r>   -8.5926    1.0000 </r>
       <r>   -8.1189    1.0000 </r>
       <r>   -7.1591    1.0000 </r>
       <r>   -5.9176    1.0000 </r>
       <r>   -5.3850    1.0000 </r>
       <r>   -5.1143    1.0000 </r>
       <r>   -2.0530    0.0000 </r>
       <r>   -1.7732    0.0000 </r>
       <r>   -0.6084    0.0000 </r>
       <r>   -0.0767    0.0000 </r>
       <r>    2.9480    0.0000 </r>
      </set>
      <set comment="kpoint 5">
       <r>  -16.4614    1.0000 </r>
       <r>  -16.2155    1.0000 </r>
       <r>   -9.9186    1.0000 </r>
       <r>   -8.9589    1.0000 </r>
       <r>   -8.2446    1.0000 </r>
       <r>   -7.3403    1.0000 </r>
       <r>   -6.0559    1.0000 </r>
       <r>   -5.1581    1.0000 </r>
       <r>   -4.8331    1.0000 </r>
       <r>   -2.0314    0.0000 </r>
       <r>   -1.5168    0.0000 </r>
       <r>   -0.3090    0.0000 </r>
       <r>    0.0386    0.0000 </r>
       <r>    1.9932    0.0000 </r>
      </set>
      <set comment="kpoint 6">
       <r>  -17.6404    1.0000 </r>
       <r>  -16.7492    1.0000 </r>
       <r>   -9.1649    1.0000 </r>
       <r>   -7.8247    1.0000 </r>
       <r>   -7.3051    1.0000 </r>
       <r>   -6.8385    1.0000 </r>
       <r>   -6.2222    1.0000 </r>
       <r>   -5.1221    1.0000 </r>
       <r>   -4.7245    1.0000 </r>
       <r>   -2.1206    0.0000 </r>
       <r>   -1.7432    0.0000 </r>
       <r>   -1.7309    0.0000 </r>
       <r>   -0.4903    0.0000 </r>
       <r>    2.1676    0.0000 </r>
      </set>
      <set comment="kpoint 7">
       <r>  -17.0070    1.0000 </r>
       <r>  -16.4506    1.0000 </r>
       <r>   -9.2288    1.0000 </r>
       <r>   -8.2511    1.0000 </r>
       <r>   -7.9878    1.0000 </r>
       <r>   -7.3437    1.0000 </r>
       <r>   -6.1231    1.0000 </r>
       <r>   -5.4847    1.0000 </r>
       <r>   -5.0081    1.0000 </r>
       <r>   -2.2043    0.0000 </r>
       <r>   -1.7576    0.0000 </r>
       <r>   -1.2607    0.0000 </r>
       <r>    0.0152    0.0000 </r>
       <r>    3.1370    0.0000 </r>
      </set>
      <set comment="kpoint 8">
       <r>  -16.4766    1.0000 </r>
       <r>  -16.2066    1.0000 </r>
       <r>   -9.6307    1.0000 </r>
       <r>   -9.0148    1.0000 </r>
       <r>   -8.1168    1.0000 </r>
       <r>   -7.3612    1.0000 </r>
       <r>   -6.1079    1.0000 </r>
       <r>   -5.9658    1.0000 </r>
       <r>   -4.6813    1.0000 </r>
       <r>   -2.0124    0.0000 </r>
       <r>   -1.5022    0.0000 </r>
       <r>   -0.6366    0.0000 </r>
       <r>    0.0493    0.0000 </r>
       <r>    2.5188    0.0000 </r>
      </set>
      <set comment="kpoint 9">
       <r>  -16.4916    1.0000 </r>
       <r>  -16.1977    1.0000 </r>
       <r>   -9.2701    1.0000 </r>
       <r>   -9.0648    1.0000 </r>
       <r>   -7.7907    1.0000 </r>
       <r>   -7.4099    1.0000 </r>
       <r>   -7.0906    1.0000 </r>
       <r>   -5.8333    1.0000 </r>
       <r>   -4.7112    1.0000 </r>
       <r>   -2.0633    0.0000 </r>
       <r>   -1.4516    0.0000 </r>
       <r>   -1.1353    0.0000 </r>
       <r>    0.3330    0.0000 </r>
       <r>    3.3492    0.0000 </r>
      </set>
      <set comment="kpoint 10">
       <r>  -16.2567    1.0000 </r>
       <r>  -16.0787    1.0000 </r>
       <r>   -9.4494    1.0000 </r>
       <r>   -9.1009    1.0000 </r>
       <r>   -8.0740    1.0000 </r>
       <r>   -7.4121    1.0000 </r>
       <r>   -7.1837    1.0000 </r>
       <r>   -6.2186    1.0000 </r>
       <r>   -4.3439    1.0000 </r>
       <r>   -2.3896    0.0000 </r>
       <r>   -1.0743    0.0000 </r>
       <r>   -0.9023    0.0000 </r>
       <r>    0.4763    0.0000 </r>
       <r>    2.7627    0.0000 </r>
      </set>
     </set>
    </set>
   </array>
  </eigenvalues>
  <separator name="orbital magnetization" >
   <v name="MAGDIPOLOUT">      0.00000000      0.00000000      0.00000000</v>
  </separator>
  <dos>
   <i name="efermi">     -3.39000000 </i>
   <total>
    <array>
     <dimension dim="1">gridpoints</dimension>
     <dimension dim="2">spin</dimension>
     <field>energy</field>
     <field>total</field>
     <field>integrated</field>
     <set>
      <set comment="spin 1">
       <r>   -12.0000   400.0000     4.0000 </r>
       <r>   -11.9900     0.0000     4.0000 </r>
       <r>   -11.9800     0.0000     4.0000 </r>
       <r>   -11.9700     0.0000     4.0000 </r>
       <r>   -11.9600     0.0000     4.0000 </r>
       <r>   -11.9500     0.0000     4.0000 </r>
       <r>   -11.9400     0.0000     4.0000 </r>
       <r>   -11.9300     0.0000     4.0000 </r>
       <r>   -11.9200     0.0000     4.0000 </r>
       <r>   -11.9100     0.0000     4.0000 </r>
       <r>   -11.9000     0.0000     4.0000 </r>
       <r>   -11.8900     0.0000     4.0000 </r>
       <r>   -11.8800     0.0000     4.0000 </r>
       <r>   -11.8700     0.0000     4.0000 </r>
       <r>   -11.8600     0.0000     4.0000 </r>
       <r>   -11.8500     0.0000     4.0000 </r>
       <r>   -11.8400     0.0000     4.0000 </r>
       <r>   -11.8300     0.0000     4.0000 </r>
       <r>   -11.8200     0.0000     4.0000 </r>
       <r>   -11.8100     0.0000     4.0000 </r>
       <r>   -11.8000     0.0000     4.0000 </r>
       <r>   -11.7900     0.0000     4.0000 </r>
       <r>   -11.7800     0.0000     4.0000 </r>
       <r>   -11.7700     0.0000     4.0000 </r>
       <r>   -11.7600     0.0000     4.0000 </r>
       <r>   -11.7500     0.0000     4.0000 </r>
       <r>   -11.7400     0.0000     4.0000 </r>
       <r>   -11.7300     0.0000     4.0000 </r>
       <r>   -11.7200     0.0000     4.0000 </r>
       <r>   -11.7100     0.0000     4.0000 </r>
       <r>   -11.7000     0.0000     4.0000 </r>
       <r>   -11.6900     0.0000     4.0000 </r>
       <r>   -11.6800     0.0000     4.0000 </r>
       <r>   -11.6700     0.0000     4.0000 </r>
       <r>   -11.6600     0.0000     4.0000 </r>
       <r>   -11.6500     0.0000     4.0000 </r>
       <r>   -11.6400     0.0000     4.0000 </r>
       <r>   -11.6300     0.0000     4.0000 </r>
       <r>   -11.6200     0.0000     4.0000 </r>
       <r>   -11.6100     0.0000     4.0000 </r>
       <r>   -11.6000     0.0000     4.0000 </r>
       <r>   -11.5900     0.0000     4.0000 </r>
       <r>   -11.5800     0.0000     4.0000 </r>
       <r>   -11.5700     0.0000     4.0000 </r>
       <r>   -11.5600     0.0000     4.0000 </r>
       <r>   -11.5500     0.0000     4.0000 </r>
       <r>   -11.5400     0.0000     4.0000 </r>
       <r>   -11.5300     0.0000     4.0000 </r>
       <r>   -11.5200     0.0000     4.0000 </r>
       <r>   -11.5100     0.0000     4.0000 </r>
       <r>   -11.5000     0.0000     4.0000 </r>
       <r>   -11.4900     0.0000     4.0000 </r>
       <r>   -11.4800     0.0000     4.0000 </r>
       <r>   -11.4700     0.0000     4.0000 </r>
       <r>   -11.4600     0.0000     4.0000 </r>
       <r>   -11.4500     0.0000     4.0000 </r>
       <r>   -11.4400     0.0000     4.0000 </r>
       <r>   -11.4300     0.0000     4.0000 </r>
       <r>   -11.4200     0.0000     4.0000 </r>
       <r>   -11.4100     0.0000     4.0000 </r>
       <r>   -11.4000     0.0000     4.0000 </r>
       <r>   -11.3900     0.0000     4.0000 </r>
       <r>   -11.3800     0.0000     4.0000 </r>
       <r>   -11.3700     0.0000     4.0000 </r>
       <r>   -11.3600     0.0000     4.0000 </r>
       <r>   -11.3500     0.0000     4.0000 </r>
       <r>   -11.3400     0.0000     4.0000 </r>
       <r>   -11.3300     0.0000     4.0000 </r>
       <r>   -11.3200     0.0000     4.0000 </r>
       <r>   -11.3100     0.0000     4.0000 </r>
       <r>   -11.3000     0.0000     4.0000 </r>
       <r>   -11.2900     0.0000     4.0000 </r>
       <r>   -11.2800     0.0000     4.0000 </r>
       <r>   -11.2700     0.0000     4.0000 </r>
       <r>   -11.2600     0.0000     4.0000 </r>
       <r>   -11.2500     0.0000     4.0000 </r>
       <r>   -11.2400     0.0000     4.0000 </r>
       <r>   -11.2300     0.0000     4.0000 </r>
       <r>   -11.2200     0.0000     4.0000 </r>
       <r>   -11.2100     0.0000     4.0000 </r>
       <r>   -11.2000     0.0000     4.0000 </r>
       <r>   -11.1900     0.0000     4.0000 </r>
       <r>   -11.1800     0.0000     4.0000 </r>
       <r>   -11.1700     0.0000     4.0000 </r>
       <r>   -11.1600     0.0000     4.0000 </r>
       <r>   -11.1500     0.0000     4.0000 </r>
       <r>   -11.1400     0.0000     4.0000 </r>
       <r>   -11.1300     0.0000     4.0000 </r>
       <r>   -11.1200     0.0000     4.0000 </r>
       <r>   -11.1100     0.0000     4.0000 </r>
       <r>   -11.1000     0.0000     4.0000 </r>
       <r>   -11.0900     0.0000     4.0000 </r>
       <r>   -11.0800     0.0000     4.0000 </r>
       <r>   -11.0700     0.0000     4.0000 </r>
       <r>   -11.0600     0.0000     4.0000 </r>
       <r>   -11.0500     0.0000     4.0000 </r>
       <r>   -11.0400     0.0000     4.0000 </r>
       <r>   -11.0300     0.0000     4.0000 </r>
       <r>   -11.0200     0.0000     4.0000 </r>
       <r>   -11.0100     0.0000     4.0000 </r>
       <r>   -11.0000     0.0000     4.0000 </r>
       <r>   -10.9900     0.0000     4.0000 </r>
       <r>   -10.9800     0.0000     4.0000 </r>
       <r>   -10.9700     0.0000     4.0000 </r>
       <r>   -10.9600     0.0000     4.0000 </r>
       <r>   -10.9500     0.0000     4.0000 </r>
       <r>   -10.9400     0.0000     4.0000 </r>
       <r>   -10.9300     0.0000     4.0000 </r>
       <r>   -10.9200     0.0000     4.0000 </r>
       <r>   -10.9100     0.0000     4.0000 </r>
       <r>   -10.9000     0.0000     4.0000 </r>
       <r>   -10.8900     0.0000     4.0000 </r>
       <r>   -10.8800     0.0000     4.0000 </r>
       <r>   -10.8700     0.0000     4.0000 </r>
       <r>   -10.8600     0.0000     4.0000 </r>
       <r>   -10.8500     0.0000     4.0000 </r>
       <r>   -10.8400     0.0000     4.0000 </r>
       <r>   -10.8300     0.0000     4.0000 </r>
       <r>   -10.8200     0.0000     4.0000 </r>
       <r>   -10.8100     0.0000     4.0000 </r>
       <r>   -10.8000     0.0000     4.0000 </r>
       <r>   -10.7900     0.0000     4.0000 </r>
       <r>   -10.7800     0.0000     4.0000 </r>
       <r>   -10.7700     0.0000     4.0000 </r>
       <r>   -10.7600     0.0000     4.0000 </r>
       <r>   -10.7500     0.0000     4.0000 </r>
       <r>   -10.7400     0.0000     4.0000 </r>
       <r>   -10.7300     0.0000     4.0000 </r>
       <r>   -10.7200     0.0000     4.0000 </r>
       <r>   -10.7100     0.0000     4.0000 </r>
       <r>   -10.7000     0.0000     4.0000 </r>
       <r>   -10.6900     0.0000     4.0000 </r>
       <r>   -10.6800     0.0000     4.0000 </r>
       <r>   -10.6700     0.0000     4.0000 </r>
       <r>   -10.6600     0.0000     4.0000 </r>
       <r>   -10.6500     0.0000     4.0000 </r>
       <r>   -10.6400     0.0000     4.0000 </r>
       <r>   -10.6300     0.0000     4.0000 </r>
       <r>   -10.6200     0.0000     4.0000 </r>
       <r>   -10.6100     0.0000     4.0000 </r>
       <r>   -10.6000     0.0000     4.0000 </r>
       <r>   -10.5900     0.0000     4.0000 </r>
       <r>   -10.5800     0.0000     4.0000 </r>
       <r>   -10.5700     0.0000     4.0000 </r>
       <r>   -10.5600     0.0000     4.0000 </r>
       <r>   -10.5500     0.0000     4.0000 </r>
       <r>   -10.5400     0.0000     4.0000 </r>
       <r>   -10.5300     0.0000     4.0000 </r>
       <r>   -10.5200     0.0000     4.0000 </r>
       <r>   -10.5100     0.0000     4.0000 </r>
       <r>   -10.5000     0.0000     4.0000 </r>
       <r>   -10.4900     0.0001     4.0000 </r>
       <r>   -10.4800     0.0001     4.0000 </r>
       <r>   -10.4700     0.0001     4.0000 </r>
       <r>   -10.4600     0.0002     4.0000 </r>
       <r>   -10.4500     0.0002     4.0000 </r>
       <r>   -10.4400     0.0003     4.0000 </r>
       <r>   -10.4300     0.0003     4.0000 </r>
       <r>   -10.4200     0.0004     4.0000 </r>
       <r>   -10.4100     0.0006     4.0000 </r>
       <r>   -10.4000     0.0007     4.0000 </r>
       <r>   -10.3900     0.0009     4.0000 </r>
       <r>   -10.3800     0.0012     4.0001 </r>
       <r>   -10.3700     0.0015     4.0001 </r>
       <r>   -10.3600     0.0018     4.0001 </r>
       <r>   -10.3500     0.0023     4.0001 </r>
       <r>   -10.3400     0.0028     4.0001 </r>
       <r>   -10.3300     0.0035     4.0002 </r>
       <r>   -10.3200     0.0043     4.0002 </r>
       <r>   -10.3100     0.0053     4.0003 </r>
       <r>   -10.3000     0.0064     4.0003 </r>
       <r>   -10.2900     0.0077     4.0004 </r>
       <r>   -10.2800     0.0093     4.0005 </r>
       <r>   -10.2700     0.0112     4.0006 </r>
       <r>   -10.2600     0.0134     4.0007 </r>
       <r>   -10.2500     0.0159     4.0009 </r>
       <r>   -10.2400     0.0188     4.0011 </r>
       <r>   -10.2300     0.0221     4.0013 </r>
       <r>   -10.2200     0.0258     4.0016 </r>
       <r>   -10.2100     0.0301     4.0019 </r>
       <r>   -10.2000     0.0349     4.0022 </r>
       <r>   -10.1900     0.0403     4.0026 </r>
       <r>   -10.1800     0.0463     4.0031 </r>
       <r>   -10.1700     0.0530     4.0036 </r>
       <r>   -10.1600     0.0603     4.0042 </r>
       <r>   -10.1500     0.0684     4.0049 </r>
       <r>   -10.1400     0.0771     4.0057 </r>
       <r>   -10.1300     0.0866     4.0065 </r>
       <r>   -10.1200     0.0969     4.0075 </r>
       <r>   -10.1100     0.1079     4.0086 </r>
       <r>   -10.1000     0.1197     4.0098 </r>
       <r>   -10.0900     0.1323     4.0111 </r>
       <r>   -10.0800     0.1456     4.0126 </r>
       <r>   -10.0700     0.1596     4.0142 </r>
       <r>   -10.0600     0.1744     4.0159 </r>
       <r>   -10.0500     0.1899     4.0178 </r>
       <r>   -10.0400     0.2061     4.0199 </r>
       <r>   -10.0300     0.2230     4.0221 </r>
       <r>   -10.0200     0.2406     4.0245 </r>
       <r>   -10.0100     0.2590     4.0271 </r>
       <r>   -10.0000     0.2781     4.0299 </r>
       <r>    -9.9900     0.2980     4.0329 </r>
       <r>    -9.9800     0.3188     4.0360 </r>
       <r>    -9.9700     0.3406     4.0394 </r>
       <r>    -9.9600     0.3634     4.0431 </r>
       <r>    -9.9500     0.3873     4.0470 </r>
       <r>    -9.9400     0.4126     4.0511 </r>
       <r>    -9.9300     0.4394     4.0555 </r>
       <r>    -9.9200     0.4679     4.0602 </r>
       <r>    -9.9100     0.4982     4.0651 </r>
       <r>    -9.9000     0.5307     4.0704 </r>
       <r>    -9.8900     0.5654     4.0761 </r>
       <r>    -9.8800     0.6027     4.0821 </r>
       <r>    -9.8700     0.6427     4.0886 </r>
       <r>    -9.8600     0.6857     4.0954 </r>
       <r>    -9.8500     0.7318     4.1027 </r>
       <r>    -9.8400     0.7812     4.1105 </r>
       <r>    -9.8300     0.8339     4.1189 </r>
       <r>    -9.8200     0.8902     4.1278 </r>
       <r>    -9.8100     0.9499     4.1373 </r>
       <r>    -9.8000     1.0131     4.1474 </r>
       <r>    -9.7900     1.0797     4.1582 </r>
       <r>    -9.7800     1.1494     4.1697 </r>
       <r>    -9.7700     1.2221     4.1819 </r>
       <r>    -9.7600     1.2974     4.1949 </r>
       <r>    -9.7500     1.3750     4.2086 </r>
       <r>    -9.7400     1.4544     4.2232 </r>
       <r>    -9.7300     1.5351     4.2385 </r>
       <r>    -9.7200     1.6165     4.2547 </r>
       <r>    -9.7100     1.6980     4.2717 </r>
       <r>    -9.7000     1.7791     4.2895 </r>
       <r>    -9.6900     1.8589     4.3081 </r>
       <r>    -9.6800     1.9370     4.3274 </r>
       <r>    -9.6700     2.0125     4.3476 </r>
       <r>    -9.6600     2.0848     4.3684 </r>
       <r>    -9.6500     2.1534     4.3899 </r>
       <r>    -9.6400     2.2176     4.4121 </r>
       <r>    -9.6300     2.2771     4.4349 </r>
       <r>    -9.6200     2.3312     4.4582 </r>
       <r>    -9.6100     2.3798     4.4820 </r>
       <r>    -9.6000     2.4226     4.5062 </r>
       <r>    -9.5900     2.4594     4.5308 </r>
       <r>    -9.5800     2.4903     4.5557 </r>
       <r>    -9.5700     2.5154     4.5809 </r>
       <r>    -9.5600     2.5348     4.6062 </r>
       <r>    -9.5500     2.5489     4.6317 </r>
       <r>    -9.5400     2.5582     4.6573 </r>
       <r>    -9.5300     2.5632     4.6829 </r>
       <r>    -9.5200     2.5645     4.7086 </r>
       <r>    -9.5100     2.5628     4.7342 </r>
       <r>    -9.5000     2.5590     4.7598 </r>
       <r>    -9.4900     2.5539     4.7853 </r>
       <r>    -9.4800     2.5483     4.8108 </r>
       <r>    -9.4700     2.5432     4.8362 </r>
       <r>    -9.4600     2.5394     4.8616 </r>
       <r>    -9.4500     2.5377     4.8870 </r>
       <r>    -9.4400     2.5392     4.9124 </r>
       <r>    -9.4300     2.5444     4.9379 </r>
       <r>    -9.4200     2.5542     4.9634 </r>
       <r>    -9.4100     2.5691     4.9891 </r>
       <r>    -9.4000     2.5896     5.0150 </r>
       <r>    -9.3900     2.6162     5.0411 </r>
       <r>    -9.3800     2.6492     5.0676 </r>
       <r>    -9.3700     2.6886     5.0945 </r>
       <r>    -9.3600     2.7346     5.1219 </r>
       <r>    -9.3500     2.7870     5.1497 </r>
       <r>    -9.3400     2.8455     5.1782 </r>
       <r>    -9.3300     2.9098     5.2073 </r>
       <r>    -9.3200     2.9793     5.2371 </r>
       <r>    -9.3100     3.0535     5.2676 </r>
       <r>    -9.3000     3.1316     5.2989 </r>
       <r>    -9.2900     3.2127     5.3311 </r>
       <r>    -9.2800     3.2961     5.3640 </r>
       <r>    -9.2700     3.3806     5.3978 </r>
       <r>    -9.2600     3.4654     5.4325 </r>
       <r>    -9.2500     3.5493     5.4680 </r>
       <r>    -9.2400     3.6313     5.5043 </r>
       <r>    -9.2300     3.7103     5.5414 </r>
       <r>    -9.2200     3.7854     5.5792 </r>
       <r>    -9.2100     3.8554     5.6178 </r>
       <r>    -9.2000     3.9194     5.6570 </r>
       <r>    -9.1900     3.9766     5.6968 </r>
       <r>    -9.1800     4.0260     5.7370 </r>
       <r>    -9.1700     4.0670     5.7777 </r>
       <r>    -9.1600     4.0988     5.8187 </r>
       <r>    -9.1500     4.1209     5.8599 </r>
       <r>    -9.1400     4.1328     5.9012 </r>
       <r>    -9.1300     4.1342     5.9426 </r>
       <r>    -9.1200     4.1247     5.9838 </r>
       <r>    -9.1100     4.1042     6.0248 </r>
       <r>    -9.1000     4.0728     6.0656 </r>
       <r>    -9.0900     4.0303     6.1059 </r>
       <r>    -9.0800     3.9771     6.1456 </r>
       <r>    -9.0700     3.9134     6.1848 </r>
       <r>    -9.0600     3.8396     6.2232 </r>
       <r>    -9.0500     3.7561     6.2607 </r>
       <r>    -9.0400     3.6635     6.2974 </r>
       <r>    -9.0300     3.5625     6.3330 </r>
       <r>    -9.0200     3.4538     6.3675 </r>
       <r>    -9.0100     3.3382     6.4009 </r>
       <r>    -9.0000     3.2164     6.4331 </r>
       <r>    -8.9900     3.0896     6.4640 </r>
       <r>    -8.9800     2.9584     6.4936 </r>
       <r>    -8.9700     2.8241     6.5218 </r>
       <r>    -8.9600     2.6874     6.5487 </r>
       <r>    -8.9500     2.5495     6.5742 </r>
       <r>    -8.9400     2.4113     6.5983 </r>
       <r>    -8.9300     2.2738     6.6210 </r>
       <r>    -8.9200     2.1379     6.6424 </r>
       <r>    -8.9100     2.0044     6.6624 </r>
       <r>    -8.9000     1.8744     6.6812 </r>
       <r>    -8.8900     1.7484     6.6987 </r>
       <r>    -8.8800     1.6274     6.7150 </r>
       <r>    -8.8700     1.5118     6.7301 </r>
       <r>    -8.8600     1.4022     6.7441 </r>
       <r>    -8.8500     1.2992     6.7571 </r>
       <r>    -8.8400     1.2030     6.7691 </r>
       <r>    -8.8300     1.1140     6.7803 </r>
       <r>    -8.8200     1.0324     6.7906 </r>
       <r>    -8.8100     0.9582     6.8002 </r>
       <r>    -8.8000     0.8914     6.8091 </r>
       <r>    -8.7900     0.8321     6.8174 </r>
       <r>    -8.7800     0.7799     6.8252 </r>
       <r>    -8.7700     0.7348     6.8325 </r>
       <r>    -8.7600     0.6962     6.8395 </r>
       <r>    -8.7500     0.6640     6.8461 </r>
       <r>    -8.7400     0.6377     6.8525 </r>
       <r>    -8.7300     0.6168     6.8587 </r>
       <r>    -8.7200     0.6009     6.8647 </r>
       <r>    -8.7100     0.5894     6.8706 </r>
       <r>    -8.7000     0.5818     6.8764 </r>
       <r>    -8.6900     0.5776     6.8822 </r>
       <r>    -8.6800     0.5763     6.8879 </r>
       <r>    -8.6700     0.5774     6.8937 </r>
       <r>    -8.6600     0.5804     6.8995 </r>
       <r>    -8.6500     0.5850     6.9054 </r>
       <r>    -8.6400     0.5907     6.9113 </r>
       <r>    -8.6300     0.5973     6.9173 </r>
       <r>    -8.6200     0.6045     6.9233 </r>
       <r>    -8.6100     0.6121     6.9294 </r>
       <r>    -8.6000     0.6201     6.9356 </r>
       <r>    -8.5900     0.6283     6.9419 </r>
       <r>    -8.5800     0.6369     6.9483 </r>
       <r>    -8.5700     0.6459     6.9547 </r>
       <r>    -8.5600     0.6555     6.9613 </r>
       <r>    -8.5500     0.6660     6.9679 </r>
       <r>    -8.5400     0.6777     6.9747 </r>
       <r>    -8.5300     0.6910     6.9816 </r>
       <r>    -8.5200     0.7061     6.9887 </r>
       <r>    -8.5100     0.7237     6.9959 </r>
       <r>    -8.5000     0.7441     7.0034 </r>
       <r>    -8.4900     0.7678     7.0111 </r>
       <r>    -8.4800     0.7953     7.0190 </r>
       <r>    -8.4700     0.8271     7.0273 </r>
       <r>    -8.4600     0.8636     7.0359 </r>
       <r>    -8.4500     0.9051     7.0450 </r>
       <r>    -8.4400     0.9521     7.0545 </r>
       <r>    -8.4300     1.0049     7.0645 </r>
       <r>    -8.4200     1.0637     7.0752 </r>
       <r>    -8.4100     1.1286     7.0865 </r>
       <r>    -8.4000     1.1999     7.0985 </r>
       <r>    -8.3900     1.2774     7.1112 </r>
       <r>    -8.3800     1.3611     7.1248 </r>
       <r>    -8.3700     1.4510     7.1394 </r>
       <r>    -8.3600     1.5466     7.1548 </r>
       <r>    -8.3500     1.6479     7.1713 </r>
       <r>    -8.3400     1.7542     7.1888 </r>
       <r>    -8.3300     1.8653     7.2075 </r>
       <r>    -8.3200     1.9805     7.2273 </r>
       <r>    -8.3100     2.0993     7.2483 </r>
       <r>    -8.3000     2.2210     7.2705 </r>
       <r>    -8.2900     2.3449     7.2940 </r>
       <r>    -8.2800     2.4704     7.3187 </r>
       <r>    -8.2700     2.5966     7.3446 </r>
       <r>    -8.2600     2.7228     7.3718 </r>
       <r>    -8.2500     2.8481     7.4003 </r>
       <r>    -8.2400     2.9719     7.4300 </r>
       <r>    -8.2300     3.0932     7.4610 </r>
       <r>    -8.2200     3.2114     7.4931 </r>
       <r>    -8.2100     3.3255     7.5263 </r>
       <r>    -8.2000     3.4350     7.5607 </r>
       <r>    -8.1900     3.5391     7.5961 </r>
       <r>    -8.1800     3.6371     7.6325 </r>
       <r>    -8.1700     3.7283     7.6697 </r>
       <r>    -8.1600     3.8123     7.7079 </r>
       <r>    -8.1500     3.8885     7.7468 </r>
       <r>    -8.1400     3.9565     7.7863 </r>
       <r>    -8.1300     4.0158     7.8265 </r>
       <r>    -8.1200     4.0662     7.8671 </r>
       <r>    -8.1100     4.1074     7.9082 </r>
       <r>    -8.1000     4.1393     7.9496 </r>
       <r>    -8.0900     4.1618     7.9912 </r>
       <r>    -8.0800     4.1750     8.0330 </r>
       <r>    -8.0700     4.1789     8.0748 </r>
       <r>    -8.0600     4.1738     8.1165 </r>
       <r>    -8.0500     4.1598     8.1581 </r>
       <r>    -8.0400     4.1374     8.1995 </r>
       <r>    -8.0300     4.1070     8.2405 </r>
       <r>    -8.0200     4.0691     8.2812 </r>
       <r>    -8.0100     4.0241     8.3215 </r>
       <r>    -8.0000     3.9728     8.3612 </r>
       <r>    -7.9900     3.9156     8.4004 </r>
       <r>    -7.9800     3.8533     8.4389 </r>
       <r>    -7.9700     3.7865     8.4768 </r>
       <r>    -7.9600     3.7159     8.5139 </r>
       <r>    -7.9500     3.6420     8.5503 </r>
       <r>    -7.9400     3.5656     8.5860 </r>
       <r>    -7.9300     3.4872     8.6209 </r>
       <r>    -7.9200     3.4073     8.6549 </r>
       <r>    -7.9100     3.3265     8.6882 </r>
       <r>    -7.9000     3.2451     8.7207 </r>
       <r>    -7.8900     3.1635     8.7523 </r>
       <r>    -7.8800     3.0821     8.7831 </r>
       <r>    -7.8700     3.0011     8.8131 </r>
       <r>    -7.8600     2.9207     8.8423 </r>
       <r>    -7.8500     2.8411     8.8707 </r>
       <r>    -7.8400     2.7624     8.8984 </r>
       <r>    -7.8300     2.6847     8.9252 </r>
       <r>    -7.8200     2.6081     8.9513 </r>
       <r>    -7.8100     2.5326     8.9766 </r>
       <r>    -7.8000     2.4584     9.0012 </r>
       <r>    -7.7900     2.3855     9.0251 </r>
       <r>    -7.7800     2.3140     9.0482 </r>
       <r>    -7.7700     2.2443     9.0706 </r>
       <r>    -7.7600     2.1764     9.0924 </r>
       <r>    -7.7500     2.1108     9.1135 </r>
       <r>    -7.7400     2.0478     9.1340 </r>
       <r>    -7.7300     1.9878     9.1539 </r>
       <r>    -7.7200     1.9313     9.1732 </r>
       <r>    -7.7100     1.8790     9.1920 </r>
       <r>    -7.7000     1.8314     9.2103 </r>
       <r>    -7.6900     1.7893     9.2282 </r>
       <r>    -7.6800     1.7535     9.2457 </r>
       <r>    -7.6700     1.7246     9.2630 </r>
       <r>    -7.6600     1.7036     9.2800 </r>
       <r>    -7.6500     1.6911     9.2969 </r>
       <r>    -7.6400     1.6880     9.3138 </r>
       <r>    -7.6300     1.6949     9.3307 </r>
       <r>    -7.6200     1.7125     9.3479 </r>
       <r>    -7.6100     1.7414     9.3653 </r>
       <r>    -7.6000     1.7820     9.3831 </r>
       <r>    -7.5900     1.8347     9.4014 </r>
       <r>    -7.5800     1.8997     9.4204 </r>
       <r>    -7.5700     1.9769     9.4402 </r>
       <r>    -7.5600     2.0663     9.4609 </r>
       <r>    -7.5500     2.1674     9.4825 </r>
       <r>    -7.5400     2.2799     9.5053 </r>
       <r>    -7.5300     2.4029     9.5294 </r>
       <r>    -7.5200     2.5357     9.5547 </r>
       <r>    -7.5100     2.6771     9.5815 </r>
       <r>    -7.5000     2.8259     9.6098 </r>
       <r>    -7.4900     2.9806     9.6396 </r>
       <r>    -7.4800     3.1399     9.6710 </r>
       <r>    -7.4700     3.3020     9.7040 </r>
       <r>    -7.4600     3.4652     9.7386 </r>
       <r>    -7.4500     3.6278     9.7749 </r>
       <r>    -7.4400     3.7878     9.8128 </r>
       <r>    -7.4300     3.9436     9.8522 </r>
       <r>    -7.4200     4.0933     9.8932 </r>
       <r>    -7.4100     4.2352     9.9355 </r>
       <r>    -7.4000     4.3678     9.9792 </r>
       <r>    -7.3900     4.4895    10.0241 </r>
       <r>    -7.3800     4.5990    10.0701 </r>
       <r>    -7.3700     4.6951    10.1170 </r>
       <r>    -7.3600     4.7769    10.1648 </r>
       <r>    -7.3500     4.8436    10.2132 </r>
       <r>    -7.3400     4.8946    10.2622 </r>
       <r>    -7.3300     4.9296    10.3115 </r>
       <r>    -7.3200     4.9484    10.3610 </r>
       <r>    -7.3100     4.9510    10.4105 </r>
       <r>    -7.3000     4.9378    10.4598 </r>
       <r>    -7.2900     4.9091    10.5089 </r>
       <r>    -7.2800     4.8657    10.5576 </r>
       <r>    -7.2700     4.8081    10.6057 </r>
       <r>    -7.2600     4.7374    10.6530 </r>
       <r>    -7.2500     4.6544    10.6996 </r>
       <r>    -7.2400     4.5603    10.7452 </r>
       <r>    -7.2300     4.4562    10.7898 </r>
       <r>    -7.2200     4.3433    10.8332 </r>
       <r>    -7.2100     4.2226    10.8754 </r>
       <r>    -7.2000     4.0956    10.9164 </r>
       <r>    -7.1900     3.9632    10.9560 </r>
       <r>    -7.1800     3.8268    10.9943 </r>
       <r>    -7.1700     3.6873    11.0311 </r>
       <r>    -7.1600     3.5460    11.0666 </r>
       <r>    -7.1500     3.4039    11.1006 </r>
       <r>    -7.1400     3.2620    11.1333 </r>
       <r>    -7.1300     3.1211    11.1645 </r>
       <r>    -7.1200     2.9823    11.1943 </r>
       <r>    -7.1100     2.8463    11.2228 </r>
       <r>    -7.1000     2.7139    11.2499 </r>
       <r>    -7.0900     2.5858    11.2758 </r>
       <r>    -7.0800     2.4627    11.3004 </r>
       <r>    -7.0700     2.3452    11.3238 </r>
       <r>    -7.0600     2.2339    11.3462 </r>
       <r>    -7.0500     2.1291    11.3675 </r>
       <r>    -7.0400     2.0314    11.3878 </r>
       <r>    -7.0300     1.9411    11.4072 </r>
       <r>    -7.0200     1.8586    11.4258 </r>
       <r>    -7.0100     1.7839    11.4436 </r>
       <r>    -7.0000     1.7174    11.4608 </r>
       <r>    -6.9900     1.6590    11.4774 </r>
       <r>    -6.9800     1.6088    11.4935 </r>
       <r>    -6.9700     1.5668    11.5091 </r>
       <r>    -6.9600     1.5327    11.5245 </r>
       <r>    -6.9500     1.5064    11.5395 </r>
       <r>    -6.9400     1.4876    11.5544 </r>
       <r>    -6.9300     1.4759    11.5692 </r>
       <r>    -6.9200     1.4709    11.5839 </r>
       <r>    -6.9100     1.4721    11.5986 </r>
       <r>    -6.9000     1.4789    11.6134 </r>
       <r>    -6.8900     1.4908    11.6283 </r>
       <r>    -6.8800     1.5071    11.6434 </r>
       <r>    -6.8700     1.5272    11.6586 </r>
       <r>    -6.8600     1.5503    11.6741 </r>
       <r>    -6.8500     1.5758    11.6899 </r>
       <r>    -6.8400     1.6030    11.7059 </r>
       <r>    -6.8300     1.6312    11.7222 </r>
       <r>    -6.8200     1.6597    11.7388 </r>
       <r>    -6.8100     1.6878    11.7557 </r>
       <r>    -6.8000     1.7150    11.7729 </r>
       <r>    -6.7900     1.7406    11.7903 </r>
       <r>    -6.7800     1.7642    11.8079 </r>
       <r>    -6.7700     1.7853    11.8258 </r>
       <r>    -6.7600     1.8034    11.8438 </r>
       <r>    -6.7500     1.8181    11.8620 </r>
       <r>    -6.7400     1.8292    11.8803 </r>
       <r>    -6.7300     1.8364    11.8986 </r>
       <r>    -6.7200     1.8395    11.9170 </r>
       <r>    -6.7100     1.8383    11.9354 </r>
       <r>    -6.7000     1.8329    11.9537 </r>
       <r>    -6.6900     1.8231    11.9720 </r>
       <r>    -6.6800     1.8090    11.9901 </r>
       <r>    -6.6700     1.7908    12.0080 </r>
       <r>    -6.6600     1.7685    12.0257 </r>
       <r>    -6.6500     1.7423    12.0431 </r>
       <r>    -6.6400     1.7126    12.0602 </r>
       <r>    -6.6300     1.6796    12.0770 </r>
       <r>    -6.6200     1.6435    12.0934 </r>
       <r>    -6.6100     1.6049    12.1095 </r>
       <r>    -6.6000     1.5641    12.1251 </r>
       <r>    -6.5900     1.5216    12.1403 </r>
       <r>    -6.5800     1.4779    12.1551 </r>
       <r>    -6.5700     1.4335    12.1695 </r>
       <r>    -6.5600     1.3890    12.1833 </r>
       <r>    -6.5500     1.3449    12.1968 </r>
       <r>    -6.5400     1.3020    12.2098 </r>
       <r>    -6.5300     1.2609    12.2224 </r>
       <r>    -6.5200     1.2222    12.2346 </r>
       <r>    -6.5100     1.1865    12.2465 </r>
       <r>    -6.5000     1.1547    12.2581 </r>
       <r>    -6.4900     1.1273    12.2693 </r>
       <r>    -6.4800     1.1051    12.2804 </r>
       <r>    -6.4700     1.0887    12.2913 </r>
       <r>    -6.4600     1.0788    12.3021 </r>
       <r>    -6.4500     1.0760    12.3128 </r>
       <r>    -6.4400     1.0808    12.3236 </r>
       <r>    -6.4300     1.0939    12.3346 </r>
       <r>    -6.4200     1.1156    12.3457 </r>
       <r>    -6.4100     1.1464    12.3572 </r>
       <r>    -6.4000     1.1866    12.3691 </r>
       <r>    -6.3900     1.2366    12.3814 </r>
       <r>    -6.3800     1.2964    12.3944 </r>
       <r>    -6.3700     1.3662    12.4080 </r>
       <r>    -6.3600     1.4459    12.4225 </r>
       <r>    -6.3500     1.5355    12.4379 </r>
       <r>    -6.3400     1.6347    12.4542 </r>
       <r>    -6.3300     1.7432    12.4716 </r>
       <r>    -6.3200     1.8606    12.4902 </r>
       <r>    -6.3100     1.9864    12.5101 </r>
       <r>    -6.3000     2.1199    12.5313 </r>
       <r>    -6.2900     2.2604    12.5539 </r>
       <r>    -6.2800     2.4071    12.5780 </r>
       <r>    -6.2700     2.5591    12.6036 </r>
       <r>    -6.2600     2.7154    12.6307 </r>
       <r>    -6.2500     2.8751    12.6595 </r>
       <r>    -6.2400     3.0370    12.6898 </r>
       <r>    -6.2300     3.2000    12.7218 </r>
       <r>    -6.2200     3.3630    12.7555 </r>
       <r>    -6.2100     3.5248    12.7907 </r>
       <r>    -6.2000     3.6843    12.8276 </r>
       <r>    -6.1900     3.8402    12.8660 </r>
       <r>    -6.1800     3.9915    12.9059 </r>
       <r>    -6.1700     4.1370    12.9473 </r>
       <r>    -6.1600     4.2757    12.9900 </r>
       <r>    -6.1500     4.4066    13.0341 </r>
       <r>    -6.1400     4.5286    13.0794 </r>
       <r>    -6.1300     4.6410    13.1258 </r>
       <r>    -6.1200     4.7429    13.1732 </r>
       <r>    -6.1100     4.8336    13.2215 </r>
       <r>    -6.1000     4.9124    13.2707 </r>
       <r>    -6.0900     4.9789    13.3205 </r>
       <r>    -6.0800     5.0326    13.3708 </r>
       <r>    -6.0700     5.0732    13.4215 </r>
       <r>    -6.0600     5.1004    13.4725 </r>
       <r>    -6.0500     5.1140    13.5237 </r>
       <r>    -6.0400     5.1141    13.5748 </r>
       <r>    -6.0300     5.1007    13.6258 </r>
       <r>    -6.0200     5.0739    13.6765 </r>
       <r>    -6.0100     5.0341    13.7269 </r>
       <r>    -6.0000     4.9815    13.7767 </r>
       <r>    -5.9900     4.9167    13.8259 </r>
       <r>    -5.9800     4.8402    13.8743 </r>
       <r>    -5.9700     4.7526    13.9218 </r>
       <r>    -5.9600     4.6546    13.9683 </r>
       <r>    -5.9500     4.5470    14.0138 </r>
       <r>    -5.9400     4.4307    14.0581 </r>
       <r>    -5.9300     4.3066    14.1012 </r>
       <r>    -5.9200     4.1756    14.1429 </r>
       <r>    -5.9100     4.0388    14.1833 </r>
       <r>    -5.9000     3.8973    14.2223 </r>
       <r>    -5.8900     3.7521    14.2598 </r>
       <r>    -5.8800     3.6043    14.2959 </r>
       <r>    -5.8700     3.4552    14.3304 </r>
       <r>    -5.8600     3.3058    14.3635 </r>
       <r>    -5.8500     3.1572    14.3950 </r>
       <r>    -5.8400     3.0105    14.4251 </r>
       <r>    -5.8300     2.8668    14.4538 </r>
       <r>    -5.8200     2.7272    14.4811 </r>
       <r>    -5.8100     2.5925    14.5070 </r>
       <r>    -5.8000     2.4638    14.5317 </r>
       <r>    -5.7900     2.3418    14.5551 </r>
       <r>    -5.7800     2.2274    14.5773 </r>
       <r>    -5.7700     2.1212    14.5986 </r>
       <r>    -5.7600     2.0238    14.6188 </r>
       <r>    -5.7500     1.9358    14.6382 </r>
       <r>    -5.7400     1.8574    14.6567 </r>
       <r>    -5.7300     1.7892    14.6746 </r>
       <r>    -5.7200     1.7312    14.6919 </r>
       <r>    -5.7100     1.6835    14.7088 </r>
       <r>    -5.7000     1.6460    14.7252 </r>
       <r>    -5.6900     1.6188    14.7414 </r>
       <r>    -5.6800     1.6014    14.7574 </r>
       <r>    -5.6700     1.5937    14.7734 </r>
       <r>    -5.6600     1.5950    14.7893 </r>
       <r>    -5.6500     1.6049    14.8054 </r>
       <r>    -5.6400     1.6227    14.8216 </r>
       <r>    -5.6300     1.6477    14.8381 </r>
       <r>    -5.6200     1.6790    14.8549 </r>
       <r>    -5.6100     1.7160    14.8720 </r>
       <r>    -5.6000     1.7576    14.8896 </r>
       <r>    -5.5900     1.8029    14.9076 </r>
       <r>    -5.5800     1.8509    14.9261 </r>
       <r>    -5.5700     1.9008    14.9451 </r>
       <r>    -5.5600     1.9515    14.9647 </r>
       <r>    -5.5500     2.0023    14.9847 </r>
       <r>    -5.5400     2.0521    15.0052 </r>
       <r>    -5.5300     2.1002    15.0262 </r>
       <r>    -5.5200     2.1458    15.0477 </r>
       <r>    -5.5100     2.1884    15.0695 </r>
       <r>    -5.5000     2.2274    15.0918 </r>
       <r>    -5.4900     2.2624    15.1144 </r>
       <r>    -5.4800     2.2930    15.1374 </r>
       <r>    -5.4700     2.3191    15.1606 </r>
       <r>    -5.4600     2.3405    15.1840 </r>
       <r>    -5.4500     2.3574    15.2075 </r>
       <r>    -5.4400     2.3698    15.2312 </r>
       <r>    -5.4300     2.3781    15.2550 </r>
       <r>    -5.4200     2.3826    15.2788 </r>
       <r>    -5.4100     2.3837    15.3027 </r>
       <r>    -5.4000     2.3820    15.3265 </r>
       <r>    -5.3900     2.3781    15.3503 </r>
       <r>    -5.3800     2.3725    15.3740 </r>
       <r>    -5.3700     2.3658    15.3977 </r>
       <r>    -5.3600     2.3589    15.4213 </r>
       <r>    -5.3500     2.3522    15.4448 </r>
       <r>    -5.3400     2.3463    15.4682 </r>
       <r>    -5.3300     2.3420    15.4917 </r>
       <r>    -5.3200     2.3395    15.5151 </r>
       <r>    -5.3100     2.3395    15.5384 </r>
       <r>    -5.3000     2.3423    15.5619 </r>
       <r>    -5.2900     2.3482    15.5854 </r>
       <r>    -5.2800     2.3573    15.6089 </r>
       <r>    -5.2700     2.3698    15.6326 </r>
       <r>    -5.2600     2.3858    15.6565 </r>
       <r>    -5.2500     2.4050    15.6805 </r>
       <r>    -5.2400     2.4275    15.7048 </r>
       <r>    -5.2300     2.4528    15.7293 </r>
       <r>    -5.2200     2.4808    15.7541 </r>
       <r>    -5.2100     2.5110    15.7793 </r>
       <r>    -5.2000     2.5430    15.8047 </r>
       <r>    -5.1900     2.5763    15.8304 </r>
       <r>    -5.1800     2.6105    15.8565 </r>
       <r>    -5.1700     2.6449    15.8830 </r>
       <r>    -5.1600     2.6790    15.9098 </r>
       <r>    -5.1500     2.7123    15.9369 </r>
       <r>    -5.1400     2.7443    15.9644 </r>
       <r>    -5.1300     2.7745    15.9921 </r>
       <r>    -5.1200     2.8024    16.0201 </r>
       <r>    -5.1100     2.8276    16.0484 </r>
       <r>    -5.1000     2.8498    16.0769 </r>
       <r>    -5.0900     2.8686    16.1056 </r>
       <r>    -5.0800     2.8840    16.1344 </r>
       <r>    -5.0700     2.8957    16.1634 </r>
       <r>    -5.0600     2.9037    16.1924 </r>
       <r>    -5.0500     2.9080    16.2215 </r>
       <r>    -5.0400     2.9087    16.2506 </r>
       <r>    -5.0300     2.9060    16.2796 </r>
       <r>    -5.0200     2.9001    16.3086 </r>
       <r>    -5.0100     2.8913    16.3376 </r>
       <r>    -5.0000     2.8801    16.3664 </r>
       <r>    -4.9900     2.8668    16.3950 </r>
       <r>    -4.9800     2.8519    16.4235 </r>
       <r>    -4.9700     2.8359    16.4519 </r>
       <r>    -4.9600     2.8193    16.4801 </r>
       <r>    -4.9500     2.8026    16.5081 </r>
       <r>    -4.9400     2.7862    16.5360 </r>
       <r>    -4.9300     2.7706    16.5637 </r>
       <r>    -4.9200     2.7562    16.5913 </r>
       <r>    -4.9100     2.7435    16.6187 </r>
       <r>    -4.9000     2.7325    16.6460 </r>
       <r>    -4.8900     2.7237    16.6733 </r>
       <r>    -4.8800     2.7170    16.7004 </r>
       <r>    -4.8700     2.7125    16.7275 </r>
       <r>    -4.8600     2.7101    16.7546 </r>
       <r>    -4.8500     2.7097    16.7817 </r>
       <r>    -4.8400     2.7109    16.8089 </r>
       <r>    -4.8300     2.7134    16.8360 </r>
       <r>    -4.8200     2.7168    16.8632 </r>
       <r>    -4.8100     2.7204    16.8904 </r>
       <r>    -4.8000     2.7238    16.9176 </r>
       <r>    -4.7900     2.7262    16.9449 </r>
       <r>    -4.7800     2.7271    16.9721 </r>
       <r>    -4.7700     2.7257    16.9994 </r>
       <r>    -4.7600     2.7213    17.0266 </r>
       <r>    -4.7500     2.7135    17.0537 </r>
       <r>    -4.7400     2.7015    17.0807 </r>
       <r>    -4.7300     2.6849    17.1076 </r>
       <r>    -4.7200     2.6632    17.1342 </r>
       <r>    -4.7100     2.6363    17.1606 </r>
       <r>    -4.7000     2.6038    17.1866 </r>
       <r>    -4.6900     2.5657    17.2123 </r>
       <r>    -4.6800     2.5221    17.2375 </r>
       <r>    -4.6700     2.4732    17.2622 </r>
       <r>    -4.6600     2.4194    17.2864 </r>
       <r>    -4.6500     2.3610    17.3100 </r>
       <r>    -4.6400     2.2986    17.3330 </r>
       <r>    -4.6300     2.2330    17.3554 </r>
       <r>    -4.6200     2.1648    17.3770 </r>
       <r>    -4.6100     2.0949    17.3980 </r>
       <r>    -4.6000     2.0240    17.4182 </r>
       <r>    -4.5900     1.9531    17.4377 </r>
       <r>    -4.5800     1.8830    17.4566 </r>
       <r>    -4.5700     1.8145    17.4747 </r>
       <r>    -4.5600     1.7485    17.4922 </r>
       <r>    -4.5500     1.6856    17.5090 </r>
       <r>    -4.5400     1.6264    17.5253 </r>
       <r>    -4.5300     1.5714    17.5410 </r>
       <r>    -4.5200     1.5211    17.5562 </r>
       <r>    -4.5100     1.4757    17.5710 </r>
       <r>    -4.5000     1.4355    17.5853 </r>
       <r>    -4.4900     1.4003    17.5993 </r>
       <r>    -4.4800     1.3701    17.6130 </r>
       <r>    -4.4700     1.3447    17.6265 </r>
       <r>    -4.4600     1.3237    17.6397 </r>
       <r>    -4.4500     1.3067    17.6528 </r>
       <r>    -4.4400     1.2932    17.6657 </r>
       <r>    -4.4300     1.2826    17.6786 </r>
       <r>    -4.4200     1.2743    17.6913 </r>
       <r>    -4.4100     1.2675    17.7040 </r>
       <r>    -4.4000     1.2617    17.7166 </r>
       <r>    -4.3900     1.2560    17.7291 </r>
       <r>    -4.3800     1.2500    17.7416 </r>
       <r>    -4.3700     1.2430    17.7541 </r>
       <r>    -4.3600     1.2343    17.7664 </r>
       <r>    -4.3500     1.2236    17.7787 </r>
       <r>    -4.3400     1.2104    17.7908 </r>
       <r>    -4.3300     1.1944    17.8027 </r>
       <r>    -4.3200     1.1753    17.8145 </r>
       <r>    -4.3100     1.1530    17.8260 </r>
       <r>    -4.3000     1.1274    17.8373 </r>
       <r>    -4.2900     1.0986    17.8483 </r>
       <r>    -4.2800     1.0665    17.8589 </r>
       <r>    -4.2700     1.0315    17.8692 </r>
       <r>    -4.2600     0.9938    17.8792 </r>
       <r>    -4.2500     0.9536    17.8887 </r>
       <r>    -4.2400     0.9113    17.8978 </r>
       <r>    -4.2300     0.8672    17.9065 </r>
       <r>    -4.2200     0.8219    17.9147 </r>
       <r>    -4.2100     0.7756    17.9225 </r>
       <r>    -4.2000     0.7288    17.9298 </r>
       <r>    -4.1900     0.6819    17.9366 </r>
       <r>    -4.1800     0.6353    17.9429 </r>
       <r>    -4.1700     0.5893    17.9488 </r>
       <r>    -4.1600     0.5444    17.9543 </r>
       <r>    -4.1500     0.5007    17.9593 </r>
       <r>    -4.1400     0.4585    17.9639 </r>
       <r>    -4.1300     0.4181    17.9680 </r>
       <r>    -4.1200     0.3796    17.9718 </r>
       <r>    -4.1100     0.3433    17.9753 </r>
       <r>    -4.1000     0.3091    17.9784 </r>
       <r>    -4.0900     0.2771    17.9811 </r>
       <r>    -4.0800     0.2474    17.9836 </r>
       <r>    -4.0700     0.2200    17.9858 </r>
       <r>    -4.0600     0.1948    17.9877 </r>
       <r>    -4.0500     0.1718    17.9895 </r>
       <r>    -4.0400     0.1509    17.9910 </r>
       <r>    -4.0300     0.1320    17.9923 </r>
       <r>    -4.0200     0.1150    17.9934 </r>
       <r>    -4.0100     0.0998    17.9944 </r>
       <r>    -4.0000     0.0863    17.9953 </r>
       <r>    -3.9900     0.0743    17.9961 </r>
       <r>    -3.9800     0.0637    17.9967 </r>
       <r>    -3.9700     0.0544    17.9972 </r>
       <r>    -3.9600     0.0463    17.9977 </r>
       <r>    -3.9500     0.0392    17.9981 </r>
       <r>    -3.9400     0.0331    17.9984 </r>
       <r>    -3.9300     0.0279    17.9987 </r>
       <r>    -3.9200     0.0233    17.9989 </r>
       <r>    -3.9100     0.0195    17.9991 </r>
       <r>    -3.9000     0.0162    17.9993 </r>
       <r>    -3.8900     0.0134    17.9994 </r>
       <r>    -3.8800     0.0111    17.9995 </r>
       <r>    -3.8700     0.0091    17.9996 </r>
       <r>    -3.8600     0.0074    17.9997 </r>
       <r>    -3.8500     0.0061    17.9998 </r>
       <r>    -3.8400     0.0049    17.9998 </r>
       <r>    -3.8300     0.0040    17.9998 </r>
       <r>    -3.8200     0.0032    17.9999 </r>
       <r>    -3.8100     0.0026    17.9999 </r>
       <r>    -3.8000     0.0021    17.9999 </r>
       <r>    -3.7900     0.0016    17.9999 </r>
       <r>    -3.7800     0.0013    18.0000 </r>
       <r>    -3.7700     0.0010    18.0000 </r>
       <r>    -3.7600     0.0008    18.0000 </r>
       <r>    -3.7500     0.0006    18.0000 </r>
       <r>    -3.7400     0.0005    18.0000 </r>
       <r>    -3.7300     0.0004    18.0000 </r>
       <r>    -3.7200     0.0003    18.0000 </r>
       <r>    -3.7100     0.0002    18.0000 </r>
       <r>    -3.7000     0.0002    18.0000 </r>
       <r>    -3.6900     0.0001    18.0000 </r>
       <r>    -3.6800     0.0001    18.0000 </r>
       <r>    -3.6700     0.0001    18.0000 </r>
       <r>    -3.6600     0.0001    18.0000 </r>
       <r>    -3.6500     0.0000    18.0000 </r>
       <r>    -3.6400     0.0000    18.0000 </r>
       <r>    -3.6300     0.0000    18.0000 </r>
       <r>    -3.6200     0.0000    18.0000 </r>
       <r>    -3.6100     0.0000    18.0000 </r>
       <r>    -3.6000     0.0000    18.0000 </r>
       <r>    -3.5900     0.0000    18.0000 </r>
       <r>    -3.5800     0.0000    18.0000 </r>
       <r>    -3.5700     0.0000    18.0000 </r>
       <r>    -3.5600     0.0000    18.0000 </r>
       <r>    -3.5500     0.0000    18.0000 </r>
       <r>    -3.5400     0.0000    18.0000 </r>
       <r>    -3.5300     0.0000    18.0000 </r>
       <r>    -3.5200     0.0000    18.0000 </r>
       <r>    -3.5100     0.0000    18.0000 </r>
       <r>    -3.5000     0.0000    18.0000 </r>
       <r>    -3.4900     0.0000    18.0000 </r>
       <r>    -3.4800     0.0000    18.0000 </r>
       <r>    -3.4700     0.0000    18.0000 </r>
       <r>    -3.4600     0.0000    18.0000 </r>
       <r>    -3.4500     0.0000    18.0000 </r>
       <r>    -3.4400     0.0000    18.0000 </r>
       <r>    -3.4300     0.0000    18.0000 </r>
       <r>    -3.4200     0.0000    18.0000 </r>
       <r>    -3.4100     0.0000    18.0000 </r>
       <r>    -3.4000     0.0000    18.0000 </r>
       <r>    -3.3900     0.0000    18.0000 </r>
       <r>    -3.3800     0.0000    18.0000 </r>
       <r>    -3.3700     0.0000    18.0000 </r>
       <r>    -3.3600     0.0000    18.0000 </r>
       <r>    -3.3500     0.0000    18.0000 </r>
       <r>    -3.3400     0.0000    18.0000 </r>
       <r>    -3.3300     0.0000    18.0000 </r>
       <r>    -3.3200     0.0000    18.0000 </r>
       <r>    -3.3100     0.0000    18.0000 </r>
       <r>    -3.3000     0.0000    18.0000 </r>
       <r>    -3.2900     0.0000    18.0000 </r>
       <r>    -3.2800     0.0000    18.0000 </r>
       <r>    -3.2700     0.0000    18.0000 </r>
       <r>    -3.2600     0.0000    18.0000 </r>
       <r>    -3.2500     0.0000    18.0000 </r>
       <r>    -3.2400     0.0000    18.0000 </r>
       <r>    -3.2300     0.0000    18.0000 </r>
       <r>    -3.2200     0.0000    18.0000 </r>
       <r>    -3.2100     0.0000    18.0000 </r>
       <r>    -3.2000     0.0000    18.0000 </r>
       <r>    -3.1900     0.0000    18.0000 </r>
       <r>    -3.1800     0.0000    18.0000 </r>
       <r>    -3.1700     0.0000    18.0000 </r>
       <r>    -3.1600     0.0000    18.0000 </r>
       <r>    -3.1500     0.0000    18.0000 </r>
       <r>    -3.1400     0.0000    18.0000 </r>
       <r>    -3.1300     0.0000    18.0000 </r>
       <r>    -3.1200     0.0000    18.0000 </r>
       <r>    -3.1100     0.0000    18.0000 </r>
       <r>    -3.1000     0.0000    18.0000 </r>
       <r>    -3.0900     0.0000    18.0000 </r>
       <r>    -3.0800     0.0000    18.0000 </r>
       <r>    -3.0700     0.0000    18.0000 </r>
       <r>    -3.0600     0.0000    18.0000 </r>
       <r>    -3.0500     0.0000    18.0000 </r>
       <r>    -3.0400     0.0000    18.0000 </r>
       <r>    -3.0300     0.0000    18.0000 </r>
       <r>    -3.0200     0.0000    18.0000 </r>
       <r>    -3.0100     0.0000    18.0000 </r>
       <r>    -3.0000     0.0000    18.0000 </r>
       <r>    -2.9900     0.0001    18.0000 </r>
       <r>    -2.9800     0.0001    18.0000 </r>
       <r>    -2.9700     0.0001    18.0000 </r>
       <r>    -2.9600     0.0001    18.0000 </r>
       <r>    -2.9500     0.0002    18.0000 </r>
       <r>    -2.9400     0.0002    18.0000 </r>
       <r>    -2.9300     0.0003    18.0000 </r>
       <r>    -2.9200     0.0004    18.0000 </r>
       <r>    -2.9100     0.0005    18.0000 </r>
       <r>    -2.9000     0.0007    18.0000 </r>
       <r>    -2.8900     0.0009    18.0000 </r>
       <r>    -2.8800     0.0012    18.0000 </r>
       <r>    -2.8700     0.0015    18.0001 </r>
       <r>    -2.8600     0.0019    18.0001 </r>
       <r>    -2.8500     0.0024    18.0001 </r>
       <r>    -2.8400     0.0030    18.0001 </r>
       <r>    -2.8300     0.0038    18.0002 </r>
       <r>    -2.8200     0.0047    18.0002 </r>
       <r>    -2.8100     0.0058    18.0003 </r>
       <r>    -2.8000     0.0072    18.0004 </r>
       <r>    -2.7900     0.0089    18.0004 </r>
       <r>    -2.7800     0.0109    18.0006 </r>
       <r>    -2.7700     0.0132    18.0007 </r>
       <r>    -2.7600     0.0161    18.0008 </r>
       <r>    -2.7500     0.0194    18.0010 </r>
       <r>    -2.7400     0.0233    18.0013 </r>
       <r>    -2.7300     0.0278    18.0015 </r>
       <r>    -2.7200     0.0331    18.0019 </r>
       <r>    -2.7100     0.0392    18.0023 </r>
       <r>    -2.7000     0.0462    18.0027 </r>
       <r>    -2.6900     0.0542    18.0033 </r>
       <r>    -2.6800     0.0633    18.0039 </r>
       <r>    -2.6700     0.0736    18.0046 </r>
       <r>    -2.6600     0.0852    18.0055 </r>
       <r>    -2.6500     0.0982    18.0065 </r>
       <r>    -2.6400     0.1128    18.0076 </r>
       <r>    -2.6300     0.1288    18.0089 </r>
       <r>    -2.6200     0.1466    18.0104 </r>
       <r>    -2.6100     0.1662    18.0120 </r>
       <r>    -2.6000     0.1876    18.0139 </r>
[...]
        <r>  0.0072  0.0713  0.0134  0.0405  0.0000  0.0000  0.0000  0.0000  0.0000 </r>
        <r>  0.0072  0.0713  0.0134  0.0405  0.0000  0.0000  0.0000  0.0000  0.0000 </r>
       </set>
       <set comment="band 11">
        <r>  0.0059  0.0061  0.0000  0.0055  0.2850  0.0000  0.0990  0.0000  0.1012 </r>
        <r>  0.0007  0.0397  0.0049  0.0956  0.0000  0.0000  0.0000  0.0000  0.0000 </r>
        <r>  0.0007  0.0397  0.0049  0.0956  0.0000  0.0000  0.0000  0.0000  0.0000 </r>
       </set>
       <set comment="band 12">
        <r>  0.0000  0.0000  0.0002  0.0000  0.0000  0.2433  0.0000  0.3035  0.0000 </r>
        <r>  0.0257  0.0396  0.0135  0.0145  0.0000  0.0000  0.0000  0.0000  0.0000 </r>
        <r>  0.0257  0.0395  0.0134  0.0145  0.0000  0.0000  0.0000  0.0000  0.0000 </r>
       </set>
       <set comment="band 13">
        <r>  0.0000  0.0000  0.0027  0.0000  0.0000  0.2524  0.0000  0.1916  0.0000 </r>
        <r>  0.0025  0.0406  0.0086  0.1196  0.0000  0.0000  0.0000  0.0000  0.0000 </r>
        <r>  0.0025  0.0406  0.0086  0.1195  0.0000  0.0000  0.0000  0.0000  0.0000 </r>
       </set>
       <set comment="band 14">
        <r>  0.0060  0.0030  0.0001  0.0015  0.0011  0.0008  0.0168  0.0004  0.0029 </r>
        <r>  0.0041  0.0035  0.0013  0.0009  0.0000  0.0000  0.0000  0.0000  0.0000 </r>
        <r>  0.0072  0.0053  0.0139  0.0024  0.0000  0.0000  0.0000  0.0000  0.0000 </r>
       </set>
      </set>
      <set comment="kpoint 7">
       <set comment="band 1">
        <r>  0.0576  0.0184  0.0000  0.0166  0.0142  0.0000  0.0008  0.0000  0.0116 </r>
        <r>  0.3024  0.0013  0.0053  0.0010  0.0000  0.0000  0.0000  0.0000  0.0000 </r>
        <r>  0.3024  0.0013  0.0053  0.0010  0.0000  0.0000  0.0000  0.0000  0.0000 </r>
       </set>
       <set comment="band 2">
        <r>  0.0000  0.0000  0.0239  0.0000  0.0000  0.0400  0.0000  0.0372  0.0000 </r>
        <r>  0.3250  0.0007  0.0018  0.0006  0.0000  0.0000  0.0000  0.0000  0.0000 </r>
        <r>  0.3250  0.0007  0.0018  0.0006  0.0000  0.0000  0.0000  0.0000  0.0000 </r>
       </set>
       <set comment="band 3">
        <r>  0.0219  0.0058  0.0000  0.0251  0.1216  0.0000  0.0656  0.0000  0.1287 </r>
        <r>  0.0017  0.0523  0.0478  0.0482  0.0000  0.0000  0.0000  0.0000  0.0000 </r>
        <r>  0.0017  0.0523  0.0478  0.0482  0.0000  0.0000  0.0000  0.0000  0.0000 </r>
       </set>
       <set comment="band 4">
        <r>  0.0000  0.0000  0.0208  0.0000  0.0000  0.0062  0.0000  0.2846  0.0000 </r>
        <r>  0.0062  0.0662  0.0150  0.0979  0.0000  0.0000  0.0000  0.0000  0.0000 </r>
        <r>  0.0062  0.0662  0.0150  0.0979  0.0000  0.0000  0.0000  0.0000  0.0000 </r>
       </set>
       <set comment="band 5">
        <r>  0.1216  0.0191  0.0000  0.0235  0.0287  0.0000  0.0522  0.0000  0.0057 </r>
        <r>  0.0328  0.0238  0.1106  0.0311  0.0000  0.0000  0.0000  0.0000  0.0000 </r>
        <r>  0.0328  0.0238  0.1106  0.0311  0.0000  0.0000  0.0000  0.0000  0.0000 </r>
       </set>
       <set comment="band 6">
        <r>  0.0000  0.0000  0.0056  0.0000  0.0000  0.3934  0.0000  0.0047  0.0000 </r>
        <r>  0.0029  0.0869  0.0506  0.0342  0.0000  0.0000  0.0000  0.0000  0.0000 </r>
        <r>  0.0029  0.0869  0.0506  0.0342  0.0000  0.0000  0.0000  0.0000  0.0000 </r>
       </set>
       <set comment="band 7">
        <r>  0.0135  0.0434  0.0000  0.0225  0.0265  0.0000  0.1134  0.0000  0.1179 </r>
        <r>  0.0016  0.0793  0.0035  0.0967  0.0000  0.0000  0.0000  0.0000  0.0000 </r>
        <r>  0.0016  0.0793  0.0035  0.0967  0.0000  0.0000  0.0000  0.0000  0.0000 </r>
       </set>
       <set comment="band 8">
        <r>  0.0000  0.0000  0.0647  0.0000  0.0000  0.0064  0.0000  0.0673  0.0000 </r>
        <r>  0.0087  0.0383  0.1534  0.0652  0.0000  0.0000  0.0000  0.0000  0.0000 </r>
        <r>  0.0087  0.0383  0.1533  0.0651  0.0000  0.0000  0.0000  0.0000  0.0000 </r>
       </set>
       <set comment="band 9">
        <r>  0.0025  0.0077  0.0000  0.0016  0.2466  0.0000  0.2342  0.0000  0.1593 </r>
        <r>  0.0043  0.0375  0.0216  0.0219  0.0000  0.0000  0.0000  0.0000  0.0000 </r>
        <r>  0.0043  0.0375  0.0216  0.0219  0.0000  0.0000  0.0000  0.0000  0.0000 </r>
       </set>
       <set comment="band 10">
        <r>  0.0080  0.0088  0.0000  0.0051  0.1225  0.0000  0.0882  0.0000  0.3459 </r>
        <r>  0.0034  0.0445  0.0233  0.0137  0.0000  0.0000  0.0000  0.0000  0.0000 </r>
        <r>  0.0034  0.0445  0.0233  0.0137  0.0000  0.0000  0.0000  0.0000  0.0000 </r>
       </set>
       <set comment="band 11">
        <r>  0.0114  0.0028  0.0000  0.0006  0.3142  0.0000  0.3113  0.0000  0.0886 </r>
        <r>  0.0004  0.0205  0.0071  0.0399  0.0000  0.0000  0.0000  0.0000  0.0000 </r>
        <r>  0.0004  0.0205  0.0071  0.0398  0.0000  0.0000  0.0000  0.0000  0.0000 </r>
       </set>
       <set comment="band 12">
        <r>  0.0000  0.0000  0.0065  0.0000  0.0000  0.1057  0.0000  0.4327  0.0000 </r>
        <r>  0.0211  0.0366  0.0268  0.0058  0.0000  0.0000  0.0000  0.0000  0.0000 </r>
        <r>  0.0211  0.0366  0.0268  0.0058  0.0000  0.0000  0.0000  0.0000  0.0000 </r>
       </set>
       <set comment="band 13">
        <r>  0.0000  0.0000  0.0026  0.0000  0.0000  0.3983  0.0000  0.0885  0.0000 </r>
        <r>  0.0083  0.0430  0.0288  0.0702  0.0000  0.0000  0.0000  0.0000  0.0000 </r>
        <r>  0.0083  0.0430  0.0288  0.0702  0.0000  0.0000  0.0000  0.0000  0.0000 </r>
       </set>
       <set comment="band 14">
        <r>  0.0019  0.0106  0.0000  0.0158  0.0050  0.0000  0.0142  0.0001  0.0088 </r>
        <r>  0.0088  0.0053  0.0066  0.0011  0.0000  0.0000  0.0000  0.0000  0.0000 </r>
        <r>  0.0088  0.0051  0.0060  0.0014  0.0000  0.0000  0.0000  0.0000  0.0000 </r>
       </set>
      </set>
      <set comment="kpoint 8">
       <set comment="band 1">
        <r>  0.0208  0.0185  0.0000  0.0307  0.0314  0.0000  0.0003  0.0000  0.0158 </r>
        <r>  0.3194  0.0004  0.0059  0.0003  0.0000  0.0000  0.0000  0.0000  0.0000 </r>
        <r>  0.3195  0.0004  0.0059  0.0003  0.0000  0.0000  0.0000  0.0000  0.0000 </r>
       </set>
       <set comment="band 2">
        <r>  0.0000  0.0000  0.0071  0.0000  0.0000  0.0407  0.0000  0.0721  0.0000 </r>
        <r>  0.3311  0.0003  0.0027  0.0003  0.0000  0.0000  0.0000  0.0000  0.0000 </r>
        <r>  0.3310  0.0003  0.0027  0.0003  0.0000  0.0000  0.0000  0.0000  0.0000 </r>
       </set>
       <set comment="band 3">
        <r>  0.1026  0.0024  0.0000  0.0266  0.0645  0.0000  0.0342  0.0000  0.0433 </r>
        <r>  0.0043  0.0508  0.0087  0.1019  0.0000  0.0000  0.0000  0.0000  0.0000 </r>
        <r>  0.0043  0.0508  0.0087  0.1020  0.0000  0.0000  0.0000  0.0000  0.0000 </r>
       </set>
       <set comment="band 4">
        <r>  0.0000  0.0000  0.0350  0.0000  0.0000  0.0693  0.0000  0.1795  0.0000 </r>
        <r>  0.0071  0.0573  0.0054  0.1112  0.0000  0.0000  0.0000  0.0000  0.0000 </r>
        <r>  0.0071  0.0573  0.0054  0.1112  0.0000  0.0000  0.0000  0.0000  0.0000 </r>
       </set>
       <set comment="band 5">
        <r>  0.0162  0.0240  0.0000  0.0179  0.1402  0.0000  0.0904  0.0000  0.0527 </r>
        <r>  0.0206  0.0058  0.1295  0.0199  0.0000  0.0000  0.0000  0.0000  0.0000 </r>
        <r>  0.0206  0.0058  0.1295  0.0199  0.0000  0.0000  0.0000  0.0000  0.0000 </r>
       </set>
       <set comment="band 6">
        <r>  0.0000  0.0000  0.0256  0.0000  0.0000  0.3184  0.0000  0.0261  0.0000 </r>
        <r>  0.0020  0.1085  0.0279  0.0475  0.0000  0.0000  0.0000  0.0000  0.0000 </r>
        <r>  0.0020  0.1085  0.0279  0.0475  0.0000  0.0000  0.0000  0.0000  0.0000 </r>
       </set>
       <set comment="band 7">
        <r>  0.0233  0.0416  0.0000  0.0489  0.0014  0.0000  0.0711  0.0000  0.0230 </r>
        <r>  0.0063  0.1215  0.0320  0.0561  0.0000  0.0000  0.0000  0.0000  0.0000 </r>
        <r>  0.0063  0.1216  0.0321  0.0561  0.0000  0.0000  0.0000  0.0000  0.0000 </r>
       </set>
       <set comment="band 8">
        <r>  0.0000  0.0000  0.0363  0.0000  0.0000  0.0160  0.0000  0.1501  0.0000 </r>
        <r>  0.0119  0.0172  0.1758  0.0390  0.0000  0.0000  0.0000  0.0000  0.0000 </r>
        <r>  0.0118  0.0171  0.1757  0.0390  0.0000  0.0000  0.0000  0.0000  0.0000 </r>
       </set>
       <set comment="band 9">
        <r>  0.0034  0.0196  0.0000  0.0198  0.1840  0.0000  0.1602  0.0000  0.1971 </r>
        <r>  0.0008  0.0479  0.0257  0.0262  0.0000  0.0000  0.0000  0.0000  0.0000 </r>
        <r>  0.0008  0.0479  0.0257  0.0262  0.0000  0.0000  0.0000  0.0000  0.0000 </r>
       </set>
       <set comment="band 10">
        <r>  0.0051  0.0091  0.0000  0.0018  0.0649  0.0000  0.3342  0.0000  0.3774 </r>
        <r>  0.0002  0.0266  0.0149  0.0068  0.0000  0.0000  0.0000  0.0000  0.0000 </r>
        <r>  0.0002  0.0266  0.0149  0.0068  0.0000  0.0000  0.0000  0.0000  0.0000 </r>
       </set>
       <set comment="band 11">
        <r>  0.0154  0.0057  0.0000  0.0107  0.3789  0.0000  0.2183  0.0000  0.1808 </r>
        <r>  0.0021  0.0014  0.0171  0.0181  0.0000  0.0000  0.0000  0.0000  0.0000 </r>
        <r>  0.0021  0.0014  0.0171  0.0181  0.0000  0.0000  0.0000  0.0000  0.0000 </r>
       </set>
       <set comment="band 12">
        <r>  0.0000  0.0000  0.0063  0.0000  0.0000  0.1639  0.0000  0.3325  0.0000 </r>
        <r>  0.0091  0.0683  0.0151  0.0162  0.0000  0.0000  0.0000  0.0000  0.0000 </r>
        <r>  0.0091  0.0683  0.0151  0.0162  0.0000  0.0000  0.0000  0.0000  0.0000 </r>
       </set>
       <set comment="band 13">
        <r>  0.0000  0.0000  0.0004  0.0000  0.0000  0.3332  0.0000  0.1444  0.0000 </r>
        <r>  0.0189  0.0144  0.0666  0.0291  0.0000  0.0000  0.0000  0.0000  0.0000 </r>
        <r>  0.0189  0.0144  0.0665  0.0291  0.0000  0.0000  0.0000  0.0000  0.0000 </r>
       </set>
       <set comment="band 14">
        <r>  0.1877  0.0089  0.0000  0.0533  0.0404  0.0000  0.0061  0.0000  0.0387 </r>
        <r>  0.0001  0.0013  0.0115  0.0051  0.0000  0.0000  0.0000  0.0000  0.0000 </r>
        <r>  0.0001  0.0013  0.0115  0.0051  0.0000  0.0000  0.0000  0.0000  0.0000 </r>
       </set>
      </set>
      <set comment="kpoint 9">
       <set comment="band 1">
        <r>  0.0218  0.0321  0.0000  0.0178  0.0177  0.0000  0.0004  0.0000  0.0266 </r>
        <r>  0.3182  0.0009  0.0058  0.0003  0.0000  0.0000  0.0000  0.0000  0.0000 </r>
        <r>  0.3183  0.0009  0.0058  0.0003  0.0000  0.0000  0.0000  0.0000  0.0000 </r>
       </set>
       <set comment="band 2">
        <r>  0.0000  0.0000  0.0084  0.0000  0.0000  0.0705  0.0000  0.0375  0.0000 </r>
        <r>  0.3319  0.0005  0.0027  0.0002  0.0000  0.0000  0.0000  0.0000  0.0000 </r>
        <r>  0.3318  0.0005  0.0027  0.0002  0.0000  0.0000  0.0000  0.0000  0.0000 </r>
       </set>
       <set comment="band 3">
        <r>  0.0650  0.0098  0.0000  0.0293  0.0359  0.0000  0.0616  0.0000  0.1071 </r>
        <r>  0.0004  0.1066  0.0170  0.0360  0.0000  0.0000  0.0000  0.0000  0.0000 </r>
        <r>  0.0004  0.1066  0.0171  0.0360  0.0000  0.0000  0.0000  0.0000  0.0000 </r>
       </set>
       <set comment="band 4">
        <r>  0.0000  0.0000  0.0084  0.0000  0.0000  0.1284  0.0000  0.2208  0.0000 </r>
        <r>  0.0041  0.0958  0.0001  0.0665  0.0000  0.0000  0.0000  0.0000  0.0000 </r>
        <r>  0.0041  0.0958  0.0001  0.0665  0.0000  0.0000  0.0000  0.0000  0.0000 </r>
       </set>
       <set comment="band 5">
        <r>  0.0785  0.0205  0.0000  0.0103  0.0692  0.0000  0.0001  0.0000  0.0673 </r>
        <r>  0.0340  0.0203  0.1495  0.0151  0.0000  0.0000  0.0000  0.0000  0.0000 </r>
        <r>  0.0340  0.0203  0.1496  0.0150  0.0000  0.0000  0.0000  0.0000  0.0000 </r>
       </set>
       <set comment="band 6">
        <r>  0.0000  0.0000  0.0470  0.0000  0.0000  0.1650  0.0000  0.0582  0.0000 </r>
        <r>  0.0039  0.0671  0.0535  0.0781  0.0000  0.0000  0.0000  0.0000  0.0000 </r>
        <r>  0.0039  0.0671  0.0535  0.0781  0.0000  0.0000  0.0000  0.0000  0.0000 </r>
       </set>
       <set comment="band 7">
        <r>  0.0102  0.0636  0.0000  0.0362  0.0089  0.0000  0.1207  0.0000  0.0185 </r>
        <r>  0.0005  0.0419  0.0089  0.1233  0.0000  0.0000  0.0000  0.0000  0.0000 </r>
        <r>  0.0005  0.0419  0.0089  0.1233  0.0000  0.0000  0.0000  0.0000  0.0000 </r>
       </set>
       <set comment="band 8">
        <r>  0.0000  0.0000  0.0523  0.0000  0.0000  0.0592  0.0000  0.0753  0.0000 </r>
        <r>  0.0130  0.0383  0.1559  0.0459  0.0000  0.0000  0.0000  0.0000  0.0000 </r>
        <r>  0.0130  0.0383  0.1559  0.0459  0.0000  0.0000  0.0000  0.0000  0.0000 </r>
       </set>
       <set comment="band 9">
        <r>  0.0074  0.0001  0.0000  0.0000  0.2536  0.0000  0.1475  0.0000  0.2690 </r>
        <r>  0.0010  0.0277  0.0016  0.0448  0.0000  0.0000  0.0000  0.0000  0.0000 </r>
        <r>  0.0010  0.0276  0.0016  0.0448  0.0000  0.0000  0.0000  0.0000  0.0000 </r>
       </set>
       <set comment="band 10">
        <r>  0.0074  0.0139  0.0000  0.0052  0.0463  0.0000  0.5214  0.0000  0.1099 </r>
        <r>  0.0006  0.0275  0.0274  0.0128  0.0000  0.0000  0.0000  0.0000  0.0000 </r>
        <r>  0.0006  0.0275  0.0274  0.0128  0.0000  0.0000  0.0000  0.0000  0.0000 </r>
       </set>
       <set comment="band 11">
        <r>  0.0246  0.0117  0.0000  0.0045  0.4757  0.0000  0.0544  0.0000  0.2307 </r>
        <r>  0.0023  0.0029  0.0261  0.0081  0.0000  0.0000  0.0000  0.0000  0.0000 </r>
        <r>  0.0023  0.0029  0.0261  0.0081  0.0000  0.0000  0.0000  0.0000  0.0000 </r>
       </set>
       <set comment="band 12">
        <r>  0.0000  0.0000  0.0020  0.0000  0.0000  0.1394  0.0000  0.3941  0.0000 </r>
        <r>  0.0076  0.0257  0.0088  0.0394  0.0000  0.0000  0.0000  0.0000  0.0000 </r>
        <r>  0.0076  0.0257  0.0088  0.0394  0.0000  0.0000  0.0000  0.0000  0.0000 </r>
       </set>
       <set comment="band 13">
        <r>  0.0000  0.0000  0.0016  0.0000  0.0000  0.3946  0.0000  0.1490  0.0000 </r>
        <r>  0.0208  0.0094  0.0755  0.0248  0.0000  0.0000  0.0000  0.0000  0.0000 </r>
        <r>  0.0208  0.0094  0.0755  0.0247  0.0000  0.0000  0.0000  0.0000  0.0000 </r>
       </set>
       <set comment="band 14">
        <r>  0.1321  0.0179  0.0000  0.0489  0.0233  0.0000  0.0105  0.0000  0.0694 </r>
        <r>  0.0001  0.0023  0.0278  0.0034  0.0000  0.0000  0.0000  0.0000  0.0000 </r>
        <r>  0.0001  0.0023  0.0278  0.0034  0.0000  0.0000  0.0000  0.0000  0.0000 </r>
       </set>
      </set>
      <set comment="kpoint 10">
       <set comment="band 1">
        <r>  0.0037  0.0239  0.0000  0.0333  0.0320  0.0000  0.0001  0.0000  0.0232 </r>
        <r>  0.3267  0.0001  0.0062  0.0000  0.0000  0.0000  0.0000  0.0000  0.0000 </r>
        <r>  0.3269  0.0001  0.0062  0.0000  0.0000  0.0000  0.0000  0.0000  0.0000 </r>
       </set>
       <set comment="band 2">
        <r>  0.0000  0.0000  0.0012  0.0000  0.0000  0.0490  0.0000  0.0725  0.0000 </r>
        <r>  0.3361  0.0001  0.0031  0.0001  0.0000  0.0000  0.0000  0.0000  0.0000 </r>
        <r>  0.3360  0.0001  0.0031  0.0001  0.0000  0.0000  0.0000  0.0000  0.0000 </r>
       </set>
       <set comment="band 3">
        <r>  0.0000  0.0000  0.0052  0.0000  0.0000  0.1909  0.0000  0.1716  0.0000 </r>
        <r>  0.0014  0.0682  0.0002  0.0892  0.0000  0.0000  0.0000  0.0000  0.0000 </r>
        <r>  0.0014  0.0682  0.0002  0.0893  0.0000  0.0000  0.0000  0.0000  0.0000 </r>
       </set>
       <set comment="band 4">
        <r>  0.1158  0.0140  0.0000  0.0182  0.0234  0.0000  0.0697  0.0000  0.0119 </r>
        <r>  0.0010  0.0456  0.0008  0.1277  0.0000  0.0000  0.0000  0.0000  0.0000 </r>
        <r>  0.0010  0.0456  0.0008  0.1277  0.0000  0.0000  0.0000  0.0000  0.0000 </r>
       </set>
       <set comment="band 5">
        <r>  0.0098  0.0426  0.0000  0.0147  0.1350  0.0000  0.0570  0.0000  0.0583 </r>
        <r>  0.0128  0.0514  0.0918  0.0171  0.0000  0.0000  0.0000  0.0000  0.0000 </r>
        <r>  0.0128  0.0514  0.0919  0.0171  0.0000  0.0000  0.0000  0.0000  0.0000 </r>
       </set>
       <set comment="band 6">
        <r>  0.0254  0.0245  0.0000  0.0604  0.0232  0.0000  0.0166  0.0000  0.0498 </r>
        <r>  0.0174  0.0805  0.0843  0.0298  0.0000  0.0000  0.0000  0.0000  0.0000 </r>
        <r>  0.0174  0.0805  0.0843  0.0297  0.0000  0.0000  0.0000  0.0000  0.0000 </r>
       </set>
       <set comment="band 7">
        <r>  0.0000  0.0000  0.0880  0.0000  0.0000  0.0674  0.0000  0.0296  0.0000 </r>
        <r>  0.0021  0.1084  0.0206  0.0916  0.0000  0.0000  0.0000  0.0000  0.0000 </r>
        <r>  0.0021  0.1084  0.0206  0.0916  0.0000  0.0000  0.0000  0.0000  0.0000 </r>
       </set>
       <set comment="band 8">
        <r>  0.0000  0.0000  0.0202  0.0000  0.0000  0.0930  0.0000  0.1434  0.0000 </r>
        <r>  0.0174  0.0143  0.1843  0.0176  0.0000  0.0000  0.0000  0.0000  0.0000 </r>
        <r>  0.0174  0.0143  0.1843  0.0176  0.0000  0.0000  0.0000  0.0000  0.0000 </r>
       </set>
       <set comment="band 9">
        <r>  0.0039  0.0023  0.0000  0.0065  0.3005  0.0000  0.0598  0.0000  0.3201 </r>
        <r>  0.0000  0.0395  0.0037  0.0253  0.0000  0.0000  0.0000  0.0000  0.0000 </r>
        <r>  0.0000  0.0395  0.0037  0.0253  0.0000  0.0000  0.0000  0.0000  0.0000 </r>
       </set>
       <set comment="band 10">
        <r>  0.0367  0.0018  0.0000  0.0007  0.0402  0.0000  0.7004  0.0000  0.0491 </r>
        <r>  0.0000  0.0133  0.0025  0.0204  0.0000  0.0000  0.0000  0.0000  0.0000 </r>
        <r>  0.0000  0.0133  0.0025  0.0204  0.0000  0.0000  0.0000  0.0000  0.0000 </r>
       </set>
       <set comment="band 11">
        <r>  0.0000  0.0000  0.0013  0.0000  0.0000  0.3130  0.0000  0.1959  0.0000 </r>
        <r>  0.0008  0.0487  0.0001  0.0299  0.0000  0.0000  0.0000  0.0000  0.0000 </r>
        <r>  0.0008  0.0487  0.0001  0.0299  0.0000  0.0000  0.0000  0.0000  0.0000 </r>
       </set>
       <set comment="band 12">
        <r>  0.0025  0.0104  0.0000  0.0214  0.2945  0.0000  0.0103  0.0000  0.3826 </r>
        <r>  0.0037  0.0009  0.0672  0.0012  0.0000  0.0000  0.0000  0.0000  0.0000 </r>
        <r>  0.0037  0.0009  0.0672  0.0012  0.0000  0.0000  0.0000  0.0000  0.0000 </r>
       </set>
       <set comment="band 13">
        <r>  0.0000  0.0000  0.0003  0.0000  0.0000  0.2358  0.0000  0.3392  0.0000 </r>
        <r>  0.0266  0.0010  0.0995  0.0019  0.0000  0.0000  0.0000  0.0000  0.0000 </r>
        <r>  0.0266  0.0010  0.0995  0.0019  0.0000  0.0000  0.0000  0.0000  0.0000 </r>
       </set>
       <set comment="band 14">
        <r>  0.1174  0.0533  0.0000  0.0641  0.0537  0.0000  0.0084  0.0000  0.0326 </r>
        <r>  0.0003  0.0020  0.0027  0.0043  0.0000  0.0000  0.0000  0.0000  0.0000 </r>
        <r>  0.0003  0.0020  0.0027  0.0043  0.0000  0.0000  0.0000  0.0000  0.0000 </r>
       </set>
      </set>
     </set>
    </set>
   </array>
  </projected>
 </calculation>
 <structure name="finalpos" >
  <crystal>
   <varray name="basis" >
    <v>       3.19031573       0.00000000       0.00000000 </v>
    <v>      -1.59515786       2.76289447       0.00000000 </v>
    <v>       0.00000000       0.00000000      38.87900430 </v>
   </varray>
   <i name="volume">    342.69920433 </i>
   <varray name="rec_basis" >
    <v>       0.31344860       0.18096963       0.00000000 </v>
    <v>       0.00000000       0.36193927       0.00000000 </v>
    <v>       0.00000000       0.00000000       0.02572082 </v>
   </varray>
  </crystal>
  <varray name="positions" >
   <v>       0.33333300       0.66666700       0.09567506 </v>
   <v>       0.66666700       0.33333300       0.05542495 </v>
   <v>       0.66666600       0.33333300       0.13592518 </v>
  </varray>
 </structure>
</modeling>
