       N       E                     dE             d eps       ncg     rms          rms(c)
DAV:   1     0.191420499360E+03    0.19142E+03   -0.14846E+04  1232   0.128E+03
DAV:   2    -0.294461049183E+02   -0.22087E+03   -0.21440E+03  1660   0.267E+02
DAV:   3    -0.463227348128E+02   -0.16877E+02   -0.16790E+02  1622   0.720E+01
DAV:   4    -0.467712892192E+02   -0.44855E+00   -0.44785E+00  1664   0.129E+01
DAV:   5    -0.467835016703E+02   -0.12212E-01   -0.12209E-01  1688   0.200E+00    0.973E+00
RMM:   6    -0.443989416060E+02    0.23846E+01   -0.24126E+01  1380   0.195E+01    0.334E+00
RMM:   7    -0.436722625250E+02    0.72668E+00   -0.19162E+00  1344   0.558E+00    0.179E+00
RMM:   8    -0.436143793205E+02    0.57883E-01   -0.84259E-01  1397   0.328E+00    0.812E-01
RMM:   9    -0.436045208473E+02    0.98585E-02   -0.26994E-01  1447   0.217E+00    0.547E-01
RMM:  10    -0.435897250396E+02    0.14796E-01   -0.56142E-02  1457   0.103E+00    0.604E-02
RMM:  11    -0.435899477981E+02   -0.22276E-03   -0.32072E-03  1605   0.208E-01    0.284E-02
RMM:  12    -0.435900410442E+02   -0.93246E-04   -0.33481E-04  1584   0.790E-02    0.154E-02
RMM:  13    -0.435900560304E+02   -0.14986E-04   -0.25858E-04  1617   0.621E-02    0.191E-02
RMM:  14    -0.435900411957E+02    0.14835E-04   -0.70962E-05  1548   0.355E-02    0.180E-03
RMM:  15    -0.435900422394E+02   -0.10437E-05   -0.12983E-05  1362   0.109E-02    0.383E-03
RMM:  16    -0.435900415442E+02    0.69519E-06   -0.24750E-06  1018   0.775E-03
   1 F= -.45045901E+02 E0= -.45045901E+02  d E =0.000000E+00
