 vasp.5.4.4.18Apr17-6-g9f103f2a35 (build Jun 30 2017 11:15:00) complex          
  
 executed on    STALLO_VASP_5.4.4 date 2019.11.08  15:16:38
 running on    4 total cores
 distrk:  each k-point on    4 cores,    1 groups
 distr:  one band on NCORES_PER_BAND=   2 cores,    2 groups


--------------------------------------------------------------------------------------------------------


 INCAR:
 POTCAR:   PAW_PBE Mo 08Apr2002                   
 POTCAR:    PAW_PBE S 17Jan2003                   
 POTCAR:   PAW_PBE Mo 08Apr2002                   
   VRHFIN =Mo: 4p5s4d                                                           
   LEXCH  = PE                                                                  
   EATOM  =   217.5180 eV,   15.9871 Ry                                         
                                                                                
   TITEL  = PAW_PBE Mo 08Apr2002                                                
   LULTRA =        F    use ultrasoft PP ?                                      
   IUNSCR =        1    unscreen: 0-lin 1-nonlin 2-no                           
   RPACOR =    2.200    partial core radius                                     
   POMASS =   95.940; ZVAL   =    6.000    mass and valenz                      
   RCORE  =    2.750    outmost cutoff radius                                   
   RWIGS  =    2.750; RWIGS  =    1.455    wigner-seitz radius (au A)           
   ENMAX  =  224.584; ENMIN  =  168.438 eV                                      
   RCLOC  =    2.111    cutoff for local pot                                    
   LCOR   =        T    correct aug charges                                     
   LPAW   =        T    paw PP                                                  
   EAUG   =  345.278                                                            
   DEXC   =    -.088                                                            
   RMAX   =    3.077    core radius for proj-oper                               
   RAUG   =    1.300    factor for augmentation sphere                          
   RDEP   =    2.815    radius for radial grids                                 
   QCUT   =   -4.063; QGAM   =    8.126    optimization parameters              
                                                                                
   Description                                                                  
     l     E      TYP  RCUT    TYP  RCUT                                        
     2   .000     23  2.500                                                     
     2   .000     23  2.500                                                     
     0   .000     23  2.600                                                     
     0  1.000     23  2.600                                                     
     1   .400     23  2.750                                                     
     1  2.000     23  2.750                                                     
     3   .000      7   .000                                                     
  local pseudopotential read in
  partial core-charges read in
  atomic valenz-charges read in
  non local Contribution for L=           2  read in
    real space projection operators read in
  non local Contribution for L=           2  read in
    real space projection operators read in
  non local Contribution for L=           0  read in
    real space projection operators read in
  non local Contribution for L=           0  read in
    real space projection operators read in
  non local Contribution for L=           1  read in
    real space projection operators read in
  non local Contribution for L=           1  read in
    real space projection operators read in
    PAW grid and wavefunctions read in
 
   number of l-projection  operators is LMAX  =           6
   number of lm-projection operators is LMMAX =          18
 
 POTCAR:    PAW_PBE S 17Jan2003                   
   VRHFIN =S : s2p4                                                             
   LEXCH  = PE                                                                  
   EATOM  =   276.8230 eV,   20.3459 Ry                                         
                                                                                
   TITEL  = PAW_PBE S 17Jan2003                                                 
   LULTRA =        F    use ultrasoft PP ?                                      
   IUNSCR =        1    unscreen: 0-lin 1-nonlin 2-no                           
   RPACOR =    1.500    partial core radius                                     
   POMASS =   32.066; ZVAL   =    6.000    mass and valenz                      
   RCORE  =    1.900    outmost cutoff radius                                   
   RWIGS  =    2.200; RWIGS  =    1.164    wigner-seitz radius (au A)           
   ENMAX  =  280.000; ENMIN  =  194.016 eV                                      
   ICORE  =        2    local potential                                         
   LCOR   =        T    correct aug charges                                     
   LPAW   =        T    paw PP                                                  
   EAUG   =  335.092                                                            
   DEXC   =     .000                                                            
   RMAX   =    2.867    core radius for proj-oper                               
   RAUG   =    1.300    factor for augmentation sphere                          
   RDEP   =    1.954    radius for radial grids                                 
   QCUT   =   -4.360; QGAM   =    8.721    optimization parameters              
                                                                                
   Description                                                                  
     l     E      TYP  RCUT    TYP  RCUT                                        
     0   .000     23  1.900                                                     
     0   .000     23  1.900                                                     
     1   .000     23  1.900                                                     
     1   .000     23  1.900                                                     
     2   .000     23  1.900                                                     
  local pseudopotential read in
  partial core-charges read in
  atomic valenz-charges read in
  non local Contribution for L=           0  read in
    real space projection operators read in
  non local Contribution for L=           0  read in
    real space projection operators read in
  non local Contribution for L=           1  read in
    real space projection operators read in
  non local Contribution for L=           1  read in
    real space projection operators read in
    PAW grid and wavefunctions read in
 
   number of l-projection  operators is LMAX  =           4
   number of lm-projection operators is LMMAX =           8
 
 PAW_PBE Mo 08Apr2002                   :
 energy of atom  1       EATOM= -217.5180
 kinetic energy error for atom=    0.0023 (will be added to EATOM!!)
  PAW_PBE S 17Jan2003                   :
 energy of atom  2       EATOM= -276.8230
 kinetic energy error for atom=    0.0033 (will be added to EATOM!!)
 
 
 POSCAR: unknown system                          
  positions in direct lattice
  velocities in cartesian coordinates
 exchange correlation table for  LEXCH =        8
   RHO(1)=    0.500       N(1)  =     2000
   RHO(2)=  100.500       N(2)  =     4000
 


--------------------------------------------------------------------------------------------------------


 ion  position               nearest neighbor table
   1  0.333  0.667  0.250-   4 2.41   5 2.41   4 2.41   5 2.41   5 2.41   4 2.41
   2  0.667  0.333  0.750-   3 2.41   6 2.41   3 2.41   6 2.41   6 2.41   3 2.41
   3  0.333  0.667  0.867-   2 2.41   2 2.41   2 2.41
   4  0.667  0.333  0.133-   1 2.41   1 2.41   1 2.41
   5  0.667  0.333  0.367-   1 2.41   1 2.41   1 2.41
   6  0.333  0.667  0.633-   2 2.41   2 2.41   2 2.41
 
  LATTYP: Found a hexagonal cell.
 ALAT       =     3.1922739082
 C/A-ratio  =     4.1605291851
  
  Lattice vectors:
  
 A1 = (   3.1922737479,   0.0000000000,   0.0000000000)
 A2 = (  -1.5961368740,   2.7645903466,   0.0000000000)
 A3 = (   0.0000000000,   0.0000000000,  13.2815487621)


Analysis of symmetry for initial positions (statically):
=====================================================================
 Subroutine PRICEL returns:
 Original cell was already a primitive cell.
 

 Routine SETGRP: Setting up the symmetry group for a 
 hexagonal supercell.


 Subroutine GETGRP returns: Found 24 space group operations
 (whereof 12 operations were pure point group operations)
 out of a pool of 24 trial point group operations.


The static configuration has the point symmetry D_3d.
 The point group associated with its full space group is D_6h.


Analysis of symmetry for dynamics (positions and initial velocities):
=====================================================================
 Subroutine PRICEL returns:
 Original cell was already a primitive cell.
 

 Routine SETGRP: Setting up the symmetry group for a 
 hexagonal supercell.


 Subroutine GETGRP returns: Found 24 space group operations
 (whereof 12 operations were pure point group operations)
 out of a pool of 24 trial point group operations.


The dynamic configuration has the point symmetry D_3d.
 The point group associated with its full space group is D_6h.


 Subroutine INISYM returns: Found 24 space group operations
 (whereof 12 operations are pure point group operations),
 and found     1 'primitive' translations

 
 
 KPOINTS: k-density: 5.0                          

Automatic generation of k-mesh.
Space group operators:
 irot       det(A)        alpha          n_x          n_y          n_z        tau_x        tau_y        tau_z
    1     1.000000     0.000000     1.000000     0.000000     0.000000     0.000000     0.000000     0.000000
    2    -1.000000     0.000000     1.000000     0.000000     0.000000     0.000000     0.000000     0.000000
    3     1.000000   120.000000     0.000000     0.000000    -1.000000     0.000000     0.000000     0.000000
    4    -1.000000   120.000000     0.000000     0.000000    -1.000000     0.000000     0.000000     0.000000
    5     1.000000   120.000000     0.000000     0.000000     1.000000     0.000000     0.000000     0.000000
    6    -1.000000   120.000000     0.000000     0.000000     1.000000     0.000000     0.000000     0.000000
    7     1.000000   180.000000     1.000000    -0.000000     0.000000     0.000000     0.000000     0.000000
    8    -1.000000   180.000000     1.000000    -0.000000     0.000000     0.000000     0.000000     0.000000
    9     1.000000   179.999999     0.500000    -0.866025     0.000000     0.000000     0.000000     0.000000
   10    -1.000000   179.999999     0.500000    -0.866025     0.000000     0.000000     0.000000     0.000000
   11     1.000000   180.000000    -0.500000    -0.866025     0.000000     0.000000     0.000000     0.000000
   12    -1.000000   180.000000    -0.500000    -0.866025     0.000000     0.000000     0.000000     0.000000
   13     1.000000    60.000000     0.000000     0.000000    -1.000000     0.000001     0.000000     0.500000
   14    -1.000000    60.000000     0.000000     0.000000    -1.000000     0.000001     0.000000     0.500000
   15     1.000000   180.000000     0.000000     0.000000     1.000000     0.000000     0.000000     0.500000
   16    -1.000000   180.000000     0.000000     0.000000     1.000000     0.000000     0.000000     0.500000
   17     1.000000    60.000000     0.000000     0.000000     1.000000     0.000000     0.000000     0.500000
   18    -1.000000    60.000000     0.000000     0.000000     1.000000     0.000000     0.000000     0.500000
   19     1.000000   180.000000     0.866025    -0.500000     0.000000     0.000000     0.000000     0.500000
   20    -1.000000   180.000000     0.866025    -0.500000     0.000000     0.000000     0.000000     0.500000
   21     1.000000   180.000000     0.000000    -1.000000     0.000000     0.000001     0.000000     0.500000
   22    -1.000000   180.000000     0.000000    -1.000000     0.000000     0.000001     0.000000     0.500000
   23     1.000000   180.000000     0.866025     0.500000     0.000000     0.000000     0.000000     0.500000
   24    -1.000000   180.000000     0.866025     0.500000     0.000000     0.000000     0.000000     0.500000
 
 Subroutine IBZKPT returns following result:
 ===========================================
 
 Found     28 irreducible k-points:
 
 Following reciprocal coordinates:
            Coordinates               Weight
  0.000000  0.000000  0.000000      1.000000
  0.100000  0.000000  0.000000      6.000000
  0.200000  0.000000  0.000000      6.000000
  0.300000  0.000000  0.000000      6.000000
  0.400000  0.000000  0.000000      6.000000
  0.500000  0.000000  0.000000      3.000000
  0.100000  0.100000  0.000000      6.000000
  0.200000  0.100000  0.000000     12.000000
  0.300000  0.100000  0.000000     12.000000
  0.400000  0.100000  0.000000     12.000000
  0.200000  0.200000  0.000000      6.000000
  0.300000  0.200000  0.000000     12.000000
  0.400000  0.200000  0.000000      6.000000
  0.300000  0.300000  0.000000      6.000000
  0.000000  0.000000  0.333333      2.000000
  0.100000  0.000000  0.333333     12.000000
  0.200000  0.000000  0.333333     12.000000
  0.300000  0.000000  0.333333     12.000000
  0.400000  0.000000  0.333333     12.000000
  0.500000  0.000000  0.333333      6.000000
  0.100000  0.100000  0.333333     12.000000
  0.200000  0.100000  0.333333     24.000000
  0.300000  0.100000  0.333333     24.000000
  0.400000  0.100000  0.333333     24.000000
  0.200000  0.200000  0.333333     12.000000
  0.300000  0.200000  0.333333     24.000000
  0.400000  0.200000  0.333333     12.000000
  0.300000  0.300000  0.333333     12.000000
 
 Following cartesian coordinates:
            Coordinates               Weight
  0.000000  0.000000  0.000000      1.000000
  0.031326  0.018086  0.000000      6.000000
  0.062651  0.036172  0.000000      6.000000
  0.093977  0.054258  0.000000      6.000000
  0.125303  0.072343  0.000000      6.000000
  0.156628  0.090429  0.000000      3.000000
  0.031326  0.054258  0.000000      6.000000
  0.062651  0.072343  0.000000     12.000000
  0.093977  0.090429  0.000000     12.000000
  0.125303  0.108515  0.000000     12.000000
  0.062651  0.108515  0.000000      6.000000
  0.093977  0.126601  0.000000     12.000000
  0.125303  0.144687  0.000000      6.000000
  0.093977  0.162773  0.000000      6.000000
  0.000000  0.000000  0.025097      2.000000
  0.031326  0.018086  0.025097     12.000000
  0.062651  0.036172  0.025097     12.000000
  0.093977  0.054258  0.025097     12.000000
  0.125303  0.072343  0.025097     12.000000
  0.156628  0.090429  0.025097      6.000000
  0.031326  0.054258  0.025097     12.000000
  0.062651  0.072343  0.025097     24.000000
  0.093977  0.090429  0.025097     24.000000
  0.125303  0.108515  0.025097     24.000000
  0.062651  0.108515  0.025097     12.000000
  0.093977  0.126601  0.025097     24.000000
  0.125303  0.144687  0.025097     12.000000
  0.093977  0.162773  0.025097     12.000000
 
 TETIRR: Found    265 inequivalent tetrahedra from     1800


--------------------------------------------------------------------------------------------------------




 Dimension of arrays:
   k-points           NKPTS =     28   k-points in BZ     NKDIM =     28   number of bands    NBANDS=     22
   number of dos      NEDOS =    301   number of ions     NIONS =      6
   non local maximal  LDIM  =      6   non local SUM 2l+1 LMDIM =     18
   total plane-waves  NPLWV =  55296
   max r-space proj   IRMAX =      1   max aug-charges    IRDMAX=  30485
   dimension x,y,z NGX =    24 NGY =   24 NGZ =   96
   dimension x,y,z NGXF=    48 NGYF=   48 NGZF=  192
   support grid    NGXF=    48 NGYF=   48 NGZF=  192
   ions per type =               2   4
   NGX,Y,Z   is equivalent  to a cutoff of  12.50, 12.50, 12.02 a.u.
   NGXF,Y,Z  is equivalent  to a cutoff of  25.00, 25.00, 24.03 a.u.

 SYSTEM =  unknown system                          
 POSCAR =  unknown system                          

 Startparameter for this run:
   NWRITE =      2    write-flag & timer
   PREC   = accura    normal or accurate (medium, high low for compatibility)
   ISTART =      0    job   : 0-new  1-cont  2-samecut
   ICHARG =      2    charge: 1-file 2-atom 10-const
   ISPIN  =      1    spin polarized calculation?
   LNONCOLLINEAR =      F non collinear calculations
   LSORBIT =      F    spin-orbit coupling
   INIWAV =      1    electr: 0-lowe 1-rand  2-diag
   LASPH  =      F    aspherical Exc in radial PAW
   METAGGA=      F    non-selfconsistent MetaGGA calc.

 Electronic Relaxation 1
   ENCUT  =  450.0 eV  33.07 Ry    5.75 a.u.   5.52  5.52 22.97*2*pi/ulx,y,z
   ENINI  =  450.0     initial cutoff
   ENAUG  =  345.3 eV  augmentation charge cutoff
   NELM   =     60;   NELMIN=  4; NELMDL= -5     # of ELM steps 
   EDIFF  = 0.1E-05   stopping-criterion for ELM
   LREAL  =      F    real-space projection
   NLSPLINE    = F    spline interpolate recip. space projectors
   LCOMPAT=      F    compatible to vasp.4.4
   GGA_COMPAT  = T    GGA compatible to vasp.4.4-vasp.4.6
   LMAXPAW     = -100 max onsite density
   LMAXMIX     =    2 max onsite mixed and CHGCAR
   VOSKOWN=      0    Vosko Wilk Nusair interpolation
   ROPT   =    0.00000   0.00000
 Ionic relaxation
   EDIFFG = 0.1E-04   stopping-criterion for IOM
   NSW    =      0    number of steps for IOM
   NBLOCK =      1;   KBLOCK =      1    inner block; outer block 
   IBRION =     -1    ionic relax: 0-MD 1-quasi-New 2-CG
   NFREE  =      0    steps in history (QN), initial steepest desc. (CG)
   ISIF   =      2    stress and relaxation
   IWAVPR =     10    prediction:  0-non 1-charg 2-wave 3-comb
   ISYM   =      2    0-nonsym 1-usesym 2-fastsym
   LCORR  =      T    Harris-Foulkes like correction to forces

   POTIM  = 0.5000    time-step for ionic-motion
   TEIN   =    0.0    initial temperature
   TEBEG  =    0.0;   TEEND  =   0.0 temperature during run
   SMASS  =  -3.00    Nose mass-parameter (am)
   estimated Nose-frequenzy (Omega)   =  0.10E-29 period in steps =****** mass=  -0.233E-27a.u.
   SCALEE = 1.0000    scale energy and forces
   NPACO  =    256;   APACO  = 16.0  distance and # of slots for P.C.
   PSTRESS=    0.0 pullay stress

  Mass of Ions in am
   POMASS =  95.94 32.07
  Ionic Valenz
   ZVAL   =   6.00  6.00
  Atomic Wigner-Seitz radii
   RWIGS  =  -1.00 -1.00
  virtual crystal weights 
   VCA    =   1.00  1.00
   NELECT =      36.0000    total number of electrons
   NUPDOWN=      -1.0000    fix difference up-down

 DOS related values:
   EMIN   =  10.00;   EMAX   =-10.00  energy-range for DOS
   EFERMI =   0.00
   ISMEAR =    -5;   SIGMA  =   0.20  broadening in eV -4-tet -1-fermi 0-gaus

 Electronic relaxation 2 (details)
   IALGO  =     68    algorithm
   LDIAG  =      T    sub-space diagonalisation (order eigenvalues)
   LSUBROT=      F    optimize rotation matrix (better conditioning)
   TURBO    =      0    0=normal 1=particle mesh
   IRESTART =      0    0=no restart 2=restart with 2 vectors
   NREBOOT  =      0    no. of reboots
   NMIN     =      0    reboot dimension
   EREF     =   0.00    reference energy to select bands
   IMIX   =      4    mixing-type and parameters
     AMIX     =   0.40;   BMIX     =  1.00
     AMIX_MAG =   1.60;   BMIX_MAG =  1.00
     AMIN     =   0.10
     WC   =   100.;   INIMIX=   1;  MIXPRE=   1;  MAXMIX= -45

 Intra band minimization:
   WEIMIN = 0.0000     energy-eigenvalue tresh-hold
   EBREAK =  0.11E-07  absolut break condition
   DEPER  =   0.30     relativ break condition  

   TIME   =   0.40     timestep for ELM

  volume/ion in A,a.u.               =      19.54       131.83
  Fermi-wavevector in a.u.,A,eV,Ry     =   1.104543  2.087283 16.599302  1.220014
  Thomas-Fermi vector in A             =   2.241017
 
 Write flags
   LWAVE        =      F    write WAVECAR
   LDOWNSAMPLE  =      F    k-point downsampling of WAVECAR
   LCHARG       =      T    write CHGCAR
   LVTOT        =      F    write LOCPOT, total local potential
   LVHAR        =      F    write LOCPOT, Hartree potential only
   LELF         =      F    write electronic localiz. function (ELF)
   LORBIT       =      0    0 simple, 1 ext, 2 COOP (PROOUT), +10 PAW based schemes


 Dipole corrections
   LMONO  =      F    monopole corrections only (constant potential shift)
   LDIPOL =      F    correct potential (dipole corrections)
   IDIPOL =      0    1-x, 2-y, 3-z, 4-all directions 
   EPSILON=  1.0000000 bulk dielectric constant

 Exchange correlation treatment:
   GGA     =    --    GGA type
   LEXCH   =     8    internal setting for exchange type
   VOSKOWN=      0    Vosko Wilk Nusair interpolation
   LHFCALC =     F    Hartree Fock is set to
   LHFONE  =     F    Hartree Fock one center treatment
   AEXX    =    0.0000 exact exchange contribution

 Linear response parameters
   LEPSILON=     F    determine dielectric tensor
   LRPA    =     F    only Hartree local field effects (RPA)
   LNABLA  =     F    use nabla operator in PAW spheres
   LVEL    =     F    velocity operator in full k-point grid
   LINTERFAST=   F  fast interpolation
   KINTER  =     0    interpolate to denser k-point grid
   CSHIFT  =0.1000    complex shift for real part using Kramers Kronig
   OMEGAMAX=  -1.0    maximum frequency
   DEG_THRESHOLD= 0.2000000E-02 threshold for treating states as degnerate
   RTIME   =   -0.100 relaxation time in fs
  (WPLASMAI=    0.000 imaginary part of plasma frequency in eV, 0.658/RTIME)
   DFIELD  = 0.0000000 0.0000000 0.0000000 field for delta impulse in time
 
 Orbital magnetization related:
   ORBITALMAG=     F  switch on orbital magnetization
   LCHIMAG   =     F  perturbation theory with respect to B field
   DQ        =  0.001000  dq finite difference perturbation B field
   LLRAUG    =     F  two centre corrections for induced B field



--------------------------------------------------------------------------------------------------------


 Static calculation
 charge density and potential will be updated during run
 non-spin polarized calculation
 RMM-DIIS sequential band-by-band and
  variant of blocked Davidson during initial phase
 perform sub-space diagonalisation
    before iterative eigenvector-optimisation
 modified Broyden-mixing scheme, WC =      100.0
 initial mixing is a Kerker type mixing with AMIX =  0.4000 and BMIX =      1.0000
 Hartree-type preconditioning will be used
 using additional bands            4
 reciprocal scheme for non local part
 use partial core corrections
 calculate Harris-corrections to forces 
   (improved forces if not selfconsistent)
 use gradient corrections 
 use of overlap-Matrix (Vanderbilt PP)
 Fermi weights with tetrahedron method with Bloechl corrections


--------------------------------------------------------------------------------------------------------


  energy-cutoff  :      450.00
  volume of cell :      117.21
      direct lattice vectors                 reciprocal lattice vectors
     3.192273748  0.000000000  0.000000000     0.313256343  0.180858622  0.000000000
    -1.596136874  2.764590347  0.000000000    -0.000000000  0.361717244  0.000000000
     0.000000000  0.000000000 13.281548762     0.000000000  0.000000000  0.075292424

  length of vectors
     3.192273748  3.192273908 13.281548762     0.361717262  0.361717244  0.075292424


 
 k-points in units of 2pi/SCALE and weight: k-density: 5.0                          
   0.00000000  0.00000000  0.00000000       0.003
   0.03132563  0.01808586  0.00000000       0.020
   0.06265127  0.03617172  0.00000000       0.020
   0.09397690  0.05425759  0.00000000       0.020
   0.12530254  0.07234345  0.00000000       0.020
   0.15662817  0.09042931  0.00000000       0.010
   0.03132563  0.05425759  0.00000000       0.020
   0.06265127  0.07234345  0.00000000       0.040
   0.09397690  0.09042931  0.00000000       0.040
   0.12530254  0.10851517  0.00000000       0.040
   0.06265127  0.10851517  0.00000000       0.020
   0.09397690  0.12660104  0.00000000       0.040
   0.12530254  0.14468690  0.00000000       0.020
   0.09397690  0.16277276  0.00000000       0.020
   0.00000000  0.00000000  0.02509747       0.007
   0.03132563  0.01808586  0.02509747       0.040
   0.06265127  0.03617172  0.02509747       0.040
   0.09397690  0.05425759  0.02509747       0.040
   0.12530254  0.07234345  0.02509747       0.040
   0.15662817  0.09042931  0.02509747       0.020
   0.03132563  0.05425759  0.02509747       0.040
   0.06265127  0.07234345  0.02509747       0.080
   0.09397690  0.09042931  0.02509747       0.080
   0.12530254  0.10851517  0.02509747       0.080
   0.06265127  0.10851517  0.02509747       0.040
   0.09397690  0.12660104  0.02509747       0.080
   0.12530254  0.14468690  0.02509747       0.040
   0.09397690  0.16277276  0.02509747       0.040
 
 k-points in reciprocal lattice and weights: k-density: 5.0                          
   0.00000000  0.00000000  0.00000000       0.003
   0.10000000  0.00000000  0.00000000       0.020
   0.20000000  0.00000000  0.00000000       0.020
   0.30000000  0.00000000  0.00000000       0.020
   0.40000000  0.00000000  0.00000000       0.020
   0.50000000  0.00000000  0.00000000       0.010
   0.10000000  0.10000000  0.00000000       0.020
   0.20000000  0.10000000  0.00000000       0.040
   0.30000000  0.10000000  0.00000000       0.040
   0.40000000  0.10000000  0.00000000       0.040
   0.20000000  0.20000000  0.00000000       0.020
   0.30000000  0.20000000  0.00000000       0.040
   0.40000000  0.20000000  0.00000000       0.020
   0.30000000  0.30000000  0.00000000       0.020
   0.00000000  0.00000000  0.33333333       0.007
   0.10000000  0.00000000  0.33333333       0.040
   0.20000000  0.00000000  0.33333333       0.040
   0.30000000  0.00000000  0.33333333       0.040
   0.40000000  0.00000000  0.33333333       0.040
   0.50000000  0.00000000  0.33333333       0.020
   0.10000000  0.10000000  0.33333333       0.040
   0.20000000  0.10000000  0.33333333       0.080
   0.30000000  0.10000000  0.33333333       0.080
   0.40000000  0.10000000  0.33333333       0.080
   0.20000000  0.20000000  0.33333333       0.040
   0.30000000  0.20000000  0.33333333       0.080
   0.40000000  0.20000000  0.33333333       0.040
   0.30000000  0.30000000  0.33333333       0.040
 
 position of ions in fractional coordinates (direct lattice) 
   0.33333300  0.66666700  0.25000000
   0.66666700  0.33333300  0.75000000
   0.33333300  0.66666700  0.86743573
   0.66666700  0.33333300  0.13256427
   0.66666600  0.33333300  0.36743573
   0.33333400  0.66666700  0.63256427
 
 position of ions in cartesian coordinates  (Angst):
  -0.00000160  1.84306115  3.32038719
   1.59613847  0.92152919  9.96116157
  -0.00000160  1.84306115 11.52088992
   1.59613847  0.92152919  1.76065884
   1.59613528  0.92152919  4.88011554
   0.00000160  1.84306115  8.40143322
 


--------------------------------------------------------------------------------------------------------


 k-point  1 :   0.0000 0.0000 0.0000  plane waves:    2589
 k-point  2 :   0.1000 0.0000 0.0000  plane waves:    2577
 k-point  3 :   0.2000 0.0000 0.0000  plane waves:    2555
 k-point  4 :   0.3000 0.0000 0.0000  plane waves:    2540
 k-point  5 :   0.4000 0.0000 0.0000  plane waves:    2520
 k-point  6 :   0.5000 0.0000 0.0000  plane waves:    2508
 k-point  7 :   0.1000 0.1000 0.0000  plane waves:    2565
 k-point  8 :   0.2000 0.1000 0.0000  plane waves:    2539
 k-point  9 :   0.3000 0.1000 0.0000  plane waves:    2537
 k-point 10 :   0.4000 0.1000 0.0000  plane waves:    2526
 k-point 11 :   0.2000 0.2000 0.0000  plane waves:    2545
 k-point 12 :   0.3000 0.2000 0.0000  plane waves:    2534
 k-point 13 :   0.4000 0.2000 0.0000  plane waves:    2532
 k-point 14 :   0.3000 0.3000 0.0000  plane waves:    2526
 k-point 15 :   0.0000 0.0000 0.3333  plane waves:    2584
 k-point 16 :   0.1000 0.0000 0.3333  plane waves:    2580
 k-point 17 :   0.2000 0.0000 0.3333  plane waves:    2555
 k-point 18 :   0.3000 0.0000 0.3333  plane waves:    2539
 k-point 19 :   0.4000 0.0000 0.3333  plane waves:    2529
 k-point 20 :   0.5000 0.0000 0.3333  plane waves:    2510
 k-point 21 :   0.1000 0.1000 0.3333  plane waves:    2566
 k-point 22 :   0.2000 0.1000 0.3333  plane waves:    2548
 k-point 23 :   0.3000 0.1000 0.3333  plane waves:    2541
 k-point 24 :   0.4000 0.1000 0.3333  plane waves:    2522
 k-point 25 :   0.2000 0.2000 0.3333  plane waves:    2551
 k-point 26 :   0.3000 0.2000 0.3333  plane waves:    2531
 k-point 27 :   0.4000 0.2000 0.3333  plane waves:    2528
 k-point 28 :   0.3000 0.3000 0.3333  plane waves:    2542

 maximum and minimum number of plane-waves per node :      1310     1237

 maximum number of plane-waves:      2589
 maximum index in each direction: 
   IXMAX=    5   IYMAX=    5   IZMAX=   22
   IXMIN=   -6   IYMIN=   -5   IZMIN=  -23


 parallel 3D FFT for wavefunctions:
    minimum data exchange during FFTs selected (reduces bandwidth)
 parallel 3D FFT for charge:
    minimum data exchange during FFTs selected (reduces bandwidth)


 total amount of memory used by VASP MPI-rank0    58873. kBytes
=======================================================================

   base      :      30000. kBytes
   nonl-proj :      10444. kBytes
   fftplans  :       4559. kBytes
   grid      :       7349. kBytes
   one-center:         46. kBytes
   wavefun   :       6475. kBytes
 
     INWAV:  cpu time    0.0000: real time    0.0000
 Broyden mixing: mesh for mixing (old mesh)
   NGX = 11   NGY = 11   NGZ = 45
  (NGX  = 48   NGY  = 48   NGZ  =192)
  gives a total of   5445 points

 initial charge density was supplied:
 charge density of overlapping atoms calculated
 number of electron      36.0000000 magnetization 
 keeping initial charge density in first step


--------------------------------------------------------------------------------------------------------


 Maximum index for augmentation-charges         7393 (set IRDMAX)


--------------------------------------------------------------------------------------------------------


 First call to EWALD:  gamma=   0.362
 Maximum number of real-space cells 4x 4x 1
 Maximum number of reciprocal cells 2x 2x 7

    FEWALD:  cpu time    0.0020: real time    0.0015


--------------------------------------- Iteration      1(   1)  ---------------------------------------


    POTLOK:  cpu time    0.0630: real time    0.1468
    SETDIJ:  cpu time    0.0080: real time    0.0075
     EDDAV:  cpu time    0.8509: real time    0.8646
 BZINTS: Fermi energy: 15.731713; 36.000000 electrons
         Band energy: 199.219014;  BLOECHL correction: -0.241083
       DOS:  cpu time    0.0090: real time    0.0092
    --------------------------------------------
      LOOP:  cpu time    0.9309: real time    1.0281

 eigenvalue-minimisations  :  1232
 total energy-change (2. order) : 0.1914205E+03  (-0.1484582E+04)
 number of electron      36.0000000 magnetization 
 augmentation part       36.0000000 magnetization 

 Free energy of the ion-electron system (eV)
  ---------------------------------------------------
  alpha Z        PSCENC =       101.17761570
  Ewald energy   TEWEN  =     -1410.01026994
  -Hartree energ DENC   =      -323.92110904
  -exchange      EXHF   =         0.00000000
  -V(xc)+E(xc)   XCENC  =       -72.44653957
  PAW double counting   =       813.77302396     -658.68146406
  entropy T*S    EENTRO =         0.00000000
  eigenvalues    EBANDS =       199.21901432
  atomic energy  EATOM  =      1542.31022798
  Solvation  Ediel_sol  =         0.00000000
  ---------------------------------------------------
  free energy    TOTEN  =       191.42049936 eV

  energy without entropy =      191.42049936  energy(sigma->0) =      191.42049936


--------------------------------------------------------------------------------------------------------




--------------------------------------- Iteration      1(   2)  ---------------------------------------


     EDDAV:  cpu time    1.0558: real time    1.0586
 BZINTS: Fermi energy:  6.584012; 36.000000 electrons
         Band energy: -21.647590;  BLOECHL correction:  0.000000
       DOS:  cpu time    0.0030: real time    0.0029
    --------------------------------------------
      LOOP:  cpu time    1.0588: real time    1.0615

 eigenvalue-minimisations  :  1660
 total energy-change (2. order) :-0.2208666E+03  (-0.2143986E+03)
 number of electron      36.0000000 magnetization 
 augmentation part       36.0000000 magnetization 

 Free energy of the ion-electron system (eV)
  ---------------------------------------------------
  alpha Z        PSCENC =       101.17761570
  Ewald energy   TEWEN  =     -1410.01026994
  -Hartree energ DENC   =      -323.92110904
  -exchange      EXHF   =         0.00000000
  -V(xc)+E(xc)   XCENC  =       -72.44653957
  PAW double counting   =       813.77302396     -658.68146406
  entropy T*S    EENTRO =         0.00000000
  eigenvalues    EBANDS =       -21.64758996
  atomic energy  EATOM  =      1542.31022798
  Solvation  Ediel_sol  =         0.00000000
  ---------------------------------------------------
  free energy    TOTEN  =       -29.44610492 eV

  energy without entropy =      -29.44610492  energy(sigma->0) =      -29.44610492


--------------------------------------------------------------------------------------------------------




--------------------------------------- Iteration      1(   3)  ---------------------------------------


     EDDAV:  cpu time    1.0368: real time    1.0396
 BZINTS: Fermi energy:  5.349614; 36.000000 electrons
         Band energy: -38.524220;  BLOECHL correction:  0.000000
       DOS:  cpu time    0.0020: real time    0.0024
    --------------------------------------------
      LOOP:  cpu time    1.0388: real time    1.0420

 eigenvalue-minimisations  :  1622
 total energy-change (2. order) :-0.1687663E+02  (-0.1678960E+02)
 number of electron      36.0000000 magnetization 
 augmentation part       36.0000000 magnetization 

 Free energy of the ion-electron system (eV)
  ---------------------------------------------------
  alpha Z        PSCENC =       101.17761570
  Ewald energy   TEWEN  =     -1410.01026994
  -Hartree energ DENC   =      -323.92110904
  -exchange      EXHF   =         0.00000000
  -V(xc)+E(xc)   XCENC  =       -72.44653957
  PAW double counting   =       813.77302396     -658.68146406
  entropy T*S    EENTRO =         0.00000000
  eigenvalues    EBANDS =       -38.52421985
  atomic energy  EATOM  =      1542.31022798
  Solvation  Ediel_sol  =         0.00000000
  ---------------------------------------------------
  free energy    TOTEN  =       -46.32273481 eV

  energy without entropy =      -46.32273481  energy(sigma->0) =      -46.32273481


--------------------------------------------------------------------------------------------------------




--------------------------------------- Iteration      1(   4)  ---------------------------------------


     EDDAV:  cpu time    1.0588: real time    1.0612
 BZINTS: Fermi energy:  5.314932; 36.000000 electrons
         Band energy: -38.972774;  BLOECHL correction:  0.000000
       DOS:  cpu time    0.0030: real time    0.0024
    --------------------------------------------
      LOOP:  cpu time    1.0618: real time    1.0636

 eigenvalue-minimisations  :  1664
 total energy-change (2. order) :-0.4485544E+00  (-0.4478491E+00)
 number of electron      36.0000000 magnetization 
 augmentation part       36.0000000 magnetization 

 Free energy of the ion-electron system (eV)
  ---------------------------------------------------
  alpha Z        PSCENC =       101.17761570
  Ewald energy   TEWEN  =     -1410.01026994
  -Hartree energ DENC   =      -323.92110904
  -exchange      EXHF   =         0.00000000
  -V(xc)+E(xc)   XCENC  =       -72.44653957
  PAW double counting   =       813.77302396     -658.68146406
  entropy T*S    EENTRO =         0.00000000
  eigenvalues    EBANDS =       -38.97277426
  atomic energy  EATOM  =      1542.31022798
  Solvation  Ediel_sol  =         0.00000000
  ---------------------------------------------------
  free energy    TOTEN  =       -46.77128922 eV

  energy without entropy =      -46.77128922  energy(sigma->0) =      -46.77128922


--------------------------------------------------------------------------------------------------------




--------------------------------------- Iteration      1(   5)  ---------------------------------------


     EDDAV:  cpu time    1.0668: real time    1.0695
 BZINTS: Fermi energy:  5.291448; 36.000000 electrons
         Band energy: -38.984987;  BLOECHL correction:  0.000000
       DOS:  cpu time    0.0030: real time    0.0024
    CHARGE:  cpu time    0.0940: real time    0.0938
    MIXING:  cpu time    0.0020: real time    0.0019
    --------------------------------------------
      LOOP:  cpu time    1.1658: real time    1.1676

 eigenvalue-minimisations  :  1688
 total energy-change (2. order) :-0.1221245E-01  (-0.1220855E-01)
 number of electron      36.0000005 magnetization 
 augmentation part       -1.8893801 magnetization 

 Broyden mixing:
  rms(total) = 0.97252E+00    rms(broyden)= 0.97251E+00
  rms(prec ) = 0.12716E+01
  weight for this iteration     100.00

 Free energy of the ion-electron system (eV)
  ---------------------------------------------------
  alpha Z        PSCENC =       101.17761570
  Ewald energy   TEWEN  =     -1410.01026994
  -Hartree energ DENC   =      -323.92110904
  -exchange      EXHF   =         0.00000000
  -V(xc)+E(xc)   XCENC  =       -72.44653957
  PAW double counting   =       813.77302396     -658.68146406
  entropy T*S    EENTRO =         0.00000000
  eigenvalues    EBANDS =       -38.98498671
  atomic energy  EATOM  =      1542.31022798
  Solvation  Ediel_sol  =         0.00000000
  ---------------------------------------------------
  free energy    TOTEN  =       -46.78350167 eV

  energy without entropy =      -46.78350167  energy(sigma->0) =      -46.78350167


--------------------------------------------------------------------------------------------------------




--------------------------------------- Iteration      1(   6)  ---------------------------------------


    POTLOK:  cpu time    0.0580: real time    0.0611
    SETDIJ:  cpu time    0.0070: real time    0.0067
    EDDIAG:  cpu time    0.1970: real time    0.1979
  RMM-DIIS:  cpu time    0.8269: real time    0.8264
    ORTHCH:  cpu time    0.0130: real time    0.0129
 BZINTS: Fermi energy:  4.284942; 36.000000 electrons
         Band energy: -38.176096;  BLOECHL correction:  0.000000
       DOS:  cpu time    0.0020: real time    0.0022
    CHARGE:  cpu time    0.0930: real time    0.0933
    MIXING:  cpu time    0.0020: real time    0.0017
    --------------------------------------------
      LOOP:  cpu time    1.1988: real time    1.2023

 eigenvalue-minimisations  :  1380
 total energy-change (2. order) : 0.2384560E+01  (-0.2412592E+01)
 number of electron      36.0000004 magnetization 
 augmentation part       -0.8672105 magnetization 

 Broyden mixing:
  rms(total) = 0.33412E+00    rms(broyden)= 0.33411E+00
  rms(prec ) = 0.51804E+00
  weight for this iteration     100.00

 eigenvalues of (default mixing * dielectric matrix)
  average eigenvalue GAMMA=   0.8786
  0.8786

 Free energy of the ion-electron system (eV)
  ---------------------------------------------------
  alpha Z        PSCENC =       101.17761570
  Ewald energy   TEWEN  =     -1410.01026994
  -Hartree energ DENC   =      -322.30107720
  -exchange      EXHF   =         0.00000000
  -V(xc)+E(xc)   XCENC  =       -70.70828310
  PAW double counting   =       848.12844862     -694.81950802
  entropy T*S    EENTRO =         0.00000000
  eigenvalues    EBANDS =       -38.17609565
  atomic energy  EATOM  =      1542.31022798
  Solvation  Ediel_sol  =         0.00000000
  ---------------------------------------------------
  free energy    TOTEN  =       -44.39894161 eV

  energy without entropy =      -44.39894161  energy(sigma->0) =      -44.39894161


--------------------------------------------------------------------------------------------------------




--------------------------------------- Iteration      1(   7)  ---------------------------------------


    POTLOK:  cpu time    0.0590: real time    0.0611
    SETDIJ:  cpu time    0.0070: real time    0.0067
    EDDIAG:  cpu time    0.1970: real time    0.1966
  RMM-DIIS:  cpu time    0.8109: real time    0.8106
    ORTHCH:  cpu time    0.0130: real time    0.0129
 BZINTS: Fermi energy:  4.636772; 36.000000 electrons
         Band energy: -33.276079;  BLOECHL correction:  0.000000
       DOS:  cpu time    0.0020: real time    0.0024
    CHARGE:  cpu time    0.0940: real time    0.0937
    MIXING:  cpu time    0.0010: real time    0.0017
    --------------------------------------------
      LOOP:  cpu time    1.1848: real time    1.1858

 eigenvalue-minimisations  :  1344
 total energy-change (2. order) : 0.7266791E+00  (-0.1916180E+00)
 number of electron      36.0000004 magnetization 
 augmentation part       -1.1113058 magnetization 

 Broyden mixing:
  rms(total) = 0.17859E+00    rms(broyden)= 0.17859E+00
  rms(prec ) = 0.21842E+00
  weight for this iteration     100.00

 eigenvalues of (default mixing * dielectric matrix)
  average eigenvalue GAMMA=   1.4080
  0.7617  2.0543

 Free energy of the ion-electron system (eV)
  ---------------------------------------------------
  alpha Z        PSCENC =       101.17761570
  Ewald energy   TEWEN  =     -1410.01026994
  -Hartree energ DENC   =      -325.81607794
  -exchange      EXHF   =         0.00000000
  -V(xc)+E(xc)   XCENC  =       -70.86675860
  PAW double counting   =       881.43125922     -728.62217973
  entropy T*S    EENTRO =         0.00000000
  eigenvalues    EBANDS =       -33.27607921
  atomic energy  EATOM  =      1542.31022798
  Solvation  Ediel_sol  =         0.00000000
  ---------------------------------------------------
  free energy    TOTEN  =       -43.67226253 eV

  energy without entropy =      -43.67226253  energy(sigma->0) =      -43.67226253


--------------------------------------------------------------------------------------------------------




--------------------------------------- Iteration      1(   8)  ---------------------------------------


    POTLOK:  cpu time    0.0590: real time    0.0610
    SETDIJ:  cpu time    0.0070: real time    0.0067
    EDDIAG:  cpu time    0.1970: real time    0.1970
  RMM-DIIS:  cpu time    0.8369: real time    0.8369
    ORTHCH:  cpu time    0.0130: real time    0.0129
 BZINTS: Fermi energy:  4.722750; 36.000000 electrons
         Band energy: -29.613119;  BLOECHL correction:  0.000000
       DOS:  cpu time    0.0030: real time    0.0024
    CHARGE:  cpu time    0.0930: real time    0.0935
    MIXING:  cpu time    0.0020: real time    0.0023
    --------------------------------------------
      LOOP:  cpu time    1.2098: real time    1.2128

 eigenvalue-minimisations  :  1397
 total energy-change (2. order) : 0.5788320E-01  (-0.8425896E-01)
 number of electron      36.0000004 magnetization 
 augmentation part       -1.1664158 magnetization 

 Broyden mixing:
  rms(total) = 0.81168E-01    rms(broyden)= 0.81166E-01
  rms(prec ) = 0.11419E+00
  weight for this iteration     100.00

 eigenvalues of (default mixing * dielectric matrix)
  average eigenvalue GAMMA=   1.4860
  2.1389  1.4990  0.8201

 Free energy of the ion-electron system (eV)
  ---------------------------------------------------
  alpha Z        PSCENC =       101.17761570
  Ewald energy   TEWEN  =     -1410.01026994
  -Hartree energ DENC   =      -328.82043083
  -exchange      EXHF   =         0.00000000
  -V(xc)+E(xc)   XCENC  =       -70.49480165
  PAW double counting   =       931.29819914     -779.46180062
  entropy T*S    EENTRO =         0.00000000
  eigenvalues    EBANDS =       -29.61311910
  atomic energy  EATOM  =      1542.31022798
  Solvation  Ediel_sol  =         0.00000000
  ---------------------------------------------------
  free energy    TOTEN  =       -43.61437932 eV

  energy without entropy =      -43.61437932  energy(sigma->0) =      -43.61437932


--------------------------------------------------------------------------------------------------------




--------------------------------------- Iteration      1(   9)  ---------------------------------------


    POTLOK:  cpu time    0.0580: real time    0.0606
    SETDIJ:  cpu time    0.0070: real time    0.0067
    EDDIAG:  cpu time    0.1980: real time    0.1973
  RMM-DIIS:  cpu time    0.8719: real time    0.8718
    ORTHCH:  cpu time    0.0130: real time    0.0129
 BZINTS: Fermi energy:  4.610098; 36.000000 electrons
         Band energy: -30.285918;  BLOECHL correction:  0.000000
       DOS:  cpu time    0.0020: real time    0.0024
    CHARGE:  cpu time    0.0940: real time    0.0937
    MIXING:  cpu time    0.0010: real time    0.0017
    --------------------------------------------
      LOOP:  cpu time    1.2448: real time    1.2471

 eigenvalue-minimisations  :  1447
 total energy-change (2. order) : 0.9858473E-02  (-0.2699389E-01)
 number of electron      36.0000004 magnetization 
 augmentation part       -1.0471892 magnetization 

 Broyden mixing:
  rms(total) = 0.54735E-01    rms(broyden)= 0.54734E-01
  rms(prec ) = 0.80252E-01
  weight for this iteration     100.00

 eigenvalues of (default mixing * dielectric matrix)
  average eigenvalue GAMMA=   1.5126
  2.1285  2.1285  0.8967  0.8967

 Free energy of the ion-electron system (eV)
  ---------------------------------------------------
  alpha Z        PSCENC =       101.17761570
  Ewald energy   TEWEN  =     -1410.01026994
  -Hartree energ DENC   =      -328.17986373
  -exchange      EXHF   =         0.00000000
  -V(xc)+E(xc)   XCENC  =       -70.26115235
  PAW double counting   =       939.30078853     -787.65594865
  entropy T*S    EENTRO =         0.00000000
  eigenvalues    EBANDS =       -30.28591839
  atomic energy  EATOM  =      1542.31022798
  Solvation  Ediel_sol  =         0.00000000
  ---------------------------------------------------
  free energy    TOTEN  =       -43.60452085 eV

  energy without entropy =      -43.60452085  energy(sigma->0) =      -43.60452085


--------------------------------------------------------------------------------------------------------




--------------------------------------- Iteration      1(  10)  ---------------------------------------


    POTLOK:  cpu time    0.0590: real time    0.0612
    SETDIJ:  cpu time    0.0070: real time    0.0067
    EDDIAG:  cpu time    0.1960: real time    0.1970
  RMM-DIIS:  cpu time    0.8749: real time    0.8733
    ORTHCH:  cpu time    0.0120: real time    0.0130
 BZINTS: Fermi energy:  4.671484; 36.000000 electrons
         Band energy: -29.677184;  BLOECHL correction:  0.000000
       DOS:  cpu time    0.0020: real time    0.0024
    CHARGE:  cpu time    0.0940: real time    0.0935
    MIXING:  cpu time    0.0020: real time    0.0018
    --------------------------------------------
      LOOP:  cpu time    1.2468: real time    1.2488

 eigenvalue-minimisations  :  1457
 total energy-change (2. order) : 0.1479581E-01  (-0.5614199E-02)
 number of electron      36.0000004 magnetization 
 augmentation part       -1.1039016 magnetization 

 Broyden mixing:
  rms(total) = 0.60363E-02    rms(broyden)= 0.60356E-02
  rms(prec ) = 0.77342E-02
  weight for this iteration     100.00

 eigenvalues of (default mixing * dielectric matrix)
  average eigenvalue GAMMA=   1.4305
  2.4375  0.9011  0.9011  1.4563  1.4563

 Free energy of the ion-electron system (eV)
  ---------------------------------------------------
  alpha Z        PSCENC =       101.17761570
  Ewald energy   TEWEN  =     -1410.01026994
  -Hartree energ DENC   =      -328.67785734
  -exchange      EXHF   =         0.00000000
  -V(xc)+E(xc)   XCENC  =       -70.31568164
  PAW double counting   =       945.13496725     -793.53154352
  entropy T*S    EENTRO =         0.00000000
  eigenvalues    EBANDS =       -29.67718354
  atomic energy  EATOM  =      1542.31022798
  Solvation  Ediel_sol  =         0.00000000
  ---------------------------------------------------
  free energy    TOTEN  =       -43.58972504 eV

  energy without entropy =      -43.58972504  energy(sigma->0) =      -43.58972504


--------------------------------------------------------------------------------------------------------




--------------------------------------- Iteration      1(  11)  ---------------------------------------


    POTLOK:  cpu time    0.0590: real time    0.0604
    SETDIJ:  cpu time    0.0070: real time    0.0067
    EDDIAG:  cpu time    0.1970: real time    0.1973
  RMM-DIIS:  cpu time    0.9509: real time    0.9507
    ORTHCH:  cpu time    0.0120: real time    0.0130
 BZINTS: Fermi energy:  4.664637; 36.000000 electrons
         Band energy: -29.581050;  BLOECHL correction:  0.000000
       DOS:  cpu time    0.0030: real time    0.0024
    CHARGE:  cpu time    0.0930: real time    0.0934
    MIXING:  cpu time    0.0020: real time    0.0018
    --------------------------------------------
      LOOP:  cpu time    1.3238: real time    1.3256

 eigenvalue-minimisations  :  1605
 total energy-change (2. order) :-0.2227585E-03  (-0.3207164E-03)
 number of electron      36.0000004 magnetization 
 augmentation part       -1.0997082 magnetization 

 Broyden mixing:
  rms(total) = 0.28414E-02    rms(broyden)= 0.28413E-02
  rms(prec ) = 0.33630E-02
  weight for this iteration     100.00

 eigenvalues of (default mixing * dielectric matrix)
  average eigenvalue GAMMA=   1.6004
  2.5407  2.5407  1.7885  0.8945  0.8945  0.9436

 Free energy of the ion-electron system (eV)
  ---------------------------------------------------
  alpha Z        PSCENC =       101.17761570
  Ewald energy   TEWEN  =     -1410.01026994
  -Hartree energ DENC   =      -328.78582963
  -exchange      EXHF   =         0.00000000
  -V(xc)+E(xc)   XCENC  =       -70.29340331
  PAW double counting   =       945.71677260     -794.12401090
  entropy T*S    EENTRO =         0.00000000
  eigenvalues    EBANDS =       -29.58105029
  atomic energy  EATOM  =      1542.31022798
  Solvation  Ediel_sol  =         0.00000000
  ---------------------------------------------------
  free energy    TOTEN  =       -43.58994780 eV

  energy without entropy =      -43.58994780  energy(sigma->0) =      -43.58994780


--------------------------------------------------------------------------------------------------------




--------------------------------------- Iteration      1(  12)  ---------------------------------------


    POTLOK:  cpu time    0.0580: real time    0.0604
    SETDIJ:  cpu time    0.0080: real time    0.0067
    EDDIAG:  cpu time    0.1970: real time    0.1973
  RMM-DIIS:  cpu time    0.9379: real time    0.9379
    ORTHCH:  cpu time    0.0130: real time    0.0130
 BZINTS: Fermi energy:  4.664274; 36.000000 electrons
         Band energy: -29.489093;  BLOECHL correction:  0.000000
       DOS:  cpu time    0.0030: real time    0.0024
    CHARGE:  cpu time    0.0930: real time    0.0934
    MIXING:  cpu time    0.0020: real time    0.0018
    --------------------------------------------
      LOOP:  cpu time    1.3118: real time    1.3129

 eigenvalue-minimisations  :  1584
 total energy-change (2. order) :-0.9324612E-04  (-0.3348142E-04)
 number of electron      36.0000004 magnetization 
 augmentation part       -1.0989761 magnetization 

 Broyden mixing:
  rms(total) = 0.15378E-02    rms(broyden)= 0.15378E-02
  rms(prec ) = 0.20494E-02
  weight for this iteration     100.00

 eigenvalues of (default mixing * dielectric matrix)
  average eigenvalue GAMMA=   1.5822
  2.8705  2.3184  1.5814  1.5814  0.8976  0.8976  0.9282

 Free energy of the ion-electron system (eV)
  ---------------------------------------------------
  alpha Z        PSCENC =       101.17761570
  Ewald energy   TEWEN  =     -1410.01026994
  -Hartree energ DENC   =      -328.89237004
  -exchange      EXHF   =         0.00000000
  -V(xc)+E(xc)   XCENC  =       -70.28822661
  PAW double counting   =       945.74477920     -794.14270474
  entropy T*S    EENTRO =         0.00000000
  eigenvalues    EBANDS =       -29.48909259
  atomic energy  EATOM  =      1542.31022798
  Solvation  Ediel_sol  =         0.00000000
  ---------------------------------------------------
  free energy    TOTEN  =       -43.59004104 eV

  energy without entropy =      -43.59004104  energy(sigma->0) =      -43.59004104


--------------------------------------------------------------------------------------------------------




--------------------------------------- Iteration      1(  13)  ---------------------------------------


    POTLOK:  cpu time    0.0580: real time    0.0597
    SETDIJ:  cpu time    0.0070: real time    0.0067
    EDDIAG:  cpu time    0.1970: real time    0.1969
  RMM-DIIS:  cpu time    0.9529: real time    0.9529
    ORTHCH:  cpu time    0.0130: real time    0.0129
 BZINTS: Fermi energy:  4.663245; 36.000000 electrons
         Band energy: -29.484276;  BLOECHL correction:  0.000000
       DOS:  cpu time    0.0020: real time    0.0024
    CHARGE:  cpu time    0.0940: real time    0.0932
    MIXING:  cpu time    0.0010: real time    0.0019
    --------------------------------------------
      LOOP:  cpu time    1.3248: real time    1.3266

 eigenvalue-minimisations  :  1617
 total energy-change (2. order) :-0.1498618E-04  (-0.2585847E-04)
 number of electron      36.0000004 magnetization 
 augmentation part       -1.1022040 magnetization 

 Broyden mixing:
  rms(total) = 0.19123E-02    rms(broyden)= 0.19123E-02
  rms(prec ) = 0.27244E-02
  weight for this iteration     100.00

 eigenvalues of (default mixing * dielectric matrix)
  average eigenvalue GAMMA=   1.6923
  3.1554  2.5105  2.5105  1.6041  1.1299  0.8813  0.8813  0.8655

 Free energy of the ion-electron system (eV)
  ---------------------------------------------------
  alpha Z        PSCENC =       101.17761570
  Ewald energy   TEWEN  =     -1410.01026994
  -Hartree energ DENC   =      -328.89347453
  -exchange      EXHF   =         0.00000000
  -V(xc)+E(xc)   XCENC  =       -70.29147362
  PAW double counting   =       945.87868182     -794.27708788
  entropy T*S    EENTRO =         0.00000000
  eigenvalues    EBANDS =       -29.48427556
  atomic energy  EATOM  =      1542.31022798
  Solvation  Ediel_sol  =         0.00000000
  ---------------------------------------------------
  free energy    TOTEN  =       -43.59005603 eV

  energy without entropy =      -43.59005603  energy(sigma->0) =      -43.59005603


--------------------------------------------------------------------------------------------------------




--------------------------------------- Iteration      1(  14)  ---------------------------------------


    POTLOK:  cpu time    0.0590: real time    0.0606
    SETDIJ:  cpu time    0.0070: real time    0.0067
    EDDIAG:  cpu time    0.1970: real time    0.1967
  RMM-DIIS:  cpu time    0.9119: real time    0.9115
    ORTHCH:  cpu time    0.0130: real time    0.0129
 BZINTS: Fermi energy:  4.657695; 36.000000 electrons
         Band energy: -29.496352;  BLOECHL correction:  0.000000
       DOS:  cpu time    0.0020: real time    0.0024
    CHARGE:  cpu time    0.0930: real time    0.0932
    MIXING:  cpu time    0.0020: real time    0.0019
    --------------------------------------------
      LOOP:  cpu time    1.2848: real time    1.2859

 eigenvalue-minimisations  :  1548
 total energy-change (2. order) : 0.1483469E-04  (-0.7096165E-05)
 number of electron      36.0000004 magnetization 
 augmentation part       -1.1003608 magnetization 

 Broyden mixing:
  rms(total) = 0.18024E-03    rms(broyden)= 0.18020E-03
  rms(prec ) = 0.21570E-03
  weight for this iteration     100.00

 eigenvalues of (default mixing * dielectric matrix)
  average eigenvalue GAMMA=   1.5723
  3.0386  2.4991  2.4991  1.5714  1.1445  0.8822  0.8822  0.8647  0.7693

 Free energy of the ion-electron system (eV)
  ---------------------------------------------------
  alpha Z        PSCENC =       101.17761570
  Ewald energy   TEWEN  =     -1410.01026994
  -Hartree energ DENC   =      -328.88412500
  -exchange      EXHF   =         0.00000000
  -V(xc)+E(xc)   XCENC  =       -70.28876271
  PAW double counting   =       945.74033891     -794.13871388
  entropy T*S    EENTRO =         0.00000000
  eigenvalues    EBANDS =       -29.49635226
  atomic energy  EATOM  =      1542.31022798
  Solvation  Ediel_sol  =         0.00000000
  ---------------------------------------------------
  free energy    TOTEN  =       -43.59004120 eV

  energy without entropy =      -43.59004120  energy(sigma->0) =      -43.59004120


--------------------------------------------------------------------------------------------------------




--------------------------------------- Iteration      1(  15)  ---------------------------------------


    POTLOK:  cpu time    0.0590: real time    0.0614
    SETDIJ:  cpu time    0.0070: real time    0.0067
    EDDIAG:  cpu time    0.1970: real time    0.1972
  RMM-DIIS:  cpu time    0.8249: real time    0.8244
    ORTHCH:  cpu time    0.0130: real time    0.0129
 BZINTS: Fermi energy:  4.652647; 36.000000 electrons
         Band energy: -29.494444;  BLOECHL correction:  0.000000
       DOS:  cpu time    0.0010: real time    0.0024
    CHARGE:  cpu time    0.0940: real time    0.0932
    MIXING:  cpu time    0.0020: real time    0.0020
    --------------------------------------------
      LOOP:  cpu time    1.1978: real time    1.2001

 eigenvalue-minimisations  :  1362
 total energy-change (2. order) :-0.1043651E-05  (-0.1298263E-05)
 number of electron      36.0000004 magnetization 
 augmentation part       -1.0999275 magnetization 

 Broyden mixing:
  rms(total) = 0.38311E-03    rms(broyden)= 0.38310E-03
  rms(prec ) = 0.56143E-03
  weight for this iteration     100.00

 eigenvalues of (default mixing * dielectric matrix)
  average eigenvalue GAMMA=   1.6246
  3.3155  2.6220  1.9908  1.9908  1.3375  1.3375  0.9336  0.9336  0.8926  0.8926

 Free energy of the ion-electron system (eV)
  ---------------------------------------------------
  alpha Z        PSCENC =       101.17761570
  Ewald energy   TEWEN  =     -1410.01026994
  -Hartree energ DENC   =      -328.88683269
  -exchange      EXHF   =         0.00000000
  -V(xc)+E(xc)   XCENC  =       -70.28864806
  PAW double counting   =       945.70078467     -794.09847571
  entropy T*S    EENTRO =         0.00000000
  eigenvalues    EBANDS =       -29.49444418
  atomic energy  EATOM  =      1542.31022798
  Solvation  Ediel_sol  =         0.00000000
  ---------------------------------------------------
  free energy    TOTEN  =       -43.59004224 eV

  energy without entropy =      -43.59004224  energy(sigma->0) =      -43.59004224


--------------------------------------------------------------------------------------------------------




--------------------------------------- Iteration      1(  16)  ---------------------------------------


    POTLOK:  cpu time    0.0590: real time    0.0606
    SETDIJ:  cpu time    0.0070: real time    0.0069
    EDDIAG:  cpu time    0.1970: real time    0.1974
  RMM-DIIS:  cpu time    0.6289: real time    0.6279
    ORTHCH:  cpu time    0.0130: real time    0.0132
 BZINTS: Fermi energy:  4.645927; 36.000000 electrons
         Band energy: -29.490070;  BLOECHL correction:  0.000000
       DOS:  cpu time    0.0020: real time    0.0024
    --------------------------------------------
      LOOP:  cpu time    0.9069: real time    0.9085

 eigenvalue-minimisations  :  1018
 total energy-change (2. order) : 0.6951905E-06  (-0.2474994E-06)
 number of electron      36.0000004 magnetization 
 augmentation part       -1.0999275 magnetization 

 Free energy of the ion-electron system (eV)
  ---------------------------------------------------
  alpha Z        PSCENC =       101.17761570
  Ewald energy   TEWEN  =     -1410.01026994
  -Hartree energ DENC   =      -328.89088651
  -exchange      EXHF   =         0.00000000
  -V(xc)+E(xc)   XCENC  =       -70.28910587
  PAW double counting   =       945.71525733     -794.11281068
  entropy T*S    EENTRO =         0.00000000
  eigenvalues    EBANDS =       -29.49006955
  atomic energy  EATOM  =      1542.31022798
  Solvation  Ediel_sol  =         0.00000000
  ---------------------------------------------------
  free energy    TOTEN  =       -43.59004154 eV

  energy without entropy =      -43.59004154  energy(sigma->0) =      -43.59004154


--------------------------------------------------------------------------------------------------------




 average (electrostatic) potential at core
  the test charge radii are     1.2296  0.9698
  (the norm of the test charge is              1.0000)
       1 -39.2527       2 -39.2527       3 -87.0995       4 -87.0995       5 -87.0995
       6 -87.0995
 
 
 
 E-fermi :   4.6459     XC(G=0): -10.1212     alpha+bet :-10.7826


 k-point     1 :       0.0000    0.0000    0.0000
  band No.  band energies     occupation 
      1      -9.9104      2.00000
      2      -9.8111      2.00000
      3      -8.7227      2.00000
      4      -8.5547      2.00000
      5      -1.6488      2.00000
      6      -1.1252      2.00000
      7       1.5627      2.00000
      8       1.5627      2.00000
      9       1.5667      2.00000
     10       1.5667      2.00000
     11       1.8332      2.00000
     12       2.6692      2.00000
     13       2.6692      2.00000
     14       2.6834      2.00000
     15       2.6834      2.00000
     16       3.2209      2.00000
     17       3.8692      2.00000
     18       4.6298      2.00000
     19       6.9475      0.00000
     20       6.9628      0.00000
     21       7.0006      0.00000
     22       7.1631      0.00000

 k-point     2 :       0.1000    0.0000    0.0000
  band No.  band energies     occupation 
      1      -9.7716      2.00000
      2      -9.6735      2.00000
      3      -8.6535      2.00000
      4      -8.4927      2.00000
      5      -1.4865      2.00000
      6      -0.9664      2.00000
      7       1.2502      2.00000
      8       1.2588      2.00000
      9       1.4647      2.00000
     10       1.7135      2.00000
     11       1.7202      2.00000
     12       2.0784      2.00000
     13       2.4427      2.00000
     14       2.4593      2.00000
     15       2.8603      2.00000
     16       3.5208      2.00000
     17       3.8518      2.00000
     18       4.4277      2.00000
     19       6.7600      0.00000
     20       6.7814      0.00000
     21       6.8576      0.00000
     22       6.9795      0.00000

 k-point     3 :       0.2000    0.0000    0.0000
  band No.  band energies     occupation 
      1      -9.3842      2.00000
      2      -9.2911      2.00000
      3      -8.4614      2.00000
      4      -8.3220      2.00000
      5      -1.1102      2.00000
      6      -0.6368      2.00000
      7       0.5944      2.00000
      8       0.6488      2.00000
      9       0.8237      2.00000
     10       1.2238      2.00000
     11       1.9511      2.00000
     12       1.9718      2.00000
     13       2.1194      2.00000
     14       2.1342      2.00000
     15       2.8175      2.00000
     16       3.3777      2.00000
     17       3.6478      2.00000
     18       3.8317      2.00000
     19       6.1899      0.00000
     20       6.6406      0.00000
     21       6.7218      0.00000
     22       6.7290      0.00000

 k-point     4 :       0.3000    0.0000    0.0000
  band No.  band energies     occupation 
      1      -8.8422      2.00000
      2      -8.7615      2.00000
      3      -8.1967      2.00000
      4      -8.0910      2.00000
      5      -1.0051      2.00000
      6      -0.7650      2.00000
      7       0.1470      2.00000
      8       0.1813      2.00000
      9       0.3818      2.00000
     10       0.4416      2.00000
     11       1.4653      2.00000
     12       1.4893      2.00000
     13       2.5123      2.00000
     14       2.6331      2.00000
     15       2.6648      2.00000
     16       2.9079      2.00000
     17       3.2222      2.00000
     18       3.3245      2.00000
     19       6.1884      0.00000
     20       6.3728      0.00000
     21       6.4425      0.00000
     22       6.7633      0.00000

 k-point     5 :       0.4000    0.0000    0.0000
  band No.  band energies     occupation 
      1      -8.3259      2.00000
      2      -8.2688      2.00000
      3      -7.9507      2.00000
      4      -7.8865      2.00000
      5      -1.3861      2.00000
      6      -1.2535      2.00000
      7      -0.4080      2.00000
      8      -0.2735      2.00000
      9       0.0674      2.00000
     10       0.3772      2.00000
     11       1.1330      2.00000
     12       1.1587      2.00000
     13       2.3115      2.00000
     14       2.5397      2.00000
     15       3.0350      2.00000
     16       3.0911      2.00000
     17       3.2656      2.00000
     18       3.4047      2.00000
     19       6.3132      0.00000
     20       6.3507      0.00000
     21       6.5529      0.00000
     22       6.8569      0.00000

 k-point     6 :       0.5000    0.0000    0.0000
  band No.  band energies     occupation 
      1      -8.0990      2.00000
      2      -8.0618      2.00000
      3      -7.8432      2.00000
      4      -7.8071      2.00000
      5      -1.5988      2.00000
      6      -1.4760      2.00000
      7      -0.6261      2.00000
      8      -0.5265      2.00000
      9      -0.0227      2.00000
     10       0.2762      2.00000
     11       1.0165      2.00000
     12       1.0428      2.00000
     13       2.2834      2.00000
     14       2.3844      2.00000
     15       3.1766      2.00000
     16       3.2456      2.00000
     17       3.5245      2.00000
     18       3.5677      2.00000
     19       6.3419      0.00000
     20       6.3607      0.00000
     21       6.8014      0.00000
     22       6.9433      0.00000

 k-point     7 :       0.1000    0.1000    0.0000
  band No.  band energies     occupation 
      1      -9.5082      2.00000
      2      -9.4132      2.00000
      3      -8.5225      2.00000
      4      -8.3760      2.00000
      5      -1.2090      2.00000
      6      -0.7079      2.00000
      7       0.7955      2.00000
      8       0.7978      2.00000
      9       1.0600      2.00000
     10       1.5537      2.00000
     11       1.8953      2.00000
     12       1.9391      2.00000
     13       1.9729      2.00000
     14       1.9815      2.00000
     15       3.0421      2.00000
     16       3.5897      2.00000
     17       3.7415      2.00000
     18       4.0235      2.00000
     19       6.2775      0.00000
     20       6.5764      0.00000
     21       6.7032      0.00000
     22       6.7258      0.00000

 k-point     8 :       0.2000    0.1000    0.0000
  band No.  band energies     occupation 
      1      -9.0405      2.00000
      2      -8.9542      2.00000
      3      -8.2913      2.00000
      4      -8.1722      2.00000
      5      -0.9201      2.00000
      6      -0.5678      2.00000
      7       0.3204      2.00000
      8       0.4512      2.00000
      9       0.5148      2.00000
     10       0.7666      2.00000
     11       1.2420      2.00000
     12       1.3893      2.00000
     13       2.2946      2.00000
     14       2.3094      2.00000
     15       2.9647      2.00000
     16       3.2869      2.00000
     17       3.4248      2.00000
     18       3.4685      2.00000
     19       5.9626      0.00000
     20       6.4066      0.00000
     21       6.5391      0.00000
     22       6.7542      0.00000

 k-point     9 :       0.3000    0.1000    0.0000
  band No.  band energies     occupation 
      1      -8.5010      2.00000
      2      -8.4332      2.00000
      3      -8.0283      2.00000
      4      -7.9466      2.00000
      5      -1.1079      2.00000
      6      -0.9510      2.00000
      7      -0.1800      2.00000
      8      -0.0785      2.00000
      9       0.2111      2.00000
     10       0.4910      2.00000
     11       0.9888      2.00000
     12       1.1501      2.00000
     13       2.3843      2.00000
     14       2.4297      2.00000
     15       2.6187      2.00000
     16       2.7933      2.00000
     17       3.3835      2.00000
     18       3.4252      2.00000
     19       6.0924      0.00000
     20       6.4188      0.00000
     21       6.5843      0.00000
     22       6.8290      0.00000

 k-point    10 :       0.4000    0.1000    0.0000
  band No.  band energies     occupation 
      1      -8.1113      2.00000
      2      -8.0703      2.00000
      3      -7.8401      2.00000
      4      -7.7977      2.00000
      5      -1.4070      2.00000
      6      -1.2867      2.00000
      7      -0.6443      2.00000
      8      -0.5946      2.00000
      9       0.0650      2.00000
     10       0.3512      2.00000
     11       0.9705      2.00000
     12       1.0674      2.00000
     13       2.3214      2.00000
     14       2.4708      2.00000
     15       2.4863      2.00000
     16       2.5659      2.00000
     17       3.6553      2.00000
     18       3.7226      2.00000
     19       6.3245      0.00000
     20       6.4210      0.00000
     21       6.7872      0.00000
     22       6.9719      0.00000

 k-point    11 :       0.2000    0.2000    0.0000
  band No.  band energies     occupation 
      1      -8.5677      2.00000
      2      -8.4962      2.00000
      3      -8.0555      2.00000
      4      -7.9671      2.00000
      5      -0.9290      2.00000
      6      -0.7485      2.00000
      7      -0.0204      2.00000
      8       0.0435      2.00000
      9       0.3921      2.00000
     10       0.5652      2.00000
     11       0.7144      2.00000
     12       1.0653      2.00000
     13       1.9497      2.00000
     14       1.9626      2.00000
     15       2.9353      2.00000
     16       2.9894      2.00000
     17       3.4107      2.00000
     18       3.4113      2.00000
     19       5.9298      0.00000
     20       6.4679      0.00000
     21       6.6281      0.00000
     22       6.8431      0.00000

 k-point    12 :       0.3000    0.2000    0.0000
  band No.  band energies     occupation 
      1      -8.1305      2.00000
      2      -8.0843      2.00000
      3      -7.8343      2.00000
      4      -7.7831      2.00000
      5      -1.0315      2.00000
      6      -0.9163      2.00000
      7      -0.6996      2.00000
      8      -0.6595      2.00000
      9       0.3738      2.00000
     10       0.5633      2.00000
     11       0.8298      2.00000
     12       1.1190      2.00000
     13       1.4723      2.00000
     14       1.5866      2.00000
     15       2.4715      2.00000
     16       2.6015      2.00000
     17       3.6550      2.00000
     18       3.7012      2.00000
     19       6.1927      0.00000
     20       6.4554      0.00000
     21       6.8591      0.00000
     22       7.1330      0.00000

 k-point    13 :       0.4000    0.2000    0.0000
  band No.  band energies     occupation 
      1      -7.9430      2.00000
      2      -7.9180      2.00000
      3      -7.7364      2.00000
      4      -7.7116      2.00000
      5      -1.0427      2.00000
      6      -0.9644      2.00000
      7      -0.9443      2.00000
      8      -0.9299      2.00000
      9       0.1613      2.00000
     10       0.3885      2.00000
     11       0.9956      2.00000
     12       1.1973      2.00000
     13       1.4107      2.00000
     14       1.5284      2.00000
     15       2.1839      2.00000
     16       2.3789      2.00000
     17       3.8862      2.00000
     18       3.9666      2.00000
     19       6.1345      0.00000
     20       6.1797      0.00000
     21       7.2708      0.00000
     22       7.4929      0.00000

 k-point    14 :       0.3000    0.3000    0.0000
  band No.  band energies     occupation 
      1      -7.8808      2.00000
      2      -7.8629      2.00000
      3      -7.6931      2.00000
      4      -7.6743      2.00000
      5      -1.1243      2.00000
      6      -1.0650      2.00000
      7      -0.6437      2.00000
      8      -0.5708      2.00000
      9       0.3653      2.00000
     10       0.4098      2.00000
     11       0.6478      2.00000
     12       0.7823      2.00000
     13       1.0949      2.00000
     14       1.3003      2.00000
     15       2.1091      2.00000
     16       2.2585      2.00000
     17       4.0167      2.00000
     18       4.0850      2.00000
     19       5.9292      0.00000
     20       5.9655      0.00000
     21       7.0011      0.00000
     22       7.4437      0.00000

 k-point    15 :       0.0000    0.0000    0.3333
  band No.  band energies     occupation 
      1      -9.8878      2.00000
      2      -9.8383      2.00000
      3      -8.6786      2.00000
      4      -8.5949      2.00000
      5      -1.5345      2.00000
      6      -1.2761      2.00000
      7       1.5637      2.00000
      8       1.5637      2.00000
      9       1.5657      2.00000
     10       1.5657      2.00000
     11       2.1174      2.00000
     12       2.6728      2.00000
     13       2.6728      2.00000
     14       2.6799      2.00000
     15       2.6799      2.00000
     16       2.7470      2.00000
     17       4.2030      2.00000
     18       4.5225      2.00000
     19       6.9427      0.00000
     20       6.9599      0.00000
     21       6.9888      0.00000
     22       7.1024      0.00000

 k-point    16 :       0.1000    0.0000    0.3333
  band No.  band energies     occupation 
      1      -9.7493      2.00000
      2      -9.7005      2.00000
      3      -8.6111      2.00000
      4      -8.5310      2.00000
      5      -1.3745      2.00000
      6      -1.1184      2.00000
      7       1.2515      2.00000
      8       1.2558      2.00000
      9       1.6624      2.00000
     10       1.7151      2.00000
     11       1.7185      2.00000
     12       1.9689      2.00000
     13       2.4469      2.00000
     14       2.4552      2.00000
     15       2.9296      2.00000
     16       3.1953      2.00000
     17       4.1292      2.00000
     18       4.3567      2.00000
     19       6.7631      0.00000
     20       6.8221      0.00000
     21       6.9299      0.00000
     22       6.9851      0.00000

 k-point    17 :       0.2000    0.0000    0.3333
  band No.  band energies     occupation 
      1      -9.3632      2.00000
      2      -9.3169      2.00000
      3      -8.4242      2.00000
      4      -8.3548      2.00000
      5      -1.0107      2.00000
      6      -0.7790      2.00000
      7       0.5994      2.00000
      8       0.6202      2.00000
      9       0.9717      2.00000
     10       1.1587      2.00000
     11       1.9559      2.00000
     12       1.9663      2.00000
     13       2.1235      2.00000
     14       2.1308      2.00000
     15       2.9123      2.00000
     16       3.1687      2.00000
     17       3.7466      2.00000
     18       3.8152      2.00000
     19       6.2949      0.00000
     20       6.5166      0.00000
     21       6.6635      0.00000
     22       6.7273      0.00000

 k-point    18 :       0.3000    0.0000    0.3333
  band No.  band energies     occupation 
      1      -8.8242      2.00000
      2      -8.7842      2.00000
      3      -8.1678      2.00000
      4      -8.1153      2.00000
      5      -0.9504      2.00000
      6      -0.8310      2.00000
      7       0.1442      2.00000
      8       0.1699      2.00000
      9       0.4095      2.00000
     10       0.4425      2.00000
     11       1.4712      2.00000
     12       1.4832      2.00000
     13       2.5944      2.00000
     14       2.6411      2.00000
     15       2.6570      2.00000
     16       2.7856      2.00000
     17       3.2650      2.00000
     18       3.3099      2.00000
     19       6.3017      0.00000
     20       6.3893      0.00000
     21       6.4239      0.00000
     22       6.5555      0.00000

 k-point    19 :       0.4000    0.0000    0.3333
  band No.  band energies     occupation 
      1      -8.3133      2.00000
      2      -8.2850      2.00000
      3      -7.9327      2.00000
      4      -7.9009      2.00000
      5      -1.3549      2.00000
      6      -1.2886      2.00000
      7      -0.3875      2.00000
      8      -0.3268      2.00000
      9       0.1670      2.00000
     10       0.3152      2.00000
     11       1.1393      2.00000
     12       1.1521      2.00000
     13       2.3597      2.00000
     14       2.4719      2.00000
     15       3.0490      2.00000
     16       3.0771      2.00000
     17       3.3098      2.00000
     18       3.3776      2.00000
     19       6.3221      0.00000
     20       6.3408      0.00000
     21       6.6196      0.00000
     22       6.7676      0.00000

 k-point    20 :       0.5000    0.0000    0.3333
  band No.  band energies     occupation 
      1      -8.0906      2.00000
      2      -8.0722      2.00000
      3      -7.8331      2.00000
      4      -7.8152      2.00000
      5      -1.5695      2.00000
      6      -1.5081      2.00000
      7      -0.6107      2.00000
      8      -0.5644      2.00000
      9       0.0668      2.00000
     10       0.2128      2.00000
     11       1.0229      2.00000
     12       1.0361      2.00000
     13       2.3061      2.00000
     14       2.3564      2.00000
     15       3.1938      2.00000
     16       3.2283      2.00000
     17       3.5366      2.00000
     18       3.5581      2.00000
     19       6.3463      0.00000
     20       6.3557      0.00000
     21       6.8385      0.00000
     22       6.9111      0.00000

 k-point    21 :       0.1000    0.1000    0.3333
  band No.  band energies     occupation 
      1      -9.4867      2.00000
      2      -9.4394      2.00000
      3      -8.4835      2.00000
      4      -8.4106      2.00000
      5      -1.1034      2.00000
      6      -0.8580      2.00000
      7       0.7917      2.00000
      8       0.7931      2.00000
      9       1.2257      2.00000
     10       1.4658      2.00000
     11       1.9028      2.00000
     12       1.9237      2.00000
     13       1.9768      2.00000
     14       1.9805      2.00000
     15       3.1182      2.00000
     16       3.3483      2.00000
     17       3.8991      2.00000
     18       3.9976      2.00000
     19       6.3571      0.00000
     20       6.4980      0.00000
     21       6.7322      0.00000
     22       6.7920      0.00000

 k-point    22 :       0.2000    0.1000    0.3333
  band No.  band energies     occupation 
      1      -9.0212      2.00000
      2      -8.9783      2.00000
      3      -8.2590      2.00000
      4      -8.1998      2.00000
      5      -0.8431      2.00000
      6      -0.6689      2.00000
      7       0.3248      2.00000
      8       0.3634      2.00000
      9       0.6531      2.00000
     10       0.7465      2.00000
     11       1.2781      2.00000
     12       1.3538      2.00000
     13       2.2981      2.00000
     14       2.3054      2.00000
     15       3.0234      2.00000
     16       3.1760      2.00000
     17       3.4520      2.00000
     18       3.4666      2.00000
     19       6.0734      0.00000
     20       6.2924      0.00000
     21       6.5540      0.00000
     22       6.9497      0.00000

 k-point    23 :       0.3000    0.1000    0.3333
  band No.  band energies     occupation 
      1      -8.4860      2.00000
      2      -8.4524      2.00000
      3      -8.0056      2.00000
      4      -7.9650      2.00000
      5      -1.0710      2.00000
      6      -0.9927      2.00000
      7      -0.1638      2.00000
      8      -0.1167      2.00000
      9       0.2882      2.00000
     10       0.4213      2.00000
     11       1.0443      2.00000
     12       1.1225      2.00000
     13       2.3908      2.00000
     14       2.4121      2.00000
     15       2.6591      2.00000
     16       2.7442      2.00000
     17       3.3974      2.00000
     18       3.4176      2.00000
     19       6.1807      0.00000
     20       6.3493      0.00000
     21       6.6030      0.00000
     22       6.6847      0.00000

 k-point    24 :       0.4000    0.1000    0.3333
  band No.  band energies     occupation 
      1      -8.1022      2.00000
      2      -8.0819      2.00000
      3      -7.8282      2.00000
      4      -7.8072      2.00000
      5      -1.3783      2.00000
      6      -1.3182      2.00000
      7      -0.6361      2.00000
      8      -0.6123      2.00000
      9       0.1368      2.00000
     10       0.2773      2.00000
     11       1.0056      2.00000
     12       1.0527      2.00000
     13       2.3466      2.00000
     14       2.4145      2.00000
     15       2.5183      2.00000
     16       2.5531      2.00000
     17       3.6742      2.00000
     18       3.7076      2.00000
     19       6.3490      0.00000
     20       6.3971      0.00000
     21       6.8251      0.00000
     22       6.9140      0.00000

 k-point    25 :       0.2000    0.2000    0.3333
  band No.  band energies     occupation 
      1      -8.5519      2.00000
      2      -8.5165      2.00000
      3      -8.0310      2.00000
      4      -7.9871      2.00000
      5      -0.8860      2.00000
      6      -0.7958      2.00000
      7      -0.0059      2.00000
      8       0.0261      2.00000
      9       0.4054      2.00000
     10       0.4675      2.00000
     11       0.8667      2.00000
     12       1.0180      2.00000
     13       1.9502      2.00000
     14       1.9566      2.00000
     15       2.9401      2.00000
     16       2.9664      2.00000
     17       3.4113      2.00000
     18       3.4116      2.00000
     19       6.0450      0.00000
     20       6.3010      0.00000
     21       6.6494      0.00000
     22       6.6971      0.00000

 k-point    26 :       0.3000    0.2000    0.3333
  band No.  band energies     occupation 
      1      -8.1203      2.00000
      2      -8.0974      2.00000
      3      -7.8199      2.00000
      4      -7.7945      2.00000
      5      -1.0044      2.00000
      6      -0.9470      2.00000
      7      -0.6881      2.00000
      8      -0.6684      2.00000
      9       0.3982      2.00000
     10       0.4824      2.00000
     11       0.9378      2.00000
     12       1.0719      2.00000
     13       1.5036      2.00000
     14       1.5612      2.00000
     15       2.4956      2.00000
     16       2.5612      2.00000
     17       3.6677      2.00000
     18       3.6907      2.00000
     19       6.2601      0.00000
     20       6.3929      0.00000
     21       6.9059      0.00000
     22       7.3939      0.00000

 k-point    27 :       0.4000    0.2000    0.3333
  band No.  band energies     occupation 
      1      -7.9373      2.00000
      2      -7.9248      2.00000
      3      -7.7296      2.00000
      4      -7.7172      2.00000
      5      -1.0225      2.00000
      6      -0.9826      2.00000
      7      -0.9422      2.00000
      8      -0.9344      2.00000
      9       0.2040      2.00000
     10       0.3137      2.00000
     11       1.0640      2.00000
     12       1.1604      2.00000
     13       1.4469      2.00000
     14       1.5079      2.00000
     15       2.2215      2.00000
     16       2.3205      2.00000
     17       3.9073      2.00000
     18       3.9473      2.00000
     19       6.1469      0.00000
     20       6.1695      0.00000
     21       7.2547      0.00000
     22       7.4052      0.00000

 k-point    28 :       0.3000    0.3000    0.3333
  band No.  band energies     occupation 
      1      -7.8766      2.00000
      2      -7.8677      2.00000
      3      -7.6881      2.00000
      4      -7.6787      2.00000
      5      -1.1106      2.00000
      6      -1.0811      2.00000
      7      -0.6224      2.00000
      8      -0.5858      2.00000
      9       0.3720      2.00000
     10       0.3984      2.00000
     11       0.6482      2.00000
     12       0.7110      2.00000
     13       1.1996      2.00000
     14       1.2978      2.00000
     15       2.1269      2.00000
     16       2.2053      2.00000
     17       4.0330      2.00000
     18       4.0670      2.00000
     19       5.9390      0.00000
     20       5.9571      0.00000
     21       7.1132      0.00000
     22       7.3535      0.00000


--------------------------------------------------------------------------------------------------------


 soft charge-density along one line, spin component           1
         0         1         2         3         4         5         6         7         8         9
 total charge-density along one line
 
 pseudopotential strength for first ion, spin component:           1
 -7.950  -0.000  -0.000   0.000  -0.000  -0.103   0.000   0.000
 -0.000  -7.950   0.000  -0.000  -0.000   0.000  -0.103  -0.000
 -0.000   0.000  -7.929  -0.000  -0.000   0.000  -0.000  -0.104
  0.000  -0.000  -0.000  -7.950  -0.000  -0.000   0.000   0.000
 -0.000  -0.000  -0.000  -0.000  -7.950   0.000   0.000   0.000
 -0.103   0.000   0.000  -0.000   0.000   0.114  -0.000   0.000
  0.000  -0.103  -0.000   0.000   0.000  -0.000   0.114   0.000
  0.000  -0.000  -0.104   0.000   0.000   0.000   0.000   0.115
 -0.000   0.000   0.000  -0.103   0.000   0.000  -0.000  -0.000
  0.000   0.000   0.000   0.000  -0.103  -0.000  -0.000  -0.000
  0.000  -0.000  -0.005   0.000  -0.000  -0.000   0.000   0.000
 -0.000   0.000   0.001  -0.000   0.000   0.000  -0.000  -0.000
 -0.000   0.000  -0.000  -0.000  -0.007   0.000  -0.000   0.000
 -0.000   0.000   0.000  -0.000  -0.000  -0.000  -0.000  -0.000
 -0.007  -0.000   0.000   0.000  -0.000  -0.000  -0.000  -0.000
  0.000  -0.000   0.000   0.000   0.004  -0.000   0.000  -0.000
  0.000  -0.000  -0.000   0.000   0.000  -0.000   0.000   0.000
  0.004   0.000  -0.000  -0.000   0.000   0.000  -0.000   0.000
 total augmentation occupancy for first ion, spin component:           1
  0.965  -0.000  -0.000  -0.000  -0.000   0.605  -0.000  -0.000  -0.000  -0.000  -0.000   0.000   0.000  -0.000  -0.067  -0.000
  0.000   0.908  -0.000   0.000  -0.000   0.000   0.843   0.000   0.000   0.000   0.000   0.000   0.000   0.000  -0.000   0.000
 -0.000  -0.000   1.031  -0.000   0.000  -0.000   0.000   0.502  -0.000   0.000   0.113  -0.019  -0.000   0.000   0.000   0.000
  0.000   0.000  -0.000   0.908   0.000   0.000   0.000   0.000   0.843   0.000   0.000   0.000   0.000  -0.000   0.000  -0.000
 -0.000  -0.000   0.000  -0.000   0.965  -0.000   0.000   0.000  -0.000   0.605   0.000  -0.000  -0.067  -0.000  -0.000   0.007
  0.605   0.000  -0.000   0.000  -0.000   0.685  -0.000  -0.000  -0.000  -0.000  -0.000   0.000   0.000   0.000  -0.138  -0.000
 -0.000   0.843  -0.000   0.000   0.000   0.000   1.088  -0.000   0.000  -0.000   0.000   0.000  -0.000   0.000   0.000   0.000
 -0.000  -0.000   0.502   0.000   0.000  -0.000   0.000   0.478   0.000   0.000   0.057  -0.021  -0.000  -0.000   0.000   0.000
 -0.000   0.000   0.000   0.843   0.000  -0.000   0.000   0.000   1.088  -0.000   0.000   0.000  -0.000  -0.000  -0.000  -0.000
 -0.000  -0.000   0.000   0.000   0.605  -0.000  -0.000   0.000   0.000   0.685   0.000  -0.000  -0.138   0.000  -0.000   0.023
 -0.000   0.000   0.113   0.000   0.000  -0.000   0.000   0.057   0.000   0.000   1.211  -0.186   0.000   0.000   0.000  -0.000
  0.000  -0.000  -0.019  -0.000  -0.000   0.000  -0.000  -0.021   0.000  -0.000  -0.186   0.042   0.000   0.000   0.000  -0.000
  0.000   0.000  -0.000  -0.000  -0.067   0.000   0.000  -0.000  -0.000  -0.138   0.000   0.000   0.218   0.000   0.000  -0.032
  0.000   0.000   0.000  -0.000   0.000   0.000   0.000  -0.000  -0.000   0.000   0.000   0.000  -0.000   0.265   0.000   0.000
 -0.067   0.000   0.000  -0.000  -0.000  -0.138   0.000   0.000  -0.000  -0.000   0.000  -0.000   0.000   0.000   0.218  -0.000
 -0.000   0.000   0.000  -0.000   0.007  -0.000   0.000   0.000   0.000   0.023  -0.000  -0.000  -0.032  -0.000  -0.000   0.005
 -0.000  -0.000   0.000   0.000   0.000   0.000   0.000   0.000  -0.000  -0.000  -0.000   0.000   0.000  -0.038   0.000   0.000
  0.007  -0.000  -0.000  -0.000   0.000   0.023   0.000  -0.000   0.000   0.000   0.000  -0.000  -0.000   0.000  -0.032   0.000


------------------------ aborting loop because EDIFF is reached ----------------------------------------


    CHARGE:  cpu time    0.0920: real time    0.0931
    FORLOC:  cpu time    0.0070: real time    0.0062
    FORNL :  cpu time    0.1450: real time    0.1457
    STRESS:  cpu time    0.4469: real time    0.4563
    FORCOR:  cpu time    0.0660: real time    0.0656
    FORHAR:  cpu time    0.0140: real time    0.0145
    MIXING:  cpu time    0.0020: real time    0.0021
    OFIELD:  cpu time    0.0000: real time    0.0000

  DFT-D2 method for vdW energy calculation
  -------------------------------------------------------------------

  Parameters of vdW forcefield:
         C6(Jnm^6/mol)     R0(A)
   -----------------------------
   Mo      24.670          1.639
   S        5.570          1.683

  IVDW =   1
  VDW_RADIUS =    50.000 A
  VDW_S6 =     0.750
  VDW_SR =     1.000
  VDW_D =    20.000
  LVDW_EWALD = F

  Number of pair interactions contributing to vdW energy:   93814
  Edisp (eV):   -1.45586
    FORVDW:  cpu time    0.0230: real time    0.0322

  FORCE on cell =-STRESS in cart. coord.  units (eV):
  Direction    XX          YY          ZZ          XY          YZ          ZX
  --------------------------------------------------------------------------------------
  Alpha Z   101.17762   101.17762   101.17762
  Ewald    -274.78654  -274.78567  -860.43961     0.00038     0.00000     0.00024
  Hartree   252.87934   252.87935  -176.86206     0.00003     0.00000    -0.00001
  E(xc)    -140.72858  -140.72859  -141.79930    -0.00001     0.00000    -0.00000
  Local    -615.79097  -615.79154   387.88230    -0.00032     0.00000    -0.00011
  n-local   254.59990   251.69964   263.42020    -0.47524     0.01711     0.01424
  augment   -51.15269   -51.15267   -53.34250     0.00003     0.00000    -0.00001
  Kinetic   472.58384   477.04491   480.28650   -14.83209     0.02537     0.02601
  Fock        0.00000     0.00000     0.00000     0.00000     0.00000     0.00000
  vdW         0.04208     0.04208    -1.31985     0.00000     0.00000    -0.00000
  -------------------------------------------------------------------------------------
  Total      -0.39544    -0.39544    -0.99671    -0.00000    -0.00000     0.00000
  in kB      -5.40523    -5.40523   -13.62379    -0.00000    -0.00000     0.00000
  external pressure =       -8.14 kB  Pullay stress =        0.00 kB


 VOLUME and BASIS-vectors are now :
 -----------------------------------------------------------------------------
  energy-cutoff  :      450.00
  volume of cell :      117.21
      direct lattice vectors                 reciprocal lattice vectors
     3.192273748  0.000000000  0.000000000     0.313256343  0.180858622  0.000000000
    -1.596136874  2.764590347  0.000000000    -0.000000000  0.361717244  0.000000000
     0.000000000  0.000000000 13.281548762     0.000000000  0.000000000  0.075292424

  length of vectors
     3.192273748  3.192273908 13.281548762     0.361717262  0.361717244  0.075292424


 FORCES acting on ions
    electron-ion (+dipol)            ewald-force                    non-local-force                 convergence-correction
 -----------------------------------------------------------------------------------------------
   0.525E-04 -.427E-04 -.988E-05   0.938E-04 -.100E-03 0.292E-09   -.156E-16 0.139E-16 0.000E+00   0.481E-08 -.599E-08 -.241E-09
   0.723E-04 -.294E-04 -.988E-05   -.938E-04 0.100E-03 -.292E-09   0.260E-16 -.139E-16 0.000E+00   0.191E-08 0.211E-08 -.242E-09
   0.521E-03 -.304E-03 -.187E+03   0.884E-04 -.508E-04 0.192E+03   -.338E-16 0.156E-16 -.476E+01   0.104E-07 -.663E-08 0.348E-02
   -.118E-02 0.684E-03 0.187E+03   -.884E-04 0.508E-04 -.192E+03   0.234E-16 -.156E-16 0.476E+01   -.234E-07 0.141E-07 -.348E-02
   0.546E-03 0.680E-03 -.187E+03   -.552E-05 0.508E-04 0.192E+03   0.399E-16 0.113E-16 -.476E+01   0.916E-08 0.131E-07 0.348E-02
   -.119E-02 -.308E-03 0.187E+03   0.552E-05 -.508E-04 -.192E+03   -.390E-16 -.113E-16 0.476E+01   -.187E-07 -.763E-08 -.348E-02
 -----------------------------------------------------------------------------------------------
   -.118E-02 0.680E-03 -.107E-04   0.126E-13 0.229E-13 0.284E-13   0.867E-18 0.000E+00 0.000E+00   -.158E-07 0.913E-08 -.663E-09
 
 
 POSITION                                       TOTAL-FORCE (eV/Angst)
 -----------------------------------------------------------------------------------
     -0.00000      1.84306      3.32039        -0.000000      0.000000      0.000000
      1.59614      0.92153      9.96116        -0.000000      0.000000      0.000000
     -0.00000      1.84306     11.52089        -0.000000      0.000000      0.012344
      1.59614      0.92153      1.76066         0.000000     -0.000000     -0.012344
      1.59614      0.92153      4.88012         0.000000     -0.000000      0.012344
      0.00000      1.84306      8.40143        -0.000000      0.000000     -0.012344
 -----------------------------------------------------------------------------------
    total drift:                               -0.001178      0.000680     -0.000011


--------------------------------------------------------------------------------------------------------



  FREE ENERGIE OF THE ION-ELECTRON SYSTEM (eV)
  ---------------------------------------------------
  free  energy   TOTEN  =       -45.04590055 eV

  energy  without entropy=      -45.04590055  energy(sigma->0) =      -45.04590055
 


--------------------------------------------------------------------------------------------------------


    POTLOK:  cpu time    0.0660: real time    0.0651


--------------------------------------------------------------------------------------------------------


     LOOP+:  cpu time   20.0130: real time   20.5037
    4ORBIT:  cpu time    0.0000: real time    0.0000
 BZINTS: Fermi energy:  4.645927; 36.000000 electrons
         Band energy: -29.490070;  BLOECHL correction:  0.000000

 total amount of memory used by VASP MPI-rank0    58873. kBytes
=======================================================================

   base      :      30000. kBytes
   nonl-proj :      10444. kBytes
   fftplans  :       4559. kBytes
   grid      :       7349. kBytes
   one-center:         46. kBytes
   wavefun   :       6475. kBytes
 
  
  
 General timing and accounting informations for this job:
 ========================================================
  
                  Total CPU time used (sec):       21.231
                            User time (sec):       21.035
                          System time (sec):        0.196
                         Elapsed time (sec):       22.478
  
                   Maximum memory used (kb):       56156.
                   Average memory used (kb):           0.
  
                          Minor page faults:        14497
                          Major page faults:          179
                 Voluntary context switches:         2750
