unknown system                          
   1.00000000000000     
     3.190316    0.000000    0.000000
    -1.595158    2.762894    0.000000
     0.000000    0.000000   14.879004
   Mo   S 
     2     4
Direct
  0.333333  0.666667  0.250000
  0.666667  0.333333  0.750000
  0.333333  0.666667  0.855174
  0.666667  0.333333  0.144826
  0.666666  0.333333  0.355174
  0.333334  0.666667  0.644826
 
   36   36  160
 0.39550531715E+00 0.39857634567E+00 0.40779916877E+00 0.42320021183E+00 0.44476091078E+00
 0.47234405770E+00 0.50562008781E+00 0.54400854404E+00 0.58664540847E+00 0.63238242670E+00
 0.67981993537E+00 0.72736948255E+00 0.77333619126E+00 0.81600548282E+00 0.85372039592E+00
 0.88494767650E+00 0.90834533523E+00 0.92284612287E+00 0.92775380235E+00 0.92282519702E+00
 0.90830328727E+00 0.88488517669E+00 0.85364021858E+00 0.81591285958E+00 0.77323787792E+00
 0.72727206115E+00 0.67972834292E+00 0.63229943544E+00 0.58657208967E+00 0.54394517829E+00
 0.50556687357E+00 0.47230127017E+00 0.44472860000E+00 0.42317782784E+00 0.40778551456E+00
 0.39857000074E+00 0.39857038930E+00 0.39857318872E+00 0.40472067870E+00 0.41703657205E+00
 0.43552916224E+00 0.46012850046E+00 0.49061223182E+00 0.52653624485E+00 0.56718636621E+00
 0.61156066749E+00 0.65838454032E+00 0.70615781634E+00 0.75322879906E+00 0.79788054688E+00
 0.83841133726E+00 0.87320339573E+00 0.90079080641E+00 0.91994078231E+00 0.92974944620E+00
 0.92973503188E+00 0.91989886447E+00 0.90072684671E+00 0.87312719171E+00 0.83833173346E+00
 0.79779998224E+00 0.75314478824E+00 0.70606897241E+00 0.65829378675E+00 0.61147400686E+00
 0.56711030729E+00 0.52647514702E+00 0.49056611649E+00 0.46009392235E+00 0.43550317560E+00
 0.41701881538E+00 0.40471115873E+00 0.40778665866E+00 0.40471455186E+00 0.40779297392E+00
 0.41703416255E+00 0.43245215818E+00 0.45401621541E+00 0.48158716114E+00 0.51484720770E+00
 0.55323943226E+00 0.59593067887E+00 0.64180277085E+00 0.68947516967E+00 0.73736277270E+00
 0.78376019551E+00 0.82692875207E+00 0.86516964374E+00 0.89689165073E+00 0.92069195120E+00
 0.93545449907E+00 0.94045229984E+00 0.93543065404E+00 0.92064387726E+00 0.89682462119E+00
 0.86509371335E+00 0.82684994912E+00 0.78367743483E+00 0.73727462103E+00 0.68938499210E+00
 0.64171618762E+00 0.59585239010E+00 0.55317342004E+00 0.51479565047E+00 0.48154796919E+00
 0.45398523085E+00 0.43242831734E+00 0.41701920384E+00 0.42317913636E+00 0.41702352812E+00
 0.41702610159E+00 0.42318984681E+00 0.43552453688E+00 0.45401560878E+00 0.47857744711E+00
 0.50899358325E+00 0.54485296287E+00 0.58549856049E+00 0.62999674095E+00 0.67712994287E+00
 0.72542309354E+00 0.77321156914E+00 0.81873351394E+00 0.86021615096E+00 0.89594878826E+00
 0.92436228258E+00 0.94412881612E+00 0.95427220246E+00 0.95426810861E+00 0.94411128079E+00
 0.92432322362E+00 0.89588753976E+00 0.86013744586E+00 0.81864174574E+00 0.77311326105E+00
 0.72532926974E+00 0.67704880125E+00 0.62992737005E+00 0.58543677628E+00 0.54479881604E+00
 0.50894851040E+00 0.47853963388E+00 0.45398392223E+00 0.43550225545E+00 0.44472860001E+00
 0.43550902241E+00 0.43243682193E+00 0.43551359688E+00 0.44474480924E+00 0.46012035672E+00
 0.48158446497E+00 0.50899339533E+00 0.54205767162E+00 0.58028356581E+00 0.62292902197E+00
 0.66897354060E+00 0.71710713454E+00 0.76576106361E+00 0.81318758340E+00 0.85755888105E+00
 0.89705490488E+00 0.92994700035E+00 0.95469956976E+00 0.97008820673E+00 0.97531320407E+00
 0.97008903054E+00 0.95468777821E+00 0.92991123914E+00 0.89699331972E+00 0.85747432774E+00
 0.81308776851E+00 0.76566252912E+00 0.71702608518E+00 0.66891064373E+00 0.62287273286E+00
 0.58022794974E+00 0.54200678923E+00 0.50894996485E+00 0.48154682507E+00 0.46009077081E+00
 0.47229845199E+00 0.46009990527E+00 0.45399680212E+00 0.45399751429E+00 0.46010814405E+00
 0.47232114320E+00 0.49059597938E+00 0.51483686160E+00 0.54485054731E+00 0.58028647330E+00
 0.62058274155E+00 0.66492422258E+00 0.71220547822E+00 0.76101744745E+00 0.80969089679E+00
 0.85638997322E+00 0.89921406531E+00 0.93629164148E+00 0.96588716392E+00 0.98652970132E+00
 0.99714101139E+00 0.99714194471E+00 0.98652459457E+00 0.96586420625E+00 0.93624925618E+00
 0.89915496077E+00 0.85631397204E+00 0.80960434435E+00 0.76093710981E+00 0.71214086335E+00
 0.66486658824E+00 0.62052211032E+00 0.58022789453E+00 0.54480294296E+00 0.51479846874E+00
 0.49056290971E+00 0.50556127832E+00 0.49057129518E+00 0.48156338328E+00 0.47855767972E+00
 0.48156598339E+00 0.49058734514E+00 0.50559055731E+00 0.52650738446E+00 0.55321582689E+00
 0.58548946318E+00 0.62293287899E+00 0.66492935410E+00 0.71059247559E+00 0.75871990805E+00
 0.80778934769E+00 0.85602453344E+00 0.90149954394E+00 0.94224145232E+00 0.97634057045E+00
 0.10020892741E+01 0.10181299261E+01 0.10235795936E+01 0.10181238866E+01 0.10020673150E+01
 0.97630354671E+00 0.94220017612E+00 0.90145389483E+00 0.85596508091E+00 0.80771919416E+00
 0.75865293586E+00 0.71053059012E+00 0.66486376992E+00 0.62286713763E+00 0.58543808493E+00
 0.55318015937E+00 0.52647553543E+00 0.54393980713E+00 0.52647962980E+00 0.51481371568E+00
 0.50897222084E+00 0.50897218190E+00 0.51482370678E+00 0.52650850124E+00 0.54397433840E+00
 0.56714426740E+00 0.59589182913E+00 0.62997446223E+00 0.66896658857E+00 0.71220406178E+00
 0.75871980110E+00 0.80719441632E+00 0.85597882273E+00 0.90318803630E+00 0.94681013462E+00
 0.98481386676E+00 0.10152875990E+01 0.10366074028E+01 0.10475867012E+01 0.10475870457E+01
 0.10365982110E+01 0.10152593937E+01 0.98477866610E+00 0.94677911093E+00 0.90314961778E+00
 0.85592088198E+00 0.80712768932E+00 0.75865830686E+00 0.71214341600E+00 0.66890250961E+00
 0.62992069047E+00 0.59585776114E+00 0.56711606670E+00 0.58657208958E+00 0.56711555739E+00
 0.55319080133E+00 0.54482640988E+00 0.54203364206E+00 0.54482898704E+00 0.55321452077E+00
 0.56715765405E+00 0.58660877684E+00 0.61151129967E+00 0.64175314418E+00 0.67708887065E+00
 0.71707435948E+00 0.76099561610E+00 0.80778398613E+00 0.85598294913E+00 0.90381356238E+00
 0.94928947762E+00 0.99032514068E+00 0.10248622213E+01 0.10510455491E+01 0.10674029965E+01
 0.10729763517E+01 0.10674157965E+01 0.10510452387E+01 0.10248416046E+01 0.99030046011E+00
 0.94926126008E+00 0.90376445151E+00 0.85591636820E+00 0.80772478947E+00 0.76094981289E+00
 0.71702608507E+00 0.67703760780E+00 0.64171504357E+00 0.61148350320E+00 0.63230809718E+00
 0.61148185371E+00 0.59586520256E+00 0.58546293831E+00 0.58025954063E+00 0.58025672952E+00
 0.58547221506E+00 0.59590413019E+00 0.61153117017E+00 0.63234523907E+00 0.65833756844E+00
 0.68942332791E+00 0.72536443473E+00 0.76570025225E+00 0.80964830871E+00 0.85601287373E+00
 0.90319368978E+00 0.94929389805E+00 0.99224078153E+00 0.10299001176E+01 0.10602400207E+01
 0.10815352751E+01 0.10925313300E+01 0.10925474746E+01 0.10815601761E+01 0.10602424153E+01
 0.10298853586E+01 0.99222272312E+00 0.94926003692E+00 0.90313558500E+00 0.85595641927E+00
 0.80961582445E+00 0.76567395384E+00 0.72532191653E+00 0.68937633041E+00 0.65830206007E+00
 0.67974274314E+00 0.65830444159E+00 0.64172261264E+00 0.62994596929E+00 0.62290623361E+00
 0.62055681062E+00 0.62290222620E+00 0.62996820678E+00 0.64177237738E+00 0.65835148079E+00
 0.67978126652E+00 0.70611955779E+00 0.73731632176E+00 0.77314448872E+00 0.81311212675E+00
 0.85633673437E+00 0.90147809326E+00 0.94680445521E+00 0.99032463262E+00 0.10299051003E+01
 0.10634095051E+01 0.10889057699E+01 0.11048716555E+01 0.11103227361E+01 0.11048950940E+01
 0.10889165960E+01 0.10633980102E+01 0.10298940203E+01 0.99031486027E+00 0.94677373976E+00
 0.90143389934E+00 0.85631115386E+00 0.81310216875E+00 0.77311456953E+00 0.73726136486E+00
 0.70606936097E+00 0.72728340131E+00 0.70607976745E+00 0.68938700745E+00 0.67705784222E+00
 0.66894157518E+00 0.66490846300E+00 0.66490345326E+00 0.66894869683E+00 0.67709886413E+00
 0.68943867768E+00 0.70611804235E+00 0.72732655268E+00 0.75319679687E+00 0.78371834497E+00
 0.81866708409E+00 0.85748611909E+00 0.89915984809E+00 0.94220555707E+00 0.98478941875E+00
 0.10248579721E+01 0.10602593609E+01 0.10889261644E+01 0.11091071350E+01 0.11195411052E+01
 0.11195491454E+01 0.11091102605E+01 0.10889052559E+01 0.10602397370E+01 0.10248628297E+01
 0.98479537715E+00 0.94218883578E+00 0.89914080235E+00 0.85748290494E+00 0.81865177720E+00
 0.78366609452E+00 0.75313383658E+00 0.77323787803E+00 0.75315148605E+00 0.73727712589E+00
 0.72533362241E+00 0.71705171916E+00 0.71218694166E+00 0.71057726518E+00 0.71218844226E+00
 0.71708458623E+00 0.72539233162E+00 0.73732360346E+00 0.75318349776E+00 0.77328700427E+00
 0.79784430716E+00 0.82688269018E+00 0.86015419704E+00 0.89699498959E+00 0.93624165498E+00
 0.97629426554E+00 0.10152544073E+01 0.10510469366E+01 0.10815671351E+01 0.11049033372E+01
 0.11195544104E+01 0.11245557230E+01 0.11195547393E+01 0.11048806936E+01 0.10815345802E+01
 0.10510452389E+01 0.10152816989E+01 0.97630914179E+00 0.93623514024E+00 0.89699331982E+00
 0.86015307139E+00 0.82684880485E+00 0.79778265957E+00 0.81590083326E+00 0.79780013843E+00
 0.78368489434E+00 0.77312143840E+00 0.76568368009E+00 0.76098060055E+00 0.75870386527E+00
 0.75870376826E+00 0.76100215683E+00 0.76574461001E+00 0.77318886125E+00 0.78372675083E+00
 0.79783596739E+00 0.81595301026E+00 0.83836195332E+00 0.86511138624E+00 0.89589074582E+00
 0.92990108301E+00 0.96584513079E+00 0.10020454680E+01 0.10365800104E+01 0.10674071568E+01
 0.10925519420E+01 0.11103383367E+01 0.11195593182E+01 0.11195644719E+01 0.11103347623E+01
 0.10925267862E+01 0.10673938853E+01 0.10366048666E+01 0.10020793414E+01 0.96585499794E+00
 0.92990197579E+00 0.89590087493E+00 0.86510573970E+00 0.83831931837E+00 0.85362386059E+00
 0.83832695834E+00 0.82686292689E+00 0.81865873792E+00 0.81310684331E+00 0.80963831423E+00
 0.80776695318E+00 0.80717421262E+00 0.80777237175E+00 0.80968082157E+00 0.81318205419E+00
 0.81872500441E+00 0.82690907719E+00 0.83837652011E+00 0.85367214180E+00 0.87314109044E+00
 0.89682232378E+00 0.92430737438E+00 0.95466242035E+00 0.98649544636E+00 0.10180974868E+01
 0.10475695106E+01 0.10729718974E+01 0.10925399155E+01 0.11048869794E+01 0.11091184754E+01
 0.11049024137E+01 0.10925399915E+01 0.10729599936E+01 0.10475816748E+01 0.10181346493E+01
 0.98652177613E+00 0.95467142023E+00 0.92432453234E+00 0.89684212322E+00 0.87312757999E+00
 0.88487439254E+00 0.87312185442E+00 0.86510814391E+00 0.86016032490E+00 0.85749227584E+00
 0.85633576544E+00 0.85600310640E+00 0.85596771193E+00 0.85596373203E+00 0.85601492372E+00
 0.85638879960E+00 0.85756465696E+00 0.86022223212E+00 0.86516675193E+00 0.87318442409E+00
 0.88491096895E+00 0.90072633384E+00 0.92062154358E+00 0.94407500406E+00 0.97004887764E+00
 0.99710808403E+00 0.10235589528E+01 0.10475802945E+01 0.10674059141E+01 0.10815394168E+01
 0.10889040404E+01 0.10889165540E+01 0.10815547208E+01 0.10674020973E+01 0.10475812883E+01
 0.10235903775E+01 0.99714991021E+00 0.97007548342E+00 0.94409918831E+00 0.92065466124E+00
 0.90073801898E+00 0.90830328712E+00 0.90072454815E+00 0.89683454754E+00 0.89590808804E+00
 0.89700945645E+00 0.89916833982E+00 0.90148235387E+00 0.90319666699E+00 0.90381643496E+00
 0.90319087698E+00 0.90150379333E+00 0.89922274566E+00 0.89706949835E+00 0.89596601129E+00
 0.89690371622E+00 0.90078911677E+00 0.90832445354E+00 0.91988791457E+00 0.93539292739E+00
 0.95421589248E+00 0.97526222518E+00 0.99710481103E+00 0.10181138448E+01 0.10366060938E+01
 0.10510469363E+01 0.10602339635E+01 0.10633951050E+01 0.10602454161E+01 0.10510455491E+01
 0.10365987168E+01 0.10181355214E+01 0.99715788665E+00 0.97531320392E+00 0.95425274294E+00
 0.93542951001E+00 0.91991253298E+00 0.92283449764E+00 0.91990026790E+00 0.92064549480E+00
 0.92433461135E+00 0.92992568872E+00 0.93626284006E+00 0.94222650338E+00 0.94682830369E+00
 0.94932059694E+00 0.94931610374E+00 0.94683392891E+00 0.94226256631E+00 0.93631307925E+00
 0.92997165013E+00 0.92438937486E+00 0.92071588703E+00 0.91995336262E+00 0.92284040046E+00
 0.92971708813E+00 0.94040632998E+00 0.95421113602E+00 0.97002879310E+00 0.98648614593E+00
 0.10020667952E+01 0.10152806421E+01 0.10248600115E+01 0.10298957996E+01 0.10299007565E+01
 0.10248616371E+01 0.10152729273E+01 0.10020799735E+01 0.98654182029E+00 0.97010027033E+00
 0.95426421034E+00 0.94044299923E+00 0.92974394407E+00 0.92776661987E+00 0.92973855121E+00
 0.93542466282E+00 0.94411238200E+00 0.95470251695E+00 0.96588692137E+00 0.97633715598E+00
 0.98483221299E+00 0.99036635397E+00 0.99228186852E+00 0.99036688934E+00 0.98485669017E+00
 0.97638348850E+00 0.96592901552E+00 0.95473977900E+00 0.94416630011E+00 0.93548622876E+00
 0.92977074717E+00 0.92776009308E+00 0.92972638878E+00 0.93540574484E+00 0.94406421995E+00
 0.95463324483E+00 0.96583310449E+00 0.97630708323E+00 0.98480075894E+00 0.99032621529E+00
 0.99224944327E+00 0.99033795814E+00 0.98480849560E+00 0.97632215763E+00 0.96588434571E+00
 0.95471238729E+00 0.94413012461E+00 0.93544282557E+00 0.92974983471E+00 0.92285542341E+00
 0.92975293105E+00 0.94044333056E+00 0.95426290732E+00 0.97010573821E+00 0.98656047973E+00
 0.10021133566E+01 0.10153171189E+01 0.10249099346E+01 0.10299483176E+01 0.10299433916E+01
 0.10249142412E+01 0.10153502395E+01 0.10021570675E+01 0.98659477894E+00 0.97014515395E+00
 0.95431910457E+00 0.94048901760E+00 0.92976144658E+00 0.92284040061E+00 0.91991127227E+00
 0.92064162797E+00 0.92429807356E+00 0.92987975586E+00 0.93623402146E+00 0.94220351751E+00
 0.94679515464E+00 0.94929325929E+00 0.94930866309E+00 0.94682480610E+00 0.94223215157E+00
 0.93627952259E+00 0.92995353792E+00 0.92437027448E+00 0.92068265048E+00 0.91993187018E+00
 0.90834533529E+00 0.91994225442E+00 0.93544856594E+00 0.95426696791E+00 0.97533104721E+00
 0.99718738582E+00 0.10181807641E+01 0.10366576864E+01 0.10511111027E+01 0.10603094475E+01
 0.10634536908E+01 0.10602902526E+01 0.10511097501E+01 0.10366849029E+01 0.10182130216E+01
 0.99722029449E+00 0.97538205276E+00 0.95432386089E+00 0.93547341110E+00 0.91993000507E+00
 0.90832445375E+00 0.90075117485E+00 0.89683868163E+00 0.89588871520E+00 0.89699498954E+00
 0.89916256478E+00 0.90146369289E+00 0.90317097111E+00 0.90381356254E+00 0.90320746432E+00
 0.90150513904E+00 0.89920282656E+00 0.89705490494E+00 0.89596153660E+00 0.89689050649E+00
 0.90077636092E+00 0.88493689272E+00 0.90078884743E+00 0.92069351895E+00 0.94412979407E+00
 0.97010492698E+00 0.99718655955E+00 0.10236406108E+01 0.10476463704E+01 0.10674771702E+01
 0.10816311418E+01 0.10889867765E+01 0.10889662834E+01 0.10815991486E+01 0.10674730454E+01
 0.10476636571E+01 0.10236611927E+01 0.99722356766E+00 0.97016523851E+00 0.94417708386E+00
 0.92069580233E+00 0.90076427592E+00 0.88491096912E+00 0.87315187440E+00 0.86511262882E+00
 0.86016034738E+00 0.85750824318E+00 0.85634751808E+00 0.85599342790E+00 0.85596228046E+00
 0.85598423574E+00 0.85603531728E+00 0.85638200749E+00 0.85755086025E+00 0.86022824354E+00
 0.86518042753E+00 0.87319222322E+00 0.85370403791E+00 0.87319841566E+00 0.89690143583E+00
 0.92437346149E+00 0.95471445541E+00 0.98656577948E+00 0.10181866584E+01 0.10476459358E+01
 0.10730356321E+01 0.10926210196E+01 0.11049807045E+01 0.11091883789E+01 0.11049488703E+01
 0.10926003740E+01 0.10730402789E+01 0.10476528732E+01 0.10181966637E+01 0.98660407975E+00
 0.95476895454E+00 0.92439867528E+00 0.89688735814E+00 0.87317364022E+00 0.85367214182E+00
 0.83834992680E+00 0.82686633233E+00 0.81867842450E+00 0.81314288497E+00 0.80965697022E+00
 0.80776762806E+00 0.80718904539E+00 0.80780011040E+00 0.80968807835E+00 0.81317122541E+00
 0.81873482266E+00 0.82694625412E+00 0.83841172555E+00 0.81599345605E+00 0.83840656859E+00
 0.86518408891E+00 0.89596915176E+00 0.92996164282E+00 0.96590997450E+00 0.10021351250E+01
 0.10366667337E+01 0.10674645687E+01 0.10926048359E+01 0.11104149284E+01 0.11196404046E+01
 0.11196272625E+01 0.11103995791E+01 0.10926124005E+01 0.10674742878E+01 0.10366588193E+01
 0.10021357405E+01 0.96594104225E+00 0.92999297725E+00 0.89596804167E+00 0.86516550935E+00
 0.83838854662E+00 0.81595301010E+00 0.79781534634E+00 0.78369497843E+00 0.77315651546E+00
 0.76572094048E+00 0.76099347426E+00 0.75871314561E+00 0.75873193462E+00 0.76102665555E+00
 0.76574627387E+00 0.77319823407E+00 0.78377222211E+00 0.79789296174E+00 0.77333619109E+00
 0.79788044869E+00 0.82694197324E+00 0.86023898524E+00 0.89707098545E+00 0.93630524858E+00
 0.97637409327E+00 0.10153452852E+01 0.10511115365E+01 0.10816061648E+01 0.11049571242E+01
 0.11196325206E+01 0.11246301507E+01 0.11196223548E+01 0.11049652284E+01 0.10816268667E+01
 0.10511097498E+01 0.10153240045E+01 0.97637067109E+00 0.93632071301E+00 0.89706949832E+00
 0.86021608183E+00 0.82692543530E+00 0.79786492809E+00 0.77328700398E+00 0.75316852228E+00
 0.73730192165E+00 0.72537270736E+00 0.71707435940E+00 0.71219249850E+00 0.71059807096E+00
 0.71222523078E+00 0.71710713436E+00 0.72540485059E+00 0.73736162872E+00 0.75324534488E+00
 0.72738082283E+00 0.75323539662E+00 0.78376783300E+00 0.81875057572E+00 0.85757648092E+00
 0.89922752002E+00 0.94226788184E+00 0.98486740909E+00 0.10249304688E+01 0.10603070285E+01
 0.10889758958E+01 0.11091855141E+01 0.11196269265E+01 0.11196170378E+01 0.11091770388E+01
 0.10889884078E+01 0.10603156498E+01 0.10249122014E+01 0.98484534988E+00 0.94226460604E+00
 0.89922002887E+00 0.85754253272E+00 0.81871366434E+00 0.78375011784E+00 0.75321177216E+00
 0.72732655236E+00 0.70610821745E+00 0.68942600651E+00 0.67709032603E+00 0.66894987719E+00
 0.66491801391E+00 0.66493838127E+00 0.66898764386E+00 0.67711991105E+00 0.68946382943E+00
 0.70616876826E+00 0.67983433580E+00 0.70616874449E+00 0.73736513666E+00 0.77321980872E+00
 0.81320640124E+00 0.85641184811E+00 0.90152821392E+00 0.94685921637E+00 0.99039092618E+00
 0.10299631580E+01 0.10634652772E+01 0.10889872361E+01 0.11049715245E+01 0.11104029016E+01
 0.11049499461E+01 0.10889759928E+01 0.10634680914E+01 0.10299526921E+01 0.99036530646E+00
 0.94684322960E+00 0.90151819370E+00 0.85637801549E+00 0.81315129579E+00 0.77317683499E+00
 0.73733800407E+00 0.70612938252E+00 0.67978126631E+00 0.65834623022E+00 0.64176754456E+00
 0.62996909106E+00 0.62291288328E+00 0.62057992338E+00 0.62294342242E+00 0.62999804943E+00
 0.64178951447E+00 0.65838492888E+00 0.63239108855E+00 0.65839520827E+00 0.68947691994E+00
 0.72542746667E+00 0.76578236332E+00 0.80972479624E+00 0.85606268935E+00 0.90323495970E+00
 0.94934884521E+00 0.99230007120E+00 0.10299544962E+01 0.10603097071E+01 0.10816317611E+01
 0.10926255242E+01 0.10926123575E+01 0.10816116960E+01 0.10603040525E+01 0.10299476789E+01
 0.99227320665E+00 0.94931674261E+00 0.90321359599E+00 0.85603436942E+00 0.80967215948E+00
 0.76572392160E+00 0.72538405942E+00 0.68943599943E+00 0.65834281894E+00 0.63234523904E+00
 0.61152984646E+00 0.59590586193E+00 0.58548080116E+00 0.58027499314E+00 0.58028946470E+00
 0.58550591370E+00 0.59592201688E+00 0.61155239410E+00 0.58664540853E+00 0.61156826159E+00
 0.64180918916E+00 0.67713904944E+00 0.71713310696E+00 0.76106074591E+00 0.80783704621E+00
 0.85602571390E+00 0.90386560082E+00 0.94935006831E+00 0.99037652565E+00 0.10249092435E+01
 0.10511115368E+01 0.10674864804E+01 0.10730519900E+01 0.10674780689E+01 0.10511111027E+01
 0.10249105190E+01 0.99035353636E+00 0.94930141133E+00 0.90381643516E+00 0.85598440114E+00
 0.80778872965E+00 0.76100429816E+00 0.71708458618E+00 0.67709740893E+00 0.64175797706E+00
 0.61151262344E+00 0.58660877699E+00 0.56715952351E+00 0.55322142204E+00 0.54484348050E+00
 0.54205767167E+00 0.54486153931E+00 0.55323828807E+00 0.56717609266E+00 0.54400317298E+00
 0.56719145254E+00 0.59594375134E+00 0.63001549162E+00 0.66900455855E+00 0.71225145850E+00
 0.75877065941E+00 0.80724112547E+00 0.85603022783E+00 0.90324899276E+00 0.94686458741E+00
 0.98485069747E+00 0.10153229798E+01 0.10366600786E+01 0.10476513071E+01 0.10476517832E+01
 0.10366663723E+01 0.10153317907E+01 0.98483758407E+00 0.94681363180E+00 0.90317723885E+00
 0.85596229934E+00 0.80717958393E+00 0.75871042364E+00 0.71220000531E+00 0.66896540817E+00
 0.62997357782E+00 0.59589009717E+00 0.56714239808E+00 0.54397433866E+00 0.52651275564E+00
 0.51483430868E+00 0.50899078724E+00 0.50900026308E+00 0.51485257884E+00 0.52653048515E+00
 0.50561449231E+00 0.52654091814E+00 0.55325697031E+00 0.58552486220E+00 0.62296232532E+00
 0.66496614843E+00 0.71063900207E+00 0.75876528823E+00 0.80783145080E+00 0.85607135137E+00
 0.90154820988E+00 0.94227922203E+00 0.97636849765E+00 0.10021230984E+01 0.10181758960E+01
 0.10236298269E+01 0.10181751687E+01 0.10021226573E+01 0.97635556906E+00 0.94223580393E+00
 0.90147675830E+00 0.85599232246E+00 0.80775619074E+00 0.75869183887E+00 0.71057166985E+00
 0.66491479360E+00 0.62292222195E+00 0.58548087670E+00 0.55320892521E+00 0.52650313023E+00
 0.50559055756E+00 0.49059316106E+00 0.48157886949E+00 0.47857875576E+00 0.48159390073E+00
 0.49061262024E+00 0.47234123911E+00 0.49061763162E+00 0.51486513097E+00 0.54488058475E+00
 0.58031505620E+00 0.62061742738E+00 0.66496896687E+00 0.71224890573E+00 0.76104804237E+00
 0.80971331597E+00 0.85641466673E+00 0.89924167889E+00 0.93631936443E+00 0.96591918252E+00
 0.98656859785E+00 0.99717859402E+00 0.99717051038E+00 0.98654836076E+00 0.96588973997E+00
 0.93627495923E+00 0.89917957839E+00 0.85634373087E+00 0.80964113261E+00 0.76097139243E+00
 0.71216718902E+00 0.66489430448E+00 0.62055962924E+00 0.58026820978E+00 0.54483605338E+00
 0.51482625931E+00 0.49059016359E+00 0.47232114334E+00 0.46011477517E+00 0.45401148172E+00
 0.45401903389E+00 0.46013170736E+00 0.44476091077E+00 0.46013431698E+00 0.48160236787E+00
 0.50901724321E+00 0.54208470320E+00 0.58031511138E+00 0.62296792083E+00 0.66901269301E+00
 0.71713310688E+00 0.76577093806E+00 0.81319200082E+00 0.85756790403E+00 0.89707098561E+00
 0.92997090619E+00 0.95473081344E+00 0.97011847415E+00 0.97533104713E+00 0.97009367427E+00
 0.95468969944E+00 0.92991915149E+00 0.89700945658E+00 0.85750029659E+00 0.81312320131E+00
 0.76569846980E+00 0.71705171903E+00 0.66892747162E+00 0.62289183339E+00 0.58025364228E+00
 0.54203364214E+00 0.50897478966E+00 0.48157157865E+00 0.46011372562E+00 0.44474480921E+00
 0.43552046497E+00 0.43245101409E+00 0.43553153707E+00 0.42320152069E+00 0.43553468745E+00
 0.45402777608E+00 0.47859543488E+00 0.50901578868E+00 0.54487645754E+00 0.58552355349E+00
 0.63002217163E+00 0.67715024329E+00 0.72543481975E+00 0.77321849987E+00 0.81874054411E+00
 0.86022335973E+00 0.89595581659E+00 0.92437215290E+00 0.94414188688E+00 0.95428233370E+00
 0.95427089913E+00 0.94411107319E+00 0.92432661946E+00 0.89589533982E+00 0.86014823232E+00
 0.81865742933E+00 0.77313477379E+00 0.72535186538E+00 0.67706787357E+00 0.62994466043E+00
 0.58545558530E+00 0.54481783383E+00 0.50896554112E+00 0.47855637101E+00 0.45400164138E+00
 0.43551766871E+00 0.42318984665E+00 0.41703285378E+00 0.41703749236E+00 0.40780031307E+00
 0.41704141869E+00 0.43246075696E+00 0.45402908484E+00 0.48160351216E+00 0.51486231249E+00
 0.55325023052E+00 0.59593838021E+00 0.64181033355E+00 0.68948558193E+00 0.73737839284E+00
 0.78377917324E+00 0.82694311743E+00 0.86517206231E+00 0.89688393358E+00 0.92068273515E+00
 0.93544971039E+00 0.94045263128E+00 0.93543633612E+00 0.92065479540E+00 0.89683569178E+00
 0.86509735993E+00 0.82684542466E+00 0.78367286799E+00 0.73727827037E+00 0.68939834776E+00
 0.64173586860E+00 0.59587386424E+00 0.55319194558E+00 0.51480834465E+00 0.48155664375E+00
 0.45399398386E+00 0.43243796625E+00 0.41702741021E+00 0.40779297372E+00 0.40472106716E+00
 0.39857673417E+00 0.40472467912E+00 0.41704103009E+00 0.43553560762E+00 0.46013746888E+00
 0.49062083868E+00 0.52654052951E+00 0.56718569273E+00 0.61155876514E+00 0.65838693505E+00
 0.70616835603E+00 0.75324634845E+00 0.79789777163E+00 0.83841898366E+00 0.87319802696E+00
 0.90077767486E+00 0.91992858606E+00 0.92974401915E+00 0.92973816274E+00 0.91990918003E+00
 0.90073899381E+00 0.87313302689E+00 0.83832656964E+00 0.79778772327E+00 0.75313494050E+00
 0.70606881598E+00 0.65830405313E+00 0.61149012694E+00 0.56712583082E+00 0.52648538938E+00
 0.49057090655E+00 0.46009669837E+00 0.43550664795E+00 0.41702260812E+00 0.40471416326E+00
 0.39857318858E+00 0.40554337410E+00 0.40881417081E+00 0.41862185645E+00 0.43495403478E+00
 0.45774176098E+00 0.48680232582E+00 0.52177872900E+00 0.56208473562E+00 0.60686391306E+00
 0.65497212780E+00 0.70499213103E+00 0.75528327480E+00 0.80405965193E+00 0.84948127162E+00
 0.88974284829E+00 0.92315599006E+00 0.94823451754E+00 0.96379449097E+00 0.96906384289E+00
 0.96377324775E+00 0.94819223155E+00 0.92309373614E+00 0.88966329331E+00 0.84938895810E+00
 0.80396071764E+00 0.75518445047E+00 0.70489911414E+00 0.65488825302E+00 0.60679018867E+00
 0.56202109008E+00 0.52172517264E+00 0.48675915219E+00 0.45770909411E+00 0.43493140468E+00
 0.41860811469E+00 0.40880783732E+00 0.40880818837E+00 0.40881099760E+00 0.41583914427E+00
 0.42986298114E+00 0.45080013969E+00 0.47847900887E+00 0.51259105150E+00 0.55263682693E+00
 0.59787434050E+00 0.64727993164E+00 0.69953311640E+00 0.75303725683E+00 0.80598008279E+00
 0.85642229972E+00 0.90239435979E+00 0.94199112592E+00 0.97346981162E+00 0.99536018176E+00
 0.10065847841E+01 0.10065702153E+01 0.99531791761E+00 0.97340556406E+00 0.94191482959E+00
 0.90231470336E+00 0.85634140413E+00 0.80589534991E+00 0.75294756865E+00 0.69944178696E+00
 0.64719309096E+00 0.59779831139E+00 0.55257574597E+00 0.51254489016E+00 0.47844438613E+00
 0.45077414182E+00 0.42984522056E+00 0.41582960931E+00 0.41860922491E+00 0.41485625270E+00
 0.41861543260E+00 0.42986035358E+00 0.44850062460E+00 0.47436524654E+00 0.50717566767E+00
 0.54650409566E+00 0.59172056740E+00 0.64193810449E+00 0.69596793276E+00 0.75230313485E+00
 0.80914953715E+00 0.86450365778E+00 0.91625476649E+00 0.96228990151E+00 0.10006023806E+01
 0.10294143311E+01 0.10473119391E+01 0.10533767655E+01 0.10472880100E+01 0.10293659432E+01
 0.10005346197E+01 0.96221286550E+00 0.91617491678E+00 0.86442042254E+00 0.80906156757E+00
 0.75221340813E+00 0.69588168697E+00 0.64186000846E+00 0.59165476827E+00 0.54645284630E+00
 0.50713683345E+00 0.47433461707E+00 0.44847709676E+00 0.42984561787E+00 0.43493270948E+00
 0.42697360854E+00 0.42697610975E+00 0.43494312161E+00 0.45079496515E+00 0.47436427781E+00
 0.50539018580E+00 0.54349741699E+00 0.58815289106E+00 0.63860617454E+00 0.69382442982E+00
 0.75243866341E+00 0.81273052912E+00 0.87268174925E+00 0.93007430756E+00 0.98260844709E+00
 0.10280232697E+01 0.10642294916E+01 0.10894592909E+01 0.11024180012E+01 0.11024140652E+01
 0.10894420067E+01 0.10641902672E+01 0.10279611361E+01 0.98252853374E+00 0.92998187726E+00
 0.87258376021E+00 0.81263754806E+00 0.75235815941E+00 0.69375530158E+00 0.63854455558E+00
 0.58809910378E+00 0.54345292203E+00 0.50535310421E+00 0.47433335851E+00 0.45077328058E+00
 0.45770909412E+00 0.44517460559E+00 0.44098046154E+00 0.44517902251E+00 0.45772476803E+00
 0.47846994920E+00 0.50717229210E+00 0.54349679009E+00 0.58698909778E+00 0.63702061930E+00
 0.69271712430E+00 0.75288104648E+00 0.81593212264E+00 0.87990755671E+00 0.94253910383E+00
 0.10013781104E+01 0.10539320992E+01 0.10978094343E+01 0.11308830579E+01 0.11514631848E+01
 0.11584529254E+01 0.11514645019E+01 0.11308719435E+01 0.10977741195E+01 0.10538705882E+01
 0.10012935310E+01 0.94243945187E+00 0.87980926992E+00 0.81585113841E+00 0.75281810398E+00
 0.69266103320E+00 0.63696560117E+00 0.58693907388E+00 0.54345435391E+00 0.50713572321E+00
 0.47844129838E+00 0.48675630025E+00 0.46939558526E+00 0.46066125710E+00 0.46066181225E+00
 0.46940334359E+00 0.48677819041E+00 0.51257366919E+00 0.54649269991E+00 0.58814922932E+00
 0.63702255010E+00 0.69238587561E+00 0.75322115847E+00 0.81812996430E+00 0.88527970587E+00
 0.95243310360E+00 0.10170593092E+01 0.10764810750E+01 0.11280321310E+01 0.11692343152E+01
 0.11979927737E+01 0.12127797129E+01 0.12127807956E+01 0.11979881944E+01 0.11692123416E+01
 0.11279910114E+01 0.10764230888E+01 0.10169838662E+01 0.95234643856E+00 0.88519887791E+00
 0.81806503582E+00 0.75316386534E+00 0.69232632737E+00 0.63696548592E+00 0.58810316805E+00
 0.54645565199E+00 0.51254168713E+00 0.52171947271E+00 0.49942703348E+00 0.48594506960E+00
 0.48143090529E+00 0.48594703928E+00 0.49944217344E+00 0.52174768844E+00 0.55260656696E+00
 0.59169540263E+00 0.63859519215E+00 0.69271917059E+00 0.75322502436E+00 0.81891566270E+00
 0.88814583910E+00 0.95879312365E+00 0.10283314512E+01 0.10939745205E+01 0.11528402287E+01
 0.12021343798E+01 0.12393647308E+01 0.12625573738E+01 0.12704360541E+01 0.12625513043E+01
 0.12393430101E+01 0.12020982036E+01 0.11528002889E+01 0.10939299825E+01 0.10282722984E+01
 0.95872276550E+00 0.88807903208E+00 0.81885477484E+00 0.75316105960E+00 0.69265533329E+00
 0.63854581418E+00 0.59166157839E+00 0.55257614323E+00 0.56201555927E+00 0.53485007835E+00
 0.51657773333E+00 0.50738703141E+00 0.50738645310E+00 0.51658656446E+00 0.53487771938E+00
 0.56204857720E+00 0.59783044650E+00 0.64189754088E+00 0.69380040340E+00 0.75287195149E+00
 0.81812615771E+00 0.88814421026E+00 0.96099075462E+00 0.10342327103E+01 0.11050636471E+01
 0.11704698683E+01 0.12274106376E+01 0.12730365958E+01 0.13049363518E+01 0.13213548641E+01
 0.13213553583E+01 0.13049273751E+01 0.12730085630E+01 0.12273760158E+01 0.11704399641E+01
 0.11050262379E+01 0.10341753648E+01 0.96092496485E+00 0.88808460909E+00 0.81806780706E+00
 0.75280983647E+00 0.69374846604E+00 0.64186558550E+00 0.59780428565E+00 0.60679018857E+00
 0.57498778827E+00 0.55206650060E+00 0.53822349970E+00 0.53358938678E+00 0.53822488238E+00
 0.55208882990E+00 0.57502839522E+00 0.60682456045E+00 0.64722810885E+00 0.69591658508E+00
 0.75239624085E+00 0.81589727758E+00 0.88525514676E+00 0.95878552553E+00 0.10342358153E+01
 0.11088701484E+01 0.11796342485E+01 0.12433321912E+01 0.12968320590E+01 0.13373263208E+01
 0.13625926488E+01 0.13711917086E+01 0.13626068933E+01 0.13373273723E+01 0.12968122047E+01
 0.12433085776E+01 0.11796076342E+01 0.11088224318E+01 0.10341705330E+01 0.95872846549E+00
 0.88521209248E+00 0.81585113831E+00 0.75234649194E+00 0.69588057682E+00 0.64720310253E+00
 0.65489741532E+00 0.61887863593E+00 0.59164390014E+00 0.57337685837E+00 0.56420117927E+00