   6   6   0   0
  0.2185851E+02  0.3190316E-09  0.3190316E-09  0.1487900E-08  0.5000000E-15
  1.000000000000000E-004
  CAR 
 unknown system                          
      8.40947531    -12.92961278  301      3.36367011      1.00000000
    -12.930  0.0000E+00  0.0000E+00
    -12.858  0.0000E+00  0.0000E+00
    -12.787  0.0000E+00  0.0000E+00
    -12.716  0.0000E+00  0.0000E+00
    -12.645  0.0000E+00  0.0000E+00
    -12.574  0.0000E+00  0.0000E+00
    -12.503  0.0000E+00  0.0000E+00
    -12.432  0.0000E+00  0.0000E+00
    -12.361  0.0000E+00  0.0000E+00
    -12.289  0.0000E+00  0.0000E+00
    -12.218  0.0000E+00  0.0000E+00
    -12.147  0.0000E+00  0.0000E+00
    -12.076  0.0000E+00  0.0000E+00
    -12.005  0.0000E+00  0.0000E+00
    -11.934  0.0000E+00  0.0000E+00
    -11.863  0.0000E+00  0.0000E+00
    -11.792  0.0000E+00  0.0000E+00
    -11.720  0.0000E+00  0.0000E+00
    -11.649  0.0000E+00  0.0000E+00
    -11.578  0.0000E+00  0.0000E+00
    -11.507  0.0000E+00  0.0000E+00
    -11.436  0.0000E+00  0.0000E+00
    -11.365  0.0000E+00  0.0000E+00
    -11.294  0.0000E+00  0.0000E+00
    -11.222  0.0000E+00  0.0000E+00
    -11.151  0.0000E+00  0.0000E+00
    -11.080  0.0000E+00  0.0000E+00
    -11.009  0.0000E+00  0.0000E+00
    -10.938  0.0000E+00  0.0000E+00
    -10.867  0.6680E+00  0.1808E-01
    -10.796  0.1559E+01  0.9729E-01
    -10.725  0.9864E+00  0.1744E+00
    -10.653  0.1076E+01  0.2477E+00
    -10.582  0.1165E+01  0.3274E+00
    -10.511  0.1239E+01  0.4134E+00
    -10.440  0.1197E+01  0.5000E+00
    -10.369  0.1189E+01  0.5842E+00
    -10.298  0.1239E+01  0.6705E+00
    -10.227  0.1289E+01  0.7605E+00
    -10.156  0.1339E+01  0.8539E+00
    -10.084  0.1389E+01  0.9510E+00
    -10.013  0.1443E+01  0.1052E+01
     -9.942  0.1506E+01  0.1156E+01
     -9.871  0.1568E+01  0.1266E+01
     -9.800  0.1635E+01  0.1380E+01
     -9.729  0.1704E+01  0.1498E+01
     -9.658  0.4415E+01  0.1706E+01
     -9.586  0.4100E+01  0.1994E+01
     -9.515  0.4770E+01  0.2312E+01
     -9.444  0.4971E+01  0.2656E+01
     -9.373  0.5463E+01  0.3027E+01
     -9.302  0.6079E+01  0.3437E+01
     -9.231  0.6806E+01  0.3894E+01
     -9.160  0.7993E+01  0.4407E+01
     -9.089  0.8235E+01  0.5157E+01
     -9.017  0.8172E+01  0.5737E+01
     -8.946  0.1042E+02  0.6360E+01
     -8.875  0.8100E+01  0.7150E+01
     -8.804  0.5359E+01  0.7667E+01
     -8.733  0.0000E+00  0.8000E+01
     -8.662  0.0000E+00  0.8000E+01
     -8.591  0.0000E+00  0.8000E+01
     -8.520  0.0000E+00  0.8000E+01
     -8.448  0.0000E+00  0.8000E+01
     -8.377  0.0000E+00  0.8000E+01
     -8.306  0.0000E+00  0.8000E+01
     -8.235  0.0000E+00  0.8000E+01
     -8.164  0.0000E+00  0.8000E+01
     -8.093  0.0000E+00  0.8000E+01
     -8.022  0.0000E+00  0.8000E+01
     -7.950  0.0000E+00  0.8000E+01
     -7.879  0.0000E+00  0.8000E+01
     -7.808  0.0000E+00  0.8000E+01
     -7.737  0.0000E+00  0.8000E+01
     -7.666  0.0000E+00  0.8000E+01
     -7.595  0.0000E+00  0.8000E+01
     -7.524  0.0000E+00  0.8000E+01
     -7.453  0.0000E+00  0.8000E+01
     -7.381  0.0000E+00  0.8000E+01
     -7.310  0.0000E+00  0.8000E+01
     -7.239  0.0000E+00  0.8000E+01
     -7.168  0.0000E+00  0.8000E+01
     -7.097  0.0000E+00  0.8000E+01
     -7.026  0.0000E+00  0.8000E+01
     -6.955  0.0000E+00  0.8000E+01
     -6.884  0.0000E+00  0.8000E+01
     -6.812  0.0000E+00  0.8000E+01
     -6.741  0.0000E+00  0.8000E+01
     -6.670  0.0000E+00  0.8000E+01
     -6.599  0.0000E+00  0.8000E+01
     -6.528  0.0000E+00  0.8000E+01
     -6.457  0.0000E+00  0.8000E+01
     -6.386  0.0000E+00  0.8000E+01
     -6.314  0.0000E+00  0.8000E+01
     -6.243  0.0000E+00  0.8000E+01
     -6.172  0.0000E+00  0.8000E+01
     -6.101  0.0000E+00  0.8000E+01
     -6.030  0.0000E+00  0.8000E+01
     -5.959  0.0000E+00  0.8000E+01
     -5.888  0.0000E+00  0.8000E+01
     -5.817  0.0000E+00  0.8000E+01
     -5.745  0.0000E+00  0.8000E+01
     -5.674  0.0000E+00  0.8000E+01
     -5.603  0.0000E+00  0.8000E+01
     -5.532  0.0000E+00  0.8000E+01
     -5.461  0.0000E+00  0.8000E+01
     -5.390  0.0000E+00  0.8000E+01
     -5.319  0.0000E+00  0.8000E+01
     -5.248  0.0000E+00  0.8000E+01
     -5.176  0.0000E+00  0.8000E+01
     -5.105  0.0000E+00  0.8000E+01
     -5.034  0.0000E+00  0.8000E+01
     -4.963  0.0000E+00  0.8000E+01
     -4.892  0.0000E+00  0.8000E+01
     -4.821  0.0000E+00  0.8000E+01
     -4.750  0.0000E+00  0.8000E+01
     -4.678  0.0000E+00  0.8000E+01
     -4.607  0.0000E+00  0.8000E+01
     -4.536  0.0000E+00  0.8000E+01
     -4.465  0.0000E+00  0.8000E+01
     -4.394  0.0000E+00  0.8000E+01
     -4.323  0.0000E+00  0.8000E+01
     -4.252  0.0000E+00  0.8000E+01
     -4.181  0.0000E+00  0.8000E+01
     -4.109  0.0000E+00  0.8000E+01
     -4.038  0.0000E+00  0.8000E+01
     -3.967  0.0000E+00  0.8000E+01
     -3.896  0.0000E+00  0.8000E+01
     -3.825  0.0000E+00  0.8000E+01
     -3.754  0.0000E+00  0.8000E+01
     -3.683  0.0000E+00  0.8000E+01
     -3.612  0.0000E+00  0.8000E+01
     -3.540  0.0000E+00  0.8000E+01
     -3.469  0.0000E+00  0.8000E+01
     -3.398  0.0000E+00  0.8000E+01
     -3.327  0.0000E+00  0.8000E+01
     -3.256  0.0000E+00  0.8000E+01
     -3.185  0.0000E+00  0.8000E+01
     -3.114  0.0000E+00  0.8000E+01
     -3.043  0.0000E+00  0.8000E+01
     -2.971  0.0000E+00  0.8000E+01
     -2.900  0.0000E+00  0.8000E+01
     -2.829  0.0000E+00  0.8000E+01
     -2.758  0.0000E+00  0.8000E+01
     -2.687  0.0000E+00  0.8000E+01
     -2.616  0.0000E+00  0.8000E+01
     -2.545  0.9788E+00  0.8028E+01
     -2.473  0.2348E+01  0.8144E+01
     -2.402  0.3396E+01  0.8361E+01
     -2.331  0.3353E+01  0.8586E+01
     -2.260  0.3908E+01  0.8841E+01
     -2.189  0.4144E+01  0.9128E+01
     -2.118  0.8060E+01  0.9586E+01
     -2.047  0.9837E+01  0.1026E+02
     -1.976  0.7373E+01  0.1080E+02
     -1.904  0.8148E+01  0.1138E+02
     -1.833  0.8017E+01  0.1199E+02
     -1.762  0.5516E+01  0.1243E+02
     -1.691  0.4391E+01  0.1282E+02
     -1.620  0.2981E+01  0.1320E+02
     -1.549  0.2641E+01  0.1340E+02
     -1.478  0.2302E+01  0.1357E+02
     -1.407  0.1976E+01  0.1372E+02
     -1.335  0.1830E+01  0.1386E+02
     -1.264  0.1709E+01  0.1398E+02
     -1.193  0.1590E+01  0.1410E+02
     -1.122  0.1683E+01  0.1422E+02
     -1.051  0.1809E+01  0.1434E+02
     -0.980  0.1796E+01  0.1447E+02
     -0.909  0.4114E+01  0.1465E+02
     -0.837  0.8431E+01  0.1513E+02
     -0.766  0.9249E+01  0.1575E+02
     -0.695  0.1077E+02  0.1648E+02
     -0.624  0.1059E+02  0.1726E+02
     -0.553  0.4136E+01  0.1790E+02
     -0.482  0.3719E+01  0.1818E+02
     -0.411  0.2833E+01  0.1842E+02
     -0.340  0.3874E+01  0.1864E+02
     -0.268  0.2919E+01  0.1885E+02
     -0.197  0.3458E+01  0.1907E+02
     -0.126  0.6237E+01  0.1940E+02
     -0.055  0.1005E+02  0.1997E+02
      0.016  0.1186E+02  0.2111E+02
      0.087  0.4498E+01  0.2164E+02
      0.158  0.4354E+01  0.2196E+02
      0.229  0.5118E+01  0.2232E+02
      0.301  0.4784E+01  0.2268E+02
      0.372  0.4539E+01  0.2301E+02
      0.443  0.3717E+01  0.2331E+02
      0.514  0.2921E+01  0.2354E+02
      0.585  0.3605E+01  0.2377E+02
      0.656  0.3816E+01  0.2404E+02
      0.727  0.3129E+01  0.2426E+02
      0.799  0.3205E+01  0.2448E+02
      0.870  0.6890E+01  0.2482E+02
      0.941  0.1834E+01  0.2504E+02
      1.012  0.3502E+01  0.2523E+02
      1.083  0.6277E+01  0.2557E+02
      1.154  0.6922E+01  0.2608E+02
      1.225  0.6921E+01  0.2657E+02
      1.296  0.1334E+02  0.2718E+02
      1.368  0.8309E+01  0.2804E+02
      1.439  0.6594E+01  0.2854E+02
      1.510  0.5368E+01  0.2899E+02
      1.581  0.3405E+01  0.2930E+02
      1.652  0.4321E+01  0.2957E+02
      1.723  0.4957E+01  0.2992E+02
      1.794  0.4724E+01  0.3026E+02
      1.865  0.4517E+01  0.3059E+02
      1.937  0.5851E+01  0.3095E+02
      2.008  0.4799E+01  0.3135E+02
      2.079  0.3682E+01  0.3163E+02
      2.150  0.2421E+01  0.3185E+02
      2.221  0.2551E+01  0.3199E+02
      2.292  0.5388E+01  0.3230E+02
      2.363  0.1403E+02  0.3296E+02
      2.435  0.5523E+01  0.3344E+02
      2.506  0.5664E+01  0.3384E+02
      2.577  0.5610E+01  0.3424E+02
      2.648  0.4798E+01  0.3463E+02
      2.719  0.4155E+01  0.3494E+02
      2.790  0.3477E+01  0.3522E+02
      2.861  0.2791E+01  0.3544E+02
      2.932  0.3074E+01  0.3565E+02
      3.004  0.9948E+00  0.3587E+02
      3.075  0.4504E+00  0.3591E+02
      3.146  0.7271E+00  0.3595E+02
      3.217  0.2602E+00  0.3599E+02
      3.288  0.3790E-02  0.3600E+02
      3.359  0.0000E+00  0.3600E+02
      3.430  0.0000E+00  0.3600E+02
      3.501  0.0000E+00  0.3600E+02
      3.573  0.0000E+00  0.3600E+02
      3.644  0.0000E+00  0.3600E+02
      3.715  0.0000E+00  0.3600E+02
      3.786  0.0000E+00  0.3600E+02
      3.857  0.0000E+00  0.3600E+02
      3.928  0.0000E+00  0.3600E+02
      3.999  0.0000E+00  0.3600E+02
      4.071  0.0000E+00  0.3600E+02
      4.142  0.0000E+00  0.3600E+02
      4.213  0.0000E+00  0.3600E+02
      4.284  0.0000E+00  0.3600E+02
      4.355  0.0000E+00  0.3600E+02
      4.426  0.0000E+00  0.3600E+02
      4.497  0.0000E+00  0.3600E+02
      4.568  0.0000E+00  0.3600E+02
      4.640  0.0000E+00  0.3600E+02
      4.711  0.0000E+00  0.3600E+02
      4.782  0.0000E+00  0.3600E+02
      4.853  0.0000E+00  0.3600E+02
      4.924  0.1247E+01  0.3608E+02
      4.995  0.2416E+01  0.3619E+02
      5.066  0.4711E+01  0.3647E+02
      5.137  0.6445E+01  0.3685E+02
      5.209  0.1365E+02  0.3757E+02
      5.280  0.2386E+02  0.3870E+02
      5.351  0.2257E+01  0.3949E+02
      5.422  0.2903E+01  0.3966E+02
      5.493  0.5314E+01  0.3993E+02
      5.564  0.8098E+01  0.4047E+02
      5.635  0.6719E+01  0.4099E+02
      5.707  0.9659E+01  0.4160E+02
      5.778  0.1101E+02  0.4229E+02
      5.849  0.3545E+01  0.4286E+02
      5.920  0.2683E+01  0.4307E+02
      5.991  0.2238E+01  0.4325E+02
      6.062  0.1893E+01  0.4339E+02
      6.133  0.2405E+01  0.4356E+02
      6.204  0.2775E+01  0.4370E+02
      6.276  0.1762E+01  0.4391E+02
      6.347  0.5138E+00  0.4399E+02
      6.418  0.0000E+00  0.4400E+02
      6.489  0.0000E+00  0.4400E+02
      6.560  0.0000E+00  0.4400E+02
      6.631  0.0000E+00  0.4400E+02
      6.702  0.0000E+00  0.4400E+02
      6.773  0.0000E+00  0.4400E+02
      6.845  0.0000E+00  0.4400E+02
      6.916  0.0000E+00  0.4400E+02
      6.987  0.0000E+00  0.4400E+02
      7.058  0.0000E+00  0.4400E+02
      7.129  0.0000E+00  0.4400E+02
      7.200  0.0000E+00  0.4400E+02
      7.271  0.0000E+00  0.4400E+02
      7.343  0.0000E+00  0.4400E+02
      7.414  0.0000E+00  0.4400E+02
      7.485  0.0000E+00  0.4400E+02
      7.556  0.0000E+00  0.4400E+02
      7.627  0.0000E+00  0.4400E+02
      7.698  0.0000E+00  0.4400E+02
      7.769  0.0000E+00  0.4400E+02
      7.840  0.0000E+00  0.4400E+02
      7.912  0.0000E+00  0.4400E+02
      7.983  0.0000E+00  0.4400E+02
      8.054  0.0000E+00  0.4400E+02
      8.125  0.0000E+00  0.4400E+02
      8.196  0.0000E+00  0.4400E+02
      8.267  0.0000E+00  0.4400E+02
      8.338  0.0000E+00  0.4400E+02
      8.409  0.0000E+00  0.4400E+02
