       N       E                     dE             d eps       ncg     rms          rms(c)
DAV:   1     0.199931841953E+03    0.19993E+03   -0.14756E+04  1232   0.127E+03
DAV:   2    -0.283502869864E+02   -0.22828E+03   -0.22134E+03  1664   0.261E+02
DAV:   3    -0.463021426698E+02   -0.17952E+02   -0.17873E+02  1636   0.745E+01
DAV:   4    -0.468056676270E+02   -0.50352E+00   -0.50275E+00  1704   0.134E+01
DAV:   5    -0.468204147176E+02   -0.14747E-01   -0.14743E-01  1654   0.224E+00    0.973E+00
RMM:   6    -0.444331402534E+02    0.23873E+01   -0.24448E+01  1370   0.195E+01    0.336E+00
RMM:   7    -0.436960006238E+02    0.73714E+00   -0.19330E+00  1351   0.558E+00    0.178E+00
RMM:   8    -0.436321137555E+02    0.63887E-01   -0.89745E-01  1407   0.335E+00    0.830E-01
RMM:   9    -0.436230206890E+02    0.90931E-02   -0.30606E-01  1455   0.229E+00    0.589E-01
RMM:  10    -0.436054231373E+02    0.17598E-01   -0.66013E-02  1475   0.110E+00    0.630E-02
RMM:  11    -0.436056588432E+02   -0.23571E-03   -0.35147E-03  1604   0.223E-01    0.288E-02
RMM:  12    -0.436057942669E+02   -0.13542E-03   -0.45741E-04  1560   0.105E-01    0.140E-02
RMM:  13    -0.436058079803E+02   -0.13713E-04   -0.22449E-04  1607   0.561E-02    0.164E-02
RMM:  14    -0.436057978958E+02    0.10084E-04   -0.50177E-05  1171   0.311E-02    0.277E-03
RMM:  15    -0.436057985313E+02   -0.63544E-06   -0.11715E-05   954   0.150E-02
   1 F= -.44937086E+02 E0= -.44937086E+02  d E =0.000000E+00
