 vasp.5.4.4.18Apr17-6-g9f103f2a35 (build Jun 30 2017 11:15:00) complex          
  
 executed on    STALLO_VASP_5.4.4 date 2019.11.08  12:18:47
 running on    4 total cores
 distrk:  each k-point on    4 cores,    1 groups
 distr:  one band on NCORES_PER_BAND=   2 cores,    2 groups


--------------------------------------------------------------------------------------------------------


 INCAR:
 POTCAR:   PAW_PBE Mo 08Apr2002                   
 POTCAR:    PAW_PBE S 17Jan2003                   
 POTCAR:   PAW_PBE Mo 08Apr2002                   
   VRHFIN =Mo: 4p5s4d                                                           
   LEXCH  = PE                                                                  
   EATOM  =   217.5180 eV,   15.9871 Ry                                         
                                                                                
   TITEL  = PAW_PBE Mo 08Apr2002                                                
   LULTRA =        F    use ultrasoft PP ?                                      
   IUNSCR =        1    unscreen: 0-lin 1-nonlin 2-no                           
   RPACOR =    2.200    partial core radius                                     
   POMASS =   95.940; ZVAL   =    6.000    mass and valenz                      
   RCORE  =    2.750    outmost cutoff radius                                   
   RWIGS  =    2.750; RWIGS  =    1.455    wigner-seitz radius (au A)           
   ENMAX  =  224.584; ENMIN  =  168.438 eV                                      
   RCLOC  =    2.111    cutoff for local pot                                    
   LCOR   =        T    correct aug charges                                     
   LPAW   =        T    paw PP                                                  
   EAUG   =  345.278                                                            
   DEXC   =    -.088                                                            
   RMAX   =    3.077    core radius for proj-oper                               
   RAUG   =    1.300    factor for augmentation sphere                          
   RDEP   =    2.815    radius for radial grids                                 
   QCUT   =   -4.063; QGAM   =    8.126    optimization parameters              
                                                                                
   Description                                                                  
     l     E      TYP  RCUT    TYP  RCUT                                        
     2   .000     23  2.500                                                     
     2   .000     23  2.500                                                     
     0   .000     23  2.600                                                     
     0  1.000     23  2.600                                                     
     1   .400     23  2.750                                                     
     1  2.000     23  2.750                                                     
     3   .000      7   .000                                                     
  local pseudopotential read in
  partial core-charges read in
  atomic valenz-charges read in
  non local Contribution for L=           2  read in
    real space projection operators read in
  non local Contribution for L=           2  read in
    real space projection operators read in
  non local Contribution for L=           0  read in
    real space projection operators read in
  non local Contribution for L=           0  read in
    real space projection operators read in
  non local Contribution for L=           1  read in
    real space projection operators read in
  non local Contribution for L=           1  read in
    real space projection operators read in
    PAW grid and wavefunctions read in
 
   number of l-projection  operators is LMAX  =           6
   number of lm-projection operators is LMMAX =          18
 
 POTCAR:    PAW_PBE S 17Jan2003                   
   VRHFIN =S : s2p4                                                             
   LEXCH  = PE                                                                  
   EATOM  =   276.8230 eV,   20.3459 Ry                                         
                                                                                
   TITEL  = PAW_PBE S 17Jan2003                                                 
   LULTRA =        F    use ultrasoft PP ?                                      
   IUNSCR =        1    unscreen: 0-lin 1-nonlin 2-no                           
   RPACOR =    1.500    partial core radius                                     
   POMASS =   32.066; ZVAL   =    6.000    mass and valenz                      
   RCORE  =    1.900    outmost cutoff radius                                   
   RWIGS  =    2.200; RWIGS  =    1.164    wigner-seitz radius (au A)           
   ENMAX  =  280.000; ENMIN  =  194.016 eV                                      
   ICORE  =        2    local potential                                         
   LCOR   =        T    correct aug charges                                     
   LPAW   =        T    paw PP                                                  
   EAUG   =  335.092                                                            
   DEXC   =     .000                                                            
   RMAX   =    2.867    core radius for proj-oper                               
   RAUG   =    1.300    factor for augmentation sphere                          
   RDEP   =    1.954    radius for radial grids                                 
   QCUT   =   -4.360; QGAM   =    8.721    optimization parameters              
                                                                                
   Description                                                                  
     l     E      TYP  RCUT    TYP  RCUT                                        
     0   .000     23  1.900                                                     
     0   .000     23  1.900                                                     
     1   .000     23  1.900                                                     
     1   .000     23  1.900                                                     
     2   .000     23  1.900                                                     
  local pseudopotential read in
  partial core-charges read in
  atomic valenz-charges read in
  non local Contribution for L=           0  read in
    real space projection operators read in
  non local Contribution for L=           0  read in
    real space projection operators read in
  non local Contribution for L=           1  read in
    real space projection operators read in
  non local Contribution for L=           1  read in
    real space projection operators read in
    PAW grid and wavefunctions read in
 
   number of l-projection  operators is LMAX  =           4
   number of lm-projection operators is LMMAX =           8
 
 PAW_PBE Mo 08Apr2002                   :
 energy of atom  1       EATOM= -217.5180
 kinetic energy error for atom=    0.0023 (will be added to EATOM!!)
  PAW_PBE S 17Jan2003                   :
 energy of atom  2       EATOM= -276.8230
 kinetic energy error for atom=    0.0033 (will be added to EATOM!!)
 
 
 POSCAR: MoS2_mp-2815_computed                   
  positions in direct lattice
  No initial velocities read in
 exchange correlation table for  LEXCH =        8
   RHO(1)=    0.500       N(1)  =     2000
   RHO(2)=  100.500       N(2)  =     4000
 


--------------------------------------------------------------------------------------------------------


 ion  position               nearest neighbor table
   1  0.333  0.667  0.250-   5 2.42   4 2.42   4 2.42   5 2.42   5 2.42   4 2.42
   2  0.667  0.333  0.750-   6 2.42   3 2.42   3 2.42   6 2.42   6 2.42   3 2.42
   3  0.333  0.667  0.855-   2 2.42   2 2.42   2 2.42
   4  0.667  0.333  0.145-   1 2.42   1 2.42   1 2.42
   5  0.667  0.333  0.355-   1 2.42   1 2.42   1 2.42
   6  0.333  0.667  0.645-   2 2.42   2 2.42   2 2.42
 
  LATTYP: Found a hexagonal cell.
 ALAT       =     3.1903157300
 C/A-ratio  =     4.6638030713
  
  Lattice vectors:
  
 A1 = (   3.1903157300,   0.0000000000,   0.0000000000)
 A2 = (  -1.5951578650,   2.7628944683,   0.0000000000)
 A3 = (   0.0000000000,   0.0000000000,  14.8790043000)


Analysis of symmetry for initial positions (statically):
=====================================================================
 Subroutine PRICEL returns:
 Original cell was already a primitive cell.
 

 Routine SETGRP: Setting up the symmetry group for a 
 hexagonal supercell.


 Subroutine GETGRP returns: Found 24 space group operations
 (whereof 12 operations were pure point group operations)
 out of a pool of 24 trial point group operations.


The static configuration has the point symmetry D_3d.
 The point group associated with its full space group is D_6h.


Analysis of symmetry for dynamics (positions and initial velocities):
=====================================================================
 Subroutine PRICEL returns:
 Original cell was already a primitive cell.
 

 Routine SETGRP: Setting up the symmetry group for a 
 hexagonal supercell.


 Subroutine GETGRP returns: Found 24 space group operations
 (whereof 12 operations were pure point group operations)
 out of a pool of 24 trial point group operations.


The dynamic configuration has the point symmetry D_3d.
 The point group associated with its full space group is D_6h.


 Subroutine INISYM returns: Found 24 space group operations
 (whereof 12 operations are pure point group operations),
 and found     1 'primitive' translations

 
 
 KPOINTS: k-density: 5.0                          

Automatic generation of k-mesh.
Space group operators:
 irot       det(A)        alpha          n_x          n_y          n_z        tau_x        tau_y        tau_z
    1     1.000000     0.000001     1.000000     0.000000     0.000000     0.000000     0.000000     0.000000
    2    -1.000000     0.000001     1.000000     0.000000     0.000000     0.000000     0.000000     0.000000
    3     1.000000   120.000000     0.000000     0.000000    -1.000000     0.000000     0.000000     0.000000
    4    -1.000000   120.000000     0.000000     0.000000    -1.000000     0.000000     0.000000     0.000000
    5     1.000000   120.000000     0.000000     0.000000     1.000000     0.000000     0.000000     0.000000
    6    -1.000000   120.000000     0.000000     0.000000     1.000000     0.000000     0.000000     0.000000
    7     1.000000   179.999999     1.000000    -0.000000     0.000000     0.000000     0.000000     0.000000
    8    -1.000000   179.999999     1.000000    -0.000000     0.000000     0.000000     0.000000     0.000000
    9     1.000000   180.000000     0.500000    -0.866025     0.000000     0.000000     0.000000     0.000000
   10    -1.000000   180.000000     0.500000    -0.866025     0.000000     0.000000     0.000000     0.000000
   11     1.000000   180.000000    -0.500000    -0.866025     0.000000     0.000000     0.000000     0.000000
   12    -1.000000   180.000000    -0.500000    -0.866025     0.000000     0.000000     0.000000     0.000000
   13     1.000000    60.000000     0.000000     0.000000    -1.000000     0.000001     0.000000     0.500000
   14    -1.000000    60.000000     0.000000     0.000000    -1.000000     0.000001     0.000000     0.500000
   15     1.000000   180.000000     0.000000     0.000000     1.000000     0.000000     0.000000     0.500000
   16    -1.000000   180.000000     0.000000     0.000000     1.000000     0.000000     0.000000     0.500000
   17     1.000000    60.000000     0.000000     0.000000     1.000000     0.000000     0.000000     0.500000
   18    -1.000000    60.000000     0.000000     0.000000     1.000000     0.000000     0.000000     0.500000
   19     1.000000   179.999999     0.866025    -0.500000     0.000000     0.000000     0.000000     0.500000
   20    -1.000000   179.999999     0.866025    -0.500000     0.000000     0.000000     0.000000     0.500000
   21     1.000000   180.000000     0.000000     1.000000     0.000000     0.000001     0.000000     0.500000
   22    -1.000000   180.000000     0.000000     1.000000     0.000000     0.000001     0.000000     0.500000
   23     1.000000   179.999999     0.866025     0.500000     0.000000     0.000000     0.000000     0.500000
   24    -1.000000   179.999999     0.866025     0.500000     0.000000     0.000000     0.000000     0.500000
 
 Subroutine IBZKPT returns following result:
 ===========================================
 
 Found     28 irreducible k-points:
 
 Following reciprocal coordinates:
            Coordinates               Weight
  0.000000  0.000000  0.000000      1.000000
  0.100000 -0.000000  0.000000      6.000000
  0.200000  0.000000  0.000000      6.000000
  0.300000 -0.000000  0.000000      6.000000
  0.400000  0.000000  0.000000      6.000000
  0.500000  0.000000  0.000000      3.000000
  0.100000  0.100000  0.000000      6.000000
  0.200000  0.100000  0.000000     12.000000
  0.300000  0.100000  0.000000     12.000000
  0.400000  0.100000  0.000000     12.000000
  0.200000  0.200000  0.000000      6.000000
  0.300000  0.200000  0.000000     12.000000
  0.400000  0.200000  0.000000      6.000000
  0.300000  0.300000  0.000000      6.000000
  0.000000  0.000000  0.333333      2.000000
  0.100000 -0.000000  0.333333     12.000000
  0.200000  0.000000  0.333333     12.000000
  0.300000 -0.000000  0.333333     12.000000
  0.400000  0.000000  0.333333     12.000000
  0.500000  0.000000  0.333333      6.000000
  0.100000  0.100000  0.333333     12.000000
  0.200000  0.100000  0.333333     24.000000
  0.300000  0.100000  0.333333     24.000000
  0.400000  0.100000  0.333333     24.000000
  0.200000  0.200000  0.333333     12.000000
  0.300000  0.200000  0.333333     24.000000
  0.400000  0.200000  0.333333     12.000000
  0.300000  0.300000  0.333333     12.000000
 
 Following cartesian coordinates:
            Coordinates               Weight
  0.000000  0.000000  0.000000      1.000000
  0.031345  0.018097  0.000000      6.000000
  0.062690  0.036194  0.000000      6.000000
  0.094035  0.054291  0.000000      6.000000
  0.125379  0.072388  0.000000      6.000000
  0.156724  0.090485  0.000000      3.000000
  0.031345  0.054291  0.000000      6.000000
  0.062690  0.072388  0.000000     12.000000
  0.094035  0.090485  0.000000     12.000000
  0.125379  0.108582  0.000000     12.000000
  0.062690  0.108582  0.000000      6.000000
  0.094035  0.126679  0.000000     12.000000
  0.125379  0.144776  0.000000      6.000000
  0.094035  0.162873  0.000000      6.000000
  0.000000  0.000000  0.022403      2.000000
  0.031345  0.018097  0.022403     12.000000
  0.062690  0.036194  0.022403     12.000000
  0.094035  0.054291  0.022403     12.000000
  0.125379  0.072388  0.022403     12.000000
  0.156724  0.090485  0.022403      6.000000
  0.031345  0.054291  0.022403     12.000000
  0.062690  0.072388  0.022403     24.000000
  0.094035  0.090485  0.022403     24.000000
  0.125379  0.108582  0.022403     24.000000
  0.062690  0.108582  0.022403     12.000000
  0.094035  0.126679  0.022403     24.000000
  0.125379  0.144776  0.022403     12.000000
  0.094035  0.162873  0.022403     12.000000
 
 TETIRR: Found    265 inequivalent tetrahedra from     1800


--------------------------------------------------------------------------------------------------------




 Dimension of arrays:
   k-points           NKPTS =     28   k-points in BZ     NKDIM =     28   number of bands    NBANDS=     22
   number of dos      NEDOS =    301   number of ions     NIONS =      6
   non local maximal  LDIM  =      6   non local SUM 2l+1 LMDIM =     18
   total plane-waves  NPLWV =  25920
   max r-space proj   IRMAX =      1   max aug-charges    IRDMAX=  12887
   dimension x,y,z NGX =    18 NGY =   18 NGZ =   80
   dimension x,y,z NGXF=    36 NGYF=   36 NGZF=  160
   support grid    NGXF=    36 NGYF=   36 NGZF=  160
   ions per type =               2   4
   NGX,Y,Z   is equivalent  to a cutoff of   9.38,  9.38,  8.94 a.u.
   NGXF,Y,Z  is equivalent  to a cutoff of  18.76, 18.76, 17.88 a.u.

 SYSTEM =  unknown system                          
 POSCAR =  MoS2_mp-2815_computed                   

 Startparameter for this run:
   NWRITE =      2    write-flag & timer
   PREC   = normal    normal or accurate (medium, high low for compatibility)
   ISTART =      0    job   : 0-new  1-cont  2-samecut
   ICHARG =      2    charge: 1-file 2-atom 10-const
   ISPIN  =      1    spin polarized calculation?
   LNONCOLLINEAR =      F non collinear calculations
   LSORBIT =      F    spin-orbit coupling
   INIWAV =      1    electr: 0-lowe 1-rand  2-diag
   LASPH  =      F    aspherical Exc in radial PAW
   METAGGA=      F    non-selfconsistent MetaGGA calc.

 Electronic Relaxation 1
   ENCUT  =  450.0 eV  33.07 Ry    5.75 a.u.   5.52  5.52 25.74*2*pi/ulx,y,z
   ENINI  =  450.0     initial cutoff
   ENAUG  =  345.3 eV  augmentation charge cutoff
   NELM   =     60;   NELMIN=  4; NELMDL=  0     # of ELM steps 
   EDIFF  = 0.1E-04   stopping-criterion for ELM
   LREAL  =      F    real-space projection
   NLSPLINE    = F    spline interpolate recip. space projectors
   LCOMPAT=      F    compatible to vasp.4.4
   GGA_COMPAT  = T    GGA compatible to vasp.4.4-vasp.4.6
   LMAXPAW     = -100 max onsite density
   LMAXMIX     =    2 max onsite mixed and CHGCAR
   VOSKOWN=      0    Vosko Wilk Nusair interpolation
   ROPT   =    0.00000   0.00000
 Ionic relaxation
   EDIFFG = 0.1E-03   stopping-criterion for IOM
   NSW    =      0    number of steps for IOM
   NBLOCK =      1;   KBLOCK =      1    inner block; outer block 
   IBRION =     -1    ionic relax: 0-MD 1-quasi-New 2-CG
   NFREE  =      0    steps in history (QN), initial steepest desc. (CG)
   ISIF   =      2    stress and relaxation
   IWAVPR =     10    prediction:  0-non 1-charg 2-wave 3-comb
   ISYM   =      2    0-nonsym 1-usesym 2-fastsym
   LCORR  =      T    Harris-Foulkes like correction to forces

   POTIM  = 0.5000    time-step for ionic-motion
   TEIN   =    0.0    initial temperature
   TEBEG  =    0.0;   TEEND  =   0.0 temperature during run
   SMASS  =  -3.00    Nose mass-parameter (am)
   estimated Nose-frequenzy (Omega)   =  0.10E-29 period in steps =****** mass=  -0.233E-27a.u.
   SCALEE = 1.0000    scale energy and forces
   NPACO  =    256;   APACO  = 16.0  distance and # of slots for P.C.
   PSTRESS=    0.0 pullay stress

  Mass of Ions in am
   POMASS =  95.94 32.07
  Ionic Valenz
   ZVAL   =   6.00  6.00
  Atomic Wigner-Seitz radii
   RWIGS  =  -1.00 -1.00
  virtual crystal weights 
   VCA    =   1.00  1.00
   NELECT =      36.0000    total number of electrons
   NUPDOWN=      -1.0000    fix difference up-down

 DOS related values:
   EMIN   =  10.00;   EMAX   =-10.00  energy-range for DOS
   EFERMI =   0.00
   ISMEAR =    -5;   SIGMA  =   0.20  broadening in eV -4-tet -1-fermi 0-gaus

 Electronic relaxation 2 (details)
   IALGO  =     68    algorithm
   LDIAG  =      T    sub-space diagonalisation (order eigenvalues)
   LSUBROT=      F    optimize rotation matrix (better conditioning)
   TURBO    =      0    0=normal 1=particle mesh
   IRESTART =      0    0=no restart 2=restart with 2 vectors
   NREBOOT  =      0    no. of reboots
   NMIN     =      0    reboot dimension
   EREF     =   0.00    reference energy to select bands
   IMIX   =      4    mixing-type and parameters
     AMIX     =   0.40;   BMIX     =  1.00
     AMIX_MAG =   1.60;   BMIX_MAG =  1.00
     AMIN     =   0.10
     WC   =   100.;   INIMIX=   1;  MIXPRE=   1;  MAXMIX= -45

 Intra band minimization:
   WEIMIN = 0.0000     energy-eigenvalue tresh-hold
   EBREAK =  0.11E-06  absolut break condition
   DEPER  =   0.30     relativ break condition  

   TIME   =   0.40     timestep for ELM

  volume/ion in A,a.u.               =      21.86       147.51
  Fermi-wavevector in a.u.,A,eV,Ry     =   1.063943  2.010561 15.401453  1.131975
  Thomas-Fermi vector in A             =   2.199445
 
 Write flags
   LWAVE        =      F    write WAVECAR
   LDOWNSAMPLE  =      F    k-point downsampling of WAVECAR
   LCHARG       =      T    write CHGCAR
   LVTOT        =      F    write LOCPOT, total local potential
   LVHAR        =      F    write LOCPOT, Hartree potential only
   LELF         =      F    write electronic localiz. function (ELF)
   LORBIT       =      0    0 simple, 1 ext, 2 COOP (PROOUT), +10 PAW based schemes


 Dipole corrections
   LMONO  =      F    monopole corrections only (constant potential shift)
   LDIPOL =      F    correct potential (dipole corrections)
   IDIPOL =      0    1-x, 2-y, 3-z, 4-all directions 
   EPSILON=  1.0000000 bulk dielectric constant

 Exchange correlation treatment:
   GGA     =    --    GGA type
   LEXCH   =     8    internal setting for exchange type
   VOSKOWN=      0    Vosko Wilk Nusair interpolation
   LHFCALC =     F    Hartree Fock is set to
   LHFONE  =     F    Hartree Fock one center treatment
   AEXX    =    0.0000 exact exchange contribution

 Linear response parameters
   LEPSILON=     F    determine dielectric tensor
   LRPA    =     F    only Hartree local field effects (RPA)
   LNABLA  =     F    use nabla operator in PAW spheres
   LVEL    =     F    velocity operator in full k-point grid
   LINTERFAST=   F  fast interpolation
   KINTER  =     0    interpolate to denser k-point grid
   CSHIFT  =0.1000    complex shift for real part using Kramers Kronig
   OMEGAMAX=  -1.0    maximum frequency
   DEG_THRESHOLD= 0.2000000E-02 threshold for treating states as degnerate
   RTIME   =   -0.100 relaxation time in fs
  (WPLASMAI=    0.000 imaginary part of plasma frequency in eV, 0.658/RTIME)
   DFIELD  = 0.0000000 0.0000000 0.0000000 field for delta impulse in time
 
 Orbital magnetization related:
   ORBITALMAG=     F  switch on orbital magnetization
   LCHIMAG   =     F  perturbation theory with respect to B field
   DQ        =  0.001000  dq finite difference perturbation B field
   LLRAUG    =     F  two centre corrections for induced B field



--------------------------------------------------------------------------------------------------------


 Static calculation
 charge density and potential will be updated during run
 non-spin polarized calculation
 RMM-DIIS sequential band-by-band and
  variant of blocked Davidson during initial phase
 perform sub-space diagonalisation
    before iterative eigenvector-optimisation
 modified Broyden-mixing scheme, WC =      100.0
 initial mixing is a Kerker type mixing with AMIX =  0.4000 and BMIX =      1.0000
 Hartree-type preconditioning will be used
 using additional bands            4
 reciprocal scheme for non local part
 use partial core corrections
 calculate Harris-corrections to forces 
   (improved forces if not selfconsistent)
 use gradient corrections 
 use of overlap-Matrix (Vanderbilt PP)
 Fermi weights with tetrahedron method with Bloechl corrections


--------------------------------------------------------------------------------------------------------


  energy-cutoff  :      450.00
  volume of cell :      131.15
      direct lattice vectors                 reciprocal lattice vectors
     3.190315730  0.000000000  0.000000000     0.313448600  0.180969634  0.000000000
    -1.595157865  2.762894468  0.000000000     0.000000000  0.361939267  0.000000000
     0.000000000  0.000000000 14.879004300     0.000000000  0.000000000  0.067208798

  length of vectors
     3.190315730  3.190315730 14.879004300     0.361939267  0.361939267  0.067208798


 
 k-points in units of 2pi/SCALE and weight: k-density: 5.0                          
   0.00000000  0.00000000  0.00000000       0.003
   0.03134486  0.01809696  0.00000000       0.020
   0.06268972  0.03619393  0.00000000       0.020
   0.09403458  0.05429089  0.00000000       0.020
   0.12537944  0.07238785  0.00000000       0.020
   0.15672430  0.09048482  0.00000000       0.010
   0.03134486  0.05429089  0.00000000       0.020
   0.06268972  0.07238785  0.00000000       0.040
   0.09403458  0.09048482  0.00000000       0.040
   0.12537944  0.10858178  0.00000000       0.040
   0.06268972  0.10858178  0.00000000       0.020
   0.09403458  0.12667874  0.00000000       0.040
   0.12537944  0.14477571  0.00000000       0.020
   0.09403458  0.16287267  0.00000000       0.020
   0.00000000  0.00000000  0.02240293       0.007
   0.03134486  0.01809696  0.02240293       0.040
   0.06268972  0.03619393  0.02240293       0.040
   0.09403458  0.05429089  0.02240293       0.040
   0.12537944  0.07238785  0.02240293       0.040
   0.15672430  0.09048482  0.02240293       0.020
   0.03134486  0.05429089  0.02240293       0.040
   0.06268972  0.07238785  0.02240293       0.080
   0.09403458  0.09048482  0.02240293       0.080
   0.12537944  0.10858178  0.02240293       0.080
   0.06268972  0.10858178  0.02240293       0.040
   0.09403458  0.12667874  0.02240293       0.080
   0.12537944  0.14477571  0.02240293       0.040
   0.09403458  0.16287267  0.02240293       0.040
 
 k-points in reciprocal lattice and weights: k-density: 5.0                          
   0.00000000  0.00000000  0.00000000       0.003
   0.10000000 -0.00000000  0.00000000       0.020
   0.20000000  0.00000000  0.00000000       0.020
   0.30000000 -0.00000000  0.00000000       0.020
   0.40000000  0.00000000  0.00000000       0.020
   0.50000000  0.00000000  0.00000000       0.010
   0.10000000  0.10000000  0.00000000       0.020
   0.20000000  0.10000000  0.00000000       0.040
   0.30000000  0.10000000  0.00000000       0.040
   0.40000000  0.10000000  0.00000000       0.040
   0.20000000  0.20000000  0.00000000       0.020
   0.30000000  0.20000000  0.00000000       0.040
   0.40000000  0.20000000  0.00000000       0.020
   0.30000000  0.30000000  0.00000000       0.020
   0.00000000  0.00000000  0.33333333       0.007
   0.10000000 -0.00000000  0.33333333       0.040
   0.20000000  0.00000000  0.33333333       0.040
   0.30000000 -0.00000000  0.33333333       0.040
   0.40000000  0.00000000  0.33333333       0.040
   0.50000000  0.00000000  0.33333333       0.020
   0.10000000  0.10000000  0.33333333       0.040
   0.20000000  0.10000000  0.33333333       0.080
   0.30000000  0.10000000  0.33333333       0.080
   0.40000000  0.10000000  0.33333333       0.080
   0.20000000  0.20000000  0.33333333       0.040
   0.30000000  0.20000000  0.33333333       0.080
   0.40000000  0.20000000  0.33333333       0.040
   0.30000000  0.30000000  0.33333333       0.040
 
 position of ions in fractional coordinates (direct lattice) 
   0.33333300  0.66666700  0.25000000
   0.66666700  0.33333300  0.75000000
   0.33333300  0.66666700  0.85517400
   0.66666700  0.33333300  0.14482600
   0.66666600  0.33333300  0.35517400
   0.33333400  0.66666700  0.64482600
 
 position of ions in cartesian coordinates  (Angst):
  -0.00000160  1.84193057  3.71975108
   1.59515946  0.92096390 11.15925323
  -0.00000160  1.84193057 12.72413762
   1.59515946  0.92096390  2.15486668
   1.59515627  0.92096390  5.28463547
   0.00000160  1.84193057  9.59436883
 


--------------------------------------------------------------------------------------------------------


 k-point  1 :   0.0000 0.0000 0.0000  plane waves:    2895
 k-point  2 :   0.1000-0.0000 0.0000  plane waves:    2891
 k-point  3 :   0.2000 0.0000 0.0000  plane waves:    2857
 k-point  4 :   0.3000-0.0000 0.0000  plane waves:    2846
 k-point  5 :   0.4000 0.0000 0.0000  plane waves:    2832
 k-point  6 :   0.5000 0.0000 0.0000  plane waves:    2784
 k-point  7 :   0.1000 0.1000 0.0000  plane waves:    2877
 k-point  8 :   0.2000 0.1000 0.0000  plane waves:    2849
 k-point  9 :   0.3000 0.1000 0.0000  plane waves:    2839
 k-point 10 :   0.4000 0.1000 0.0000  plane waves:    2820
 k-point 11 :   0.2000 0.2000 0.0000  plane waves:    2847
 k-point 12 :   0.3000 0.2000 0.0000  plane waves:    2832
 k-point 13 :   0.4000 0.2000 0.0000  plane waves:    2826
 k-point 14 :   0.3000 0.3000 0.0000  plane waves:    2842
 k-point 15 :   0.0000 0.0000 0.3333  plane waves:    2890
 k-point 16 :   0.1000-0.0000 0.3333  plane waves:    2885
 k-point 17 :   0.2000 0.0000 0.3333  plane waves:    2856
 k-point 18 :   0.3000-0.0000 0.3333  plane waves:    2838
 k-point 19 :   0.4000 0.0000 0.3333  plane waves:    2832
 k-point 20 :   0.5000 0.0000 0.3333  plane waves:    2814
 k-point 21 :   0.1000 0.1000 0.3333  plane waves:    2870
 k-point 22 :   0.2000 0.1000 0.3333  plane waves:    2851
 k-point 23 :   0.3000 0.1000 0.3333  plane waves:    2844
 k-point 24 :   0.4000 0.1000 0.3333  plane waves:    2824
 k-point 25 :   0.2000 0.2000 0.3333  plane waves:    2841
 k-point 26 :   0.3000 0.2000 0.3333  plane waves:    2835
 k-point 27 :   0.4000 0.2000 0.3333  plane waves:    2830
 k-point 28 :   0.3000 0.3000 0.3333  plane waves:    2831

 maximum and minimum number of plane-waves per node :      1449     1385

 maximum number of plane-waves:      2895
 maximum index in each direction: 
   IXMAX=    5   IYMAX=    5   IZMAX=   25
   IXMIN=   -6   IYMIN=   -5   IZMIN=  -26


 parallel 3D FFT for wavefunctions:
    minimum data exchange during FFTs selected (reduces bandwidth)
 parallel 3D FFT for charge:
    minimum data exchange during FFTs selected (reduces bandwidth)


 total amount of memory used by VASP MPI-rank0    54802. kBytes
=======================================================================

   base      :      30000. kBytes
   nonl-proj :      11832. kBytes
   fftplans  :       2162. kBytes
   grid      :       3449. kBytes
   one-center:         46. kBytes
   wavefun   :       7313. kBytes
 
     INWAV:  cpu time    0.0000: real time    0.0000
 Broyden mixing: mesh for mixing (old mesh)
   NGX = 11   NGY = 11   NGZ = 51
  (NGX  = 36   NGY  = 36   NGZ  =160)
  gives a total of   6171 points

 initial charge density was supplied:
 charge density of overlapping atoms calculated
 number of electron      36.0000000 magnetization 
 keeping initial charge density in first step


--------------------------------------------------------------------------------------------------------


 Maximum index for augmentation-charges         3021 (set IRDMAX)


--------------------------------------------------------------------------------------------------------


 First call to EWALD:  gamma=   0.349
 Maximum number of real-space cells 5x 5x 1
 Maximum number of reciprocal cells 2x 2x 7

    FEWALD:  cpu time    0.0010: real time    0.0015


--------------------------------------- Iteration      1(   1)  ---------------------------------------


    POTLOK:  cpu time    0.0310: real time    0.0549
    SETDIJ:  cpu time    0.0050: real time    0.0053
     EDDAV:  cpu time    0.6229: real time    0.6282
 BZINTS: Fermi energy: 14.459867; 36.000000 electrons
         Band energy: 166.689400;  BLOECHL correction: -0.252059
       DOS:  cpu time    0.0100: real time    0.0099
    --------------------------------------------
      LOOP:  cpu time    0.6689: real time    0.6982

 eigenvalue-minimisations  :  1232
 total energy-change (2. order) : 0.1999318E+03  (-0.1475588E+04)
 number of electron      36.0000000 magnetization 
 augmentation part       36.0000000 magnetization 

 Free energy of the ion-electron system (eV)
  ---------------------------------------------------
  alpha Z        PSCENC =        90.42577596
  Ewald energy   TEWEN  =     -1146.88905665
  -Hartree energ DENC   =      -535.10238363
  -exchange      EXHF   =         0.00000000
  -V(xc)+E(xc)   XCENC  =       -72.59368150
  PAW double counting   =       813.77302396     -658.68146406
  entropy T*S    EENTRO =         0.00000000
  eigenvalues    EBANDS =       166.68939987
  atomic energy  EATOM  =      1542.31022798
  Solvation  Ediel_sol  =         0.00000000
  ---------------------------------------------------
  free energy    TOTEN  =       199.93184195 eV

  energy without entropy =      199.93184195  energy(sigma->0) =      199.93184195


--------------------------------------------------------------------------------------------------------




--------------------------------------- Iteration      1(   2)  ---------------------------------------


     EDDAV:  cpu time    0.7799: real time    0.7844
 BZINTS: Fermi energy:  5.477255; 36.000000 electrons
         Band energy: -61.592729;  BLOECHL correction:  0.000000
       DOS:  cpu time    0.0020: real time    0.0028
    --------------------------------------------
      LOOP:  cpu time    0.7819: real time    0.7872

 eigenvalue-minimisations  :  1664
 total energy-change (2. order) :-0.2282821E+03  (-0.2213364E+03)
 number of electron      36.0000000 magnetization 
 augmentation part       36.0000000 magnetization 

 Free energy of the ion-electron system (eV)
  ---------------------------------------------------
  alpha Z        PSCENC =        90.42577596
  Ewald energy   TEWEN  =     -1146.88905665
  -Hartree energ DENC   =      -535.10238363
  -exchange      EXHF   =         0.00000000
  -V(xc)+E(xc)   XCENC  =       -72.59368150
  PAW double counting   =       813.77302396     -658.68146406
  entropy T*S    EENTRO =         0.00000000
  eigenvalues    EBANDS =       -61.59272907
  atomic energy  EATOM  =      1542.31022798
  Solvation  Ediel_sol  =         0.00000000
  ---------------------------------------------------
  free energy    TOTEN  =       -28.35028699 eV

  energy without entropy =      -28.35028699  energy(sigma->0) =      -28.35028699


--------------------------------------------------------------------------------------------------------




--------------------------------------- Iteration      1(   3)  ---------------------------------------


     EDDAV:  cpu time    0.7729: real time    0.7726
 BZINTS: Fermi energy:  3.898287; 36.000000 electrons
         Band energy: -79.544585;  BLOECHL correction:  0.000000
       DOS:  cpu time    0.0020: real time    0.0020
    --------------------------------------------
      LOOP:  cpu time    0.7749: real time    0.7746

 eigenvalue-minimisations  :  1636
 total energy-change (2. order) :-0.1795186E+02  (-0.1787276E+02)
 number of electron      36.0000000 magnetization 
 augmentation part       36.0000000 magnetization 

 Free energy of the ion-electron system (eV)
  ---------------------------------------------------
  alpha Z        PSCENC =        90.42577596
  Ewald energy   TEWEN  =     -1146.88905665
  -Hartree energ DENC   =      -535.10238363
  -exchange      EXHF   =         0.00000000
  -V(xc)+E(xc)   XCENC  =       -72.59368150
  PAW double counting   =       813.77302396     -658.68146406
  entropy T*S    EENTRO =         0.00000000
  eigenvalues    EBANDS =       -79.54458475
  atomic energy  EATOM  =      1542.31022798
  Solvation  Ediel_sol  =         0.00000000
  ---------------------------------------------------
  free energy    TOTEN  =       -46.30214267 eV

  energy without entropy =      -46.30214267  energy(sigma->0) =      -46.30214267


--------------------------------------------------------------------------------------------------------




--------------------------------------- Iteration      1(   4)  ---------------------------------------


     EDDAV:  cpu time    0.7959: real time    0.7996
 BZINTS: Fermi energy:  3.880882; 36.000000 electrons
         Band energy: -80.048110;  BLOECHL correction:  0.000000
       DOS:  cpu time    0.0020: real time    0.0022
    --------------------------------------------
      LOOP:  cpu time    0.7979: real time    0.8018

 eigenvalue-minimisations  :  1704
 total energy-change (2. order) :-0.5035250E+00  (-0.5027548E+00)
 number of electron      36.0000000 magnetization 
 augmentation part       36.0000000 magnetization 

 Free energy of the ion-electron system (eV)
  ---------------------------------------------------
  alpha Z        PSCENC =        90.42577596
  Ewald energy   TEWEN  =     -1146.88905665
  -Hartree energ DENC   =      -535.10238363
  -exchange      EXHF   =         0.00000000
  -V(xc)+E(xc)   XCENC  =       -72.59368150
  PAW double counting   =       813.77302396     -658.68146406
  entropy T*S    EENTRO =         0.00000000
  eigenvalues    EBANDS =       -80.04810971
  atomic energy  EATOM  =      1542.31022798
  Solvation  Ediel_sol  =         0.00000000
  ---------------------------------------------------
  free energy    TOTEN  =       -46.80566763 eV

  energy without entropy =      -46.80566763  energy(sigma->0) =      -46.80566763


--------------------------------------------------------------------------------------------------------




--------------------------------------- Iteration      1(   5)  ---------------------------------------


     EDDAV:  cpu time    0.7759: real time    0.7758
 BZINTS: Fermi energy:  3.860837; 36.000000 electrons
         Band energy: -80.062857;  BLOECHL correction:  0.000000
       DOS:  cpu time    0.0020: real time    0.0022
    CHARGE:  cpu time    0.0500: real time    0.0507
    MIXING:  cpu time    0.0020: real time    0.0012
    --------------------------------------------
      LOOP:  cpu time    0.8299: real time    0.8299

 eigenvalue-minimisations  :  1654
 total energy-change (2. order) :-0.1474709E-01  (-0.1474350E-01)
 number of electron      36.0000009 magnetization 
 augmentation part       -1.8907017 magnetization 

 Broyden mixing:
  rms(total) = 0.97344E+00    rms(broyden)= 0.97343E+00
  rms(prec ) = 0.12180E+01
  weight for this iteration     100.00

 Free energy of the ion-electron system (eV)
  ---------------------------------------------------
  alpha Z        PSCENC =        90.42577596
  Ewald energy   TEWEN  =     -1146.88905665
  -Hartree energ DENC   =      -535.10238363
  -exchange      EXHF   =         0.00000000
  -V(xc)+E(xc)   XCENC  =       -72.59368150
  PAW double counting   =       813.77302396     -658.68146406
  entropy T*S    EENTRO =         0.00000000
  eigenvalues    EBANDS =       -80.06285680
  atomic energy  EATOM  =      1542.31022798
  Solvation  Ediel_sol  =         0.00000000
  ---------------------------------------------------
  free energy    TOTEN  =       -46.82041472 eV

  energy without entropy =      -46.82041472  energy(sigma->0) =      -46.82041472


--------------------------------------------------------------------------------------------------------




--------------------------------------- Iteration      1(   6)  ---------------------------------------


    POTLOK:  cpu time    0.0270: real time    0.0307
    SETDIJ:  cpu time    0.0050: real time    0.0045
    EDDIAG:  cpu time    0.1320: real time    0.1318
  RMM-DIIS:  cpu time    0.5159: real time    0.5159
    ORTHCH:  cpu time    0.0140: real time    0.0146
 BZINTS: Fermi energy:  2.910455; 36.000000 electrons
         Band energy: -79.161641;  BLOECHL correction:  0.000000
       DOS:  cpu time    0.0020: real time    0.0022
    CHARGE:  cpu time    0.0500: real time    0.0501
    MIXING:  cpu time    0.0010: real time    0.0009
    --------------------------------------------
      LOOP:  cpu time    0.7469: real time    0.7506

 eigenvalue-minimisations  :  1370
 total energy-change (2. order) : 0.2387274E+01  (-0.2444813E+01)
 number of electron      36.0000006 magnetization 
 augmentation part       -0.8621231 magnetization 

 Broyden mixing:
  rms(total) = 0.33633E+00    rms(broyden)= 0.33632E+00
  rms(prec ) = 0.49203E+00
  weight for this iteration     100.00

 eigenvalues of (default mixing * dielectric matrix)
  average eigenvalue GAMMA=   0.8747
  0.8747

 Free energy of the ion-electron system (eV)
  ---------------------------------------------------
  alpha Z        PSCENC =        90.42577596
  Ewald energy   TEWEN  =     -1146.88905665
  -Hartree energ DENC   =      -533.60600475
  -exchange      EXHF   =         0.00000000
  -V(xc)+E(xc)   XCENC  =       -70.82500751
  PAW double counting   =       847.85018733     -694.53762171
  entropy T*S    EENTRO =         0.00000000
  eigenvalues    EBANDS =       -79.16164091
  atomic energy  EATOM  =      1542.31022798
  Solvation  Ediel_sol  =         0.00000000
  ---------------------------------------------------
  free energy    TOTEN  =       -44.43314025 eV

  energy without entropy =      -44.43314025  energy(sigma->0) =      -44.43314025


--------------------------------------------------------------------------------------------------------




--------------------------------------- Iteration      1(   7)  ---------------------------------------


    POTLOK:  cpu time    0.0280: real time    0.0274
    SETDIJ:  cpu time    0.0040: real time    0.0044
    EDDIAG:  cpu time    0.1300: real time    0.1302
  RMM-DIIS:  cpu time    0.5069: real time    0.5064
    ORTHCH:  cpu time    0.0140: real time    0.0146
 BZINTS: Fermi energy:  3.206113; 36.000000 electrons
         Band energy: -73.421392;  BLOECHL correction:  0.000000
       DOS:  cpu time    0.0030: real time    0.0022
    CHARGE:  cpu time    0.0500: real time    0.0501
    MIXING:  cpu time    0.0010: real time    0.0009
    --------------------------------------------
      LOOP:  cpu time    0.7369: real time    0.7363

 eigenvalue-minimisations  :  1351
 total energy-change (2. order) : 0.7371396E+00  (-0.1933010E+00)
 number of electron      36.0000007 magnetization 
 augmentation part       -1.1120717 magnetization 

 Broyden mixing:
  rms(total) = 0.17844E+00    rms(broyden)= 0.17844E+00
  rms(prec ) = 0.21330E+00
  weight for this iteration     100.00

 eigenvalues of (default mixing * dielectric matrix)
  average eigenvalue GAMMA=   1.4132
  0.7601  2.0662

 Free energy of the ion-electron system (eV)
  ---------------------------------------------------
  alpha Z        PSCENC =        90.42577596
  Ewald energy   TEWEN  =     -1146.88905665
  -Hartree energ DENC   =      -537.92110457
  -exchange      EXHF   =         0.00000000
  -V(xc)+E(xc)   XCENC  =       -71.01584854
  PAW double counting   =       881.21973272     -728.40433517
  entropy T*S    EENTRO =         0.00000000
  eigenvalues    EBANDS =       -73.42139237
  atomic energy  EATOM  =      1542.31022798
  Solvation  Ediel_sol  =         0.00000000
  ---------------------------------------------------
  free energy    TOTEN  =       -43.69600062 eV

  energy without entropy =      -43.69600062  energy(sigma->0) =      -43.69600062


--------------------------------------------------------------------------------------------------------




--------------------------------------- Iteration      1(   8)  ---------------------------------------


    POTLOK:  cpu time    0.0270: real time    0.0306
    SETDIJ:  cpu time    0.0050: real time    0.0044
    EDDIAG:  cpu time    0.1300: real time    0.1304
  RMM-DIIS:  cpu time    0.5249: real time    0.5245
    ORTHCH:  cpu time    0.0140: real time    0.0146
 BZINTS: Fermi energy:  3.376376; 36.000000 electrons
         Band energy: -68.452119;  BLOECHL correction:  0.000000
       DOS:  cpu time    0.0020: real time    0.0024
    CHARGE:  cpu time    0.0510: real time    0.0501
    MIXING:  cpu time    0.0010: real time    0.0015
    --------------------------------------------
      LOOP:  cpu time    0.7549: real time    0.7585

 eigenvalue-minimisations  :  1407
 total energy-change (2. order) : 0.6388687E-01  (-0.8974466E-01)
 number of electron      36.0000007 magnetization 
 augmentation part       -1.1698187 magnetization 

 Broyden mixing:
  rms(total) = 0.82980E-01    rms(broyden)= 0.82978E-01
  rms(prec ) = 0.11105E+00
  weight for this iteration     100.00

 eigenvalues of (default mixing * dielectric matrix)
  average eigenvalue GAMMA=   1.4979
  2.1077  1.5673  0.8186

 Free energy of the ion-electron system (eV)
  ---------------------------------------------------
  alpha Z        PSCENC =        90.42577596
  Ewald energy   TEWEN  =     -1146.88905665
  -Hartree energ DENC   =      -542.22013271
  -exchange      EXHF   =         0.00000000
  -V(xc)+E(xc)   XCENC  =       -70.63308653
  PAW double counting   =       931.96668265     -780.14040524
  entropy T*S    EENTRO =         0.00000000
  eigenvalues    EBANDS =       -68.45211923
  atomic energy  EATOM  =      1542.31022798
  Solvation  Ediel_sol  =         0.00000000
  ---------------------------------------------------
  free energy    TOTEN  =       -43.63211376 eV

  energy without entropy =      -43.63211376  energy(sigma->0) =      -43.63211376


--------------------------------------------------------------------------------------------------------




--------------------------------------- Iteration      1(   9)  ---------------------------------------


    POTLOK:  cpu time    0.0270: real time    0.0276
    SETDIJ:  cpu time    0.0050: real time    0.0044
    EDDIAG:  cpu time    0.1300: real time    0.1305
  RMM-DIIS:  cpu time    0.5449: real time    0.5442
    ORTHCH:  cpu time    0.0140: real time    0.0145
 BZINTS: Fermi energy:  3.234404; 36.000000 electrons
         Band energy: -68.926654;  BLOECHL correction:  0.000000
       DOS:  cpu time    0.0020: real time    0.0022
    CHARGE:  cpu time    0.0500: real time    0.0510
    MIXING:  cpu time    0.0020: real time    0.0010
    --------------------------------------------
      LOOP:  cpu time    0.7749: real time    0.7755

 eigenvalue-minimisations  :  1455
 total energy-change (2. order) : 0.9093067E-02  (-0.3060570E-01)
 number of electron      36.0000007 magnetization 
 augmentation part       -1.0425983 magnetization 

 Broyden mixing:
  rms(total) = 0.58897E-01    rms(broyden)= 0.58897E-01
  rms(prec ) = 0.82386E-01
  weight for this iteration     100.00

 eigenvalues of (default mixing * dielectric matrix)
  average eigenvalue GAMMA=   1.5248
  2.2326  2.0619  0.9024  0.9024

 Free energy of the ion-electron system (eV)
  ---------------------------------------------------
  alpha Z        PSCENC =        90.42577596
  Ewald energy   TEWEN  =     -1146.88905665
  -Hartree energ DENC   =      -541.82827865
  -exchange      EXHF   =         0.00000000
  -V(xc)+E(xc)   XCENC  =       -70.36944244
  PAW double counting   =       938.54997160     -786.89556422
  entropy T*S    EENTRO =         0.00000000
  eigenvalues    EBANDS =       -68.92665428
  atomic energy  EATOM  =      1542.31022798
  Solvation  Ediel_sol  =         0.00000000
  ---------------------------------------------------
  free energy    TOTEN  =       -43.62302069 eV

  energy without entropy =      -43.62302069  energy(sigma->0) =      -43.62302069


--------------------------------------------------------------------------------------------------------




--------------------------------------- Iteration      1(  10)  ---------------------------------------


    POTLOK:  cpu time    0.0280: real time    0.0300
    SETDIJ:  cpu time    0.0040: real time    0.0044
    EDDIAG:  cpu time    0.1300: real time    0.1304
  RMM-DIIS:  cpu time    0.5539: real time    0.5530
    ORTHCH:  cpu time    0.0140: real time    0.0145
 BZINTS: Fermi energy:  3.359795; 36.000000 electrons
         Band energy: -68.017598;  BLOECHL correction:  0.000000
       DOS:  cpu time    0.0020: real time    0.0024
    CHARGE:  cpu time    0.0500: real time    0.0501
    MIXING:  cpu time    0.0020: real time    0.0011
    --------------------------------------------
      LOOP:  cpu time    0.7839: real time    0.7859

 eigenvalue-minimisations  :  1475
 total energy-change (2. order) : 0.1759755E-01  (-0.6601331E-02)
 number of electron      36.0000007 magnetization 
 augmentation part       -1.1038163 magnetization 

 Broyden mixing:
  rms(total) = 0.62960E-02    rms(broyden)= 0.62955E-02
  rms(prec ) = 0.79961E-02
  weight for this iteration     100.00

 eigenvalues of (default mixing * dielectric matrix)
  average eigenvalue GAMMA=   1.4314
  2.4425  1.6243  0.8910  0.8910  1.3082

 Free energy of the ion-electron system (eV)
  ---------------------------------------------------
  alpha Z        PSCENC =        90.42577596
  Ewald energy   TEWEN  =     -1146.88905665
  -Hartree energ DENC   =      -542.62288297
  -exchange      EXHF   =         0.00000000
  -V(xc)+E(xc)   XCENC  =       -70.42485888
  PAW double counting   =       944.41035762     -792.79738784
  entropy T*S    EENTRO =         0.00000000
  eigenvalues    EBANDS =       -68.01759837
  atomic energy  EATOM  =      1542.31022798
  Solvation  Ediel_sol  =         0.00000000
  ---------------------------------------------------
  free energy    TOTEN  =       -43.60542314 eV

  energy without entropy =      -43.60542314  energy(sigma->0) =      -43.60542314


--------------------------------------------------------------------------------------------------------




--------------------------------------- Iteration      1(  11)  ---------------------------------------


    POTLOK:  cpu time    0.0270: real time    0.0274
    SETDIJ:  cpu time    0.0050: real time    0.0044
    EDDIAG:  cpu time    0.1300: real time    0.1304
  RMM-DIIS:  cpu time    0.5929: real time    0.5937
    ORTHCH:  cpu time    0.0150: real time    0.0146
 BZINTS: Fermi energy:  3.357945; 36.000000 electrons
         Band energy: -67.879299;  BLOECHL correction:  0.000000
       DOS:  cpu time    0.0020: real time    0.0024
    CHARGE:  cpu time    0.0500: real time    0.0502
    MIXING:  cpu time    0.0020: real time    0.0011
    --------------------------------------------
      LOOP:  cpu time    0.8239: real time    0.8242

 eigenvalue-minimisations  :  1604
 total energy-change (2. order) :-0.2357059E-03  (-0.3514708E-03)
 number of electron      36.0000007 magnetization 
 augmentation part       -1.1004610 magnetization 

 Broyden mixing:
  rms(total) = 0.28841E-02    rms(broyden)= 0.28841E-02
  rms(prec ) = 0.34781E-02
  weight for this iteration     100.00

 eigenvalues of (default mixing * dielectric matrix)
  average eigenvalue GAMMA=   1.6608
  2.9506  2.4821  1.7865  0.9031  0.9031  0.9394

 Free energy of the ion-electron system (eV)
  ---------------------------------------------------
  alpha Z        PSCENC =        90.42577596
  Ewald energy   TEWEN  =     -1146.88905665
  -Hartree energ DENC   =      -542.77752148
  -exchange      EXHF   =         0.00000000
  -V(xc)+E(xc)   XCENC  =       -70.40245034
  PAW double counting   =       944.68465244     -793.07798761
  entropy T*S    EENTRO =         0.00000000
  eigenvalues    EBANDS =       -67.87929915
  atomic energy  EATOM  =      1542.31022798
  Solvation  Ediel_sol  =         0.00000000
  ---------------------------------------------------
  free energy    TOTEN  =       -43.60565884 eV

  energy without entropy =      -43.60565884  energy(sigma->0) =      -43.60565884


--------------------------------------------------------------------------------------------------------




--------------------------------------- Iteration      1(  12)  ---------------------------------------


    POTLOK:  cpu time    0.0270: real time    0.0296
    SETDIJ:  cpu time    0.0050: real time    0.0044
    EDDIAG:  cpu time    0.1300: real time    0.1306
  RMM-DIIS:  cpu time    0.5839: real time    0.5833
    ORTHCH:  cpu time    0.0140: real time    0.0145
 BZINTS: Fermi energy:  3.362071; 36.000000 electrons
         Band energy: -67.719751;  BLOECHL correction:  0.000000
       DOS:  cpu time    0.0020: real time    0.0024
    CHARGE:  cpu time    0.0510: real time    0.0502
    MIXING:  cpu time    0.0010: real time    0.0011
    --------------------------------------------
      LOOP:  cpu time    0.8139: real time    0.8162

 eigenvalue-minimisations  :  1560
 total energy-change (2. order) :-0.1354237E-03  (-0.4574065E-04)
 number of electron      36.0000007 magnetization 
 augmentation part       -1.0989279 magnetization 

 Broyden mixing:
  rms(total) = 0.13953E-02    rms(broyden)= 0.13953E-02
  rms(prec ) = 0.17518E-02
  weight for this iteration     100.00

 eigenvalues of (default mixing * dielectric matrix)
  average eigenvalue GAMMA=   1.6099
  2.8748  2.3436  1.6591  1.6591  0.9038  0.9038  0.9254

 Free energy of the ion-electron system (eV)
  ---------------------------------------------------
  alpha Z        PSCENC =        90.42577596
  Ewald energy   TEWEN  =     -1146.88905665
  -Hartree energ DENC   =      -542.96053097
  -exchange      EXHF   =         0.00000000
  -V(xc)+E(xc)   XCENC  =       -70.39218397
  PAW double counting   =       944.40900696     -792.78928226
  entropy T*S    EENTRO =         0.00000000
  eigenvalues    EBANDS =       -67.71975132
  atomic energy  EATOM  =      1542.31022798
  Solvation  Ediel_sol  =         0.00000000
  ---------------------------------------------------
  free energy    TOTEN  =       -43.60579427 eV

  energy without entropy =      -43.60579427  energy(sigma->0) =      -43.60579427


--------------------------------------------------------------------------------------------------------




--------------------------------------- Iteration      1(  13)  ---------------------------------------


    POTLOK:  cpu time    0.0270: real time    0.0272
    SETDIJ:  cpu time    0.0050: real time    0.0044
    EDDIAG:  cpu time    0.1300: real time    0.1303
  RMM-DIIS:  cpu time    0.6009: real time    0.6012
    ORTHCH:  cpu time    0.0140: real time    0.0146
 BZINTS: Fermi energy:  3.364136; 36.000000 electrons
         Band energy: -67.712994;  BLOECHL correction:  0.000000
       DOS:  cpu time    0.0030: real time    0.0024
    CHARGE:  cpu time    0.0500: real time    0.0502
    MIXING:  cpu time    0.0020: real time    0.0012
    --------------------------------------------
      LOOP:  cpu time    0.8319: real time    0.8315

 eigenvalue-minimisations  :  1607
 total energy-change (2. order) :-0.1371337E-04  (-0.2244893E-04)
 number of electron      36.0000007 magnetization 
 augmentation part       -1.1016571 magnetization 

 Broyden mixing:
  rms(total) = 0.16424E-02    rms(broyden)= 0.16424E-02
  rms(prec ) = 0.22236E-02
  weight for this iteration     100.00

 eigenvalues of (default mixing * dielectric matrix)
  average eigenvalue GAMMA=   1.7243
  3.2862  2.5592  2.5592  1.6589  0.8888  0.8888  1.0808  0.8728

 Free energy of the ion-electron system (eV)
  ---------------------------------------------------
  alpha Z        PSCENC =        90.42577596
  Ewald energy   TEWEN  =     -1146.88905665
  -Hartree energ DENC   =      -542.96332547
  -exchange      EXHF   =         0.00000000
  -V(xc)+E(xc)   XCENC  =       -70.39483675
  PAW double counting   =       944.52163961     -792.90323914
  entropy T*S    EENTRO =         0.00000000
  eigenvalues    EBANDS =       -67.71299353
  atomic energy  EATOM  =      1542.31022798
  Solvation  Ediel_sol  =         0.00000000
  ---------------------------------------------------
  free energy    TOTEN  =       -43.60580798 eV

  energy without entropy =      -43.60580798  energy(sigma->0) =      -43.60580798


--------------------------------------------------------------------------------------------------------




--------------------------------------- Iteration      1(  14)  ---------------------------------------


    POTLOK:  cpu time    0.0270: real time    0.0295
    SETDIJ:  cpu time    0.0050: real time    0.0044
    EDDIAG:  cpu time    0.1290: real time    0.1302
  RMM-DIIS:  cpu time    0.4579: real time    0.4574
    ORTHCH:  cpu time    0.0140: real time    0.0146
 BZINTS: Fermi energy:  3.363380; 36.000000 electrons
         Band energy: -67.728076;  BLOECHL correction:  0.000000
       DOS:  cpu time    0.0030: real time    0.0024
    CHARGE:  cpu time    0.0500: real time    0.0502
    MIXING:  cpu time    0.0020: real time    0.0013
    --------------------------------------------
      LOOP:  cpu time    0.6879: real time    0.6900

 eigenvalue-minimisations  :  1171
 total energy-change (2. order) : 0.1008445E-04  (-0.5017727E-05)
 number of electron      36.0000007 magnetization 
 augmentation part       -1.1002866 magnetization 

 Broyden mixing:
  rms(total) = 0.27701E-03    rms(broyden)= 0.27700E-03
  rms(prec ) = 0.32891E-03
  weight for this iteration     100.00

 eigenvalues of (default mixing * dielectric matrix)
  average eigenvalue GAMMA=   1.5960
  3.1459  2.5331  2.4774  1.6052  1.1016  0.8806  0.8806  0.8696  0.8696

 Free energy of the ion-electron system (eV)
  ---------------------------------------------------
  alpha Z        PSCENC =        90.42577596
  Ewald energy   TEWEN  =     -1146.88905665
  -Hartree energ DENC   =      -542.95018882
  -exchange      EXHF   =         0.00000000
  -V(xc)+E(xc)   XCENC  =       -70.39259560
  PAW double counting   =       944.37888112     -792.76076558
  entropy T*S    EENTRO =         0.00000000
  eigenvalues    EBANDS =       -67.72807631
  atomic energy  EATOM  =      1542.31022798
  Solvation  Ediel_sol  =         0.00000000
  ---------------------------------------------------
  free energy    TOTEN  =       -43.60579790 eV

  energy without entropy =      -43.60579790  energy(sigma->0) =      -43.60579790


--------------------------------------------------------------------------------------------------------




--------------------------------------- Iteration      1(  15)  ---------------------------------------


    POTLOK:  cpu time    0.0270: real time    0.0272
    SETDIJ:  cpu time    0.0040: real time    0.0044
    EDDIAG:  cpu time    0.1300: real time    0.1302
  RMM-DIIS:  cpu time    0.3779: real time    0.3776
    ORTHCH:  cpu time    0.0140: real time    0.0145
 BZINTS: Fermi energy:  3.363670; 36.000000 electrons
         Band energy: -67.725492;  BLOECHL correction:  0.000000
       DOS:  cpu time    0.0030: real time    0.0024
    --------------------------------------------
      LOOP:  cpu time    0.5559: real time    0.5565

 eigenvalue-minimisations  :   954
 total energy-change (2. order) :-0.6354351E-06  (-0.1171484E-05)
 number of electron      36.0000007 magnetization 
 augmentation part       -1.1002866 magnetization 

 Free energy of the ion-electron system (eV)
  ---------------------------------------------------
  alpha Z        PSCENC =        90.42577596
  Ewald energy   TEWEN  =     -1146.88905665
  -Hartree energ DENC   =      -542.95361457
  -exchange      EXHF   =         0.00000000
  -V(xc)+E(xc)   XCENC  =       -70.39237911
  PAW double counting   =       944.34227286     -792.72353290
  entropy T*S    EENTRO =         0.00000000
  eigenvalues    EBANDS =       -67.72549211
  atomic energy  EATOM  =      1542.31022798
  Solvation  Ediel_sol  =         0.00000000
  ---------------------------------------------------
  free energy    TOTEN  =       -43.60579853 eV

  energy without entropy =      -43.60579853  energy(sigma->0) =      -43.60579853


--------------------------------------------------------------------------------------------------------




 average (electrostatic) potential at core
  the test charge radii are     1.2296  0.9698
  (the norm of the test charge is              1.0000)
       1 -40.3325       2 -40.3325       3 -88.1703       4 -88.1703       5 -88.1703
       6 -88.1703
 
 
 
 E-fermi :   3.3637     XC(G=0):  -9.3248     alpha+bet : -9.6368


 k-point     1 :       0.0000    0.0000    0.0000
  band No.  band energies     occupation 
      1     -10.9296      2.00000
      2     -10.9106      2.00000
      3      -9.7292      2.00000
      4      -9.6952      2.00000
      5      -2.5232      2.00000
      6      -2.3617      2.00000
      7       0.5199      2.00000
      8       0.5200      2.00000
      9       0.5205      2.00000
     10       0.5205      2.00000
     11       1.1062      2.00000
     12       1.6250      2.00000
     13       1.6250      2.00000
     14       1.6269      2.00000
     15       1.6269      2.00000
     16       1.6748      2.00000
     17       2.9225      2.00000
     18       3.2984      2.00000
     19       5.8749      0.00000
     20       5.9110      0.00000
     21       6.0192      0.00000
     22       6.0856      0.00000

 k-point     2 :       0.1000   -0.0000    0.0000
  band No.  band energies     occupation 
      1     -10.7911      2.00000
      2     -10.7723      2.00000
      3      -9.6621      2.00000
      4      -9.6298      2.00000
      5      -2.3611      2.00000
      6      -2.2009      2.00000
      7       0.2074      2.00000
      8       0.2089      2.00000
      9       0.6294      2.00000
     10       0.6719      2.00000
     11       0.6729      2.00000
     12       0.8774      2.00000
     13       1.3991      2.00000
     14       1.4015      2.00000
     15       1.8916      2.00000
     16       2.1700      2.00000
     17       2.8807      2.00000
     18       3.1684      2.00000
     19       5.6838      0.00000
     20       5.7066      0.00000
     21       5.7889      0.00000
     22       5.8722      0.00000

 k-point     3 :       0.2000    0.0000    0.0000
  band No.  band energies     occupation 
      1     -10.4048      2.00000
      2     -10.3871      2.00000
      3      -9.4764      2.00000
      4      -9.4487      2.00000
      5      -1.9947      2.00000
      6      -1.8507      2.00000
      7      -0.4406      2.00000
      8      -0.4250      2.00000
      9      -0.0880      2.00000
     10       0.0520      2.00000
     11       0.9086      2.00000
     12       0.9117      2.00000
     13       1.0811      2.00000
     14       1.0834      2.00000
     15       1.8600      2.00000
     16       2.1090      2.00000
     17       2.6057      2.00000
     18       2.7073      2.00000
     19       5.1648      0.00000
     20       5.4763      0.00000
     21       5.6023      0.00000
     22       5.6721      0.00000

 k-point     4 :       0.3000   -0.0000    0.0000
  band No.  band energies     occupation 
      1      -9.8662      2.00000
      2      -9.8510      2.00000
      3      -9.2221      2.00000
      4      -9.2015      2.00000
      5      -1.9613      2.00000
      6      -1.8949      2.00000
      7      -0.8247      2.00000
      8      -0.7923      2.00000
      9      -0.7525      2.00000
     10      -0.7155      2.00000
     11       0.4236      2.00000
     12       0.4273      2.00000
     13       1.5352      2.00000
     14       1.6003      2.00000
     15       1.6055      2.00000
     16       1.7033      2.00000
     17       2.1787      2.00000
     18       2.2186      2.00000
     19       5.2024      0.00000
     20       5.3262      0.00000
     21       5.3398      0.00000
     22       5.4854      0.00000

 k-point     5 :       0.4000    0.0000    0.0000
  band No.  band energies     occupation 
      1      -9.3572      2.00000
      2      -9.3467      2.00000
      3      -8.9897      2.00000
      4      -8.9776      2.00000
      5      -2.3925      2.00000
      6      -2.3614      2.00000
      7      -1.4200      2.00000
      8      -1.3835      2.00000
      9      -0.8772      2.00000
     10      -0.7949      2.00000
     11       0.0917      2.00000
     12       0.0957      2.00000
     13       1.3014      2.00000
     14       1.3887      2.00000
     15       2.0088      2.00000
     16       2.0185      2.00000
     17       2.2413      2.00000
     18       2.2906      2.00000
     19       5.2598      0.00000
     20       5.2672      0.00000
     21       5.5478      0.00000
     22       5.6896      0.00000

 k-point     6 :       0.5000    0.0000    0.0000
  band No.  band energies     occupation 
      1      -9.1370      2.00000
      2      -9.1305      2.00000
      3      -8.8922      2.00000
      4      -8.8857      2.00000
      5      -2.6133      2.00000
      6      -2.5863      2.00000
      7      -1.6524      2.00000
      8      -1.6280      2.00000
      9      -0.9680      2.00000
     10      -0.8921      2.00000
     11      -0.0247      2.00000
     12      -0.0206      2.00000
     13       1.2469      2.00000
     14       1.2664      2.00000
     15       2.1536      2.00000
     16       2.1657      2.00000
     17       2.4774      2.00000
     18       2.4812      2.00000
     19       5.2843      0.00000
     20       5.2880      0.00000
     21       5.7740      0.00000
     22       5.8289      0.00000

 k-point     7 :       0.1000    0.1000    0.0000
  band No.  band energies     occupation 
      1     -10.5283      2.00000
      2     -10.5102      2.00000
      3      -9.5353      2.00000
      4      -9.5061      2.00000
      5      -2.0869      2.00000
      6      -1.9336      2.00000
      7      -0.2558      2.00000
      8      -0.2521      2.00000
      9       0.1796      2.00000
     10       0.3610      2.00000
     11       0.8550      2.00000
     12       0.8665      2.00000
     13       0.9317      2.00000
     14       0.9332      2.00000
     15       2.0729      2.00000
     16       2.3202      2.00000
     17       2.7200      2.00000
     18       2.8673      2.00000
     19       5.2428      0.00000
     20       5.5001      0.00000
     21       5.5956      0.00000
     22       5.6713      0.00000

 k-point     8 :       0.2000    0.1000    0.0000
  band No.  band energies     occupation 
      1     -10.0629      2.00000
      2     -10.0466      2.00000
      3      -9.3124      2.00000
      4      -9.2890      2.00000
      5      -1.8362      2.00000
      6      -1.7327      2.00000
      7      -0.7009      2.00000
      8      -0.6576      2.00000
      9      -0.4396      2.00000
     10      -0.3572      2.00000
     11       0.2247      2.00000
     12       0.2746      2.00000
     13       1.2524      2.00000
     14       1.2545      2.00000
     15       1.9559      2.00000
     16       2.1103      2.00000
     17       2.3566      2.00000
     18       2.3871      2.00000
     19       4.9838      0.00000
     20       5.2209      0.00000
     21       5.4815      0.00000
     22       5.6540      0.00000

 k-point     9 :       0.3000    0.1000    0.0000
  band No.  band energies     occupation 
      1      -9.5289      2.00000
      2      -9.5162      2.00000
      3      -9.0613      2.00000
      4      -9.0457      2.00000
      5      -2.0994      2.00000
      6      -2.0596      2.00000
      7      -1.1991      2.00000
      8      -1.1689      2.00000
      9      -0.7501      2.00000
     10      -0.6701      2.00000
     11      -0.0123      2.00000
     12       0.0378      2.00000
     13       1.3453      2.00000
     14       1.3560      2.00000
     15       1.5823      2.00000
     16       1.6618      2.00000
     17       2.3316      2.00000
     18       2.3468      2.00000
     19       5.1143      0.00000
     20       5.2746      0.00000
     21       5.5328      0.00000
     22       5.6207      0.00000

 k-point    10 :       0.4000    0.1000    0.0000
  band No.  band energies     occupation 
      1      -9.1480      2.00000
      2      -9.1406      2.00000
      3      -8.8867      2.00000
      4      -8.8789      2.00000
      5      -2.4210      2.00000
      6      -2.3940      2.00000
      7      -1.6871      2.00000
      8      -1.6736      2.00000
      9      -0.8855      2.00000
     10      -0.8124      2.00000
     11      -0.0492      2.00000
     12      -0.0213      2.00000
     13       1.2954      2.00000
     14       1.3343      2.00000
     15       1.4607      2.00000
     16       1.4743      2.00000
     17       2.6178      2.00000
     18       2.6364      2.00000
     19       5.2869      0.00000
     20       5.3295      0.00000
     21       5.7683      0.00000
     22       5.8434      0.00000

 k-point    11 :       0.2000    0.2000    0.0000
  band No.  band energies     occupation 
      1      -9.5944      2.00000
      2      -9.5810      2.00000
      3      -9.0863      2.00000
      4      -9.0692      2.00000
      5      -1.9070      2.00000
      6      -1.8587      2.00000
      7      -1.0512      2.00000
      8      -1.0350      2.00000
      9      -0.6156      2.00000
     10      -0.5526      2.00000
     11      -0.2226      2.00000
     12      -0.1174      2.00000
     13       0.8939      2.00000
     14       0.8961      2.00000
     15       1.8529      2.00000
     16       1.9073      2.00000
     17       2.3448      2.00000
     18       2.3465      2.00000
     19       4.9842      0.00000
     20       5.2438      0.00000
     21       5.5997      0.00000
     22       5.8535      0.00000

 k-point    12 :       0.3000    0.2000    0.0000
  band No.  band energies     occupation 
      1      -9.1654      2.00000
      2      -9.1569      2.00000
      3      -8.8776      2.00000
      4      -8.8680      2.00000
      5      -2.0427      2.00000
      6      -2.0149      2.00000
      7      -1.7427      2.00000
      8      -1.7340      2.00000
      9      -0.6152      2.00000
     10      -0.5645      2.00000
     11      -0.1236      2.00000
     12      -0.0439      2.00000
     13       0.4542      2.00000
     14       0.4787      2.00000
     15       1.4425      2.00000
     16       1.4640      2.00000
     17       2.6085      2.00000
     18       2.6209      2.00000
     19       5.2041      0.00000
     20       5.3212      0.00000
     21       5.8369      0.00000
     22       6.1854      0.00000

 k-point    13 :       0.4000    0.2000    0.0000
  band No.  band energies     occupation 
      1      -8.9854      2.00000
      2      -8.9810      2.00000
      3      -8.7893      2.00000
      4      -8.7848      2.00000
      5      -2.0649      2.00000
      6      -2.0432      2.00000
      7      -2.0105      2.00000
      8      -2.0038      2.00000
      9      -0.8108      2.00000
     10      -0.7547      2.00000
     11       0.0161      2.00000
     12       0.0693      2.00000
     13       0.3972      2.00000
     14       0.4189      2.00000
     15       1.1710      2.00000
     16       1.2154      2.00000
     17       2.8520      2.00000
     18       2.8744      2.00000
     19       5.0881      0.00000
     20       5.1058      0.00000
     21       6.2847      0.00000
     22       6.4095      0.00000

 k-point    14 :       0.3000    0.3000    0.0000
  band No.  band energies     occupation 
      1      -8.9259      2.00000
      2      -8.9226      2.00000
      3      -8.7482      2.00000
      4      -8.7447      2.00000
      5      -2.1603      2.00000
      6      -2.1482      2.00000
      7      -1.6719      2.00000
      8      -1.6548      2.00000
      9      -0.6755      2.00000
     10      -0.6661      2.00000
     11      -0.3676      2.00000
     12      -0.3333      2.00000
     13       0.1234      2.00000
     14       0.1778      2.00000
     15       1.0699      2.00000
     16       1.1022      2.00000
     17       2.9759      2.00000
     18       2.9947      2.00000
     19       4.8830      0.00000
     20       4.8969      0.00000
     21       6.0836      0.00000
     22       6.2604      0.00000

 k-point    15 :       0.0000    0.0000    0.3333
  band No.  band energies     occupation 
      1     -10.9250      2.00000
      2     -10.9155      2.00000
      3      -9.7206      2.00000
      4      -9.7036      2.00000
      5      -2.4849      2.00000
      6      -2.4042      2.00000
      7       0.5201      2.00000
      8       0.5201      2.00000
      9       0.5204      2.00000
     10       0.5204      2.00000
     11       1.2304      2.00000
     12       1.5084      2.00000
     13       1.6254      2.00000
     14       1.6255      2.00000
     15       1.6264      2.00000
     16       1.6265      2.00000
     17       3.0430      2.00000
     18       3.2249      2.00000
     19       5.8744      0.00000
     20       5.8827      0.00000
     21       6.0155      0.00000
     22       6.0876      0.00000

 k-point    16 :       0.1000   -0.0000    0.3333
  band No.  band energies     occupation 
      1     -10.7865      2.00000
      2     -10.7771      2.00000
      3      -9.6539      2.00000
      4      -9.6378      2.00000
      5      -2.3232      2.00000
      6      -2.2432      2.00000
      7       0.2077      2.00000
      8       0.2084      2.00000
      9       0.6722      2.00000
     10       0.6727      2.00000
     11       0.6970      2.00000
     12       0.8212      2.00000
     13       1.3997      2.00000
     14       1.4009      2.00000
     15       1.9391      2.00000
     16       2.0713      2.00000
     17       2.9782      2.00000
     18       3.1154      2.00000
     19       5.6807      0.00000
     20       5.7300      0.00000
     21       5.7801      0.00000
     22       5.8469      0.00000

 k-point    17 :       0.2000    0.0000    0.3333
  band No.  band energies     occupation 
      1     -10.4005      2.00000
      2     -10.3916      2.00000
      3      -9.4693      2.00000
      4      -9.4555      2.00000
      5      -1.9608      2.00000
      6      -1.8890      2.00000
      7      -0.4378      2.00000
      8      -0.4303      2.00000
      9      -0.0482      2.00000
     10       0.0213      2.00000
     11       0.9093      2.00000
     12       0.9109      2.00000
     13       1.0817      2.00000
     14       1.0828      2.00000
     15       1.9119      2.00000
     16       2.0337      2.00000
     17       2.6416      2.00000
     18       2.6898      2.00000
     19       5.2307      0.00000
     20       5.3782      0.00000
     21       5.6257      0.00000
     22       5.7319      0.00000

 k-point    18 :       0.3000   -0.0000    0.3333
  band No.  band energies     occupation 
      1      -9.8625      2.00000
      2      -9.8549      2.00000
      3      -9.2168      2.00000
      4      -9.2065      2.00000
      5      -1.9452      2.00000
      6      -1.9120      2.00000
      7      -0.8204      2.00000
      8      -0.8057      2.00000
      9      -0.7375      2.00000
     10      -0.7205      2.00000
     11       0.4246      2.00000
     12       0.4264      2.00000
     13       1.5742      2.00000
     14       1.6016      2.00000
     15       1.6042      2.00000
     16       1.6578      2.00000
     17       2.1914      2.00000
     18       2.2109      2.00000
     19       5.2639      0.00000
     20       5.3299      0.00000
     21       5.3363      0.00000
     22       5.4022      0.00000

 k-point    19 :       0.4000    0.0000    0.3333
  band No.  band energies     occupation 
      1      -9.3546      2.00000
      2      -9.3494      2.00000
      3      -8.9866      2.00000
      4      -8.9806      2.00000
      5      -2.3848      2.00000
      6      -2.3693      2.00000
      7      -1.4118      2.00000
      8      -1.3937      2.00000
      9      -0.8555      2.00000
     10      -0.8144      2.00000
     11       0.0927      2.00000
     12       0.0947      2.00000
     13       1.3222      2.00000
     14       1.3657      2.00000
     15       2.0112      2.00000
     16       2.0160      2.00000
     17       2.2547      2.00000
     18       2.2793      2.00000
     19       5.2616      0.00000
     20       5.2653      0.00000
     21       5.5802      0.00000
     22       5.6508      0.00000

 k-point    20 :       0.5000    0.0000    0.3333
  band No.  band energies     occupation 
      1      -9.1354      2.00000
      2      -9.1322      2.00000
      3      -8.8906      2.00000
      4      -8.8873      2.00000
      5      -2.6067      2.00000
      6      -2.5932      2.00000
      7      -1.6469      2.00000
      8      -1.6348      2.00000
      9      -0.9482      2.00000
     10      -0.9103      2.00000
     11      -0.0237      2.00000
     12      -0.0216      2.00000
     13       1.2516      2.00000
     14       1.2614      2.00000
     15       2.1566      2.00000
     16       2.1627      2.00000
     17       2.4784      2.00000
     18       2.4803      2.00000
     19       5.2852      0.00000
     20       5.2871      0.00000
     21       5.7894      0.00000
     22       5.8160      0.00000

 k-point    21 :       0.1000    0.1000    0.3333
  band No.  band energies     occupation 
      1     -10.5239      2.00000
      2     -10.5148      2.00000
      3      -9.5279      2.00000
      4      -9.5133      2.00000
      5      -2.0508      2.00000
      6      -1.9744      2.00000
      7      -0.2553      2.00000
      8      -0.2536      2.00000
      9       0.2296      2.00000
     10       0.3200      2.00000
     11       0.8576      2.00000
     12       0.8633      2.00000
     13       0.9321      2.00000
     14       0.9329      2.00000
     15       2.1198      2.00000
     16       2.2382      2.00000
     17       2.7744      2.00000
     18       2.8429      2.00000
     19       5.2945      0.00000
     20       5.4028      0.00000
     21       5.6005      0.00000
     22       5.6512      0.00000

 k-point    22 :       0.2000    0.1000    0.3333
  band No.  band energies     occupation 
      1     -10.0589      2.00000
      2     -10.0508      2.00000
      3      -9.3065      2.00000
      4      -9.2948      2.00000
      5      -1.8114      2.00000
      6      -1.7597      2.00000
      7      -0.6938      2.00000
      8      -0.6733      2.00000
      9      -0.4124      2.00000
     10      -0.3725      2.00000
     11       0.2372      2.00000
     12       0.2622      2.00000
     13       1.2529      2.00000
     14       1.2540      2.00000
     15       1.9896      2.00000
     16       2.0657      2.00000
     17       2.3681      2.00000
     18       2.3823      2.00000
     19       5.0426      0.00000
     20       5.1621      0.00000
     21       5.5063      0.00000
     22       5.8343      0.00000

 k-point    23 :       0.3000    0.1000    0.3333
  band No.  band energies     occupation 
      1      -9.5258      2.00000
      2      -9.5194      2.00000
      3      -9.0573      2.00000
      4      -9.0495      2.00000
      5      -2.0897      2.00000
      6      -2.0698      2.00000
      7      -1.1923      2.00000
      8      -1.1772      2.00000
      9      -0.7300      2.00000
     10      -0.6902      2.00000
     11       0.0015      2.00000
     12       0.0265      2.00000
     13       1.3473      2.00000
     14       1.3526      2.00000
     15       1.6017      2.00000
     16       1.6413      2.00000
     17       2.3359      2.00000
     18       2.3434      2.00000
     19       5.1558      0.00000
     20       5.2368      0.00000
     21       5.5478      0.00000
     22       5.5870      0.00000

 k-point    24 :       0.4000    0.1000    0.3333
  band No.  band energies     occupation 
      1      -9.1462      2.00000
      2      -9.1425      2.00000
      3      -8.8847      2.00000
      4      -8.8808      2.00000
      5      -2.4143      2.00000
      6      -2.4009      2.00000
      7      -1.6840      2.00000
      8      -1.6773      2.00000
      9      -0.8674      2.00000
     10      -0.8309      2.00000
     11      -0.0415      2.00000
     12      -0.0275      2.00000
     13       1.3041      2.00000
     14       1.3234      2.00000
     15       1.4647      2.00000
     16       1.4715      2.00000
     17       2.6227      2.00000
     18       2.6320      2.00000
     19       5.2976      0.00000
     20       5.3189      0.00000
     21       5.7853      0.00000
     22       5.8225      0.00000

 k-point    25 :       0.2000    0.2000    0.3333
  band No.  band energies     occupation 
      1      -9.5911      2.00000
      2      -9.5844      2.00000
      3      -9.0819      2.00000
      4      -9.0734      2.00000
      5      -1.8951      2.00000
      6      -1.8709      2.00000
      7      -1.0472      2.00000
      8      -1.0391      2.00000
      9      -0.6034      2.00000
     10      -0.5728      2.00000
     11      -0.1911      2.00000
     12      -0.1393      2.00000
     13       0.8943      2.00000
     14       0.8954      2.00000
     15       1.8654      2.00000
     16       1.8926      2.00000
     17       2.3452      2.00000
     18       2.3461      2.00000
     19       5.0432      0.00000
     20       5.1716      0.00000
     21       5.6076      0.00000
     22       5.8334      0.00000

 k-point    26 :       0.3000    0.2000    0.3333
  band No.  band energies     occupation 
      1      -9.1633      2.00000
      2      -9.1590      2.00000
      3      -8.8751      2.00000
      4      -8.8703      2.00000
      5      -2.0358      2.00000
      6      -2.0219      2.00000
      7      -1.7405      2.00000
      8      -1.7361      2.00000
      9      -0.6044      2.00000
     10      -0.5793      2.00000
     11      -0.1013      2.00000
     12      -0.0617      2.00000
     13       0.4605      2.00000
     14       0.4728      2.00000
     15       1.4472      2.00000
     16       1.4579      2.00000
     17       2.6117      2.00000
     18       2.6179      2.00000
     19       5.2337      0.00000
     20       5.2921      0.00000
     21       5.8589      0.00000
     22       6.2089      0.00000

 k-point    27 :       0.4000    0.2000    0.3333
  band No.  band energies     occupation 
      1      -8.9843      2.00000
      2      -8.9821      2.00000
      3      -8.7881      2.00000
      4      -8.7859      2.00000
      5      -2.0598      2.00000
      6      -2.0491      2.00000
      7      -2.0084      2.00000
      8      -2.0052      2.00000
      9      -0.7977      2.00000
     10      -0.7698      2.00000
     11       0.0304      2.00000
     12       0.0569      2.00000
     13       0.4031      2.00000
     14       0.4140      2.00000
     15       1.1813      2.00000
     16       1.2035      2.00000
     17       2.8577      2.00000
     18       2.8689      2.00000
     19       5.0927      0.00000
     20       5.1015      0.00000
     21       6.2153      0.00000
     22       6.3611      0.00000

 k-point    28 :       0.3000    0.3000    0.3333
  band No.  band energies     occupation 
      1      -8.9251      2.00000
      2      -8.9235      2.00000
      3      -8.7473      2.00000
      4      -8.7456      2.00000
      5      -2.1574      2.00000
      6      -2.1513      2.00000
      7      -1.6674      2.00000
      8      -1.6589      2.00000
      9      -0.6734      2.00000
     10      -0.6687      2.00000
     11      -0.3610      2.00000
     12      -0.3440      2.00000
     13       0.1403      2.00000
     14       0.1674      2.00000
     15       1.0767      2.00000
     16       1.0929      2.00000
     17       2.9806      2.00000
     18       2.9900      2.00000
     19       4.8866      0.00000
     20       4.8936      0.00000
     21       6.1222      0.00000
     22       6.2106      0.00000


--------------------------------------------------------------------------------------------------------


 soft charge-density along one line, spin component           1
         0         1         2         3         4         5         6         7         8         9
 total charge-density along one line
 
 pseudopotential strength for first ion, spin component:           1
 -8.238  -0.000   0.000   0.000   0.000  -0.074   0.000  -0.000
 -0.000  -8.239   0.000  -0.000  -0.000   0.000  -0.074  -0.000
  0.000   0.000  -8.218  -0.000  -0.000  -0.000  -0.000  -0.075
  0.000  -0.000  -0.000  -8.239  -0.000  -0.000   0.000   0.000
  0.000  -0.000  -0.000  -0.000  -8.238  -0.000   0.000   0.000
 -0.074   0.000  -0.000  -0.000  -0.000   0.112  -0.000   0.000
  0.000  -0.074  -0.000   0.000   0.000  -0.000   0.112   0.000
 -0.000  -0.000  -0.075   0.000   0.000   0.000   0.000   0.112
 -0.000   0.000   0.000  -0.074   0.000   0.000  -0.000  -0.000
 -0.000   0.000   0.000   0.000  -0.074   0.000  -0.000  -0.000
  0.000  -0.000  -0.005   0.000  -0.000  -0.000   0.000   0.000
 -0.000   0.000   0.001  -0.000   0.000   0.000  -0.000  -0.000
 -0.000   0.000  -0.000  -0.000  -0.007   0.000  -0.000   0.000
 -0.000   0.000   0.000  -0.000  -0.000  -0.000  -0.000  -0.000
 -0.007  -0.000   0.000   0.000  -0.000  -0.000  -0.000  -0.000
  0.000  -0.000   0.000   0.000   0.004  -0.000   0.000  -0.000
  0.000  -0.000  -0.000   0.000   0.000  -0.000   0.000   0.000
  0.004   0.000  -0.000  -0.000   0.000   0.000  -0.000   0.000
 total augmentation occupancy for first ion, spin component:           1
  0.965   0.000  -0.000  -0.000  -0.000   0.601  -0.000  -0.000   0.000  -0.000  -0.000   0.000   0.000   0.000  -0.065  -0.000
 -0.000   0.907  -0.000   0.000  -0.000   0.000   0.839   0.000   0.000   0.000   0.000   0.000   0.000  -0.000   0.000  -0.000
 -0.000  -0.000   1.029  -0.000   0.000  -0.000   0.000   0.501   0.000   0.000   0.111  -0.019  -0.000   0.000   0.000   0.000
 -0.000   0.000   0.000   0.907   0.000   0.000   0.000  -0.000   0.839   0.000  -0.000   0.000  -0.000  -0.000   0.000  -0.000
 -0.000   0.000   0.000   0.000   0.965  -0.000  -0.000   0.000  -0.000   0.601   0.000  -0.000  -0.065   0.000  -0.000   0.007
  0.601   0.000  -0.000   0.000  -0.000   0.678  -0.000  -0.000   0.000  -0.000   0.000  -0.000   0.000   0.000  -0.136  -0.000
  0.000   0.839   0.000   0.000  -0.000   0.000   1.081  -0.000   0.000  -0.000   0.000   0.000   0.000  -0.000   0.000   0.000
 -0.000  -0.000   0.501  -0.000   0.000  -0.000  -0.000   0.476  -0.000   0.000   0.059  -0.021  -0.000   0.000   0.000   0.000
 -0.000   0.000  -0.000   0.839  -0.000  -0.000   0.000   0.000   1.081   0.000   0.000  -0.000  -0.000  -0.000   0.000  -0.000
 -0.000   0.000   0.000   0.000   0.601  -0.000  -0.000   0.000   0.000   0.678   0.000  -0.000  -0.136   0.000  -0.000   0.023
 -0.000  -0.000   0.111  -0.000   0.000   0.000   0.000   0.059   0.000   0.000   1.207  -0.185   0.000  -0.000  -0.000  -0.000
  0.000   0.000  -0.019  -0.000  -0.000  -0.000   0.000  -0.021   0.000  -0.000  -0.185   0.042   0.000  -0.000  -0.000  -0.000
  0.000  -0.000  -0.000  -0.000  -0.065   0.000  -0.000  -0.000   0.000  -0.136   0.000  -0.000   0.217  -0.000   0.000  -0.032
  0.000  -0.000   0.000  -0.000   0.000   0.000   0.000   0.000  -0.000  -0.000  -0.000  -0.000   0.000   0.264  -0.000   0.000
 -0.065  -0.000   0.000  -0.000  -0.000  -0.136   0.000   0.000   0.000  -0.000  -0.000   0.000   0.000   0.000   0.217  -0.000
 -0.000  -0.000   0.000  -0.000   0.007  -0.000   0.000   0.000  -0.000   0.023   0.000   0.000  -0.032   0.000  -0.000   0.005
 -0.000  -0.000  -0.000   0.000  -0.000   0.000   0.000   0.000  -0.000   0.000   0.000   0.000   0.000  -0.038   0.000  -0.000
  0.007   0.000  -0.000   0.000   0.000   0.023   0.000  -0.000  -0.000   0.000  -0.000   0.000  -0.000   0.000  -0.032   0.000


------------------------ aborting loop because EDIFF is reached ----------------------------------------


    CHARGE:  cpu time    0.0510: real time    0.0507
    FORLOC:  cpu time    0.0030: real time    0.0031
    FORNL :  cpu time    0.1640: real time    0.1645
    STRESS:  cpu time    0.4639: real time    0.4641
    FORCOR:  cpu time    0.0310: real time    0.0309
    FORHAR:  cpu time    0.0060: real time    0.0067
    MIXING:  cpu time    0.0020: real time    0.0013
    OFIELD:  cpu time    0.0000: real time    0.0000

  DFT-D2 method for vdW energy calculation
  -------------------------------------------------------------------

  Parameters of vdW forcefield:
         C6(Jnm^6/mol)     R0(A)
   -----------------------------
   Mo      24.670          1.639
   S        5.570          1.683

  IVDW =   1
  VDW_RADIUS =    50.000 A
  VDW_S6 =     0.750
  VDW_SR =     1.000
  VDW_D =    20.000
  LVDW_EWALD = F

  Number of pair interactions contributing to vdW energy:   84128
  Edisp (eV):   -1.33129
    FORVDW:  cpu time    0.0220: real time    0.0261

  FORCE on cell =-STRESS in cart. coord.  units (eV):
  Direction    XX          YY          ZZ          XY          YZ          ZX
  --------------------------------------------------------------------------------------
  Alpha Z    90.42578    90.42578    90.42578
  Ewald     -12.90873   -12.90785 -1121.07429     0.00038     0.00000     0.00025
  Hartree   466.59140   466.59142  -390.21297     0.00003    -0.00000    -0.00001
  E(xc)    -140.60499  -140.60500  -141.79683    -0.00001    -0.00000    -0.00000
  Local   -1080.53158 -1080.53224   872.56413    -0.00042    -0.00000    -0.00011
  n-local   254.41625   251.48437   263.35198    -0.52076     0.00302     0.00285
  augment   -51.13413   -51.13398   -53.33424     0.00014     0.00000    -0.00001
  Kinetic   472.30759   476.94000   479.58342   -14.91152     0.00482     0.00468
  Fock        0.00000     0.00000     0.00000     0.00000     0.00000     0.00000
  vdW         0.17103     0.17103    -0.86546     0.00000     0.00000    -0.00000
  -------------------------------------------------------------------------------------
  Total      -0.41693    -0.41693    -1.35850    -0.00000     0.00000     0.00000
  in kB      -5.09332    -5.09332   -16.59579    -0.00000     0.00000     0.00000
  external pressure =       -8.93 kB  Pullay stress =        0.00 kB


 VOLUME and BASIS-vectors are now :
 -----------------------------------------------------------------------------
  energy-cutoff  :      450.00
  volume of cell :      131.15
      direct lattice vectors                 reciprocal lattice vectors
     3.190315730  0.000000000  0.000000000     0.313448600  0.180969634  0.000000000
    -1.595157865  2.762894468  0.000000000     0.000000000  0.361939267  0.000000000
     0.000000000  0.000000000 14.879004300     0.000000000  0.000000000  0.067208798

  length of vectors
     3.190315730  3.190315730 14.879004300     0.361939267  0.361939267  0.067208798


 FORCES acting on ions
    electron-ion (+dipol)            ewald-force                    non-local-force                 convergence-correction
 -----------------------------------------------------------------------------------------------
   0.473E-04 -.345E-04 -.986E-05   0.928E-04 -.107E-03 0.288E-09   -.191E-16 0.243E-16 -.932E-20   0.559E-08 -.645E-08 -.386E-09
   0.659E-04 -.309E-04 -.986E-05   -.928E-04 0.107E-03 -.288E-09   0.243E-16 -.243E-16 0.254E-20   0.337E-08 0.128E-08 -.387E-09
   0.525E-03 -.305E-03 -.242E+03   0.865E-04 -.537E-04 0.247E+03   0.108E-16 0.347E-17 -.480E+01   0.109E-07 -.671E-08 0.588E-02
   -.117E-02 0.679E-03 0.242E+03   -.865E-04 0.537E-04 -.247E+03   -.113E-16 -.347E-17 0.480E+01   -.275E-07 0.163E-07 -.588E-02
   0.523E-03 0.689E-03 -.242E+03   -.638E-05 0.537E-04 0.247E+03   -.191E-16 0.434E-17 -.480E+01   0.122E-07 0.149E-07 0.588E-02
   -.121E-02 -.292E-03 0.242E+03   0.638E-05 -.537E-04 -.247E+03   0.191E-16 -.434E-17 0.480E+01   -.240E-07 -.812E-08 -.588E-02
 -----------------------------------------------------------------------------------------------
   -.122E-02 0.706E-03 -.111E-04   -.561E-14 0.109E-13 0.284E-13   0.477E-17 0.000E+00 -.888E-15   -.194E-07 0.112E-07 -.657E-09
 
 
 POSITION                                       TOTAL-FORCE (eV/Angst)
 -----------------------------------------------------------------------------------
     -0.00000      1.84193      3.71975         0.000000      0.000000      0.000000
      1.59516      0.92096     11.15925         0.000000      0.000000      0.000000
     -0.00000      1.84193     12.72414        -0.000000      0.000000     -0.085264
      1.59516      0.92096      2.15487         0.000000     -0.000000      0.085264
      1.59516      0.92096      5.28464         0.000000     -0.000000     -0.085264
      0.00000      1.84193      9.59437        -0.000000      0.000000      0.085264
 -----------------------------------------------------------------------------------
    total drift:                               -0.001223      0.000706     -0.000011


--------------------------------------------------------------------------------------------------------



  FREE ENERGIE OF THE ION-ELECTRON SYSTEM (eV)
  ---------------------------------------------------
  free  energy   TOTEN  =       -44.93708555 eV

  energy  without entropy=      -44.93708555  energy(sigma->0) =      -44.93708555
 


--------------------------------------------------------------------------------------------------------


    POTLOK:  cpu time    0.0320: real time    0.0322


--------------------------------------------------------------------------------------------------------


     LOOP+:  cpu time   12.3631: real time   12.4812
    4ORBIT:  cpu time    0.0000: real time    0.0000
 BZINTS: Fermi energy:  3.363670; 36.000000 electrons
         Band energy: -67.725492;  BLOECHL correction:  0.000000

 total amount of memory used by VASP MPI-rank0    54802. kBytes
=======================================================================

   base      :      30000. kBytes
   nonl-proj :      11832. kBytes
   fftplans  :       2162. kBytes
   grid      :       3449. kBytes
   one-center:         46. kBytes
   wavefun   :       7313. kBytes
 
  
  
 General timing and accounting informations for this job:
 ========================================================
  
                  Total CPU time used (sec):       13.334
                            User time (sec):       13.216
                          System time (sec):        0.118
                         Elapsed time (sec):       14.176
  
                   Maximum memory used (kb):       46740.
                   Average memory used (kb):           0.
  
                          Minor page faults:        11932
                          Major page faults:          174
                 Voluntary context switches:         2596
