perl: warning: Setting locale failed.
perl: warning: Please check that your locale settings:
	LANGUAGE = (unset),
	LC_ALL = (unset),
	LC_CTYPE = "UTF-8",
	LANG = "en_US.iso885915"
    are supported and installed on your system.
perl: warning: Falling back to the standard locale ("C").
Starting job 28531729 ("jobname") on c15-29 at Fri Nov 8 10:40:31 CET 2019
 running on    4 total cores
 distrk:  each k-point on    4 cores,    1 groups
 distr:  one band on    2 cores,    2 groups
 using from now: INCAR     
 vasp.5.4.4.18Apr17-6-g9f103f2a35 (build Jun 30 2017 11:15:00) complex          
  
 POSCAR found type information on POSCAR  Mo S 
 POSCAR found :  2 types and       6 ions
 scaLAPACK will be used
 LDA part: xc-table for Pade appr. of Perdew
 POSCAR, INCAR and KPOINTS ok, starting setup
 FFT: planning ...
 WAVECAR not read
 WARNING: random wavefunctions but no delay for mixing, default for NELMDL
 entering main loop
       N       E                     dE             d eps       ncg     rms          rms(c)
DAV:   1     0.242287058208E+03    0.24229E+03   -0.17896E+04  1232   0.169E+03
DAV:   2    -0.223846068792E+02   -0.26467E+03   -0.25674E+03  1630   0.301E+02
DAV:   3    -0.460953139467E+02   -0.23711E+02   -0.23505E+02  1654   0.852E+01
DAV:   4    -0.468033860108E+02   -0.70807E+00   -0.70689E+00  1676   0.159E+01
DAV:   5    -0.468243844729E+02   -0.20998E-01   -0.20991E-01  1664   0.263E+00    0.973E+00
RMM:   6    -0.444340632120E+02    0.23903E+01   -0.24329E+01  1375   0.197E+01    0.335E+00
RMM:   7    -0.437007014791E+02    0.73336E+00   -0.19168E+00  1348   0.563E+00    0.178E+00
RMM:   8    -0.436364039158E+02    0.64298E-01   -0.88699E-01  1411   0.335E+00    0.827E-01
RMM:   9    -0.436266030623E+02    0.98009E-02   -0.29172E-01  1469   0.228E+00    0.568E-01
RMM:  10    -0.436105286740E+02    0.16074E-01   -0.64001E-02  1479   0.111E+00    0.740E-02
RMM:  11    -0.436106350676E+02   -0.10639E-03   -0.32224E-03  1579   0.230E-01    0.298E-02
RMM:  12    -0.436107711436E+02   -0.13608E-03   -0.49686E-04  1577   0.111E-01    0.153E-02
RMM:  13    -0.436107875405E+02   -0.16397E-04   -0.26734E-04  1613   0.656E-02    0.191E-02
RMM:  14    -0.436107738535E+02    0.13687E-04   -0.65961E-05  1224   0.365E-02    0.288E-03
RMM:  15    -0.436107743581E+02   -0.50452E-06   -0.11359E-05   956   0.155E-02
 Error reading item 'IVDW' from file INCAR
   1 F= -.43610774E+02 E0= -.43610774E+02  d E =-.619781E-09

Currently Loaded Modulefiles:
  1) Anaconda3/5.1.0       3) vesta/3.3.8           5) intel/2016.1
  2) gnuplot/5.0.4         4) imagemagick/6.7.9-0   6) vasp/5.4.1.Feb16

Job script resource usage:
       JobID  MaxVMSize     MaxRSS 
------------ ---------- ---------- 
28531729.ba+    216888K      2276K 

Job step resource usage:
       JobID    JobName  AllocCPUS  MaxVMSize     MaxRSS    Elapsed ExitCode 
------------ ---------- ---------- ---------- ---------- ---------- -------- 
28531729        jobname          4                         00:00:29      0:0 
28531729.0    pmi_proxy          1    279832K       520K   00:00:27      0:0 

Job 28531729 ("jobname") completed on c15-29 at Fri Nov 8 10:40:58 CET 2019
