<?xml version="1.0" encoding="ISO-8859-1"?>
<modeling>
 <generator>
  <i name="program" type="string">vasp </i>
  <i name="version" type="string">5.4.4.18Apr17-6-g9f103f2a35  </i>
  <i name="subversion" type="string">(build Jun 30 2017 11:15:00) complex            parallel </i>
  <i name="platform" type="string">STALLO_VASP_5.4.4 </i>
  <i name="date" type="string">2019 11 08 </i>
  <i name="time" type="string">12:18:47 </i>
 </generator>
 <incar>
  <i type="string" name="PREC">normal    ! low/normal/accurate</i>
  <i type="string" name="ALGO"> Fast      ! Algorithm for electronic re</i>
  <i type="int" name="ISPIN">     1</i>
  <i type="int" name="NELMIN">     4</i>
  <i name="EDIFF">      0.00001000</i>
  <i type="int" name="NSW">     0</i>
  <i name="ENCUT">    450.00000000</i>
  <i type="logical" name="LREAL"> F  </i>
  <i type="int" name="ISMEAR">    -5</i>
  <i name="SIGMA">      0.20000000</i>
  <i type="logical" name="LWAVE"> F  </i>
  <v type="int" name="KPOINT_BSE">    -1     0     0     0</v>
 </incar>
 <structure name="primitive_cell" >
  <crystal>
   <varray name="basis" >
    <v>       3.19031573       0.00000000       0.00000000 </v>
    <v>      -1.59515786       2.76289447       0.00000000 </v>
    <v>       0.00000000       0.00000000      14.87900430 </v>
   </varray>
   <i name="volume">    131.15106795 </i>
   <varray name="rec_basis" >
    <v>       0.31344860       0.18096963       0.00000000 </v>
    <v>       0.00000000       0.36193927       0.00000000 </v>
    <v>       0.00000000       0.00000000       0.06720880 </v>
   </varray>
  </crystal>
  <varray name="positions" >
   <v>       0.33333300      -0.33333300       0.25000000 </v>
   <v>      -0.33333400       0.33333300       0.35517400 </v>
   <v>      -0.33333300       0.33333300       0.14482600 </v>
   <v>       0.33333300      -0.33333300      -0.14482600 </v>
   <v>       0.33333400      -0.33333300      -0.35517400 </v>
   <v>      -0.33333300       0.33333300      -0.25000000 </v>
  </varray>
 </structure>
 <varray name="primitive_index" >
  <v type="int" >        1 </v>
  <v type="int" >        5 </v>
  <v type="int" >        4 </v>
  <v type="int" >        3 </v>
  <v type="int" >        6 </v>
  <v type="int" >        2 </v>
 </varray>
 <kpoints>
  <generation param="Gamma">
   <v type="int" name="divisions">      10       10        3 </v>
   <v name="usershift">      0.00000000       0.00000000       0.00000000 </v>
   <v name="genvec1">      0.10000000       0.00000000       0.00000000 </v>
   <v name="genvec2">      0.00000000       0.10000000       0.00000000 </v>
   <v name="genvec3">      0.00000000       0.00000000       0.33333333 </v>
   <v name="shift">      0.00000000       0.00000000       0.00000000 </v>
  </generation>
  <varray name="kpointlist" >
   <v>       0.00000000       0.00000000       0.00000000 </v>
   <v>       0.10000000      -0.00000000       0.00000000 </v>
   <v>       0.20000000       0.00000000       0.00000000 </v>
   <v>       0.30000000      -0.00000000       0.00000000 </v>
   <v>       0.40000000       0.00000000       0.00000000 </v>
   <v>       0.50000000       0.00000000       0.00000000 </v>
   <v>       0.10000000       0.10000000       0.00000000 </v>
   <v>       0.20000000       0.10000000       0.00000000 </v>
   <v>       0.30000000       0.10000000       0.00000000 </v>
   <v>       0.40000000       0.10000000       0.00000000 </v>
   <v>       0.20000000       0.20000000       0.00000000 </v>
   <v>       0.30000000       0.20000000       0.00000000 </v>
   <v>       0.40000000       0.20000000       0.00000000 </v>
   <v>       0.30000000       0.30000000       0.00000000 </v>
   <v>       0.00000000       0.00000000       0.33333333 </v>
   <v>       0.10000000      -0.00000000       0.33333333 </v>
   <v>       0.20000000       0.00000000       0.33333333 </v>
   <v>       0.30000000      -0.00000000       0.33333333 </v>
   <v>       0.40000000       0.00000000       0.33333333 </v>
   <v>       0.50000000       0.00000000       0.33333333 </v>
   <v>       0.10000000       0.10000000       0.33333333 </v>
   <v>       0.20000000       0.10000000       0.33333333 </v>
   <v>       0.30000000       0.10000000       0.33333333 </v>
   <v>       0.40000000       0.10000000       0.33333333 </v>
   <v>       0.20000000       0.20000000       0.33333333 </v>
   <v>       0.30000000       0.20000000       0.33333333 </v>
   <v>       0.40000000       0.20000000       0.33333333 </v>
   <v>       0.30000000       0.30000000       0.33333333 </v>
  </varray>
  <varray name="weights" >
   <v>       0.00333333 </v>
   <v>       0.02000000 </v>
   <v>       0.02000000 </v>
   <v>       0.02000000 </v>
   <v>       0.02000000 </v>
   <v>       0.01000000 </v>
   <v>       0.02000000 </v>
   <v>       0.04000000 </v>
   <v>       0.04000000 </v>
   <v>       0.04000000 </v>
   <v>       0.02000000 </v>
   <v>       0.04000000 </v>
   <v>       0.02000000 </v>
   <v>       0.02000000 </v>
   <v>       0.00666667 </v>
   <v>       0.04000000 </v>
   <v>       0.04000000 </v>
   <v>       0.04000000 </v>
   <v>       0.04000000 </v>
   <v>       0.02000000 </v>
   <v>       0.04000000 </v>
   <v>       0.08000000 </v>
   <v>       0.08000000 </v>
   <v>       0.08000000 </v>
   <v>       0.04000000 </v>
   <v>       0.08000000 </v>
   <v>       0.04000000 </v>
   <v>       0.04000000 </v>
  </varray>
  <varray name="tetrahedronlist"  type="int" >
   <v type="int" >        8        2        2        7       16 </v>
   <v type="int" >        8        1        2        2       16 </v>
   <v type="int" >        4        1        2       15       16 </v>
   <v type="int" >        4        2        7       16       21 </v>
   <v type="int" >        8        2       16       16       21 </v>
   <v type="int" >        8        2       15       16       16 </v>
   <v type="int" >        8        3        7        8       21 </v>
   <v type="int" >        8        2        3        7       21 </v>
   <v type="int" >        4        2        3       16       21 </v>
   <v type="int" >        4        3        8       21       22 </v>
   <v type="int" >        8        3       17       21       22 </v>
   <v type="int" >        8        3       16       17       21 </v>
   <v type="int" >        8        4        8        9       22 </v>
   <v type="int" >        8        3        4        8       22 </v>
   <v type="int" >        4        3        4       17       22 </v>
   <v type="int" >        4        4        9       22       23 </v>
   <v type="int" >        8        4       18       22       23 </v>
   <v type="int" >        8        4       17       18       22 </v>
   <v type="int" >        8        5        9       10       23 </v>
   <v type="int" >        8        4        5        9       23 </v>
   <v type="int" >        4        4        5       18       23 </v>
   <v type="int" >        4        5       10       23       24 </v>
   <v type="int" >        8        5       19       23       24 </v>
   <v type="int" >        8        5       18       19       23 </v>
   <v type="int" >        8        6       10       10       24 </v>
   <v type="int" >        8        5        6       10       24 </v>
   <v type="int" >        4        5        6       19       24 </v>
   <v type="int" >        4        6       10       24       24 </v>
   <v type="int" >        4        6       20       24       24 </v>
   <v type="int" >        8        6       19       20       24 </v>
   <v type="int" >        8        5        9       10       24 </v>
   <v type="int" >        4        5        6       20       24 </v>
   <v type="int" >        4        5        9       23       24 </v>
   <v type="int" >        8        5       19       20       24 </v>
   <v type="int" >        8        4        8        9       23 </v>
   <v type="int" >        4        4        5       19       23 </v>
   <v type="int" >        4        4        8       22       23 </v>
   <v type="int" >        8        4       18       19       23 </v>
   <v type="int" >        8        3        7        8       22 </v>
   <v type="int" >        4        3        4       18       22 </v>
   <v type="int" >        4        3        7       21       22 </v>
   <v type="int" >        8        3       17       18       22 </v>
   <v type="int" >        4        2        2        7       21 </v>
   <v type="int" >        4        2        3       17       21 </v>
   <v type="int" >        4        2        2       16       21 </v>
   <v type="int" >        8        2       16       17       21 </v>
   <v type="int" >        4        1        2       16       16 </v>
   <v type="int" >        4        1       15       16       16 </v>
   <v type="int" >        8        3        7        8       17 </v>
   <v type="int" >        8        2        3        7       17 </v>
   <v type="int" >        4        2        7       16       17 </v>
   <v type="int" >        4        7        8       17       22 </v>
   <v type="int" >        8        7       17       21       22 </v>
   <v type="int" >        8        7       16       17       21 </v>
   <v type="int" >        8        8        8       11       22 </v>
   <v type="int" >        8        7        8        8       22 </v>
   <v type="int" >        4        7        8       21       22 </v>
   <v type="int" >        4        8       11       22       25 </v>
   <v type="int" >        8        8       22       22       25 </v>
   <v type="int" >        8        8       21       22       22 </v>
   <v type="int" >        8        9       11       12       25 </v>
   <v type="int" >        8        8        9       11       25 </v>
   <v type="int" >        4        8        9       22       25 </v>
   <v type="int" >        4        9       12       25       26 </v>
   <v type="int" >        8        9       23       25       26 </v>
   <v type="int" >        8        9       22       23       25 </v>
   <v type="int" >        8       10       12       13       26 </v>
   <v type="int" >        8        9       10       12       26 </v>
   <v type="int" >        4        9       10       23       26 </v>
   <v type="int" >        4       10       13       26       27 </v>
   <v type="int" >        8       10       24       26       27 </v>
   <v type="int" >        8       10       23       24       26 </v>
   <v type="int" >        8       10       12       13       27 </v>
   <v type="int" >        4       10       10       13       27 </v>
   <v type="int" >        4       10       10       24       27 </v>
   <v type="int" >        4       10       12       26       27 </v>
   <v type="int" >        8       10       24       24       27 </v>
   <v type="int" >        8        9       11       12       26 </v>
   <v type="int" >        4        9       10       24       26 </v>
   <v type="int" >        4        9       11       25       26 </v>
   <v type="int" >        8        9       23       24       26 </v>
   <v type="int" >        4        8        8       11       25 </v>
   <v type="int" >        4        8        9       23       25 </v>
   <v type="int" >        4        8        8       22       25 </v>
   <v type="int" >        8        8       22       23       25 </v>
   <v type="int" >        4        7        8       22       22 </v>
   <v type="int" >        4        3        7       17       22 </v>
   <v type="int" >        4        7       21       22       22 </v>
   <v type="int" >        4        2        7       17       21 </v>
   <v type="int" >        8        4        8        9       18 </v>
   <v type="int" >        8        3        4        8       18 </v>
   <v type="int" >        4        3        8       17       18 </v>
   <v type="int" >        4        8        9       18       23 </v>
   <v type="int" >        8        8       18       22       23 </v>
   <v type="int" >        8        8       17       18       22 </v>
   <v type="int" >        8        9       11       12       23 </v>
   <v type="int" >        8        8        9       11       23 </v>
   <v type="int" >        4        8       11       22       23 </v>
   <v type="int" >        4       11       12       23       26 </v>
   <v type="int" >        8       11       23       25       26 </v>
   <v type="int" >        8       11       22       23       25 </v>
   <v type="int" >        8       12       12       14       26 </v>
   <v type="int" >        8       11       12       12       26 </v>
   <v type="int" >        4       11       12       25       26 </v>
   <v type="int" >        4       12       14       26       28 </v>
   <v type="int" >        8       12       26       26       28 </v>
   <v type="int" >        8       12       25       26       26 </v>
   <v type="int" >        8       13       14       14       28 </v>
   <v type="int" >        8       12       13       14       28 </v>
   <v type="int" >        4       12       13       26       28 </v>
   <v type="int" >        4       13       14       28       28 </v>
   <v type="int" >        4       13       27       28       28 </v>
   <v type="int" >        8       13       26       27       28 </v>
   <v type="int" >        4       12       12       14       28 </v>
   <v type="int" >        4       12       13       27       28 </v>
   <v type="int" >        4       12       12       26       28 </v>
   <v type="int" >        8       12       26       27       28 </v>
   <v type="int" >        4       11       12       26       26 </v>
   <v type="int" >        4        9       11       23       26 </v>
   <v type="int" >        4       11       25       26       26 </v>
   <v type="int" >        4        8       11       23       25 </v>
   <v type="int" >        4        4        8       18       23 </v>
   <v type="int" >        4        3        8       18       22 </v>
   <v type="int" >        8        5        9       10       19 </v>
   <v type="int" >        8        4        5        9       19 </v>
   <v type="int" >        4        4        9       18       19 </v>
   <v type="int" >        4        9       10       19       24 </v>
   <v type="int" >        8        9       19       23       24 </v>
   <v type="int" >        8        9       18       19       23 </v>
   <v type="int" >        8       10       12       13       24 </v>
   <v type="int" >        8        9       10       12       24 </v>
   <v type="int" >        4        9       12       23       24 </v>
   <v type="int" >        4       12       13       24       27 </v>
   <v type="int" >        8       12       24       26       27 </v>
   <v type="int" >        8       12       23       24       26 </v>
   <v type="int" >        4       13       14       14       27 </v>
   <v type="int" >        8       12       13       14       27 </v>
   <v type="int" >        4       12       14       26       27 </v>
   <v type="int" >        4       14       14       27       28 </v>
   <v type="int" >        8       14       27       28       28 </v>
   <v type="int" >        8       14       26       27       28 </v>
   <v type="int" >        4       14       14       14       28 </v>
   <v type="int" >        4       14       14       28       28 </v>
   <v type="int" >        4       13       14       27       28 </v>
   <v type="int" >        4       14       28       28       28 </v>
   <v type="int" >        4       12       14       27       28 </v>
   <v type="int" >        4       10       12       24       27 </v>
   <v type="int" >        4        9       12       24       26 </v>
   <v type="int" >        4        5        9       19       24 </v>
   <v type="int" >        4        4        9       19       23 </v>
   <v type="int" >        4        6       10       10       20 </v>
   <v type="int" >        8        5        6       10       20 </v>
   <v type="int" >        4        5       10       19       20 </v>
   <v type="int" >        4       10       10       20       24 </v>
   <v type="int" >        8       10       20       24       24 </v>
   <v type="int" >        8       10       19       20       24 </v>
   <v type="int" >        8       10       10       13       24 </v>
   <v type="int" >        4       10       13       24       24 </v>
   <v type="int" >        4       12       13       24       26 </v>
   <v type="int" >        8       13       24       26       27 </v>
   <v type="int" >        4       13       24       24       27 </v>
   <v type="int" >        8       12       13       14       26 </v>
   <v type="int" >        4       13       14       26       27 </v>
   <v type="int" >        4       12       14       26       26 </v>
   <v type="int" >        4       14       26       26       28 </v>
   <v type="int" >        4       13       14       26       28 </v>
   <v type="int" >        4       10       13       24       26 </v>
   <v type="int" >        4       10       13       24       27 </v>
   <v type="int" >        4        6       10       20       24 </v>
   <v type="int" >        4        5       10       20       24 </v>
   <v type="int" >        8        5        6       10       19 </v>
   <v type="int" >        4        6       10       19       20 </v>
   <v type="int" >        4        9       10       19       23 </v>
   <v type="int" >        8       10       19       23       24 </v>
   <v type="int" >        8        9       10       12       23 </v>
   <v type="int" >        4       10       12       23       24 </v>
   <v type="int" >        4       11       12       23       25 </v>
   <v type="int" >        8       12       23       25       26 </v>
   <v type="int" >        4       11       12       12       25 </v>
   <v type="int" >        4       12       12       25       26 </v>
   <v type="int" >        4        9       12       23       25 </v>
   <v type="int" >        4       10       12       23       26 </v>
   <v type="int" >        4        5       10       19       23 </v>
   <v type="int" >        4        6       10       19       24 </v>
   <v type="int" >        8        4        5        9       18 </v>
   <v type="int" >        4        5        9       18       19 </v>
   <v type="int" >        4        8        9       18       22 </v>
   <v type="int" >        8        9       18       22       23 </v>
   <v type="int" >        8        8        9       11       22 </v>
   <v type="int" >        4        9       11       22       23 </v>
   <v type="int" >        4        8       11       22       22 </v>
   <v type="int" >        4       11       22       22       25 </v>
   <v type="int" >        4        9       11       22       25 </v>
   <v type="int" >        4        4        9       18       22 </v>
   <v type="int" >        4        5        9       18       23 </v>
   <v type="int" >        8        3        4        8       17 </v>
   <v type="int" >        4        4        8       17       18 </v>
   <v type="int" >        4        7        8       17       21 </v>
   <v type="int" >        8        8       17       21       22 </v>
   <v type="int" >        4        7        8        8       21 </v>
   <v type="int" >        4        8        8       21       22 </v>
   <v type="int" >        4        3        8       17       21 </v>
   <v type="int" >        4        4        8       17       22 </v>
   <v type="int" >        8        2        3        7       16 </v>
   <v type="int" >        4        3        7       16       17 </v>
   <v type="int" >        4        2        7       16       16 </v>
   <v type="int" >        4        7       16       16       21 </v>
   <v type="int" >        4        3        7       16       21 </v>
   <v type="int" >        4        1        2        2       15 </v>
   <v type="int" >        4        2        2       15       16 </v>
   <v type="int" >       12       16       16       16       21 </v>
   <v type="int" >       12       15       16       16       16 </v>
   <v type="int" >        6       15       15       16       16 </v>
   <v type="int" >        6       16       16       21       21 </v>
   <v type="int" >       12       17       21       21       22 </v>
   <v type="int" >       12       16       17       21       21 </v>
   <v type="int" >       12       16       16       17       21 </v>
   <v type="int" >       12       17       21       22       22 </v>
   <v type="int" >       12       17       17       21       22 </v>
   <v type="int" >       12       16       17       17       21 </v>
   <v type="int" >       12       18       22       22       23 </v>
   <v type="int" >       12       17       18       22       22 </v>
   <v type="int" >       12       17       17       18       22 </v>
   <v type="int" >       12       18       22       23       23 </v>
   <v type="int" >       12       18       18       22       23 </v>
   <v type="int" >       12       17       18       18       22 </v>
   <v type="int" >       12       19       23       23       24 </v>
   <v type="int" >       12       18       19       23       23 </v>
   <v type="int" >       12       18       18       19       23 </v>
   <v type="int" >       12       19       23       24       24 </v>
   <v type="int" >       12       19       19       23       24 </v>
   <v type="int" >       12       18       19       19       23 </v>
   <v type="int" >       12       20       24       24       24 </v>
   <v type="int" >       12       19       20       24       24 </v>
   <v type="int" >       12       19       19       20       24 </v>
   <v type="int" >        6       20       20       24       24 </v>
   <v type="int" >       12       19       20       20       24 </v>
   <v type="int" >       12       22       22       22       25 </v>
   <v type="int" >       12       21       22       22       22 </v>
   <v type="int" >        6       21       21       22       22 </v>
   <v type="int" >        6       22       22       25       25 </v>
   <v type="int" >       12       23       25       25       26 </v>
   <v type="int" >       12       22       23       25       25 </v>
   <v type="int" >       12       22       22       23       25 </v>
   <v type="int" >       12       23       25       26       26 </v>
   <v type="int" >       12       23       23       25       26 </v>
   <v type="int" >       12       22       23       23       25 </v>
   <v type="int" >       12       24       26       26       27 </v>
   <v type="int" >       12       23       24       26       26 </v>
   <v type="int" >       12       23       23       24       26 </v>
   <v type="int" >       12       24       26       27       27 </v>
   <v type="int" >       12       24       24       26       27 </v>
   <v type="int" >       12       23       24       24       26 </v>
   <v type="int" >        6       24       24       27       27 </v>
   <v type="int" >       12       24       24       24       27 </v>
   <v type="int" >       12       26       26       26       28 </v>
   <v type="int" >       12       25       26       26       26 </v>
   <v type="int" >        6       25       25       26       26 </v>
   <v type="int" >        6       26       26       28       28 </v>
   <v type="int" >       12       27       28       28       28 </v>
   <v type="int" >       12       26       27       28       28 </v>
   <v type="int" >       12       26       26       27       28 </v>
   <v type="int" >        6       27       27       28       28 </v>
   <v type="int" >       12       26       27       27       28 </v>
   <v type="int" >        6       28       28       28       28 </v>
  </varray>
  <i name="volumeweight">      0.00055556 </i>
 </kpoints>
 <parameters>
  <separator name="general" >
   <i type="string" name="SYSTEM">unknown system</i>
   <i type="logical" name="LCOMPAT"> F  </i>
  </separator>
  <separator name="electronic" >
   <i type="string" name="PREC">normal</i>
   <i name="ENMAX">    450.00000000</i>
   <i name="ENAUG">    345.27800000</i>
   <i name="EDIFF">      0.00001000</i>
   <i type="int" name="IALGO">    68</i>
   <i type="int" name="IWAVPR">    10</i>
   <i type="int" name="NBANDS">    22</i>
   <i name="NELECT">     36.00000000</i>
   <i type="int" name="TURBO">     0</i>
   <i type="int" name="IRESTART">     0</i>
   <i type="int" name="NREBOOT">     0</i>
   <i type="int" name="NMIN">     0</i>
   <i name="EREF">      0.00000000</i>
   <separator name="electronic smearing" >
    <i type="int" name="ISMEAR">    -5</i>
    <i name="SIGMA">      0.20000000</i>
    <i name="KSPACING">      0.50000000</i>
    <i type="logical" name="KGAMMA"> T  </i>
   </separator>
   <separator name="electronic projectors" >
    <i type="logical" name="LREAL"> F  </i>
    <v name="ROPT">      0.00000000      0.00000000</v>
    <i type="int" name="LMAXPAW">  -100</i>
    <i type="int" name="LMAXMIX">     2</i>
    <i type="logical" name="NLSPLINE"> F  </i>
   </separator>
   <separator name="electronic startup" >
    <i type="int" name="ISTART">     0</i>
    <i type="int" name="ICHARG">     2</i>
    <i type="int" name="INIWAV">     1</i>
   </separator>
   <separator name="electronic spin" >
    <i type="int" name="ISPIN">     1</i>
    <i type="logical" name="LNONCOLLINEAR"> F  </i>
    <v name="MAGMOM">      1.00000000      1.00000000      1.00000000      1.00000000      1.00000000      1.00000000</v>
    <i name="NUPDOWN">     -1.00000000</i>
    <i type="logical" name="LSORBIT"> F  </i>
    <v name="SAXIS">      0.00000000      0.00000000      1.00000000</v>
    <i type="logical" name="LSPIRAL"> F  </i>
    <v name="QSPIRAL">      0.00000000      0.00000000      0.00000000</v>
    <i type="logical" name="LZEROZ"> F  </i>
   </separator>
   <separator name="electronic exchange-correlation" >
    <i type="logical" name="LASPH"> F  </i>
    <i type="logical" name="LMETAGGA"> F  </i>
   </separator>
   <separator name="electronic convergence" >
    <i type="int" name="NELM">    60</i>
    <i type="int" name="NELMDL">     0</i>
    <i type="int" name="NELMIN">     4</i>
    <i name="ENINI">    450.00000000</i>
    <separator name="electronic convergence detail" >
     <i type="logical" name="LDIAG"> T  </i>
     <i type="logical" name="LSUBROT"> F  </i>
     <i name="WEIMIN">      0.00000000</i>
     <i name="EBREAK">      0.00000011</i>
     <i name="DEPER">      0.30000000</i>
     <i type="int" name="NRMM">     4</i>
     <i name="TIME">      0.40000000</i>
    </separator>
   </separator>
   <separator name="electronic mixer" >
    <i name="AMIX">      0.40000000</i>
    <i name="BMIX">      1.00000000</i>
    <i name="AMIN">      0.10000000</i>
    <i name="AMIX_MAG">      1.60000000</i>
    <i name="BMIX_MAG">      1.00000000</i>
    <separator name="electronic mixer details" >
     <i type="int" name="IMIX">     4</i>
     <i type="logical" name="MIXFIRST"> F  </i>
     <i type="int" name="MAXMIX">   -45</i>
     <i name="WC">    100.00000000</i>
     <i type="int" name="INIMIX">     1</i>
     <i type="int" name="MIXPRE">     1</i>
     <i type="int" name="MREMOVE">     5</i>
    </separator>
   </separator>
   <separator name="electronic dipolcorrection" >
    <i type="logical" name="LDIPOL"> F  </i>
    <i type="logical" name="LMONO"> F  </i>
    <i type="int" name="IDIPOL">     0</i>
    <i name="EPSILON">      1.00000000</i>
    <v name="DIPOL">   -100.00000000   -100.00000000   -100.00000000</v>
    <i name="EFIELD">      0.00000000</i>
   </separator>
  </separator>
  <separator name="grids" >
   <i type="int" name="NGX">    18</i>
   <i type="int" name="NGY">    18</i>
   <i type="int" name="NGZ">    80</i>
   <i type="int" name="NGXF">    36</i>
   <i type="int" name="NGYF">    36</i>
   <i type="int" name="NGZF">   160</i>
   <i type="logical" name="ADDGRID"> F  </i>
  </separator>
  <separator name="ionic" >
   <i type="int" name="NSW">     0</i>
   <i type="int" name="IBRION">    -1</i>
   <i type="int" name="MDALGO">     0</i>
   <i type="int" name="ISIF">     2</i>
   <i name="PSTRESS">      0.00000000</i>
   <i name="EDIFFG">      0.00010000</i>
   <i type="int" name="NFREE">     0</i>
   <i name="POTIM">      0.50000000</i>
   <i name="SMASS">     -3.00000000</i>
   <i name="SCALEE">      1.00000000</i>
  </separator>
  <separator name="ionic md" >
   <i name="TEBEG">      0.00010000</i>
   <i name="TEEND">      0.00010000</i>
   <i type="int" name="NBLOCK">     1</i>
   <i type="int" name="KBLOCK">     1</i>
   <i type="int" name="NPACO">   256</i>
   <i name="APACO">     16.00000000</i>
  </separator>
  <separator name="symmetry" >
   <i type="int" name="ISYM">     2</i>
   <i name="SYMPREC">      0.00001000</i>
  </separator>
  <separator name="dos" >
   <i type="int" name="LORBIT">     0</i>
   <v name="RWIGS">     -1.00000000     -1.00000000</v>
   <i type="int" name="NEDOS">   301</i>
   <i name="EMIN">     10.00000000</i>
   <i name="EMAX">    -10.00000000</i>
   <i name="EFERMI">      0.00000000</i>
  </separator>
  <separator name="writing" >
   <i type="int" name="NWRITE">     2</i>
   <i type="logical" name="LWAVE"> F  </i>
   <i type="logical" name="LDOWNSAMPLE"> F  </i>
   <i type="logical" name="LCHARG"> T  </i>
   <i type="logical" name="LPARD"> F  </i>
   <i type="logical" name="LVTOT"> F  </i>
   <i type="logical" name="LVHAR"> F  </i>
   <i type="logical" name="LELF"> F  </i>
   <i type="logical" name="LOPTICS"> F  </i>
   <v name="STM">      0.00000000      0.00000000      0.00000000      0.00000000      0.00000000      0.00000000      0.00000000</v>
  </separator>
  <separator name="performance" >
   <i type="int" name="NPAR">     2</i>
   <i type="int" name="NSIM">     4</i>
   <i type="int" name="NBLK">    -1</i>
   <i type="logical" name="LPLANE"> T  </i>
   <i type="logical" name="LSCALAPACK"> T  </i>
   <i type="logical" name="LSCAAWARE"> F  </i>
   <i type="logical" name="LSCALU"> F  </i>
   <i type="logical" name="LASYNC"> F  </i>
   <i type="logical" name="LORBITALREAL"> F  </i>
  </separator>
  <separator name="miscellaneous" >
   <i type="int" name="IDIOT">     3</i>
   <i type="int" name="ISPECIAL">     0</i>
   <i type="logical" name="LMUSIC"> F  </i>
   <v name="POMASS">     95.94000000     32.06600000</v>
   <v name="DARWINR">      0.00000000      0.00000000</v>
   <v name="DARWINV">      1.00000000      1.00000000</v>
   <i type="logical" name="LCORR"> T  </i>
  </separator>
  <i type="logical" name="GGA_COMPAT"> T  </i>
  <i type="logical" name="LBERRY"> F  </i>
  <i type="int" name="ICORELEVEL">     0</i>
  <i type="logical" name="LDAU"> F  </i>
  <i type="int" name="I_CONSTRAINED_M">     0</i>
  <separator name="electronic exchange-correlation" >
   <i type="string" name="GGA">--</i>
   <i type="int" name="VOSKOWN">     0</i>
   <i type="logical" name="LHFCALC"> F  </i>
   <i type="string" name="PRECFOCK"></i>
   <i type="logical" name="LSYMGRAD"> F  </i>
   <i type="logical" name="LHFONE"> F  </i>
   <i type="logical" name="LRHFCALC"> F  </i>
   <i type="logical" name="LTHOMAS"> F  </i>
   <i type="logical" name="LMODELHF"> F  </i>
   <i name="ENCUT4O">     -1.00000000</i>
   <i type="int" name="EXXOEP">     0</i>
   <i type="int" name="FOURORBIT">     0</i>
   <i name="AEXX">      0.00000000</i>
   <i name="HFALPHA">      0.00000000</i>
   <i name="MCALPHA">      0.00000000</i>
   <i name="ALDAX">      1.00000000</i>
   <i name="AGGAX">      1.00000000</i>
   <i name="ALDAC">      1.00000000</i>
   <i name="AGGAC">      1.00000000</i>
   <i type="int" name="NKREDX">     1</i>
   <i type="int" name="NKREDY">     1</i>
   <i type="int" name="NKREDZ">     1</i>
   <i type="logical" name="SHIFTRED"> F  </i>
   <i type="logical" name="ODDONLY"> F  </i>
   <i type="logical" name="EVENONLY"> F  </i>
   <i type="int" name="LMAXFOCK">     0</i>
   <i type="int" name="NMAXFOCKAE">     0</i>
   <i type="logical" name="LFOCKAEDFT"> F  </i>
   <i name="HFSCREEN">      0.00000000</i>
   <i name="HFSCREENC">      0.00000000</i>
   <i type="int" name="NBANDSGWLOW">     0</i>
  </separator>
  <separator name="vdW DFT" >
   <i type="logical" name="LUSE_VDW"> F  </i>
   <i name="Zab_VDW">     -0.84910000</i>
   <i name="PARAM1">      0.12340000</i>
   <i name="PARAM2">      1.00000000</i>
   <i name="PARAM3">      0.00000000</i>
  </separator>
  <separator name="model GW" >
   <i type="int" name="MODEL_GW">     0</i>
   <i name="MODEL_EPS0">     13.11510680</i>
   <i name="MODEL_ALPHA">      1.00000000</i>
  </separator>
  <separator name="linear response parameters" >
   <i type="logical" name="LEPSILON"> F  </i>
   <i type="logical" name="LRPA"> F  </i>
   <i type="logical" name="LNABLA"> F  </i>
   <i type="logical" name="LVEL"> F  </i>
   <i type="int" name="KINTER">     0</i>
   <i name="CSHIFT">      0.10000000</i>
   <i name="OMEGAMAX">     -1.00000000</i>
   <i name="DEG_THRESHOLD">      0.00200000</i>
   <i name="RTIME">     -0.10000000</i>
   <i name="WPLASMAI">      0.00000000</i>
   <v name="DFIELD">      0.00000000      0.00000000      0.00000000</v>
   <v name="WPLASMA">      0.00000000      0.00000000      0.00000000      0.00000000      0.00000000      0.00000000      0.00000000      0.00000000      0.00000000</v>
  </separator>
  <separator name="orbital magnetization" >
   <i type="logical" name="NUCIND"> F  </i>
   <v name="MAGPOS">      0.00000000      0.00000000      0.00000000</v>
   <i type="logical" name="LNICSALL"> T  </i>
   <i type="logical" name="ORBITALMAG"> F  </i>
   <i type="logical" name="LMAGBLOCH"> F  </i>
   <i type="logical" name="LCHIMAG"> F  </i>
   <i type="logical" name="LGAUGE"> T  </i>
   <i type="int" name="MAGATOM">     0</i>
   <v name="MAGDIPOL">      0.00000000      0.00000000      0.00000000</v>
   <v name="AVECCONST">      0.00000000      0.00000000      0.00000000</v>
  </separator>
  <separator name="response functions" >
   <i type="logical" name="LADDER"> F  </i>
   <i type="logical" name="LRPAFORCE"> F  </i>
   <i type="logical" name="LFXC"> F  </i>
   <i type="logical" name="LHARTREE"> T  </i>
   <i type="int" name="IBSE">     0</i>
   <v type="int" name="KPOINT">    -1     0     0     0</v>
   <i type="logical" name="LTCTE"> F  </i>
   <i type="logical" name="LTETE"> F  </i>
   <i type="logical" name="LTRIPLET"> F  </i>
   <i type="logical" name="LFXCEPS"> F  </i>
   <i type="logical" name="LFXHEG"> F  </i>
   <i type="int" name="NATURALO">     2</i>
   <i type="logical" name="L2ORDER"> F  </i>
   <i type="logical" name="LMP2LT"> F  </i>
   <i type="logical" name="LUSEW"> F  </i>
   <i name="ENCUTGW">     -2.00000000</i>
   <i name="ENCUTGWSOFT">     -2.00000000</i>
   <i name="ENCUTLF">     -1.00000000</i>
   <i type="int" name="LMAXMP2">    -1</i>
   <i name="SCISSOR">      0.00000000</i>
   <i type="int" name="NOMEGA">     0</i>
   <i type="int" name="NOMEGAR">     0</i>
   <i type="int" name="NBANDSGW">    -1</i>
   <i type="int" name="NBANDSO">    -1</i>
   <i type="int" name="NBANDSV">    -1</i>
   <i type="int" name="NELM">     1</i>
   <i type="int" name="NELMHF">     1</i>
   <i type="int" name="DIM">     3</i>
   <i type="int" name="ANTIRES">     0</i>
   <i name="OMEGAMAX">    -30.00000000</i>
   <i name="OMEGAMIN">    -30.00000000</i>
   <i name="OMEGATL">   -200.00000000</i>
   <i type="int" name="OMEGAGRID">   140</i>
   <i name="CSHIFT">     -0.10000000</i>
   <i type="logical" name="SELFENERGY"> F  </i>
   <i type="logical" name="LSPECTRAL"> F  </i>
   <i type="logical" name="LSPECTRALGW"> F  </i>
   <i type="logical" name="LSINGLES"> F  </i>
   <i type="logical" name="LFERMIGW"> F  </i>
   <i type="logical" name="ODDONLYGW"> F  </i>
   <i type="logical" name="EVENONLYGW"> F  </i>
   <i type="int" name="NKREDLFX">     1</i>
   <i type="int" name="NKREDLFY">     1</i>
   <i type="int" name="NKREDLFZ">     1</i>
   <i type="int" name="MAXMEM">  2800</i>
   <i type="int" name="TELESCOPE">     0</i>
   <i type="int" name="TAUPAR">     1</i>
   <i type="int" name="OMEGAPAR">    -1</i>
   <i name="LAMBDA">      1.00000000</i>
  </separator>
  <separator name="External order field" >
   <i name="OFIELD_KAPPA">      0.00000000</i>
   <v name="OFIELD_K">      0.00000000      0.00000000      0.00000000</v>
   <i name="OFIELD_Q6_NEAR">      0.00000000</i>
   <i name="OFIELD_Q6_FAR">      0.00000000</i>
   <i name="OFIELD_A">      0.00000000</i>
  </separator>
 </parameters>
 <atominfo>
  <atoms>       6 </atoms>
  <types>       2 </types>
  <array name="atoms" >
   <dimension dim="1">ion</dimension>
   <field type="string">element</field>
   <field type="int">atomtype</field>
   <set>
    <rc><c>Mo</c><c>   1</c></rc>
    <rc><c>Mo</c><c>   1</c></rc>
    <rc><c>S </c><c>   2</c></rc>
    <rc><c>S </c><c>   2</c></rc>
    <rc><c>S </c><c>   2</c></rc>
    <rc><c>S </c><c>   2</c></rc>
   </set>
  </array>
  <array name="atomtypes" >
   <dimension dim="1">type</dimension>
   <field type="int">atomspertype</field>
   <field type="string">element</field>
   <field>mass</field>
   <field>valence</field>
   <field type="string">pseudopotential</field>
   <set>
    <rc><c>   2</c><c>Mo</c><c>     95.94000000</c><c>      6.00000000</c><c> PAW_PBE Mo 08Apr2002                   </c></rc>
    <rc><c>   4</c><c>S </c><c>     32.06600000</c><c>      6.00000000</c><c>  PAW_PBE S 17Jan2003                   </c></rc>
   </set>
  </array>
 </atominfo>
 <structure name="initialpos" >
  <crystal>
   <varray name="basis" >
    <v>       3.19031573       0.00000000       0.00000000 </v>
    <v>      -1.59515786       2.76289447       0.00000000 </v>
    <v>       0.00000000       0.00000000      14.87900430 </v>
   </varray>
   <i name="volume">    131.15106795 </i>
   <varray name="rec_basis" >
    <v>       0.31344860       0.18096963       0.00000000 </v>
    <v>       0.00000000       0.36193927       0.00000000 </v>
    <v>       0.00000000       0.00000000       0.06720880 </v>
   </varray>
  </crystal>
  <varray name="positions" >
   <v>       0.33333300       0.66666700       0.25000000 </v>
   <v>       0.66666700       0.33333300       0.75000000 </v>
   <v>       0.33333300       0.66666700       0.85517400 </v>
   <v>       0.66666700       0.33333300       0.14482600 </v>
   <v>       0.66666600       0.33333300       0.35517400 </v>
   <v>       0.33333400       0.66666700       0.64482600 </v>
  </varray>
 </structure>
 <calculation>
  <scstep>
   <time name="dav">    0.62    0.63</time>
   <time name="total">    0.67    0.70</time>
   <energy>
    <i name="alphaZ">     90.42577596 </i>
    <i name="ewald">  -1146.88905665 </i>
    <i name="hartreedc">   -535.10238363 </i>
    <i name="XCdc">    -72.59368150 </i>
    <i name="pawpsdc">    813.77302396 </i>
    <i name="pawaedc">   -658.68146406 </i>
    <i name="eentropy">      0.00000000 </i>
    <i name="bandstr">    166.68939987 </i>
    <i name="atom">   1542.31022798 </i>
    <i name="e_fr_energy">    199.93184195 </i>
    <i name="e_wo_entrp">    199.93184195 </i>
    <i name="e_0_energy">    199.93184195 </i>
   </energy>
  </scstep>
  <scstep>
   <time name="dav">    0.78    0.78</time>
   <time name="total">    0.78    0.79</time>
   <energy>
    <i name="e_fr_energy">    -28.35028699 </i>
    <i name="e_wo_entrp">    -28.35028699 </i>
    <i name="e_0_energy">    -28.35028699 </i>
   </energy>
  </scstep>
  <scstep>
   <time name="dav">    0.77    0.77</time>
   <time name="total">    0.77    0.77</time>
   <energy>
    <i name="e_fr_energy">    -46.30214267 </i>
    <i name="e_wo_entrp">    -46.30214267 </i>
    <i name="e_0_energy">    -46.30214267 </i>
   </energy>
  </scstep>
  <scstep>
   <time name="dav">    0.80    0.80</time>
   <time name="total">    0.80    0.80</time>
   <energy>
    <i name="e_fr_energy">    -46.80566763 </i>
    <i name="e_wo_entrp">    -46.80566763 </i>
    <i name="e_0_energy">    -46.80566763 </i>
   </energy>
  </scstep>
  <scstep>
   <time name="dav">    0.78    0.78</time>
   <time name="total">    0.83    0.83</time>
   <energy>
    <i name="e_fr_energy">    -46.82041472 </i>
    <i name="e_wo_entrp">    -46.82041472 </i>
    <i name="e_0_energy">    -46.82041472 </i>
   </energy>
  </scstep>
  <scstep>
   <time name="diag">    0.13    0.13</time>
   <time name="diis">    0.52    0.52</time>
   <time name="orth">    0.01    0.01</time>
   <time name="total">    0.75    0.75</time>
   <energy>
    <i name="e_fr_energy">    -44.43314025 </i>
    <i name="e_wo_entrp">    -44.43314025 </i>
    <i name="e_0_energy">    -44.43314025 </i>
   </energy>
  </scstep>
  <scstep>
   <time name="diag">    0.13    0.13</time>
   <time name="diis">    0.51    0.51</time>
   <time name="orth">    0.01    0.01</time>
   <time name="total">    0.74    0.74</time>
   <energy>
    <i name="e_fr_energy">    -43.69600062 </i>
    <i name="e_wo_entrp">    -43.69600062 </i>
    <i name="e_0_energy">    -43.69600062 </i>
   </energy>
  </scstep>
  <scstep>
   <time name="diag">    0.13    0.13</time>
   <time name="diis">    0.52    0.52</time>
   <time name="orth">    0.01    0.01</time>
   <time name="total">    0.75    0.76</time>
   <energy>
    <i name="e_fr_energy">    -43.63211376 </i>
    <i name="e_wo_entrp">    -43.63211376 </i>
    <i name="e_0_energy">    -43.63211376 </i>
   </energy>
  </scstep>
  <scstep>
   <time name="diag">    0.13    0.13</time>
   <time name="diis">    0.54    0.54</time>
   <time name="orth">    0.01    0.01</time>
   <time name="total">    0.77    0.78</time>
   <energy>
    <i name="e_fr_energy">    -43.62302069 </i>
    <i name="e_wo_entrp">    -43.62302069 </i>
    <i name="e_0_energy">    -43.62302069 </i>
   </energy>
  </scstep>
  <scstep>
   <time name="diag">    0.13    0.13</time>
   <time name="diis">    0.55    0.55</time>
   <time name="orth">    0.01    0.01</time>
   <time name="total">    0.78    0.79</time>
   <energy>
    <i name="e_fr_energy">    -43.60542314 </i>
    <i name="e_wo_entrp">    -43.60542314 </i>
    <i name="e_0_energy">    -43.60542314 </i>
   </energy>
  </scstep>
  <scstep>
   <time name="diag">    0.13    0.13</time>
   <time name="diis">    0.59    0.59</time>
   <time name="orth">    0.01    0.01</time>
   <time name="total">    0.82    0.82</time>
   <energy>
    <i name="e_fr_energy">    -43.60565884 </i>
    <i name="e_wo_entrp">    -43.60565884 </i>
    <i name="e_0_energy">    -43.60565884 </i>
   </energy>
  </scstep>
  <scstep>
   <time name="diag">    0.13    0.13</time>
   <time name="diis">    0.58    0.58</time>
   <time name="orth">    0.01    0.01</time>
   <time name="total">    0.81    0.82</time>
   <energy>
    <i name="e_fr_energy">    -43.60579427 </i>
    <i name="e_wo_entrp">    -43.60579427 </i>
    <i name="e_0_energy">    -43.60579427 </i>
   </energy>
  </scstep>
  <scstep>
   <time name="diag">    0.13    0.13</time>
   <time name="diis">    0.60    0.60</time>
   <time name="orth">    0.01    0.01</time>
   <time name="total">    0.83    0.83</time>
   <energy>
    <i name="e_fr_energy">    -43.60580798 </i>
    <i name="e_wo_entrp">    -43.60580798 </i>
    <i name="e_0_energy">    -43.60580798 </i>
   </energy>
  </scstep>
  <scstep>
   <time name="diag">    0.13    0.13</time>
   <time name="diis">    0.46    0.46</time>
   <time name="orth">    0.01    0.01</time>
   <time name="total">    0.69    0.69</time>
   <energy>
    <i name="e_fr_energy">    -43.60579790 </i>
    <i name="e_wo_entrp">    -43.60579790 </i>
    <i name="e_0_energy">    -43.60579790 </i>
   </energy>
  </scstep>
  <scstep>
   <time name="diag">    0.13    0.13</time>
   <time name="diis">    0.38    0.38</time>
   <time name="orth">    0.01    0.01</time>
   <time name="total">    0.56    0.56</time>
   <energy>
    <i name="alphaZ">     90.42577596 </i>
    <i name="ewald">  -1146.88905665 </i>
    <i name="hartreedc">   -542.95361457 </i>
    <i name="XCdc">    -70.39237911 </i>
    <i name="pawpsdc">    944.34227286 </i>
    <i name="pawaedc">   -792.72353290 </i>
    <i name="eentropy">      0.00000000 </i>
    <i name="bandstr">    -67.72549211 </i>
    <i name="atom">   1542.31022798 </i>
    <i name="e_fr_energy">    -43.60579853 </i>
    <i name="e_wo_entrp">    -43.60579853 </i>
    <i name="e_0_energy">    -43.60579853 </i>
   </energy>
  </scstep>
  <structure>
   <crystal>
    <varray name="basis" >
     <v>       3.19031573       0.00000000       0.00000000 </v>
     <v>      -1.59515786       2.76289447       0.00000000 </v>
     <v>       0.00000000       0.00000000      14.87900430 </v>
    </varray>
    <i name="volume">    131.15106795 </i>
    <varray name="rec_basis" >
     <v>       0.31344860       0.18096963       0.00000000 </v>
     <v>       0.00000000       0.36193927       0.00000000 </v>
     <v>       0.00000000       0.00000000       0.06720880 </v>
    </varray>
   </crystal>
   <varray name="positions" >
    <v>       0.33333300       0.66666700       0.25000000 </v>
    <v>       0.66666700       0.33333300       0.75000000 </v>
    <v>       0.33333300       0.66666700       0.85517400 </v>
    <v>       0.66666700       0.33333300       0.14482600 </v>
    <v>       0.66666600       0.33333300       0.35517400 </v>
    <v>       0.33333400       0.66666700       0.64482600 </v>
   </varray>
  </structure>
  <varray name="forces" >
   <v>       0.00000000       0.00000000       0.00000000 </v>
   <v>       0.00000000       0.00000000       0.00000000 </v>
   <v>      -0.00000000       0.00000000      -0.08526402 </v>
   <v>       0.00000000      -0.00000000       0.08526402 </v>
   <v>       0.00000000      -0.00000000      -0.08526402 </v>
   <v>      -0.00000000       0.00000000       0.08526402 </v>
  </varray>
  <varray name="stress" >
   <v>      -5.09332144       0.00000000       0.00000000 </v>
   <v>      -0.00000000      -5.09332144      -0.00000000 </v>
   <v>       0.00000000       0.00000000     -16.59578993 </v>
  </varray>
  <energy>
   <i name="e_fr_energy">    -44.93708555 </i>
   <i name="e_wo_entrp">    -44.93708555 </i>
   <i name="e_0_energy">      0.00000000 </i>
  </energy>
  <time name="totalsc">   12.36   12.48</time>
  <eigenvalues>
   <array>
    <dimension dim="1">band</dimension>
    <dimension dim="2">kpoint</dimension>
    <dimension dim="3">spin</dimension>
    <field>eigene</field>
    <field>occ</field>
    <set>
     <set comment="spin 1">
      <set comment="kpoint 1">
       <r>  -10.9296    1.0000 </r>
       <r>  -10.9106    1.0000 </r>
       <r>   -9.7292    1.0000 </r>
       <r>   -9.6952    1.0000 </r>
       <r>   -2.5232    1.0000 </r>
       <r>   -2.3617    1.0000 </r>
       <r>    0.5199    1.0000 </r>
       <r>    0.5200    1.0000 </r>
       <r>    0.5205    1.0000 </r>
       <r>    0.5205    1.0000 </r>
       <r>    1.1062    1.0000 </r>
       <r>    1.6250    1.0000 </r>
       <r>    1.6250    1.0000 </r>
       <r>    1.6269    1.0000 </r>
       <r>    1.6269    1.0000 </r>
       <r>    1.6748    1.0000 </r>
       <r>    2.9225    1.0000 </r>
       <r>    3.2984    1.0000 </r>
       <r>    5.8749    0.0000 </r>
       <r>    5.9110    0.0000 </r>
       <r>    6.0192    0.0000 </r>
       <r>    6.0856    0.0000 </r>
      </set>
      <set comment="kpoint 2">
       <r>  -10.7911    1.0000 </r>
       <r>  -10.7723    1.0000 </r>
       <r>   -9.6621    1.0000 </r>
       <r>   -9.6298    1.0000 </r>
       <r>   -2.3611    1.0000 </r>
       <r>   -2.2009    1.0000 </r>
       <r>    0.2074    1.0000 </r>
       <r>    0.2089    1.0000 </r>
       <r>    0.6294    1.0000 </r>
       <r>    0.6719    1.0000 </r>
       <r>    0.6729    1.0000 </r>
       <r>    0.8774    1.0000 </r>
       <r>    1.3991    1.0000 </r>
       <r>    1.4015    1.0000 </r>
       <r>    1.8916    1.0000 </r>
       <r>    2.1700    1.0000 </r>
       <r>    2.8807    1.0000 </r>
       <r>    3.1684    1.0000 </r>
       <r>    5.6838    0.0000 </r>
       <r>    5.7066    0.0000 </r>
       <r>    5.7889    0.0000 </r>
       <r>    5.8722    0.0000 </r>
      </set>
      <set comment="kpoint 3">
       <r>  -10.4048    1.0000 </r>
       <r>  -10.3871    1.0000 </r>
       <r>   -9.4764    1.0000 </r>
       <r>   -9.4487    1.0000 </r>
       <r>   -1.9947    1.0000 </r>
       <r>   -1.8507    1.0000 </r>
       <r>   -0.4406    1.0000 </r>
       <r>   -0.4250    1.0000 </r>
       <r>   -0.0880    1.0000 </r>
       <r>    0.0520    1.0000 </r>
       <r>    0.9086    1.0000 </r>
       <r>    0.9117    1.0000 </r>
       <r>    1.0811    1.0000 </r>
       <r>    1.0834    1.0000 </r>
       <r>    1.8600    1.0000 </r>
       <r>    2.1090    1.0000 </r>
       <r>    2.6057    1.0000 </r>
       <r>    2.7073    1.0000 </r>
       <r>    5.1648    0.0000 </r>
       <r>    5.4763    0.0000 </r>
       <r>    5.6023    0.0000 </r>
       <r>    5.6721    0.0000 </r>
      </set>
      <set comment="kpoint 4">
       <r>   -9.8662    1.0000 </r>
       <r>   -9.8510    1.0000 </r>
       <r>   -9.2221    1.0000 </r>
       <r>   -9.2015    1.0000 </r>
       <r>   -1.9613    1.0000 </r>
       <r>   -1.8949    1.0000 </r>
       <r>   -0.8247    1.0000 </r>
       <r>   -0.7923    1.0000 </r>
       <r>   -0.7525    1.0000 </r>
       <r>   -0.7155    1.0000 </r>
       <r>    0.4236    1.0000 </r>
       <r>    0.4273    1.0000 </r>
       <r>    1.5352    1.0000 </r>
       <r>    1.6003    1.0000 </r>
       <r>    1.6055    1.0000 </r>
       <r>    1.7033    1.0000 </r>
       <r>    2.1787    1.0000 </r>
       <r>    2.2186    1.0000 </r>
       <r>    5.2024    0.0000 </r>
       <r>    5.3262    0.0000 </r>
       <r>    5.3398    0.0000 </r>
       <r>    5.4854    0.0000 </r>
      </set>
      <set comment="kpoint 5">
       <r>   -9.3572    1.0000 </r>
       <r>   -9.3467    1.0000 </r>
       <r>   -8.9897    1.0000 </r>
       <r>   -8.9776    1.0000 </r>
       <r>   -2.3925    1.0000 </r>
       <r>   -2.3614    1.0000 </r>
       <r>   -1.4200    1.0000 </r>
       <r>   -1.3835    1.0000 </r>
       <r>   -0.8772    1.0000 </r>
       <r>   -0.7949    1.0000 </r>
       <r>    0.0917    1.0000 </r>
       <r>    0.0957    1.0000 </r>
       <r>    1.3014    1.0000 </r>
       <r>    1.3887    1.0000 </r>
       <r>    2.0088    1.0000 </r>
       <r>    2.0185    1.0000 </r>
       <r>    2.2413    1.0000 </r>
       <r>    2.2906    1.0000 </r>
       <r>    5.2598    0.0000 </r>
       <r>    5.2672    0.0000 </r>
       <r>    5.5478    0.0000 </r>
       <r>    5.6896    0.0000 </r>
      </set>
      <set comment="kpoint 6">
       <r>   -9.1370    1.0000 </r>
       <r>   -9.1305    1.0000 </r>
       <r>   -8.8922    1.0000 </r>
       <r>   -8.8857    1.0000 </r>
       <r>   -2.6133    1.0000 </r>
       <r>   -2.5863    1.0000 </r>
       <r>   -1.6524    1.0000 </r>
       <r>   -1.6280    1.0000 </r>
       <r>   -0.9680    1.0000 </r>
       <r>   -0.8921    1.0000 </r>
       <r>   -0.0247    1.0000 </r>
       <r>   -0.0206    1.0000 </r>
       <r>    1.2469    1.0000 </r>
       <r>    1.2664    1.0000 </r>
       <r>    2.1536    1.0000 </r>
       <r>    2.1657    1.0000 </r>
       <r>    2.4774    1.0000 </r>
       <r>    2.4812    1.0000 </r>
       <r>    5.2843    0.0000 </r>
       <r>    5.2880    0.0000 </r>
       <r>    5.7740    0.0000 </r>
       <r>    5.8289    0.0000 </r>
      </set>
      <set comment="kpoint 7">
       <r>  -10.5283    1.0000 </r>
       <r>  -10.5102    1.0000 </r>
       <r>   -9.5353    1.0000 </r>
       <r>   -9.5061    1.0000 </r>
       <r>   -2.0869    1.0000 </r>
       <r>   -1.9336    1.0000 </r>
       <r>   -0.2558    1.0000 </r>
       <r>   -0.2521    1.0000 </r>
       <r>    0.1796    1.0000 </r>
       <r>    0.3610    1.0000 </r>
       <r>    0.8550    1.0000 </r>
       <r>    0.8665    1.0000 </r>
       <r>    0.9317    1.0000 </r>
       <r>    0.9332    1.0000 </r>
       <r>    2.0729    1.0000 </r>
       <r>    2.3202    1.0000 </r>
       <r>    2.7200    1.0000 </r>
       <r>    2.8673    1.0000 </r>
       <r>    5.2428    0.0000 </r>
       <r>    5.5001    0.0000 </r>
       <r>    5.5956    0.0000 </r>
       <r>    5.6713    0.0000 </r>
      </set>
      <set comment="kpoint 8">
       <r>  -10.0629    1.0000 </r>
       <r>  -10.0466    1.0000 </r>
       <r>   -9.3124    1.0000 </r>
       <r>   -9.2890    1.0000 </r>
       <r>   -1.8362    1.0000 </r>
       <r>   -1.7327    1.0000 </r>
       <r>   -0.7009    1.0000 </r>
       <r>   -0.6576    1.0000 </r>
       <r>   -0.4396    1.0000 </r>
       <r>   -0.3572    1.0000 </r>
       <r>    0.2247    1.0000 </r>
       <r>    0.2746    1.0000 </r>
       <r>    1.2524    1.0000 </r>
       <r>    1.2545    1.0000 </r>
       <r>    1.9559    1.0000 </r>
       <r>    2.1103    1.0000 </r>
       <r>    2.3566    1.0000 </r>
       <r>    2.3871    1.0000 </r>
       <r>    4.9838    0.0000 </r>
       <r>    5.2209    0.0000 </r>
       <r>    5.4815    0.0000 </r>
       <r>    5.6540    0.0000 </r>
      </set>
      <set comment="kpoint 9">
       <r>   -9.5289    1.0000 </r>
       <r>   -9.5162    1.0000 </r>
       <r>   -9.0613    1.0000 </r>
       <r>   -9.0457    1.0000 </r>
       <r>   -2.0994    1.0000 </r>
       <r>   -2.0596    1.0000 </r>
       <r>   -1.1991    1.0000 </r>
       <r>   -1.1689    1.0000 </r>
       <r>   -0.7501    1.0000 </r>
       <r>   -0.6701    1.0000 </r>
       <r>   -0.0123    1.0000 </r>
       <r>    0.0378    1.0000 </r>
       <r>    1.3453    1.0000 </r>
       <r>    1.3560    1.0000 </r>
       <r>    1.5823    1.0000 </r>
       <r>    1.6618    1.0000 </r>
       <r>    2.3316    1.0000 </r>
       <r>    2.3468    1.0000 </r>
       <r>    5.1143    0.0000 </r>
       <r>    5.2746    0.0000 </r>
       <r>    5.5328    0.0000 </r>
       <r>    5.6207    0.0000 </r>
      </set>
      <set comment="kpoint 10">
       <r>   -9.1480    1.0000 </r>
       <r>   -9.1406    1.0000 </r>
       <r>   -8.8867    1.0000 </r>
       <r>   -8.8789    1.0000 </r>
       <r>   -2.4210    1.0000 </r>
       <r>   -2.3940    1.0000 </r>
       <r>   -1.6871    1.0000 </r>
       <r>   -1.6736    1.0000 </r>
       <r>   -0.8855    1.0000 </r>
       <r>   -0.8124    1.0000 </r>
       <r>   -0.0492    1.0000 </r>
       <r>   -0.0213    1.0000 </r>
       <r>    1.2954    1.0000 </r>
       <r>    1.3343    1.0000 </r>
       <r>    1.4607    1.0000 </r>
       <r>    1.4743    1.0000 </r>
       <r>    2.6178    1.0000 </r>
       <r>    2.6364    1.0000 </r>
       <r>    5.2869    0.0000 </r>
       <r>    5.3295    0.0000 </r>
       <r>    5.7683    0.0000 </r>
       <r>    5.8434    0.0000 </r>
      </set>
      <set comment="kpoint 11">
       <r>   -9.5944    1.0000 </r>
       <r>   -9.5810    1.0000 </r>
       <r>   -9.0863    1.0000 </r>
       <r>   -9.0692    1.0000 </r>
       <r>   -1.9070    1.0000 </r>
       <r>   -1.8587    1.0000 </r>
       <r>   -1.0512    1.0000 </r>
       <r>   -1.0350    1.0000 </r>
       <r>   -0.6156    1.0000 </r>
       <r>   -0.5526    1.0000 </r>
       <r>   -0.2226    1.0000 </r>
       <r>   -0.1174    1.0000 </r>
       <r>    0.8939    1.0000 </r>
       <r>    0.8961    1.0000 </r>
       <r>    1.8529    1.0000 </r>
       <r>    1.9073    1.0000 </r>
       <r>    2.3448    1.0000 </r>
       <r>    2.3465    1.0000 </r>
       <r>    4.9842    0.0000 </r>
       <r>    5.2438    0.0000 </r>
       <r>    5.5997    0.0000 </r>
       <r>    5.8535    0.0000 </r>
      </set>
      <set comment="kpoint 12">
       <r>   -9.1654    1.0000 </r>
       <r>   -9.1569    1.0000 </r>
       <r>   -8.8776    1.0000 </r>
       <r>   -8.8680    1.0000 </r>
       <r>   -2.0427    1.0000 </r>
       <r>   -2.0149    1.0000 </r>
       <r>   -1.7427    1.0000 </r>
       <r>   -1.7340    1.0000 </r>
       <r>   -0.6152    1.0000 </r>
       <r>   -0.5645    1.0000 </r>
       <r>   -0.1236    1.0000 </r>
       <r>   -0.0439    1.0000 </r>
       <r>    0.4542    1.0000 </r>
       <r>    0.4787    1.0000 </r>
       <r>    1.4425    1.0000 </r>
       <r>    1.4640    1.0000 </r>
       <r>    2.6085    1.0000 </r>
       <r>    2.6209    1.0000 </r>
       <r>    5.2041    0.0000 </r>
       <r>    5.3212    0.0000 </r>
       <r>    5.8369    0.0000 </r>
       <r>    6.1854    0.0000 </r>
      </set>
      <set comment="kpoint 13">
       <r>   -8.9854    1.0000 </r>
       <r>   -8.9810    1.0000 </r>
       <r>   -8.7893    1.0000 </r>
       <r>   -8.7848    1.0000 </r>
       <r>   -2.0649    1.0000 </r>
       <r>   -2.0432    1.0000 </r>
       <r>   -2.0105    1.0000 </r>
       <r>   -2.0038    1.0000 </r>
       <r>   -0.8108    1.0000 </r>
       <r>   -0.7547    1.0000 </r>
       <r>    0.0161    1.0000 </r>
       <r>    0.0693    1.0000 </r>
       <r>    0.3972    1.0000 </r>
       <r>    0.4189    1.0000 </r>
       <r>    1.1710    1.0000 </r>
       <r>    1.2154    1.0000 </r>
       <r>    2.8520    1.0000 </r>
       <r>    2.8744    1.0000 </r>
       <r>    5.0881    0.0000 </r>
       <r>    5.1058    0.0000 </r>
       <r>    6.2847    0.0000 </r>
       <r>    6.4095    0.0000 </r>
      </set>
      <set comment="kpoint 14">
       <r>   -8.9259    1.0000 </r>
       <r>   -8.9226    1.0000 </r>
       <r>   -8.7482    1.0000 </r>
       <r>   -8.7447    1.0000 </r>
       <r>   -2.1603    1.0000 </r>
       <r>   -2.1482    1.0000 </r>
       <r>   -1.6719    1.0000 </r>
       <r>   -1.6548    1.0000 </r>
       <r>   -0.6755    1.0000 </r>
       <r>   -0.6661    1.0000 </r>
       <r>   -0.3676    1.0000 </r>
       <r>   -0.3333    1.0000 </r>
       <r>    0.1234    1.0000 </r>
       <r>    0.1778    1.0000 </r>
       <r>    1.0699    1.0000 </r>
       <r>    1.1022    1.0000 </r>
       <r>    2.9759    1.0000 </r>
       <r>    2.9947    1.0000 </r>
       <r>    4.8830    0.0000 </r>
       <r>    4.8969    0.0000 </r>
       <r>    6.0836    0.0000 </r>
       <r>    6.2604    0.0000 </r>
      </set>
      <set comment="kpoint 15">
       <r>  -10.9250    1.0000 </r>
       <r>  -10.9155    1.0000 </r>
       <r>   -9.7206    1.0000 </r>
       <r>   -9.7036    1.0000 </r>
       <r>   -2.4849    1.0000 </r>
       <r>   -2.4042    1.0000 </r>
       <r>    0.5201    1.0000 </r>
       <r>    0.5201    1.0000 </r>
       <r>    0.5204    1.0000 </r>
       <r>    0.5204    1.0000 </r>
       <r>    1.2304    1.0000 </r>
       <r>    1.5084    1.0000 </r>
       <r>    1.6254    1.0000 </r>
       <r>    1.6255    1.0000 </r>
       <r>    1.6264    1.0000 </r>
       <r>    1.6265    1.0000 </r>
       <r>    3.0430    1.0000 </r>
       <r>    3.2249    1.0000 </r>
       <r>    5.8744    0.0000 </r>
       <r>    5.8827    0.0000 </r>
       <r>    6.0155    0.0000 </r>
       <r>    6.0876    0.0000 </r>
      </set>
      <set comment="kpoint 16">
       <r>  -10.7865    1.0000 </r>
       <r>  -10.7771    1.0000 </r>
       <r>   -9.6539    1.0000 </r>
       <r>   -9.6378    1.0000 </r>
       <r>   -2.3232    1.0000 </r>
       <r>   -2.2432    1.0000 </r>
       <r>    0.2077    1.0000 </r>
       <r>    0.2084    1.0000 </r>
       <r>    0.6722    1.0000 </r>
       <r>    0.6727    1.0000 </r>
       <r>    0.6970    1.0000 </r>
       <r>    0.8212    1.0000 </r>
       <r>    1.3997    1.0000 </r>
       <r>    1.4009    1.0000 </r>
       <r>    1.9391    1.0000 </r>
       <r>    2.0713    1.0000 </r>
       <r>    2.9782    1.0000 </r>
       <r>    3.1154    1.0000 </r>
       <r>    5.6807    0.0000 </r>
       <r>    5.7300    0.0000 </r>
       <r>    5.7801    0.0000 </r>
       <r>    5.8469    0.0000 </r>
      </set>
      <set comment="kpoint 17">
       <r>  -10.4005    1.0000 </r>
       <r>  -10.3916    1.0000 </r>
       <r>   -9.4693    1.0000 </r>
       <r>   -9.4555    1.0000 </r>
       <r>   -1.9608    1.0000 </r>
       <r>   -1.8890    1.0000 </r>
       <r>   -0.4378    1.0000 </r>
       <r>   -0.4303    1.0000 </r>
       <r>   -0.0482    1.0000 </r>
       <r>    0.0213    1.0000 </r>
       <r>    0.9093    1.0000 </r>
       <r>    0.9109    1.0000 </r>
       <r>    1.0817    1.0000 </r>
       <r>    1.0828    1.0000 </r>
       <r>    1.9119    1.0000 </r>
       <r>    2.0337    1.0000 </r>
       <r>    2.6416    1.0000 </r>
       <r>    2.6898    1.0000 </r>
       <r>    5.2307    0.0000 </r>
       <r>    5.3782    0.0000 </r>
       <r>    5.6257    0.0000 </r>
       <r>    5.7319    0.0000 </r>
      </set>
      <set comment="kpoint 18">
       <r>   -9.8625    1.0000 </r>
       <r>   -9.8549    1.0000 </r>
       <r>   -9.2168    1.0000 </r>
       <r>   -9.2065    1.0000 </r>
       <r>   -1.9452    1.0000 </r>
       <r>   -1.9120    1.0000 </r>
       <r>   -0.8204    1.0000 </r>
       <r>   -0.8057    1.0000 </r>
       <r>   -0.7375    1.0000 </r>
       <r>   -0.7205    1.0000 </r>
       <r>    0.4246    1.0000 </r>
       <r>    0.4264    1.0000 </r>
       <r>    1.5742    1.0000 </r>
       <r>    1.6016    1.0000 </r>
       <r>    1.6042    1.0000 </r>
       <r>    1.6578    1.0000 </r>
       <r>    2.1914    1.0000 </r>
       <r>    2.2109    1.0000 </r>
       <r>    5.2639    0.0000 </r>
       <r>    5.3299    0.0000 </r>
       <r>    5.3363    0.0000 </r>
       <r>    5.4022    0.0000 </r>
      </set>
      <set comment="kpoint 19">
       <r>   -9.3546    1.0000 </r>
       <r>   -9.3494    1.0000 </r>
       <r>   -8.9866    1.0000 </r>
       <r>   -8.9806    1.0000 </r>
       <r>   -2.3848    1.0000 </r>
       <r>   -2.3693    1.0000 </r>
       <r>   -1.4118    1.0000 </r>
       <r>   -1.3937    1.0000 </r>
       <r>   -0.8555    1.0000 </r>
       <r>   -0.8144    1.0000 </r>
       <r>    0.0927    1.0000 </r>
       <r>    0.0947    1.0000 </r>
       <r>    1.3222    1.0000 </r>
       <r>    1.3657    1.0000 </r>
       <r>    2.0112    1.0000 </r>
       <r>    2.0160    1.0000 </r>
       <r>    2.2547    1.0000 </r>
       <r>    2.2793    1.0000 </r>
       <r>    5.2616    0.0000 </r>
       <r>    5.2653    0.0000 </r>
       <r>    5.5802    0.0000 </r>
       <r>    5.6508    0.0000 </r>
      </set>
      <set comment="kpoint 20">
       <r>   -9.1354    1.0000 </r>
       <r>   -9.1322    1.0000 </r>
       <r>   -8.8906    1.0000 </r>
       <r>   -8.8873    1.0000 </r>
       <r>   -2.6067    1.0000 </r>
       <r>   -2.5932    1.0000 </r>
       <r>   -1.6469    1.0000 </r>
       <r>   -1.6348    1.0000 </r>
       <r>   -0.9482    1.0000 </r>
       <r>   -0.9103    1.0000 </r>
       <r>   -0.0237    1.0000 </r>
       <r>   -0.0216    1.0000 </r>
       <r>    1.2516    1.0000 </r>
       <r>    1.2614    1.0000 </r>
       <r>    2.1566    1.0000 </r>
       <r>    2.1627    1.0000 </r>
       <r>    2.4784    1.0000 </r>
       <r>    2.4803    1.0000 </r>
       <r>    5.2852    0.0000 </r>
       <r>    5.2871    0.0000 </r>
       <r>    5.7894    0.0000 </r>
       <r>    5.8160    0.0000 </r>
      </set>
      <set comment="kpoint 21">
       <r>  -10.5239    1.0000 </r>
       <r>  -10.5148    1.0000 </r>
       <r>   -9.5279    1.0000 </r>
       <r>   -9.5133    1.0000 </r>
       <r>   -2.0508    1.0000 </r>
       <r>   -1.9744    1.0000 </r>
       <r>   -0.2553    1.0000 </r>
       <r>   -0.2536    1.0000 </r>
       <r>    0.2296    1.0000 </r>
       <r>    0.3200    1.0000 </r>
       <r>    0.8576    1.0000 </r>
       <r>    0.8633    1.0000 </r>
       <r>    0.9321    1.0000 </r>
       <r>    0.9329    1.0000 </r>
       <r>    2.1198    1.0000 </r>
       <r>    2.2382    1.0000 </r>
       <r>    2.7744    1.0000 </r>
       <r>    2.8429    1.0000 </r>
       <r>    5.2945    0.0000 </r>
       <r>    5.4028    0.0000 </r>
       <r>    5.6005    0.0000 </r>
       <r>    5.6512    0.0000 </r>
      </set>
      <set comment="kpoint 22">
       <r>  -10.0589    1.0000 </r>
       <r>  -10.0508    1.0000 </r>
       <r>   -9.3065    1.0000 </r>
       <r>   -9.2948    1.0000 </r>
       <r>   -1.8114    1.0000 </r>
       <r>   -1.7597    1.0000 </r>
       <r>   -0.6938    1.0000 </r>
       <r>   -0.6733    1.0000 </r>
       <r>   -0.4124    1.0000 </r>
       <r>   -0.3725    1.0000 </r>
       <r>    0.2372    1.0000 </r>
       <r>    0.2622    1.0000 </r>
       <r>    1.2529    1.0000 </r>
       <r>    1.2540    1.0000 </r>
       <r>    1.9896    1.0000 </r>
       <r>    2.0657    1.0000 </r>
       <r>    2.3681    1.0000 </r>
       <r>    2.3823    1.0000 </r>
       <r>    5.0426    0.0000 </r>
       <r>    5.1621    0.0000 </r>
       <r>    5.5063    0.0000 </r>
       <r>    5.8343    0.0000 </r>
      </set>
      <set comment="kpoint 23">
       <r>   -9.5258    1.0000 </r>
       <r>   -9.5194    1.0000 </r>
       <r>   -9.0573    1.0000 </r>
       <r>   -9.0495    1.0000 </r>
       <r>   -2.0897    1.0000 </r>
       <r>   -2.0698    1.0000 </r>
       <r>   -1.1923    1.0000 </r>
       <r>   -1.1772    1.0000 </r>
       <r>   -0.7300    1.0000 </r>
       <r>   -0.6902    1.0000 </r>
       <r>    0.0015    1.0000 </r>
       <r>    0.0265    1.0000 </r>
       <r>    1.3473    1.0000 </r>
       <r>    1.3526    1.0000 </r>
       <r>    1.6017    1.0000 </r>
       <r>    1.6413    1.0000 </r>
       <r>    2.3359    1.0000 </r>
       <r>    2.3434    1.0000 </r>
       <r>    5.1558    0.0000 </r>
       <r>    5.2368    0.0000 </r>
       <r>    5.5478    0.0000 </r>
       <r>    5.5870    0.0000 </r>
      </set>
      <set comment="kpoint 24">
       <r>   -9.1462    1.0000 </r>
       <r>   -9.1425    1.0000 </r>
       <r>   -8.8847    1.0000 </r>
       <r>   -8.8808    1.0000 </r>
       <r>   -2.4143    1.0000 </r>
       <r>   -2.4009    1.0000 </r>
       <r>   -1.6840    1.0000 </r>
       <r>   -1.6773    1.0000 </r>
       <r>   -0.8674    1.0000 </r>
       <r>   -0.8309    1.0000 </r>
       <r>   -0.0415    1.0000 </r>
       <r>   -0.0275    1.0000 </r>
       <r>    1.3041    1.0000 </r>
       <r>    1.3234    1.0000 </r>
       <r>    1.4647    1.0000 </r>
       <r>    1.4715    1.0000 </r>
       <r>    2.6227    1.0000 </r>
       <r>    2.6320    1.0000 </r>
       <r>    5.2976    0.0000 </r>
       <r>    5.3189    0.0000 </r>
       <r>    5.7853    0.0000 </r>
       <r>    5.8225    0.0000 </r>
      </set>
      <set comment="kpoint 25">
       <r>   -9.5911    1.0000 </r>
       <r>   -9.5844    1.0000 </r>
       <r>   -9.0819    1.0000 </r>
       <r>   -9.0734    1.0000 </r>
       <r>   -1.8951    1.0000 </r>
       <r>   -1.8709    1.0000 </r>
       <r>   -1.0472    1.0000 </r>
       <r>   -1.0391    1.0000 </r>
       <r>   -0.6034    1.0000 </r>
       <r>   -0.5728    1.0000 </r>
       <r>   -0.1911    1.0000 </r>
       <r>   -0.1393    1.0000 </r>
       <r>    0.8943    1.0000 </r>
       <r>    0.8954    1.0000 </r>
       <r>    1.8654    1.0000 </r>
       <r>    1.8926    1.0000 </r>
       <r>    2.3452    1.0000 </r>
       <r>    2.3461    1.0000 </r>
       <r>    5.0432    0.0000 </r>
       <r>    5.1716    0.0000 </r>
       <r>    5.6076    0.0000 </r>
       <r>    5.8334    0.0000 </r>
      </set>
      <set comment="kpoint 26">
       <r>   -9.1633    1.0000 </r>
       <r>   -9.1590    1.0000 </r>
       <r>   -8.8751    1.0000 </r>
       <r>   -8.8703    1.0000 </r>
       <r>   -2.0358    1.0000 </r>
       <r>   -2.0219    1.0000 </r>
       <r>   -1.7405    1.0000 </r>
       <r>   -1.7361    1.0000 </r>
       <r>   -0.6044    1.0000 </r>
       <r>   -0.5793    1.0000 </r>
       <r>   -0.1013    1.0000 </r>
       <r>   -0.0617    1.0000 </r>
       <r>    0.4605    1.0000 </r>
       <r>    0.4728    1.0000 </r>
       <r>    1.4472    1.0000 </r>
       <r>    1.4579    1.0000 </r>
       <r>    2.6117    1.0000 </r>
       <r>    2.6179    1.0000 </r>
       <r>    5.2337    0.0000 </r>
       <r>    5.2921    0.0000 </r>
       <r>    5.8589    0.0000 </r>
       <r>    6.2089    0.0000 </r>
      </set>
      <set comment="kpoint 27">
       <r>   -8.9843    1.0000 </r>
       <r>   -8.9821    1.0000 </r>
       <r>   -8.7881    1.0000 </r>
       <r>   -8.7859    1.0000 </r>
       <r>   -2.0598    1.0000 </r>
       <r>   -2.0491    1.0000 </r>
       <r>   -2.0084    1.0000 </r>
       <r>   -2.0052    1.0000 </r>
       <r>   -0.7977    1.0000 </r>
       <r>   -0.7698    1.0000 </r>
       <r>    0.0304    1.0000 </r>
       <r>    0.0569    1.0000 </r>
       <r>    0.4031    1.0000 </r>
       <r>    0.4140    1.0000 </r>
       <r>    1.1813    1.0000 </r>
       <r>    1.2035    1.0000 </r>
       <r>    2.8577    1.0000 </r>
       <r>    2.8689    1.0000 </r>
       <r>    5.0927    0.0000 </r>
       <r>    5.1015    0.0000 </r>
       <r>    6.2153    0.0000 </r>
       <r>    6.3611    0.0000 </r>
      </set>
      <set comment="kpoint 28">
       <r>   -8.9251    1.0000 </r>
       <r>   -8.9235    1.0000 </r>
       <r>   -8.7473    1.0000 </r>
       <r>   -8.7456    1.0000 </r>
       <r>   -2.1574    1.0000 </r>
       <r>   -2.1513    1.0000 </r>
       <r>   -1.6674    1.0000 </r>
       <r>   -1.6589    1.0000 </r>
       <r>   -0.6734    1.0000 </r>
       <r>   -0.6687    1.0000 </r>
       <r>   -0.3610    1.0000 </r>
       <r>   -0.3440    1.0000 </r>
       <r>    0.1403    1.0000 </r>
       <r>    0.1674    1.0000 </r>
       <r>    1.0767    1.0000 </r>
       <r>    1.0929    1.0000 </r>
       <r>    2.9806    1.0000 </r>
       <r>    2.9900    1.0000 </r>
       <r>    4.8866    0.0000 </r>
       <r>    4.8936    0.0000 </r>
       <r>    6.1222    0.0000 </r>
       <r>    6.2106    0.0000 </r>
      </set>
     </set>
    </set>
   </array>
  </eigenvalues>
  <separator name="orbital magnetization" >
   <v name="MAGDIPOLOUT">      0.00000000      0.00000000      0.00000000</v>
  </separator>
  <dos>
   <i name="efermi">      3.36367011 </i>
   <total>
    <array>
     <dimension dim="1">gridpoints</dimension>
     <dimension dim="2">spin</dimension>
     <field>energy</field>
     <field>total</field>
     <field>integrated</field>
     <set>
      <set comment="spin 1">
       <r>   -12.9296     0.0000     0.0000 </r>
       <r>   -12.8585     0.0000     0.0000 </r>
       <r>   -12.7874     0.0000     0.0000 </r>
       <r>   -12.7162     0.0000     0.0000 </r>
       <r>   -12.6451     0.0000     0.0000 </r>
       <r>   -12.5740     0.0000     0.0000 </r>
       <r>   -12.5028     0.0000     0.0000 </r>
       <r>   -12.4317     0.0000     0.0000 </r>
       <r>   -12.3606     0.0000     0.0000 </r>
       <r>   -12.2894     0.0000     0.0000 </r>
       <r>   -12.2183     0.0000     0.0000 </r>
       <r>   -12.1472     0.0000     0.0000 </r>
       <r>   -12.0760     0.0000     0.0000 </r>
       <r>   -12.0049     0.0000     0.0000 </r>
       <r>   -11.9338     0.0000     0.0000 </r>
       <r>   -11.8627     0.0000     0.0000 </r>
       <r>   -11.7915     0.0000     0.0000 </r>
       <r>   -11.7204     0.0000     0.0000 </r>
       <r>   -11.6493     0.0000     0.0000 </r>
       <r>   -11.5781     0.0000     0.0000 </r>
       <r>   -11.5070     0.0000     0.0000 </r>
       <r>   -11.4359     0.0000     0.0000 </r>
       <r>   -11.3647     0.0000     0.0000 </r>
       <r>   -11.2936     0.0000     0.0000 </r>
       <r>   -11.2225     0.0000     0.0000 </r>
       <r>   -11.1514     0.0000     0.0000 </r>
       <r>   -11.0802     0.0000     0.0000 </r>
       <r>   -11.0091     0.0000     0.0000 </r>
       <r>   -10.9380     0.0000     0.0000 </r>
       <r>   -10.8668     0.6680     0.0181 </r>
       <r>   -10.7957     1.5590     0.0973 </r>
       <r>   -10.7246     0.9864     0.1744 </r>
       <r>   -10.6534     1.0758     0.2477 </r>
       <r>   -10.5823     1.1653     0.3274 </r>
       <r>   -10.5112     1.2395     0.4134 </r>
       <r>   -10.4401     1.1969     0.5000 </r>
       <r>   -10.3689     1.1895     0.5842 </r>
       <r>   -10.2978     1.2394     0.6705 </r>
       <r>   -10.2267     1.2893     0.7605 </r>
       <r>   -10.1555     1.3392     0.8539 </r>
       <r>   -10.0844     1.3891     0.9510 </r>
       <r>   -10.0133     1.4434     1.0516 </r>
       <r>    -9.9421     1.5056     1.1565 </r>
       <r>    -9.8710     1.5679     1.2658 </r>
       <r>    -9.7999     1.6354     1.3797 </r>
       <r>    -9.7287     1.7043     1.4985 </r>
       <r>    -9.6576     4.4148     1.7058 </r>
       <r>    -9.5865     4.1005     1.9945 </r>
       <r>    -9.5154     4.7702     2.3117 </r>
       <r>    -9.4442     4.9711     2.6562 </r>
       <r>    -9.3731     5.4625     3.0273 </r>
       <r>    -9.3020     6.0788     3.4365 </r>
       <r>    -9.2308     6.8064     3.8945 </r>
       <r>    -9.1597     7.9928     4.4073 </r>
       <r>    -9.0886     8.2355     5.1565 </r>
       <r>    -9.0174     8.1723     5.7372 </r>
       <r>    -8.9463    10.4174     6.3597 </r>
       <r>    -8.8752     8.1002     7.1500 </r>
       <r>    -8.8041     5.3589     7.6671 </r>
       <r>    -8.7329     0.0000     8.0000 </r>
       <r>    -8.6618     0.0000     8.0000 </r>
       <r>    -8.5907     0.0000     8.0000 </r>
       <r>    -8.5195     0.0000     8.0000 </r>
       <r>    -8.4484     0.0000     8.0000 </r>
       <r>    -8.3773     0.0000     8.0000 </r>
       <r>    -8.3061     0.0000     8.0000 </r>
       <r>    -8.2350     0.0000     8.0000 </r>
       <r>    -8.1639     0.0000     8.0000 </r>
       <r>    -8.0928     0.0000     8.0000 </r>
       <r>    -8.0216     0.0000     8.0000 </r>
       <r>    -7.9505     0.0000     8.0000 </r>
       <r>    -7.8794     0.0000     8.0000 </r>
       <r>    -7.8082     0.0000     8.0000 </r>
       <r>    -7.7371     0.0000     8.0000 </r>
       <r>    -7.6660     0.0000     8.0000 </r>
       <r>    -7.5948     0.0000     8.0000 </r>
       <r>    -7.5237     0.0000     8.0000 </r>
       <r>    -7.4526     0.0000     8.0000 </r>
       <r>    -7.3814     0.0000     8.0000 </r>
       <r>    -7.3103     0.0000     8.0000 </r>
       <r>    -7.2392     0.0000     8.0000 </r>
       <r>    -7.1681     0.0000     8.0000 </r>
       <r>    -7.0969     0.0000     8.0000 </r>
       <r>    -7.0258     0.0000     8.0000 </r>
       <r>    -6.9547     0.0000     8.0000 </r>
       <r>    -6.8835     0.0000     8.0000 </r>
       <r>    -6.8124     0.0000     8.0000 </r>
       <r>    -6.7413     0.0000     8.0000 </r>
       <r>    -6.6701     0.0000     8.0000 </r>
       <r>    -6.5990     0.0000     8.0000 </r>
       <r>    -6.5279     0.0000     8.0000 </r>
       <r>    -6.4568     0.0000     8.0000 </r>
       <r>    -6.3856     0.0000     8.0000 </r>
       <r>    -6.3145     0.0000     8.0000 </r>
       <r>    -6.2434     0.0000     8.0000 </r>
       <r>    -6.1722     0.0000     8.0000 </r>
       <r>    -6.1011     0.0000     8.0000 </r>
       <r>    -6.0300     0.0000     8.0000 </r>
       <r>    -5.9588     0.0000     8.0000 </r>
       <r>    -5.8877     0.0000     8.0000 </r>
       <r>    -5.8166     0.0000     8.0000 </r>
       <r>    -5.7455     0.0000     8.0000 </r>
       <r>    -5.6743     0.0000     8.0000 </r>
       <r>    -5.6032     0.0000     8.0000 </r>
       <r>    -5.5321     0.0000     8.0000 </r>
       <r>    -5.4609     0.0000     8.0000 </r>
       <r>    -5.3898     0.0000     8.0000 </r>
       <r>    -5.3187     0.0000     8.0000 </r>
       <r>    -5.2475     0.0000     8.0000 </r>
       <r>    -5.1764     0.0000     8.0000 </r>
       <r>    -5.1053     0.0000     8.0000 </r>
       <r>    -5.0342     0.0000     8.0000 </r>
       <r>    -4.9630     0.0000     8.0000 </r>
       <r>    -4.8919     0.0000     8.0000 </r>
       <r>    -4.8208     0.0000     8.0000 </r>
       <r>    -4.7496     0.0000     8.0000 </r>
       <r>    -4.6785     0.0000     8.0000 </r>
       <r>    -4.6074     0.0000     8.0000 </r>
       <r>    -4.5362     0.0000     8.0000 </r>
       <r>    -4.4651     0.0000     8.0000 </r>
       <r>    -4.3940     0.0000     8.0000 </r>
       <r>    -4.3228     0.0000     8.0000 </r>
       <r>    -4.2517     0.0000     8.0000 </r>
       <r>    -4.1806     0.0000     8.0000 </r>
       <r>    -4.1095     0.0000     8.0000 </r>
       <r>    -4.0383     0.0000     8.0000 </r>
       <r>    -3.9672     0.0000     8.0000 </r>
       <r>    -3.8961     0.0000     8.0000 </r>
       <r>    -3.8249     0.0000     8.0000 </r>
       <r>    -3.7538     0.0000     8.0000 </r>
       <r>    -3.6827     0.0000     8.0000 </r>
       <r>    -3.6115     0.0000     8.0000 </r>
       <r>    -3.5404     0.0000     8.0000 </r>
       <r>    -3.4693     0.0000     8.0000 </r>
       <r>    -3.3982     0.0000     8.0000 </r>
       <r>    -3.3270     0.0000     8.0000 </r>
       <r>    -3.2559     0.0000     8.0000 </r>
       <r>    -3.1848     0.0000     8.0000 </r>
       <r>    -3.1136     0.0000     8.0000 </r>
       <r>    -3.0425     0.0000     8.0000 </r>
       <r>    -2.9714     0.0000     8.0000 </r>
       <r>    -2.9002     0.0000     8.0000 </r>
       <r>    -2.8291     0.0000     8.0000 </r>
       <r>    -2.7580     0.0000     8.0000 </r>
       <r>    -2.6869     0.0000     8.0000 </r>
       <r>    -2.6157     0.0000     8.0000 </r>
       <r>    -2.5446     0.9788     8.0278 </r>
       <r>    -2.4735     2.3478     8.1439 </r>
       <r>    -2.4023     3.3957     8.3614 </r>
       <r>    -2.3312     3.3526     8.5861 </r>
       <r>    -2.2601     3.9079     8.8406 </r>
       <r>    -2.1889     4.1444     9.1276 </r>
       <r>    -2.1178     8.0597     9.5857 </r>
       <r>    -2.0467     9.8368    10.2572 </r>
       <r>    -1.9755     7.3727    10.7982 </r>
       <r>    -1.9044     8.1480    11.3799 </r>
       <r>    -1.8333     8.0171    11.9904 </r>
       <r>    -1.7622     5.5156    12.4278 </r>
       <r>    -1.6910     4.3911    12.8223 </r>
       <r>    -1.6199     2.9808    13.1958 </r>
       <r>    -1.5488     2.6413    13.3957 </r>
       <r>    -1.4776     2.3020    13.5715 </r>
       <r>    -1.4065     1.9756    13.7233 </r>
       <r>    -1.3354     1.8302    13.8580 </r>
       <r>    -1.2642     1.7086    13.9838 </r>
       <r>    -1.1931     1.5901    14.1011 </r>
       <r>    -1.1220     1.6832    14.2166 </r>
       <r>    -1.0509     1.8087    14.3408 </r>
       <r>    -0.9797     1.7959    14.4695 </r>
       <r>    -0.9086     4.1143    14.6508 </r>
       <r>    -0.8375     8.4313    15.1259 </r>
       <r>    -0.7663     9.2486    15.7538 </r>
       <r>    -0.6952    10.7747    16.4824 </r>
       <r>    -0.6241    10.5881    17.2604 </r>
       <r>    -0.5529     4.1361    17.9012 </r>
       <r>    -0.4818     3.7189    18.1805 </r>
       <r>    -0.4107     2.8331    18.4250 </r>
       <r>    -0.3396     3.8737    18.6420 </r>
       <r>    -0.2684     2.9192    18.8508 </r>
       <r>    -0.1973     3.4580    19.0711 </r>
       <r>    -0.1262     6.2374    19.4037 </r>
       <r>    -0.0550    10.0453    19.9682 </r>
       <r>     0.0161    11.8568    21.1069 </r>
       <r>     0.0872     4.4977    21.6439 </r>
       <r>     0.1584     4.3543    21.9586 </r>
       <r>     0.2295     5.1179    22.3240 </r>
       <r>     0.3006     4.7839    22.6759 </r>
       <r>     0.3718     4.5389    23.0074 </r>
       <r>     0.4429     3.7173    23.3105 </r>
       <r>     0.5140     2.9209    23.5365 </r>
       <r>     0.5851     3.6048    23.7658 </r>
       <r>     0.6563     3.8161    24.0418 </r>
       <r>     0.7274     3.1294    24.2568 </r>
       <r>     0.7985     3.2051    24.4821 </r>
       <r>     0.8697     6.8899    24.8208 </r>
       <r>     0.9408     1.8336    25.0369 </r>
       <r>     1.0119     3.5023    25.2267 </r>
       <r>     1.0831     6.2773    25.5650 </r>
       <r>     1.1542     6.9216    26.0798 </r>
       <r>     1.2253     6.9215    26.5651 </r>
       <r>     1.2964    13.3432    27.1773 </r>
       <r>     1.3676     8.3085    28.0408 </r>
       <r>     1.4387     6.5936    28.5405 </r>
       <r>     1.5098     5.3676    28.9882 </r>
       <r>     1.5810     3.4049    29.2959 </r>
       <r>     1.6521     4.3208    29.5698 </r>
       <r>     1.7232     4.9567    29.9180 </r>
       <r>     1.7944     4.7244    30.2624 </r>
       <r>     1.8655     4.5171    30.5902 </r>
       <r>     1.9366     5.8505    30.9496 </r>
       <r>     2.0077     4.7985    31.3473 </r>
       <r>     2.0789     3.6825    31.6334 </r>
       <r>     2.1500     2.4214    31.8495 </r>
       <r>     2.2211     2.5512    31.9945 </r>
       <r>     2.2923     5.3876    32.3014 </r>
       <r>     2.3634    14.0327    32.9646 </r>
       <r>     2.4345     5.5229    33.4436 </r>
       <r>     2.5057     5.6639    33.8440 </r>
       <r>     2.5768     5.6097    34.2450 </r>
       <r>     2.6479     4.7976    34.6264 </r>
       <r>     2.7191     4.1545    34.9448 </r>
       <r>     2.7902     3.4770    35.2167 </r>
       <r>     2.8613     2.7908    35.4386 </r>
       <r>     2.9324     3.0739    35.6483 </r>
       <r>     3.0036     0.9948    35.8722 </r>
       <r>     3.0747     0.4504    35.9146 </r>
       <r>     3.1458     0.7271    35.9538 </r>
       <r>     3.2170     0.2602    35.9935 </r>
       <r>     3.2881     0.0038    36.0000 </r>
       <r>     3.3592     0.0000    36.0000 </r>
       <r>     3.4304     0.0000    36.0000 </r>
       <r>     3.5015     0.0000    36.0000 </r>
       <r>     3.5726     0.0000    36.0000 </r>
       <r>     3.6437     0.0000    36.0000 </r>
       <r>     3.7149     0.0000    36.0000 </r>
       <r>     3.7860     0.0000    36.0000 </r>
       <r>     3.8571     0.0000    36.0000 </r>
       <r>     3.9283     0.0000    36.0000 </r>
       <r>     3.9994     0.0000    36.0000 </r>
       <r>     4.0705     0.0000    36.0000 </r>
       <r>     4.1417     0.0000    36.0000 </r>
       <r>     4.2128     0.0000    36.0000 </r>
       <r>     4.2839     0.0000    36.0000 </r>
       <r>     4.3550     0.0000    36.0000 </r>
       <r>     4.4262     0.0000    36.0000 </r>
       <r>     4.4973     0.0000    36.0000 </r>
       <r>     4.5684     0.0000    36.0000 </r>
       <r>     4.6396     0.0000    36.0000 </r>
       <r>     4.7107     0.0000    36.0000 </r>
       <r>     4.7818     0.0000    36.0000 </r>
       <r>     4.8530     0.0000    36.0000 </r>
       <r>     4.9241     1.2475    36.0811 </r>
       <r>     4.9952     2.4163    36.1855 </r>
       <r>     5.0664     4.7105    36.4654 </r>
       <r>     5.1375     6.4452    36.8533 </r>
       <r>     5.2086    13.6545    37.5725 </r>
       <r>     5.2797    23.8590    38.6953 </r>
       <r>     5.3509     2.2566    39.4870 </r>
       <r>     5.4220     2.9028    39.6637 </r>
       <r>     5.4931     5.3139    39.9310 </r>
       <r>     5.5643     8.0978    40.4736 </r>
       <r>     5.6354     6.7190    40.9937 </r>
       <r>     5.7065     9.6587    41.5974 </r>
       <r>     5.7777    11.0079    42.2921 </r>
       <r>     5.8488     3.5446    42.8616 </r>
       <r>     5.9199     2.6832    43.0743 </r>
       <r>     5.9910     2.2378    43.2493 </r>
       <r>     6.0622     1.8931    43.3949 </r>
       <r>     6.1333     2.4051    43.5593 </r>
       <r>     6.2044     2.7747    43.7033 </r>
       <r>     6.2756     1.7617    43.9095 </r>
       <r>     6.3467     0.5138    43.9901 </r>
       <r>     6.4178     0.0000    44.0000 </r>
       <r>     6.4890     0.0000    44.0000 </r>
       <r>     6.5601     0.0000    44.0000 </r>
       <r>     6.6312     0.0000    44.0000 </r>
       <r>     6.7023     0.0000    44.0000 </r>
       <r>     6.7735     0.0000    44.0000 </r>
       <r>     6.8446     0.0000    44.0000 </r>
       <r>     6.9157     0.0000    44.0000 </r>
       <r>     6.9869     0.0000    44.0000 </r>
       <r>     7.0580     0.0000    44.0000 </r>
       <r>     7.1291     0.0000    44.0000 </r>
       <r>     7.2003     0.0000    44.0000 </r>
       <r>     7.2714     0.0000    44.0000 </r>
       <r>     7.3425     0.0000    44.0000 </r>
       <r>     7.4137     0.0000    44.0000 </r>
       <r>     7.4848     0.0000    44.0000 </r>
       <r>     7.5559     0.0000    44.0000 </r>
       <r>     7.6270     0.0000    44.0000 </r>
       <r>     7.6982     0.0000    44.0000 </r>
       <r>     7.7693     0.0000    44.0000 </r>
       <r>     7.8404     0.0000    44.0000 </r>
       <r>     7.9116     0.0000    44.0000 </r>
       <r>     7.9827     0.0000    44.0000 </r>
       <r>     8.0538     0.0000    44.0000 </r>
       <r>     8.1250     0.0000    44.0000 </r>
       <r>     8.1961     0.0000    44.0000 </r>
       <r>     8.2672     0.0000    44.0000 </r>
       <r>     8.3383     0.0000    44.0000 </r>
       <r>     8.4095     0.0000    44.0000 </r>
      </set>
     </set>
    </array>
   </total>
  </dos>
 </calculation>
 <structure name="finalpos" >
  <crystal>
   <varray name="basis" >
    <v>       3.19031573       0.00000000       0.00000000 </v>
    <v>      -1.59515786       2.76289447       0.00000000 </v>
    <v>       0.00000000       0.00000000      14.87900430 </v>
   </varray>
   <i name="volume">    131.15106795 </i>
   <varray name="rec_basis" >
    <v>       0.31344860       0.18096963       0.00000000 </v>
    <v>       0.00000000       0.36193927       0.00000000 </v>
    <v>       0.00000000       0.00000000       0.06720880 </v>
   </varray>
  </crystal>
  <varray name="positions" >
   <v>       0.33333300       0.66666700       0.25000000 </v>
   <v>       0.66666700       0.33333300       0.75000000 </v>
   <v>       0.33333300       0.66666700       0.85517400 </v>
   <v>       0.66666700       0.33333300       0.14482600 </v>
   <v>       0.66666600       0.33333300       0.35517400 </v>
   <v>       0.33333400       0.66666700       0.64482600 </v>
  </varray>
 </structure>
</modeling>
