       N       E                     dE             d eps       ncg     rms          rms(c)
DAV:   1     0.199943915120E+03    0.19994E+03   -0.14756E+04  1232   0.127E+03
DAV:   2    -0.283504636883E+02   -0.22829E+03   -0.22103E+03  1664   0.261E+02
DAV:   3    -0.463021494486E+02   -0.17952E+02   -0.17869E+02  1636   0.745E+01
DAV:   4    -0.468056734878E+02   -0.50352E+00   -0.50275E+00  1704   0.134E+01
DAV:   5    -0.468204206056E+02   -0.14747E-01   -0.14744E-01  1654   0.224E+00    0.973E+00
DAV:   6    -0.444470943581E+02    0.23733E+01   -0.24990E+01  1620   0.233E+01    0.397E+00
DAV:   7    -0.437294400173E+02    0.71765E+00   -0.55100E+00  1646   0.134E+01    0.220E+00
DAV:   8    -0.436069374202E+02    0.12250E+00   -0.51720E-01  1576   0.412E+00    0.495E-01
DAV:   9    -0.436078544495E+02   -0.91703E-03   -0.79210E-02  1762   0.145E+00    0.292E-01
DAV:  10    -0.436060547774E+02    0.17997E-02   -0.26531E-02  1832   0.831E-01    0.114E-01
DAV:  11    -0.436056894785E+02    0.36530E-03   -0.27815E-03  1678   0.311E-01    0.270E-02
DAV:  12    -0.436058127663E+02   -0.12329E-03   -0.58354E-04  1576   0.143E-01    0.175E-02
DAV:  13    -0.436058142008E+02   -0.14345E-05   -0.12340E-04  1830   0.624E-02    0.134E-02
DAV:  14    -0.436058099721E+02    0.42287E-05   -0.49401E-05  1712   0.381E-02    0.262E-03
DAV:  15    -0.436058096867E+02    0.28536E-06   -0.26895E-06  1278   0.105E-02
   1 F= -.44937097E+02 E0= -.44937097E+02  d E =-.449371E+02
       N       E                     dE             d eps       ncg     rms          rms(c)
DAV:   1    -0.436277638975E+02   -0.21954E-01   -0.11918E+00  1268   0.665E+00    0.785E-01
DAV:   2    -0.436005535752E+02    0.27210E-01   -0.56984E-02  1412   0.125E+00    0.474E-01
DAV:   3    -0.435914067713E+02    0.91468E-02   -0.51179E-02  1604   0.120E+00    0.191E-01
DAV:   4    -0.435933748783E+02   -0.19681E-02   -0.40041E-02  1726   0.105E+00    0.282E-01
DAV:   5    -0.435906105265E+02    0.27644E-02   -0.13252E-02  1608   0.600E-01    0.176E-02
DAV:   6    -0.435906633846E+02   -0.52858E-04   -0.65139E-04  1752   0.145E-01    0.147E-02
DAV:   7    -0.435906664570E+02   -0.30724E-05   -0.16670E-05  1358   0.306E-02    0.958E-03
DAV:   8    -0.435906640429E+02    0.24141E-05   -0.10515E-05  1624   0.147E-02    0.329E-03
DAV:   9    -0.435906637497E+02    0.29319E-06   -0.74170E-07   916   0.521E-03
   2 F= -.44930980E+02 E0= -.44930980E+02  d E =0.611668E-02
       N       E                     dE             d eps       ncg     rms          rms(c)
DAV:   1    -0.436223713634E+02   -0.31707E-01   -0.84140E-01  1232   0.561E+00    0.613E-01
DAV:   2    -0.436134277690E+02    0.89436E-02   -0.10413E-01  1418   0.173E+00    0.462E-01
DAV:   3    -0.436059521443E+02    0.74756E-02   -0.18501E-02  1614   0.772E-01    0.149E-01
DAV:   4    -0.436053827217E+02    0.56942E-03   -0.75890E-03  1554   0.417E-01    0.293E-02
DAV:   5    -0.436053803632E+02    0.23585E-05   -0.19092E-04  1652   0.860E-02    0.240E-02
DAV:   6    -0.436053740709E+02    0.62922E-05   -0.89439E-06  1576   0.182E-02    0.240E-02
DAV:   7    -0.436053508642E+02    0.23207E-04   -0.72332E-05  1552   0.395E-02    0.554E-03
DAV:   8    -0.436053500682E+02    0.79602E-06   -0.32145E-06  1158   0.114E-02
   3 F= -.44941324E+02 E0= -.44941324E+02  d E =-.103441E-01
       N       E                     dE             d eps       ncg     rms          rms(c)
DAV:   1    -0.436073991218E+02   -0.20483E-02   -0.11792E-01  1274   0.175E+00    0.168E-01
DAV:   2    -0.436060244471E+02    0.13747E-02   -0.10852E-02  1304   0.616E-01    0.425E-02
DAV:   3    -0.436060142553E+02    0.10192E-04   -0.33796E-04  1430   0.118E-01    0.148E-02
DAV:   4    -0.436060140818E+02    0.17347E-06   -0.10538E-04  1430   0.503E-02    0.954E-03
DAV:   5    -0.436060124448E+02    0.16370E-05   -0.33661E-06  1286   0.106E-02    0.495E-03
DAV:   6    -0.436060114583E+02    0.98648E-06   -0.46284E-06  1318   0.103E-02
   4 F= -.44943924E+02 E0= -.44943924E+02  d E =-.259984E-02
       N       E                     dE             d eps       ncg     rms          rms(c)
DAV:   1    -0.436346437629E+02   -0.28631E-01   -0.45751E+00  1232   0.106E+01    0.825E-01
DAV:   2    -0.436058463712E+02    0.28797E-01   -0.36948E-01  1280   0.370E+00    0.177E-01
DAV:   3    -0.436062096665E+02   -0.36330E-03   -0.17959E-02  1516   0.739E-01    0.815E-02
DAV:   4    -0.436059003969E+02    0.30927E-03   -0.19648E-03  1466   0.219E-01    0.852E-03
DAV:   5    -0.436059797172E+02   -0.79320E-04   -0.32573E-04  1376   0.902E-02    0.407E-02
DAV:   6    -0.436059131264E+02    0.66591E-04   -0.43896E-04  1350   0.955E-02    0.142E-02
DAV:   7    -0.436059130471E+02    0.79269E-07   -0.21698E-05  1698   0.291E-02    0.137E-02
DAV:   8    -0.436059159365E+02   -0.28894E-05   -0.25213E-06  1084   0.914E-03    0.161E-02
DAV:   9    -0.436059360918E+02   -0.20155E-04   -0.29805E-05  1412   0.239E-02    0.265E-02
DAV:  10    -0.436059144387E+02    0.21653E-04   -0.27290E-04  1486   0.762E-02    0.133E-02
DAV:  11    -0.436059162772E+02   -0.18386E-05   -0.11544E-05  1484   0.212E-02    0.160E-02
DAV:  12    -0.436059097131E+02    0.65641E-05   -0.25030E-05  1600   0.243E-02    0.396E-03
DAV:  13    -0.436059095020E+02    0.21115E-06   -0.19043E-05  1558   0.203E-02    0.661E-03
DAV:  14    -0.436059087588E+02    0.74314E-06   -0.30290E-06   988   0.953E-03
   5 F= -.44955530E+02 E0= -.44955530E+02  d E =-.116064E-01
       N       E                     dE             d eps       ncg     rms          rms(c)
DAV:   1    -0.443409031809E+02   -0.73499E+00   -0.31065E+02  1232   0.917E+01    0.673E+00
DAV:   2    -0.465391587466E+02   -0.21983E+01   -0.44571E+01  1624   0.430E+01    0.851E+00
DAV:   3    -0.449699384719E+02    0.15692E+01   -0.27815E+00  1472   0.108E+01    0.627E+00
DAV:   4    -0.436146985349E+02    0.13552E+01   -0.66057E+00  1470   0.116E+01    0.117E+00
DAV:   5    -0.436382519822E+02   -0.23553E-01   -0.52968E-01  1376   0.421E+00    0.147E+00
DAV:   6    -0.437528640312E+02   -0.11461E+00   -0.23649E-01  1530   0.225E+00    0.224E+00
DAV:   7    -0.435858913606E+02    0.16697E+00   -0.93836E-01  1476   0.461E+00    0.444E-01
DAV:   8    -0.435894539386E+02   -0.35626E-02   -0.43206E-02  1484   0.149E+00    0.491E-01
DAV:   9    -0.435875364178E+02    0.19175E-02   -0.32569E-02  1598   0.857E-01    0.298E-01
DAV:  10    -0.435857749352E+02    0.17615E-02   -0.34078E-03  1594   0.372E-01    0.195E-01
DAV:  11    -0.435846150634E+02    0.11599E-02   -0.26435E-03  1444   0.224E-01    0.693E-02
DAV:  12    -0.435844571952E+02    0.15787E-03   -0.58109E-04  1514   0.114E-01    0.166E-02
DAV:  13    -0.435844546309E+02    0.25643E-05   -0.72561E-05  1756   0.446E-02    0.770E-03
DAV:  14    -0.435844522605E+02    0.23704E-05   -0.19726E-05  1590   0.216E-02    0.709E-03
DAV:  15    -0.435844521003E+02    0.16021E-06   -0.14775E-06   838   0.767E-03
   6 F= -.44862919E+02 E0= -.44862919E+02  d E =0.926114E-01
       N       E                     dE             d eps       ncg     rms          rms(c)
DAV:   1    -0.444287567199E+02   -0.84430E+00   -0.14155E+02  1292   0.569E+01    0.462E+00
DAV:   2    -0.442111987035E+02    0.21756E+00   -0.20035E+01  1268   0.233E+01    0.483E+00
DAV:   3    -0.439808474778E+02    0.23035E+00   -0.55451E-01  1334   0.493E+00    0.384E+00
DAV:   4    -0.437158348378E+02    0.26501E+00   -0.68986E-01  1364   0.386E+00    0.252E+00
DAV:   5    -0.441179290734E+02   -0.40209E+00   -0.44901E+00  1528   0.104E+01    0.395E+00
DAV:   6    -0.561408641635E+02   -0.12023E+02   -0.87007E+01  1584   0.466E+01    0.175E+01
DAV:   7    -0.435197600380E+02    0.12621E+02   -0.50891E+01  1456   0.342E+01    0.218E+00
DAV:   8    -0.436377601600E+02   -0.11800E+00   -0.16991E+00  1418   0.824E+00    0.137E+00
DAV:   9    -0.436442149380E+02   -0.64548E-02   -0.97303E-02  1830   0.161E+00    0.150E+00
DAV:  10    -0.436070203661E+02    0.37195E-01   -0.68856E-02  1322   0.123E+00    0.219E-01
DAV:  11    -0.436056395823E+02    0.13808E-02   -0.18786E-02  1688   0.677E-01    0.153E-01
DAV:  12    -0.436050849524E+02    0.55463E-03   -0.13152E-03  1610   0.228E-01    0.847E-02
DAV:  13    -0.436057549491E+02   -0.67000E-03   -0.13307E-03  1634   0.181E-01    0.167E-01
DAV:  14    -0.436050189541E+02    0.73599E-03   -0.13702E-03  1526   0.179E-01    0.806E-02
DAV:  15    -0.436053407250E+02   -0.32177E-03   -0.39652E-04  1532   0.106E-01    0.120E-01
DAV:  16    -0.436048714606E+02    0.46926E-03   -0.20108E-03  1448   0.216E-01    0.290E-02
DAV:  17    -0.436050397188E+02   -0.16826E-03   -0.16129E-03  1596   0.186E-01    0.755E-02
DAV:  18    -0.436049467777E+02    0.92941E-04   -0.14473E-04  1440   0.636E-02    0.543E-02
DAV:  19    -0.436048876965E+02    0.59081E-04   -0.99216E-05  1572   0.455E-02    0.327E-02
DAV:  20    -0.436048770094E+02    0.10687E-04   -0.88540E-06  1690   0.156E-02    0.279E-02
DAV:  21    -0.436048692770E+02    0.77324E-05   -0.42809E-06  1166   0.103E-02    0.236E-02
DAV:  22    -0.436048668797E+02    0.23974E-05   -0.66678E-07   730   0.495E-03    0.222E-02
DAV:  23    -0.436048504427E+02    0.16437E-04   -0.91151E-05  1434   0.456E-02    0.313E-03
DAV:  24    -0.436048526748E+02   -0.22321E-05   -0.21319E-05  1524   0.232E-02    0.586E-03
DAV:  25    -0.436048518136E+02    0.86118E-06   -0.96318E-07   694   0.628E-03
   7 F= -.44917436E+02 E0= -.44917436E+02  d E =-.545169E-01
       N       E                     dE             d eps       ncg     rms          rms(c)
DAV:   1    -0.437076081410E+02   -0.10276E+00   -0.20034E+01  1232   0.225E+01    0.172E+00
DAV:   2    -0.436588552307E+02    0.48753E-01   -0.12891E+00  1232   0.753E+00    0.116E+00
DAV:   3    -0.437762881053E+02   -0.11743E+00   -0.40773E-01  1524   0.284E+00    0.226E+00
DAV:   4    -0.438851356824E+02   -0.10885E+00   -0.90780E-02  1782   0.141E+00    0.288E+00
DAV:   5    -0.438482370874E+02    0.36899E-01   -0.11831E-02  1492   0.612E-01    0.267E+00
DAV:   6    -0.436963858344E+02    0.15185E+00   -0.29656E+00  1408   0.792E+00    0.149E+00
DAV:   7    -0.436164104079E+02    0.79975E-01   -0.37213E-01  1352   0.318E+00    0.542E-01
DAV:   8    -0.436123298541E+02    0.40806E-02   -0.24075E-01  1388   0.225E+00    0.546E-01
DAV:   9    -0.436129405081E+02   -0.61065E-03   -0.18443E-02  1388   0.793E-01    0.558E-01
DAV:  10    -0.436037864023E+02    0.91541E-02   -0.32412E-02  1388   0.899E-01    0.233E-01
DAV:  11    -0.436046773678E+02   -0.89097E-03   -0.25249E-02  1450   0.784E-01    0.286E-01
DAV:  12    -0.436056881522E+02   -0.10108E-02   -0.11759E-03  1672   0.201E-01    0.313E-01
DAV:  13    -0.436029322078E+02    0.27559E-02   -0.12255E-02  1462   0.518E-01    0.127E-01
DAV:  14    -0.436026568003E+02    0.27541E-03   -0.50038E-04  1512   0.147E-01    0.751E-02
DAV:  15    -0.436025065485E+02    0.15025E-03   -0.35220E-04  1586   0.815E-02    0.202E-02
DAV:  16    -0.436024976416E+02    0.89069E-05   -0.17097E-04  1478   0.645E-02    0.171E-02
DAV:  17    -0.436024898155E+02    0.78261E-05   -0.56869E-05  1456   0.389E-02    0.373E-03
DAV:  18    -0.436024925583E+02   -0.27428E-05   -0.29271E-05  1708   0.239E-02    0.106E-02
DAV:  19    -0.436024897664E+02    0.27919E-05   -0.57078E-06  1240   0.127E-02    0.583E-03
DAV:  20    -0.436024895031E+02    0.26328E-06   -0.87382E-06  1468   0.134E-02
   8 F= -.44897816E+02 E0= -.44897816E+02  d E =0.196200E-01
       N       E                     dE             d eps       ncg     rms          rms(c)
DAV:   1    -0.440213021882E+02   -0.41881E+00   -0.13852E+02  1232   0.601E+01    0.435E+00
DAV:   2    -0.438488022815E+02    0.17250E+00   -0.10819E+01  1276   0.221E+01    0.246E+00
DAV:   3    -0.439247919202E+02   -0.75990E-01   -0.20611E+00  1264   0.988E+00    0.438E+00
DAV:   4    -0.437674143467E+02    0.15738E+00   -0.19681E-01  1280   0.282E+00    0.321E+00
DAV:   5    -0.471604231513E+02   -0.33930E+01   -0.13598E+01  1386   0.206E+01    0.157E+01
DAV:   6    -0.476349604871E+02   -0.47454E+00   -0.88007E-01  1792   0.523E+00    0.169E+01
DAV:   7    -0.435166984145E+02    0.41183E+01   -0.24746E+01  1290   0.278E+01    0.113E+00
DAV:   8    -0.435922191189E+02   -0.75521E-01   -0.11162E+00  1262   0.706E+00    0.692E-01
DAV:   9    -0.436105140599E+02   -0.18295E-01   -0.10092E-01  1756   0.154E+00    0.931E-01
DAV:  10    -0.435929944463E+02    0.17520E-01   -0.23743E-02  1426   0.749E-01    0.504E-01
DAV:  11    -0.435861858041E+02    0.68086E-02   -0.22251E-02  1446   0.657E-01    0.189E-01
DAV:  12    -0.435868864413E+02   -0.70064E-03   -0.43049E-03  1732   0.385E-01    0.243E-01
DAV:  13    -0.435860526160E+02    0.83383E-03   -0.80364E-04  1514   0.147E-01    0.182E-01
DAV:  14    -0.435852158260E+02    0.83679E-03   -0.22850E-03  1508   0.216E-01    0.741E-02
DAV:  15    -0.435851737466E+02    0.42079E-04   -0.25126E-04  1686   0.835E-02    0.622E-02
DAV:  16    -0.435852015209E+02   -0.27774E-04   -0.79837E-05  1408   0.435E-02    0.619E-02
DAV:  17    -0.435851610807E+02    0.40440E-04   -0.29118E-05  1658   0.291E-02    0.519E-02
DAV:  18    -0.435850992226E+02    0.61858E-04   -0.21671E-04  1450   0.687E-02    0.248E-02
DAV:  19    -0.435850939767E+02    0.52459E-05   -0.18239E-05  1574   0.259E-02    0.153E-02
DAV:  20    -0.435850914759E+02    0.25009E-05   -0.79594E-06  1360   0.141E-02    0.975E-03
DAV:  21    -0.435850899589E+02    0.15170E-05   -0.21238E-06   716   0.876E-03    0.506E-03
DAV:  22    -0.435850892168E+02    0.74211E-06   -0.36561E-06  1028   0.984E-03
   9 F= -.44848126E+02 E0= -.44848126E+02  d E =0.496899E-01
       N       E                     dE             d eps       ncg     rms          rms(c)
DAV:   1    -0.439402603469E+02   -0.35517E+00   -0.66645E+01  1256   0.392E+01    0.302E+00
DAV:   2    -0.436257168114E+02    0.31454E+00   -0.54285E+00  1274   0.144E+01    0.125E+00
DAV:   3    -0.436000983282E+02    0.25618E-01   -0.24430E-01  1292   0.357E+00    0.233E-01
DAV:   4    -0.436023361972E+02   -0.22379E-02   -0.42103E-02  1460   0.104E+00    0.337E-01
DAV:   5    -0.437319439109E+02   -0.12961E+00   -0.35159E-01  1444   0.293E+00    0.246E+00
DAV:   6    -0.435955161427E+02    0.13643E+00   -0.44742E-01  1280   0.355E+00    0.159E-01
DAV:   7    -0.436064826605E+02   -0.10967E-01   -0.10891E-01  1586   0.158E+00    0.498E-01
DAV:   8    -0.436009101420E+02    0.55725E-02   -0.57166E-02  1438   0.116E+00    0.188E-01
DAV:   9    -0.435999971605E+02    0.91298E-03   -0.50706E-03  1456   0.442E-01    0.566E-02
DAV:  10    -0.436001498409E+02   -0.15268E-03   -0.95583E-04  1488   0.154E-01    0.896E-02
DAV:  11    -0.436002881581E+02   -0.13832E-03   -0.20386E-03  1514   0.215E-01    0.984E-02
DAV:  12    -0.436001614939E+02    0.12666E-03   -0.12533E-04  1562   0.772E-02    0.815E-02
DAV:  13    -0.435999714237E+02    0.19007E-03   -0.19017E-03  1496   0.202E-01    0.405E-02
DAV:  14    -0.435999927777E+02   -0.21354E-04   -0.10124E-04  1492   0.618E-02    0.448E-02
DAV:  15    -0.435999513271E+02    0.41451E-04   -0.81236E-05  1508   0.436E-02    0.216E-02
DAV:  16    -0.435999481947E+02    0.31324E-05   -0.57519E-06  1310   0.147E-02    0.159E-02
DAV:  17    -0.435999435750E+02    0.46197E-05   -0.22983E-05  1560   0.235E-02    0.220E-03
DAV:  18    -0.435999435573E+02    0.17700E-07   -0.23630E-06   750   0.945E-03
  10 F= -.44880805E+02 E0= -.44880805E+02  d E =-.326788E-01
       N       E                     dE             d eps       ncg     rms          rms(c)
DAV:   1    -0.436397577009E+02   -0.39814E-01   -0.75523E+00  1232   0.137E+01    0.105E+00
DAV:   2    -0.436056644851E+02    0.34093E-01   -0.55753E-01  1244   0.447E+00    0.499E-01
DAV:   3    -0.435982307870E+02    0.74337E-02   -0.35939E-02  1690   0.104E+00    0.722E-02
DAV:   4    -0.435983446602E+02   -0.11387E-03   -0.30435E-03  1710   0.316E-01    0.532E-02
DAV:   5    -0.435982368187E+02    0.10784E-03   -0.81808E-04  1552   0.146E-01    0.210E-02
DAV:   6    -0.435982459154E+02   -0.90967E-05   -0.13600E-04  1536   0.635E-02    0.236E-02
DAV:   7    -0.435982339471E+02    0.11968E-04   -0.19182E-05  1492   0.255E-02    0.104E-02
DAV:   8    -0.435982307524E+02    0.31947E-05   -0.24072E-05  1644   0.233E-02    0.371E-03
DAV:   9    -0.435982303642E+02    0.38819E-06   -0.97352E-07   736   0.634E-03
  11 F= -.44871088E+02 E0= -.44871088E+02  d E =0.971697E-02
       N       E                     dE             d eps       ncg     rms          rms(c)
DAV:   1    -0.439508957560E+02   -0.35267E+00   -0.90143E+01  1232   0.481E+01    0.357E+00
DAV:   2    -0.437518296576E+02    0.19907E+00   -0.49788E+00  1232   0.143E+01    0.243E+00
DAV:   3    -0.436347591231E+02    0.11707E+00   -0.24287E-01  1492   0.284E+00    0.122E+00
DAV:   4    -0.435914191189E+02    0.43340E-01   -0.47334E-01  1398   0.319E+00    0.431E-01
DAV:   5    -0.435877731951E+02    0.36459E-02   -0.41676E-02  1488   0.134E+00    0.183E-01
DAV:   6    -0.435870762190E+02    0.69698E-03   -0.56590E-03  1688   0.346E-01    0.481E-02
DAV:   7    -0.435871046488E+02   -0.28430E-04   -0.94284E-04  1712   0.145E-01    0.577E-02
DAV:   8    -0.435870428714E+02    0.61777E-04   -0.28742E-04  1434   0.883E-02    0.184E-02
DAV:   9    -0.435870211712E+02    0.21700E-04   -0.85558E-05  1486   0.512E-02    0.823E-03
DAV:  10    -0.435870241624E+02   -0.29912E-05   -0.35215E-05  1648   0.330E-02    0.101E-02
DAV:  11    -0.435870208707E+02    0.32918E-05   -0.17569E-05  1518   0.214E-02    0.532E-03
DAV:  12    -0.435870205754E+02    0.29524E-06   -0.16793E-06   776   0.817E-03
  12 F= -.44838413E+02 E0= -.44838413E+02  d E =0.326746E-01
       N       E                     dE             d eps       ncg     rms          rms(c)
DAV:   1    -0.437026231234E+02   -0.11560E+00   -0.21891E+01  1244   0.226E+01    0.173E+00
DAV:   2    -0.436016296645E+02    0.10099E+00   -0.17081E+00  1262   0.818E+00    0.534E-01
DAV:   3    -0.435995810931E+02    0.20486E-02   -0.58173E-02  1274   0.177E+00    0.406E-01
DAV:   4    -0.439658130065E+02   -0.36623E+00   -0.16347E+00  1510   0.613E+00    0.337E+00
DAV:   5    -0.435857563721E+02    0.38006E+00   -0.20527E+00  1538   0.734E+00    0.754E-02
DAV:   6    -0.435965043452E+02   -0.10748E-01   -0.11166E-01  1288   0.190E+00    0.257E-01
DAV:   7    -0.435948937606E+02    0.16106E-02   -0.43172E-03  1382   0.435E-01    0.108E-01
DAV:   8    -0.435949017816E+02   -0.80210E-05   -0.73439E-03  1466   0.390E-01    0.100E-01
DAV:   9    -0.435959229903E+02   -0.10212E-02   -0.20494E-03  1768   0.215E-01    0.204E-01
DAV:  10    -0.435958866121E+02    0.36378E-04   -0.14006E-04  1490   0.640E-02    0.207E-01
DAV:  11    -0.435945588782E+02    0.13277E-02   -0.76371E-03  1484   0.416E-01    0.155E-02
DAV:  12    -0.435945788647E+02   -0.19987E-04   -0.25583E-04  1376   0.115E-01    0.148E-02
DAV:  13    -0.435945733680E+02    0.54967E-05   -0.12435E-05  1626   0.190E-02    0.753E-03
DAV:  14    -0.435945722105E+02    0.11575E-05   -0.14134E-06   742   0.720E-03    0.507E-03
DAV:  15    -0.435945715064E+02    0.70405E-06   -0.58507E-06  1268   0.102E-02
  13 F= -.44853717E+02 E0= -.44853717E+02  d E =-.153035E-01
       N       E                     dE             d eps       ncg     rms          rms(c)
DAV:   1    -0.436229002948E+02   -0.28328E-01   -0.54217E+00  1232   0.116E+01    0.892E-01
DAV:   2    -0.436014945824E+02    0.21406E-01   -0.41090E-01  1232   0.375E+00    0.554E-01
DAV:   3    -0.435936119177E+02    0.78827E-02   -0.18292E-02  1640   0.820E-01    0.214E-01
DAV:   4    -0.435925436519E+02    0.10683E-02   -0.10630E-02  1474   0.505E-01    0.376E-02
DAV:   5    -0.435925264083E+02    0.17244E-04   -0.56429E-04  1478   0.149E-01    0.600E-03
DAV:   6    -0.435925267733E+02   -0.36508E-06   -0.23602E-05  1752   0.286E-02    0.387E-03
DAV:   7    -0.435925255732E+02    0.12001E-05   -0.29021E-06  1098   0.798E-03    0.218E-03
DAV:   8    -0.435925255906E+02   -0.17431E-07   -0.44849E-07   760   0.455E-03
  14 F= -.44846545E+02 E0= -.44846545E+02  d E =0.717184E-02
       N       E                     dE             d eps       ncg     rms          rms(c)
DAV:   1    -0.438454425145E+02   -0.25292E+00   -0.57400E+01  1232   0.381E+01    0.286E+00
DAV:   2    -0.435994221809E+02    0.24602E+00   -0.31884E+00  1232   0.116E+01    0.663E-01
DAV:   3    -0.435825392864E+02    0.16883E-01   -0.18374E-01  1578   0.227E+00    0.166E-01
DAV:   4    -0.435836488701E+02   -0.11096E-02   -0.19151E-02  1572   0.708E-01    0.190E-01
DAV:   5    -0.435829040689E+02    0.74480E-03   -0.15879E-03  1530   0.221E-01    0.980E-02
DAV:   6    -0.435826162149E+02    0.28785E-03   -0.11455E-03  1630   0.161E-01    0.370E-02
DAV:   7    -0.435825517871E+02    0.64428E-04   -0.19332E-04  1500   0.701E-02    0.180E-02
DAV:   8    -0.435825513896E+02    0.39752E-06   -0.79757E-05  1786   0.405E-02    0.173E-02
DAV:   9    -0.435825429518E+02    0.84379E-05   -0.11216E-04  1524   0.545E-02    0.881E-03
DAV:  10    -0.435825411993E+02    0.17525E-05   -0.28977E-05  1662   0.304E-02    0.463E-03
DAV:  11    -0.435825415916E+02   -0.39233E-06   -0.14992E-05  1580   0.204E-02    0.578E-03
DAV:  12    -0.435825407012E+02    0.89043E-06   -0.37679E-06  1146   0.113E-02
  15 F= -.44822728E+02 E0= -.44822728E+02  d E =0.238167E-01
       N       E                     dE             d eps       ncg     rms          rms(c)
DAV:   1    -0.436177315743E+02   -0.35190E-01   -0.70933E+00  1232   0.129E+01    0.955E-01
DAV:   2    -0.435869485479E+02    0.30783E-01   -0.55244E-01  1232   0.448E+00    0.149E-01
DAV:   3    -0.435873626320E+02   -0.41408E-03   -0.14054E-02  1268   0.813E-01    0.437E-02
DAV:   4    -0.435875141294E+02   -0.15150E-03   -0.16400E-03  1796   0.191E-01    0.493E-02
DAV:   5    -0.435875632022E+02   -0.49073E-04   -0.77023E-05  1810   0.518E-02    0.635E-02
DAV:   6    -0.435875326523E+02    0.30550E-04   -0.25314E-05  1406   0.248E-02    0.587E-02
DAV:   7    -0.435874667035E+02    0.65949E-04   -0.81985E-05  1652   0.472E-02    0.377E-02
DAV:   8    -0.435874527069E+02    0.13997E-04   -0.56537E-05  1390   0.389E-02    0.280E-02
DAV:   9    -0.435874201655E+02    0.32541E-04   -0.13577E-04  1478   0.589E-02    0.162E-02
DAV:  10    -0.435874159200E+02    0.42455E-05   -0.11288E-05  1468   0.193E-02    0.107E-02
DAV:  11    -0.435874141008E+02    0.18191E-05   -0.68724E-06  1486   0.115E-02    0.457E-03
DAV:  12    -0.435874142138E+02   -0.11298E-06   -0.33261E-06  1198   0.852E-03
  16 F= -.44830863E+02 E0= -.44830863E+02  d E =-.813484E-02
       N       E                     dE             d eps       ncg     rms          rms(c)
DAV:   1    -0.436020864438E+02   -0.14672E-01   -0.29132E+00  1232   0.845E+00    0.657E-01
DAV:   2    -0.435849348018E+02    0.17152E-01   -0.18568E-01  1232   0.276E+00    0.716E-02
DAV:   3    -0.435865522143E+02   -0.16174E-02   -0.15053E-02  1400   0.593E-01    0.227E-01
DAV:   4    -0.435852910191E+02    0.12612E-02   -0.82819E-03  1340   0.397E-01    0.426E-02
DAV:   5    -0.435852724941E+02    0.18525E-04   -0.20744E-04  1378   0.784E-02    0.172E-02
DAV:   6    -0.435852669768E+02    0.55172E-05   -0.36095E-05  1668   0.285E-02    0.252E-03
DAV:   7    -0.435852671154E+02   -0.13853E-06   -0.16482E-06   774   0.810E-03
  17 F= -.44825788E+02 E0= -.44825788E+02  d E =0.507554E-02
       N       E                     dE             d eps       ncg     rms          rms(c)
DAV:   1    -0.438970180524E+02   -0.31175E+00   -0.75630E+01  1232   0.438E+01    0.327E+00
DAV:   2    -0.436077732268E+02    0.28924E+00   -0.62424E+00  1262   0.155E+01    0.169E+00
DAV:   3    -0.435788462412E+02    0.28927E-01   -0.41675E-01  1262   0.407E+00    0.601E-01
DAV:   4    -0.435684597533E+02    0.10386E-01   -0.65940E-02  1412   0.127E+00    0.139E-01
DAV:   5    -0.435686223736E+02   -0.16262E-03   -0.39113E-03  1716   0.315E-01    0.971E-02
DAV:   6    -0.435682330534E+02    0.38932E-03   -0.16214E-03  1388   0.176E-01    0.336E-02
DAV:   7    -0.438980950884E+02   -0.32986E+00   -0.10930E+00  1388   0.407E+00    0.302E+00
DAV:   8    -0.435672699991E+02    0.33083E+00   -0.10819E+00  1382   0.416E+00    0.973E-02
DAV:   9    -0.435682116911E+02   -0.94169E-03   -0.14030E-02  1568   0.582E-01    0.269E-02
DAV:  10    -0.435682155059E+02   -0.38148E-05   -0.25775E-04  1696   0.845E-02    0.134E-02
DAV:  11    -0.435682097114E+02    0.57946E-05   -0.36820E-05  1440   0.280E-02    0.106E-02
DAV:  12    -0.435682104629E+02   -0.75150E-06   -0.13761E-06   946   0.641E-03
  18 F= -.44796493E+02 E0= -.44796493E+02  d E =0.292945E-01
       N       E                     dE             d eps       ncg     rms          rms(c)
DAV:   1    -0.436541674591E+02   -0.85958E-01   -0.16113E+01  1232   0.194E+01    0.146E+00
DAV:   2    -0.435903449045E+02    0.63823E-01   -0.10015E+00  1232   0.647E+00    0.653E-01
DAV:   3    -0.436150073308E+02   -0.24662E-01   -0.98755E-02  1584   0.161E+00    0.120E+00
DAV:   4    -0.436572994730E+02   -0.42292E-01   -0.45443E-02  1528   0.983E-01    0.149E+00
DAV:   5    -0.442011540060E+02   -0.54385E+00   -0.58831E+00  1334   0.110E+01    0.307E+00
DAV:   6    -0.435768484409E+02    0.62431E+00   -0.24645E+00  1322   0.750E+00    0.596E-01
DAV:   7    -0.435776597013E+02   -0.81126E-03   -0.21993E-01  1586   0.226E+00    0.112E-01
DAV:   8    -0.435785398590E+02   -0.88016E-03   -0.74186E-03  1516   0.528E-01    0.177E-01
DAV:   9    -0.435780454327E+02    0.49443E-03   -0.10737E-03  1400   0.175E-01    0.112E-01
DAV:  10    -0.435779147074E+02    0.13073E-03   -0.58208E-04  1602   0.116E-01    0.369E-02
DAV:  11    -0.435778929698E+02    0.21738E-04   -0.64822E-05  1480   0.463E-02    0.171E-02
DAV:  12    -0.435789611355E+02   -0.10682E-02   -0.39958E-03  1436   0.358E-01    0.234E-01
DAV:  13    -0.435778861393E+02    0.10750E-02   -0.25733E-03  1352   0.306E-01    0.421E-02
DAV:  14    -0.435779038131E+02   -0.17674E-04   -0.77687E-04  1448   0.135E-01    0.228E-02
DAV:  15    -0.435778941502E+02    0.96629E-05   -0.54543E-05  1328   0.438E-02    0.206E-02
DAV:  16    -0.435778898817E+02    0.42685E-05   -0.23774E-05  1430   0.251E-02    0.922E-03
DAV:  17    -0.435778885000E+02    0.13817E-05   -0.74248E-06  1416   0.165E-02    0.146E-03
DAV:  18    -0.435778887525E+02   -0.25251E-06   -0.12639E-06   676   0.698E-03
  19 F= -.44810097E+02 E0= -.44810097E+02  d E =-.136039E-01
       N       E                     dE             d eps       ncg     rms          rms(c)
DAV:   1    -0.436064000201E+02   -0.28512E-01   -0.58082E+00  1232   0.119E+01    0.926E-01
DAV:   2    -0.435725228713E+02    0.33877E-01   -0.38768E-01  1232   0.395E+00    0.157E-01
DAV:   3    -0.435736321678E+02   -0.11093E-02   -0.14681E-02  1812   0.704E-01    0.981E-02
DAV:   4    -0.435734988948E+02    0.13327E-03   -0.29484E-04  1492   0.103E-01    0.745E-02
DAV:   5    -0.435733761730E+02    0.12272E-03   -0.53808E-04  1668   0.113E-01    0.330E-02
DAV:   6    -0.435733618602E+02    0.14313E-04   -0.46241E-05  1420   0.397E-02    0.315E-02
DAV:   7    -0.435733363223E+02    0.25538E-04   -0.50479E-05  1496   0.313E-02    0.201E-02
DAV:   8    -0.435733238805E+02    0.12442E-04   -0.63052E-05  1546   0.365E-02    0.365E-03
DAV:   9    -0.435733237101E+02    0.17047E-06   -0.35498E-06  1052   0.138E-02
  20 F= -.44802279E+02 E0= -.44802279E+02  d E =0.781825E-02
       N       E                     dE             d eps       ncg     rms          rms(c)
DAV:   1    -0.440987171649E+02   -0.52539E+00   -0.17811E+02  1232   0.679E+01    0.499E+00
DAV:   2    -0.435790014693E+02    0.51972E+00   -0.11398E+01  1232   0.216E+01    0.119E+00
DAV:   3    -0.435637027328E+02    0.15299E-01   -0.40232E-01  1660   0.418E+00    0.907E-01
DAV:   4    -0.435406720884E+02    0.23031E-01   -0.32740E-02  1400   0.994E-01    0.602E-01
DAV:   5    -0.435240635364E+02    0.16609E-01   -0.16468E-01  1460   0.176E+00    0.466E-01
DAV:   6    -0.435215374265E+02    0.25261E-02   -0.69785E-03  1564   0.548E-01    0.326E-01
DAV:   7    -0.435195927387E+02    0.19447E-02   -0.44479E-03  1626   0.339E-01    0.183E-01
DAV:   8    -0.435190117233E+02    0.58102E-03   -0.63478E-03  1720   0.413E-01    0.509E-02
DAV:   9    -0.435190208946E+02   -0.91714E-05   -0.68120E-04  1424   0.157E-01    0.498E-02
DAV:  10    -0.435190114027E+02    0.94919E-05   -0.79820E-05  1452   0.563E-02    0.345E-02
DAV:  11    -0.435189860138E+02    0.25389E-04   -0.42603E-05  1652   0.319E-02    0.219E-02
DAV:  12    -0.435189781511E+02    0.78627E-05   -0.38178E-05  1388   0.296E-02    0.888E-03
DAV:  13    -0.435189771182E+02    0.10329E-05   -0.12703E-05  1644   0.164E-02    0.367E-03
DAV:  14    -0.435189781425E+02   -0.10243E-05   -0.40742E-06  1140   0.113E-02    0.759E-03
DAV:  15    -0.435189762743E+02    0.18682E-05   -0.57570E-06  1144   0.142E-02    0.245E-03
DAV:  16    -0.435189767844E+02   -0.51007E-06   -0.45454E-06  1154   0.106E-02
  21 F= -.44735754E+02 E0= -.44735754E+02  d E =0.665246E-01
       N       E                     dE             d eps       ncg     rms          rms(c)
DAV:   1    -0.440612730197E+02   -0.54230E+00   -0.91457E+01  1232   0.457E+01    0.361E+00
DAV:   2    -0.440266201853E+02    0.34653E-01   -0.95084E+00  1248   0.165E+01    0.377E+00
DAV:   3    -0.440447358570E+02   -0.18116E-01   -0.31901E-01  1728   0.317E+00    0.394E+00
DAV:   4    -0.449255155712E+02   -0.88078E+00   -0.54438E+00  1308   0.133E+01    0.891E+00
DAV:   5    -0.530997614482E+02   -0.81742E+01   -0.43061E+01  1484   0.333E+01    0.148E+01
DAV:   6    -0.518280852544E+02    0.12717E+01   -0.32257E+00  1474   0.113E+01    0.141E+01
DAV:   7    -0.443187636537E+02    0.75093E+01   -0.19462E+01  1412   0.192E+01    0.489E+00
DAV:   8    -0.435569634474E+02    0.76180E+00   -0.68637E+00  1748   0.121E+01    0.639E-01
DAV:   9    -0.436562830803E+02   -0.99320E-01   -0.38398E-01  1610   0.335E+00    0.168E+00
DAV:  10    -0.435830438078E+02    0.73239E-01   -0.18133E-01  1592   0.211E+00    0.737E-01
DAV:  11    -0.435778101182E+02    0.52337E-02   -0.18683E-02  1542   0.808E-01    0.672E-01
DAV:  12    -0.435689730433E+02    0.88371E-02   -0.12840E-02  1512   0.490E-01    0.429E-01
DAV:  13    -0.435632211894E+02    0.57519E-02   -0.13363E-02  1494   0.524E-01    0.186E-01
DAV:  14    -0.435624685182E+02    0.75267E-03   -0.33283E-03  1850   0.297E-01    0.105E-01
DAV:  15    -0.435623093137E+02    0.15920E-03   -0.46300E-04  1658   0.114E-01    0.638E-02
DAV:  16    -0.435622205285E+02    0.88785E-04   -0.29979E-04  1752   0.832E-02    0.315E-02
DAV:  17    -0.435621911651E+02    0.29363E-04   -0.12406E-04  1718   0.515E-02    0.782E-03
DAV:  18    -0.435621969105E+02   -0.57455E-05   -0.10802E-04  1624   0.498E-02    0.166E-02
DAV:  19    -0.435621896870E+02    0.72236E-05   -0.21055E-05  1730   0.271E-02    0.810E-03
DAV:  20    -0.435621878535E+02    0.18335E-05   -0.10367E-05  1602   0.148E-02    0.110E-03
DAV:  21    -0.435621876363E+02    0.21717E-06   -0.53803E-07   874   0.481E-03
  22 F= -.44784789E+02 E0= -.44784789E+02  d E =-.490349E-01
       N       E                     dE             d eps       ncg     rms          rms(c)
DAV:   1    -0.436424335966E+02   -0.80246E-01   -0.16745E+01  1232   0.204E+01    0.158E+00
DAV:   2    -0.435741729819E+02    0.68261E-01   -0.14542E+00  1268   0.754E+00    0.904E-01
DAV:   3    -0.435574294869E+02    0.16743E-01   -0.60095E-02  1268   0.183E+00    0.540E-01
DAV:   4    -0.435509483055E+02    0.64812E-02   -0.11519E-01  1336   0.151E+00    0.271E-01
DAV:   5    -0.435489349118E+02    0.20134E-02   -0.94993E-03  1432   0.618E-01    0.112E-01
DAV:   6    -0.435486951919E+02    0.23972E-03   -0.36229E-03  1574   0.271E-01    0.455E-02
DAV:   7    -0.435487895600E+02   -0.94368E-04   -0.24311E-04  1784   0.841E-02    0.600E-02
DAV:   8    -0.435488273825E+02   -0.37823E-04   -0.24717E-03  1480   0.229E-01    0.648E-02
DAV:   9    -0.435487269256E+02    0.10046E-03   -0.22155E-04  1532   0.912E-02    0.373E-02
DAV:  10    -0.435487021099E+02    0.24816E-04   -0.97832E-05  1704   0.475E-02    0.278E-02
DAV:  11    -0.435486844208E+02    0.17689E-04   -0.65585E-05  1536   0.370E-02    0.118E-02
DAV:  12    -0.435486895293E+02   -0.51085E-05   -0.12190E-05  1386   0.188E-02    0.173E-02
DAV:  13    -0.435486855954E+02    0.39339E-05   -0.38140E-06  1050   0.113E-02    0.108E-02
DAV:  14    -0.435486833835E+02    0.22119E-05   -0.19503E-05  1426   0.196E-02    0.341E-03
DAV:  15    -0.435486829056E+02    0.47788E-06   -0.19329E-06   738   0.972E-03
  23 F= -.44767049E+02 E0= -.44767049E+02  d E =0.177398E-01
       N       E                     dE             d eps       ncg     rms          rms(c)
DAV:   1     0.293628061836E+03    0.33718E+03   -0.63575E+03  1764   0.312E+02    0.397E+01
DAV:   2    -0.194687138371E+03   -0.48832E+03   -0.43366E+03  2152   0.247E+02    0.605E+01
DAV:   3     0.253796617575E+03    0.44848E+03   -0.76615E+03  1932   0.252E+02    0.283E+01
DAV:   4     0.218294270724E+03   -0.35502E+02   -0.10416E+03  1792   0.134E+02    0.232E+01
DAV:   5     0.206224260742E+03   -0.12070E+02   -0.11629E+02  1744   0.430E+01    0.266E+01
DAV:   6     0.225712534279E+03    0.19488E+02   -0.36559E+01  1752   0.154E+01    0.252E+01
DAV:   7     0.230829482502E+03    0.51169E+01   -0.24042E+01  1590   0.158E+01    0.245E+01
DAV:   8     0.222243796909E+03   -0.85857E+01   -0.11447E+01  1590   0.151E+01    0.273E+01
DAV:   9     0.225320548553E+03    0.30768E+01   -0.11051E+01  1636   0.118E+01    0.291E+01
DAV:  10     0.223583759839E+03   -0.17368E+01   -0.39925E+00  1510   0.733E+00    0.300E+01
DAV:  11     0.223904049663E+03    0.32029E+00   -0.10222E+00  1422   0.387E+00    0.302E+01
DAV:  12     0.225093392323E+03    0.11893E+01   -0.47976E-01  1528   0.253E+00    0.302E+01
DAV:  13     0.227902875561E+03    0.28095E+01   -0.12401E+00  1442   0.351E+00    0.292E+01
DAV:  14     0.229930639264E+03    0.20278E+01   -0.14749E+00  1400   0.417E+00    0.290E+01
DAV:  15     0.231831577493E+03    0.19009E+01   -0.39539E-01  1556   0.306E+00    0.285E+01
DAV:  16     0.230997443153E+03   -0.83413E+00   -0.56627E-02  1526   0.156E+00    0.287E+01
DAV:  17     0.231870978643E+03    0.87354E+00   -0.15033E-01  1504   0.173E+00    0.283E+01
DAV:  18     0.232130871644E+03    0.25989E+00   -0.26087E-01  1504   0.218E+00    0.278E+01
DAV:  19     0.231283412512E+03   -0.84746E+00   -0.13644E-01  1462   0.169E+00    0.277E+01
DAV:  20     0.230351218437E+03   -0.93219E+00   -0.28718E-02  1528   0.826E-01    0.279E+01
DAV:  21     0.229625129913E+03   -0.72609E+00   -0.38231E-02  1570   0.105E+00    0.283E+01
DAV:  22     0.230024225263E+03    0.39910E+00   -0.44778E-03  1460   0.409E-01    0.282E+01
DAV:  23     0.230265454450E+03    0.24123E+00   -0.22206E-03  1496   0.224E-01    0.281E+01
DAV:  24     0.230880215927E+03    0.61476E+00   -0.18668E-02  1470   0.736E-01    0.278E+01
DAV:  25     0.231134040169E+03    0.25382E+00   -0.37334E-03  1660   0.331E-01    0.277E+01
DAV:  26     0.229825360160E+03   -0.13087E+01   -0.12965E-01  1352   0.201E+00    0.284E+01
DAV:  27     0.231696411558E+03    0.18711E+01   -0.20170E-01  1322   0.258E+00    0.274E+01
DAV:  28     0.234746285774E+03    0.30499E+01   -0.50471E-01  1498   0.378E+00    0.258E+01
DAV:  29     0.237677853193E+03    0.29316E+01   -0.35890E-01  1510   0.310E+00    0.246E+01
DAV:  30     0.246348243795E+03    0.86704E+01   -0.35269E+00  1420   0.955E+00    0.206E+01
DAV:  31     0.258621934499E+03    0.12274E+02   -0.15842E+01  1460   0.192E+01    0.120E+01
DAV:  32     0.258506296347E+03   -0.11564E+00   -0.58123E-01  1626   0.427E+00    0.120E+01
DAV:  33     0.258694042034E+03    0.18775E+00   -0.29585E-02  1706   0.878E-01    0.117E+01
DAV:  34     0.259627660269E+03    0.93362E+00   -0.91647E-01  1502   0.434E+00    0.105E+01
DAV:  35     0.261180362573E+03    0.15527E+01   -0.12256E+00  1440   0.537E+00    0.782E+00
DAV:  36     0.262599305109E+03    0.14189E+01   -0.27007E+00  1556   0.777E+00    0.422E+00
DAV:  37     0.262849694791E+03    0.25039E+00   -0.37901E-01  1688   0.274E+00    0.323E+00
DAV:  38     0.263066887493E+03    0.21719E+00   -0.61273E-01  1588   0.363E+00    0.177E+00
DAV:  39     0.263097808611E+03    0.30921E-01   -0.21565E-01  1642   0.231E+00    0.889E-01
DAV:  40     0.263115723903E+03    0.17915E-01   -0.46181E-02  1688   0.118E+00    0.452E-01
DAV:  41     0.263154547007E+03    0.38823E-01   -0.20742E-02  1544   0.599E-01    0.430E-01
DAV:  42     0.263185505122E+03    0.30958E-01   -0.30230E-02  1714   0.922E-01    0.156E-01
DAV:  43     0.263402583665E+03    0.21708E+00   -0.40159E-01  1358   0.317E+00    0.110E+00
DAV:  44     0.263197464112E+03   -0.20512E+00   -0.28106E-01  1316   0.236E+00    0.824E-02
DAV:  45     0.263191710599E+03   -0.57535E-02   -0.84462E-03  1568   0.446E-01    0.595E-02
DAV:  46     0.263191194318E+03   -0.51628E-03   -0.86322E-04  1482   0.168E-01    0.280E-02
DAV:  47     0.263190086711E+03   -0.11076E-02   -0.15679E-04  1594   0.793E-02    0.154E-02
DAV:  48     0.263189923471E+03   -0.16324E-03   -0.10762E-04  1626   0.559E-02    0.113E-02
DAV:  49     0.263189881304E+03   -0.42166E-04   -0.23798E-05  1392   0.290E-02    0.505E-03
DAV:  50     0.263189868460E+03   -0.12845E-04   -0.93570E-06  1444   0.180E-02    0.377E-03
DAV:  51     0.263189868113E+03   -0.34652E-06   -0.76758E-07  1016   0.579E-03
  24 F= 0.26176062E+03 E0= 0.26178333E+03  d E =0.306528E+03
       N       E                     dE             d eps       ncg     rms          rms(c)
DAV:   1    -0.721531755711E+02   -0.33534E+03   -0.17668E+04  2034   0.796E+02    0.487E+01
DAV:   2    -0.177429539174E+03   -0.10528E+03   -0.31904E+03  1604   0.306E+02    0.545E+01
DAV:   3    -0.131204182793E+03    0.46225E+02   -0.42491E+02  1774   0.104E+02    0.454E+01
DAV:   4    -0.198263400795E+03   -0.67059E+02   -0.35089E+02  1712   0.934E+01    0.496E+01
DAV:   5    -0.203523779535E+03   -0.52604E+01   -0.54774E+01  1658   0.422E+01    0.512E+01
