 vasp.5.4.4.18Apr17-6-g9f103f2a35 (build Jun 30 2017 11:15:00) complex          
  
 executed on    STALLO_VASP_5.4.4 date 2019.11.08  13:45:25
 running on    4 total cores
 distrk:  each k-point on    4 cores,    1 groups
 distr:  one band on NCORES_PER_BAND=   2 cores,    2 groups


--------------------------------------------------------------------------------------------------------


 INCAR:
 POTCAR:   PAW_PBE Mo 08Apr2002                   
 POTCAR:    PAW_PBE S 17Jan2003                   
 POTCAR:   PAW_PBE Mo 08Apr2002                   
  local pseudopotential read in
  partial core-charges read in
  atomic valenz-charges read in
  non local Contribution for L=           2  read in
    real space projection operators read in
  non local Contribution for L=           2  read in
    real space projection operators read in
  non local Contribution for L=           0  read in
    real space projection operators read in
  non local Contribution for L=           0  read in
    real space projection operators read in
  non local Contribution for L=           1  read in
    real space projection operators read in
  non local Contribution for L=           1  read in
    real space projection operators read in
    PAW grid and wavefunctions read in
 
   number of l-projection  operators is LMAX  =           6
   number of lm-projection operators is LMMAX =          18
 
 POTCAR:    PAW_PBE S 17Jan2003                   
  local pseudopotential read in
  partial core-charges read in
  atomic valenz-charges read in
  non local Contribution for L=           0  read in
    real space projection operators read in
  non local Contribution for L=           0  read in
    real space projection operators read in
  non local Contribution for L=           1  read in
    real space projection operators read in
  non local Contribution for L=           1  read in
    real space projection operators read in
    PAW grid and wavefunctions read in
 
   number of l-projection  operators is LMAX  =           4
   number of lm-projection operators is LMMAX =           8
 
 PAW_PBE Mo 08Apr2002                   :
 energy of atom  1       EATOM= -217.5180
 kinetic energy error for atom=    0.0023 (will be added to EATOM!!)
  PAW_PBE S 17Jan2003                   :
 energy of atom  2       EATOM= -276.8230
 kinetic energy error for atom=    0.0033 (will be added to EATOM!!)
 
 
 POSCAR: MoS2_mp-2815_computed                   
  positions in direct lattice
  No initial velocities read in
 exchange correlation table for  LEXCH =        8
   RHO(1)=    0.500       N(1)  =     2000
   RHO(2)=  100.500       N(2)  =     4000
 


--------------------------------------------------------------------------------------------------------


 ion  position               nearest neighbor table
   1  0.333  0.667  0.250-   5 2.42   4 2.42   4 2.42   5 2.42   5 2.42   4 2.42
   2  0.667  0.333  0.750-   6 2.42   3 2.42   3 2.42   6 2.42   6 2.42   3 2.42
   3  0.333  0.667  0.855-   2 2.42   2 2.42   2 2.42
   4  0.667  0.333  0.145-   1 2.42   1 2.42   1 2.42
   5  0.667  0.333  0.355-   1 2.42   1 2.42   1 2.42
   6  0.333  0.667  0.645-   2 2.42   2 2.42   2 2.42
 
  LATTYP: Found a hexagonal cell.
 ALAT       =     3.1903157300
 C/A-ratio  =     4.6638030713
  
  Lattice vectors:
  
 A1 = (   3.1903157300,   0.0000000000,   0.0000000000)
 A2 = (  -1.5951578650,   2.7628944683,   0.0000000000)
 A3 = (   0.0000000000,   0.0000000000,  14.8790043000)


Analysis of symmetry for initial positions (statically):
=====================================================================
 Subroutine PRICEL returns:
 Original cell was already a primitive cell.
 

 Routine SETGRP: Setting up the symmetry group for a 
 hexagonal supercell.


 Subroutine GETGRP returns: Found 24 space group operations
 (whereof 12 operations were pure point group operations)
 out of a pool of 24 trial point group operations.


The static configuration has the point symmetry D_3d.
 The point group associated with its full space group is D_6h.


Analysis of symmetry for dynamics (positions and initial velocities):
=====================================================================
 Subroutine PRICEL returns:
 Original cell was already a primitive cell.
 

 Routine SETGRP: Setting up the symmetry group for a 
 hexagonal supercell.


 Subroutine GETGRP returns: Found 24 space group operations
 (whereof 12 operations were pure point group operations)
 out of a pool of 24 trial point group operations.


The dynamic configuration has the point symmetry D_3d.
 The point group associated with its full space group is D_6h.


 Subroutine INISYM returns: Found 24 space group operations
 (whereof 12 operations are pure point group operations),
 and found     1 'primitive' translations

 
 
 KPOINTS: k-density: 5.0                          

Automatic generation of k-mesh.
Space group operators:
 irot       det(A)        alpha          n_x          n_y          n_z        tau_x        tau_y        tau_z
    1     1.000000     0.000001     1.000000     0.000000     0.000000     0.000000     0.000000     0.000000
    2    -1.000000     0.000001     1.000000     0.000000     0.000000     0.000000     0.000000     0.000000
    3     1.000000   120.000000     0.000000     0.000000    -1.000000     0.000000     0.000000     0.000000
    4    -1.000000   120.000000     0.000000     0.000000    -1.000000     0.000000     0.000000     0.000000
    5     1.000000   120.000000     0.000000     0.000000     1.000000     0.000000     0.000000     0.000000
    6    -1.000000   120.000000     0.000000     0.000000     1.000000     0.000000     0.000000     0.000000
    7     1.000000   179.999999     1.000000    -0.000000     0.000000     0.000000     0.000000     0.000000
    8    -1.000000   179.999999     1.000000    -0.000000     0.000000     0.000000     0.000000     0.000000
    9     1.000000   180.000000     0.500000    -0.866025     0.000000     0.000000     0.000000     0.000000
   10    -1.000000   180.000000     0.500000    -0.866025     0.000000     0.000000     0.000000     0.000000
   11     1.000000   180.000000    -0.500000    -0.866025     0.000000     0.000000     0.000000     0.000000
   12    -1.000000   180.000000    -0.500000    -0.866025     0.000000     0.000000     0.000000     0.000000
   13     1.000000    60.000000     0.000000     0.000000    -1.000000     0.000001     0.000000     0.500000
   14    -1.000000    60.000000     0.000000     0.000000    -1.000000     0.000001     0.000000     0.500000
   15     1.000000   180.000000     0.000000     0.000000     1.000000     0.000000     0.000000     0.500000
   16    -1.000000   180.000000     0.000000     0.000000     1.000000     0.000000     0.000000     0.500000
   17     1.000000    60.000000     0.000000     0.000000     1.000000     0.000000     0.000000     0.500000
   18    -1.000000    60.000000     0.000000     0.000000     1.000000     0.000000     0.000000     0.500000
   19     1.000000   179.999999     0.866025    -0.500000     0.000000     0.000000     0.000000     0.500000
   20    -1.000000   179.999999     0.866025    -0.500000     0.000000     0.000000     0.000000     0.500000
   21     1.000000   180.000000     0.000000     1.000000     0.000000     0.000001     0.000000     0.500000
   22    -1.000000   180.000000     0.000000     1.000000     0.000000     0.000001     0.000000     0.500000
   23     1.000000   179.999999     0.866025     0.500000     0.000000     0.000000     0.000000     0.500000
   24    -1.000000   179.999999     0.866025     0.500000     0.000000     0.000000     0.000000     0.500000
 
 Subroutine IBZKPT returns following result:
 ===========================================
 
 Found     28 irreducible k-points:
 
 Following reciprocal coordinates:
            Coordinates               Weight
  0.000000  0.000000  0.000000      1.000000
  0.100000 -0.000000  0.000000      6.000000
  0.200000  0.000000  0.000000      6.000000
  0.300000 -0.000000  0.000000      6.000000
  0.400000  0.000000  0.000000      6.000000
  0.500000  0.000000  0.000000      3.000000
  0.100000  0.100000  0.000000      6.000000
  0.200000  0.100000  0.000000     12.000000
  0.300000  0.100000  0.000000     12.000000
  0.400000  0.100000  0.000000     12.000000
  0.200000  0.200000  0.000000      6.000000
  0.300000  0.200000  0.000000     12.000000
  0.400000  0.200000  0.000000      6.000000
  0.300000  0.300000  0.000000      6.000000
  0.000000  0.000000  0.333333      2.000000
  0.100000 -0.000000  0.333333     12.000000
  0.200000  0.000000  0.333333     12.000000
  0.300000 -0.000000  0.333333     12.000000
  0.400000  0.000000  0.333333     12.000000
  0.500000  0.000000  0.333333      6.000000
  0.100000  0.100000  0.333333     12.000000
  0.200000  0.100000  0.333333     24.000000
  0.300000  0.100000  0.333333     24.000000
  0.400000  0.100000  0.333333     24.000000
  0.200000  0.200000  0.333333     12.000000
  0.300000  0.200000  0.333333     24.000000
  0.400000  0.200000  0.333333     12.000000
  0.300000  0.300000  0.333333     12.000000
 
 Following cartesian coordinates:
            Coordinates               Weight
  0.000000  0.000000  0.000000      1.000000
  0.031345  0.018097  0.000000      6.000000
  0.062690  0.036194  0.000000      6.000000
  0.094035  0.054291  0.000000      6.000000
  0.125379  0.072388  0.000000      6.000000
  0.156724  0.090485  0.000000      3.000000
  0.031345  0.054291  0.000000      6.000000
  0.062690  0.072388  0.000000     12.000000
  0.094035  0.090485  0.000000     12.000000
  0.125379  0.108582  0.000000     12.000000
  0.062690  0.108582  0.000000      6.000000
  0.094035  0.126679  0.000000     12.000000
  0.125379  0.144776  0.000000      6.000000
  0.094035  0.162873  0.000000      6.000000
  0.000000  0.000000  0.022403      2.000000
  0.031345  0.018097  0.022403     12.000000
  0.062690  0.036194  0.022403     12.000000
  0.094035  0.054291  0.022403     12.000000
  0.125379  0.072388  0.022403     12.000000
  0.156724  0.090485  0.022403      6.000000
  0.031345  0.054291  0.022403     12.000000
  0.062690  0.072388  0.022403     24.000000
  0.094035  0.090485  0.022403     24.000000
  0.125379  0.108582  0.022403     24.000000
  0.062690  0.108582  0.022403     12.000000
  0.094035  0.126679  0.022403     24.000000
  0.125379  0.144776  0.022403     12.000000
  0.094035  0.162873  0.022403     12.000000
 


--------------------------------------------------------------------------------------------------------




 Dimension of arrays:
   k-points           NKPTS =     28   k-points in BZ     NKDIM =     28   number of bands    NBANDS=     22
   number of dos      NEDOS =    301   number of ions     NIONS =      6
   non local maximal  LDIM  =      6   non local SUM 2l+1 LMDIM =     18
   total plane-waves  NPLWV =  62208
   max r-space proj   IRMAX =      1   max aug-charges    IRDMAX=  30650
   dimension x,y,z NGX =    24 NGY =   24 NGZ =  108
   dimension x,y,z NGXF=    48 NGYF=   48 NGZF=  216
   support grid    NGXF=    48 NGYF=   48 NGZF=  216
   ions per type =               2   4
   NGX,Y,Z   is equivalent  to a cutoff of  12.51, 12.51, 12.07 a.u.
   NGXF,Y,Z  is equivalent  to a cutoff of  25.01, 25.01, 24.13 a.u.

 SYSTEM =  unknown system                          
 POSCAR =  MoS2_mp-2815_computed                   

 Startparameter for this run:
   NWRITE =      1    write-flag & timer
   PREC   = accura    normal or accurate (medium, high low for compatibility)
   ISTART =      0    job   : 0-new  1-cont  2-samecut
   ICHARG =      2    charge: 1-file 2-atom 10-const
   ISPIN  =      1    spin polarized calculation?
   LNONCOLLINEAR =      F non collinear calculations
   LSORBIT =      F    spin-orbit coupling
   INIWAV =      1    electr: 0-lowe 1-rand  2-diag
   LASPH  =      F    aspherical Exc in radial PAW
   METAGGA=      F    non-selfconsistent MetaGGA calc.

 Electronic Relaxation 1
   ENCUT  =  450.0 eV  33.07 Ry    5.75 a.u.   5.52  5.52 25.74*2*pi/ulx,y,z
   ENINI  =  450.0     initial cutoff
   ENAUG  =  345.3 eV  augmentation charge cutoff
   NELM   =    200;   NELMIN=  4; NELMDL=  0     # of ELM steps 
   EDIFF  = 0.1E-05   stopping-criterion for ELM
   LREAL  =      F    real-space projection
   NLSPLINE    = F    spline interpolate recip. space projectors
   LCOMPAT=      F    compatible to vasp.4.4
   GGA_COMPAT  = T    GGA compatible to vasp.4.4-vasp.4.6
   LMAXPAW     = -100 max onsite density
   LMAXMIX     =    2 max onsite mixed and CHGCAR
   VOSKOWN=      0    Vosko Wilk Nusair interpolation
   ROPT   =    0.00000   0.00000
 Ionic relaxation
   EDIFFG = -.1E-01   stopping-criterion for IOM
   NSW    =     80    number of steps for IOM
   NBLOCK =      1;   KBLOCK =     80    inner block; outer block 
   IBRION =      1    ionic relax: 0-MD 1-quasi-New 2-CG
   NFREE  =      0    steps in history (QN), initial steepest desc. (CG)
   ISIF   =      3    stress and relaxation
   IWAVPR =     11    prediction:  0-non 1-charg 2-wave 3-comb
   ISYM   =      2    0-nonsym 1-usesym 2-fastsym
   LCORR  =      T    Harris-Foulkes like correction to forces

   POTIM  = 0.5000    time-step for ionic-motion
   TEIN   =    0.0    initial temperature
   TEBEG  =    0.0;   TEEND  =   0.0 temperature during run
   SMASS  =  -3.00    Nose mass-parameter (am)
   estimated Nose-frequenzy (Omega)   =  0.10E-29 period in steps =****** mass=  -0.233E-27a.u.
   SCALEE = 1.0000    scale energy and forces
   NPACO  =    256;   APACO  = 16.0  distance and # of slots for P.C.
   PSTRESS=    0.0 pullay stress

  Mass of Ions in am
   POMASS =  95.94 32.07
  Ionic Valenz
   ZVAL   =   6.00  6.00
  Atomic Wigner-Seitz radii
   RWIGS  =  -1.00 -1.00
  virtual crystal weights 
   VCA    =   1.00  1.00
   NELECT =      36.0000    total number of electrons
   NUPDOWN=      -1.0000    fix difference up-down

 DOS related values:
   EMIN   =  10.00;   EMAX   =-10.00  energy-range for DOS
   EFERMI =   0.00
   ISMEAR =     0;   SIGMA  =   0.20  broadening in eV -4-tet -1-fermi 0-gaus

 Electronic relaxation 2 (details)
   IALGO  =     38    algorithm
   LDIAG  =      T    sub-space diagonalisation (order eigenvalues)
   LSUBROT=      F    optimize rotation matrix (better conditioning)
   TURBO    =      0    0=normal 1=particle mesh
   IRESTART =      0    0=no restart 2=restart with 2 vectors
   NREBOOT  =      0    no. of reboots
   NMIN     =      0    reboot dimension
   EREF     =   0.00    reference energy to select bands
   IMIX   =      4    mixing-type and parameters
     AMIX     =   0.40;   BMIX     =  1.00
     AMIX_MAG =   1.60;   BMIX_MAG =  1.00
     AMIN     =   0.10
     WC   =   100.;   INIMIX=   1;  MIXPRE=   1;  MAXMIX=  80

 Intra band minimization:
   WEIMIN = 0.0010     energy-eigenvalue tresh-hold
   EBREAK =  0.11E-07  absolut break condition
   DEPER  =   0.30     relativ break condition  

   TIME   =   0.40     timestep for ELM

  volume/ion in A,a.u.               =      21.86       147.51
  Fermi-wavevector in a.u.,A,eV,Ry     =   1.063943  2.010561 15.401453  1.131975
  Thomas-Fermi vector in A             =   2.199445
 
 Write flags
   LWAVE        =      T    write WAVECAR
   LDOWNSAMPLE  =      F    k-point downsampling of WAVECAR
   LCHARG       =      T    write CHGCAR
   LVTOT        =      F    write LOCPOT, total local potential
   LVHAR        =      F    write LOCPOT, Hartree potential only
   LELF         =      F    write electronic localiz. function (ELF)
   LORBIT       =      0    0 simple, 1 ext, 2 COOP (PROOUT), +10 PAW based schemes


 Dipole corrections
   LMONO  =      F    monopole corrections only (constant potential shift)
   LDIPOL =      F    correct potential (dipole corrections)
   IDIPOL =      0    1-x, 2-y, 3-z, 4-all directions 
   EPSILON=  1.0000000 bulk dielectric constant

 Exchange correlation treatment:
   GGA     =    --    GGA type
   LEXCH   =     8    internal setting for exchange type
   VOSKOWN=      0    Vosko Wilk Nusair interpolation
   LHFCALC =     F    Hartree Fock is set to
   LHFONE  =     F    Hartree Fock one center treatment
   AEXX    =    0.0000 exact exchange contribution

 Linear response parameters
   LEPSILON=     F    determine dielectric tensor
   LRPA    =     F    only Hartree local field effects (RPA)
   LNABLA  =     F    use nabla operator in PAW spheres
   LVEL    =     F    velocity operator in full k-point grid
   LINTERFAST=   F  fast interpolation
   KINTER  =     0    interpolate to denser k-point grid
   CSHIFT  =0.1000    complex shift for real part using Kramers Kronig
   OMEGAMAX=  -1.0    maximum frequency
   DEG_THRESHOLD= 0.2000000E-02 threshold for treating states as degnerate
   RTIME   =   -0.100 relaxation time in fs
  (WPLASMAI=    0.000 imaginary part of plasma frequency in eV, 0.658/RTIME)
   DFIELD  = 0.0000000 0.0000000 0.0000000 field for delta impulse in time
 
 Orbital magnetization related:
   ORBITALMAG=     F  switch on orbital magnetization
   LCHIMAG   =     F  perturbation theory with respect to B field
   DQ        =  0.001000  dq finite difference perturbation B field
   LLRAUG    =     F  two centre corrections for induced B field



--------------------------------------------------------------------------------------------------------


 quasi-Newton-method for relaxation of ions
 charge density and potential will be updated during run
 non-spin polarized calculation
 Variant of blocked Davidson
 Davidson routine will perform the subspace rotation
 perform sub-space diagonalisation
    after iterative eigenvector-optimisation
 modified Broyden-mixing scheme, WC =      100.0
 initial mixing is a Kerker type mixing with AMIX =  0.4000 and BMIX =      1.0000
 Hartree-type preconditioning will be used
 using additional bands            4
 reciprocal scheme for non local part
 use partial core corrections
 calculate Harris-corrections to forces 
   (improved forces if not selfconsistent)
 use gradient corrections 
 use of overlap-Matrix (Vanderbilt PP)
 Gauss-broadening in eV      SIGMA  =   0.20


--------------------------------------------------------------------------------------------------------


  energy-cutoff  :      450.00
  volume of cell :      131.15
      direct lattice vectors                 reciprocal lattice vectors
     3.190315730  0.000000000  0.000000000     0.313448600  0.180969634  0.000000000
    -1.595157865  2.762894468  0.000000000     0.000000000  0.361939267  0.000000000
     0.000000000  0.000000000 14.879004300     0.000000000  0.000000000  0.067208798

  length of vectors
     3.190315730  3.190315730 14.879004300     0.361939267  0.361939267  0.067208798


 
 k-points in units of 2pi/SCALE and weight: k-density: 5.0                          
   0.00000000  0.00000000  0.00000000       0.003
   0.03134486  0.01809696  0.00000000       0.020
   0.06268972  0.03619393  0.00000000       0.020
   0.09403458  0.05429089  0.00000000       0.020
   0.12537944  0.07238785  0.00000000       0.020
   0.15672430  0.09048482  0.00000000       0.010
   0.03134486  0.05429089  0.00000000       0.020
   0.06268972  0.07238785  0.00000000       0.040
   0.09403458  0.09048482  0.00000000       0.040
   0.12537944  0.10858178  0.00000000       0.040
   0.06268972  0.10858178  0.00000000       0.020
   0.09403458  0.12667874  0.00000000       0.040
   0.12537944  0.14477571  0.00000000       0.020
   0.09403458  0.16287267  0.00000000       0.020
   0.00000000  0.00000000  0.02240293       0.007
   0.03134486  0.01809696  0.02240293       0.040
   0.06268972  0.03619393  0.02240293       0.040
   0.09403458  0.05429089  0.02240293       0.040
   0.12537944  0.07238785  0.02240293       0.040
   0.15672430  0.09048482  0.02240293       0.020
   0.03134486  0.05429089  0.02240293       0.040
   0.06268972  0.07238785  0.02240293       0.080
   0.09403458  0.09048482  0.02240293       0.080
   0.12537944  0.10858178  0.02240293       0.080
   0.06268972  0.10858178  0.02240293       0.040
   0.09403458  0.12667874  0.02240293       0.080
   0.12537944  0.14477571  0.02240293       0.040
   0.09403458  0.16287267  0.02240293       0.040
 
 k-points in reciprocal lattice and weights: k-density: 5.0                          
   0.00000000  0.00000000  0.00000000       0.003
   0.10000000 -0.00000000  0.00000000       0.020
   0.20000000  0.00000000  0.00000000       0.020
   0.30000000 -0.00000000  0.00000000       0.020
   0.40000000  0.00000000  0.00000000       0.020
   0.50000000  0.00000000  0.00000000       0.010
   0.10000000  0.10000000  0.00000000       0.020
   0.20000000  0.10000000  0.00000000       0.040
   0.30000000  0.10000000  0.00000000       0.040
   0.40000000  0.10000000  0.00000000       0.040
   0.20000000  0.20000000  0.00000000       0.020
   0.30000000  0.20000000  0.00000000       0.040
   0.40000000  0.20000000  0.00000000       0.020
   0.30000000  0.30000000  0.00000000       0.020
   0.00000000  0.00000000  0.33333333       0.007
   0.10000000 -0.00000000  0.33333333       0.040
   0.20000000  0.00000000  0.33333333       0.040
   0.30000000 -0.00000000  0.33333333       0.040
   0.40000000  0.00000000  0.33333333       0.040
   0.50000000  0.00000000  0.33333333       0.020
   0.10000000  0.10000000  0.33333333       0.040
   0.20000000  0.10000000  0.33333333       0.080
   0.30000000  0.10000000  0.33333333       0.080
   0.40000000  0.10000000  0.33333333       0.080
   0.20000000  0.20000000  0.33333333       0.040
   0.30000000  0.20000000  0.33333333       0.080
   0.40000000  0.20000000  0.33333333       0.040
   0.30000000  0.30000000  0.33333333       0.040
 
 position of ions in fractional coordinates (direct lattice) 
   0.33333300  0.66666700  0.25000000
   0.66666700  0.33333300  0.75000000
   0.33333300  0.66666700  0.85517400
   0.66666700  0.33333300  0.14482600
   0.66666600  0.33333300  0.35517400
   0.33333400  0.66666700  0.64482600
 
 position of ions in cartesian coordinates  (Angst):
  -0.00000160  1.84193057  3.71975108
   1.59515946  0.92096390 11.15925323
  -0.00000160  1.84193057 12.72413762
   1.59515946  0.92096390  2.15486668
   1.59515627  0.92096390  5.28463547
   0.00000160  1.84193057  9.59436883
 


--------------------------------------------------------------------------------------------------------


 k-point  1 :   0.0000 0.0000 0.0000  plane waves:    2895
 k-point  2 :   0.1000-0.0000 0.0000  plane waves:    2891
 k-point  3 :   0.2000 0.0000 0.0000  plane waves:    2857
 k-point  4 :   0.3000-0.0000 0.0000  plane waves:    2846
 k-point  5 :   0.4000 0.0000 0.0000  plane waves:    2832
 k-point  6 :   0.5000 0.0000 0.0000  plane waves:    2784
 k-point  7 :   0.1000 0.1000 0.0000  plane waves:    2877
 k-point  8 :   0.2000 0.1000 0.0000  plane waves:    2849
 k-point  9 :   0.3000 0.1000 0.0000  plane waves:    2839
 k-point 10 :   0.4000 0.1000 0.0000  plane waves:    2820
 k-point 11 :   0.2000 0.2000 0.0000  plane waves:    2847
 k-point 12 :   0.3000 0.2000 0.0000  plane waves:    2832
 k-point 13 :   0.4000 0.2000 0.0000  plane waves:    2826
 k-point 14 :   0.3000 0.3000 0.0000  plane waves:    2842
 k-point 15 :   0.0000 0.0000 0.3333  plane waves:    2890
 k-point 16 :   0.1000-0.0000 0.3333  plane waves:    2885
 k-point 17 :   0.2000 0.0000 0.3333  plane waves:    2856
 k-point 18 :   0.3000-0.0000 0.3333  plane waves:    2838
 k-point 19 :   0.4000 0.0000 0.3333  plane waves:    2832
 k-point 20 :   0.5000 0.0000 0.3333  plane waves:    2814
 k-point 21 :   0.1000 0.1000 0.3333  plane waves:    2870
 k-point 22 :   0.2000 0.1000 0.3333  plane waves:    2851
 k-point 23 :   0.3000 0.1000 0.3333  plane waves:    2844
 k-point 24 :   0.4000 0.1000 0.3333  plane waves:    2824
 k-point 25 :   0.2000 0.2000 0.3333  plane waves:    2841
 k-point 26 :   0.3000 0.2000 0.3333  plane waves:    2835
 k-point 27 :   0.4000 0.2000 0.3333  plane waves:    2830
 k-point 28 :   0.3000 0.3000 0.3333  plane waves:    2831

 maximum and minimum number of plane-waves per node :      1449     1385

 maximum number of plane-waves:      2895
 maximum index in each direction: 
   IXMAX=    5   IYMAX=    5   IZMAX=   25
   IXMIN=   -6   IYMIN=   -5   IZMIN=  -26


 parallel 3D FFT for wavefunctions:
    minimum data exchange during FFTs selected (reduces bandwidth)
 parallel 3D FFT for charge:
    minimum data exchange during FFTs selected (reduces bandwidth)


 total amount of memory used by VASP MPI-rank0    62572. kBytes
=======================================================================

   base      :      30000. kBytes
   nonl-proj :      11832. kBytes
   fftplans  :       5119. kBytes
   grid      :       8262. kBytes
   one-center:         46. kBytes
   wavefun   :       7313. kBytes
 
     INWAV:  cpu time    0.0000: real time    0.0003
 Broyden mixing: mesh for mixing (old mesh)
   NGX = 11   NGY = 11   NGZ = 51
  (NGX  = 48   NGY  = 48   NGZ  =216)
  gives a total of   6171 points

 initial charge density was supplied:
 charge density of overlapping atoms calculated
 number of electron      36.0000000 magnetization 
 keeping initial charge density in first step


--------------------------------------------------------------------------------------------------------


 Maximum index for augmentation-charges         7425 (set IRDMAX)


--------------------------------------------------------------------------------------------------------


 First call to EWALD:  gamma=   0.349
 Maximum number of real-space cells 5x 5x 1
 Maximum number of reciprocal cells 2x 2x 7

    FEWALD:  cpu time    0.0010: real time    0.0014


--------------------------------------- Iteration      1(   1)  ---------------------------------------


    POTLOK:  cpu time    0.0700: real time    0.0828
    SETDIJ:  cpu time    0.0070: real time    0.0075
     EDDAV:  cpu time    0.9988: real time    1.0032
       DOS:  cpu time    0.0010: real time    0.0015
    --------------------------------------------
      LOOP:  cpu time    1.0768: real time    1.0950

 eigenvalue-minimisations  :  1232
 total energy-change (2. order) : 0.1999439E+03  (-0.1475588E+04)
 number of electron      36.0000000 magnetization 
 augmentation part       36.0000000 magnetization 

 Free energy of the ion-electron system (eV)
  ---------------------------------------------------
  alpha Z        PSCENC =        90.42577596
  Ewald energy   TEWEN  =     -1146.88905665
  -Hartree energ DENC   =      -535.10238363
  -exchange      EXHF   =         0.00000000
  -V(xc)+E(xc)   XCENC  =       -72.59368065
  PAW double counting   =       813.77302396     -658.68146406
  entropy T*S    EENTRO =        -0.04972902
  eigenvalues    EBANDS =       166.75120121
  atomic energy  EATOM  =      1542.31022798
  Solvation  Ediel_sol  =         0.00000000
  ---------------------------------------------------
  free energy    TOTEN  =       199.94391512 eV

  energy without entropy =      199.99364414  energy(sigma->0) =      199.96877963


--------------------------------------------------------------------------------------------------------




--------------------------------------- Iteration      1(   2)  ---------------------------------------


     EDDAV:  cpu time    1.2318: real time    1.2360
       DOS:  cpu time    0.0010: real time    0.0014
    --------------------------------------------
      LOOP:  cpu time    1.2328: real time    1.2374

 eigenvalue-minimisations  :  1664
 total energy-change (2. order) :-0.2282944E+03  (-0.2210338E+03)
 number of electron      36.0000000 magnetization 
 augmentation part       36.0000000 magnetization 

 Free energy of the ion-electron system (eV)
  ---------------------------------------------------
  alpha Z        PSCENC =        90.42577596
  Ewald energy   TEWEN  =     -1146.88905665
  -Hartree energ DENC   =      -535.10238363
  -exchange      EXHF   =         0.00000000
  -V(xc)+E(xc)   XCENC  =       -72.59368065
  PAW double counting   =       813.77302396     -658.68146406
  entropy T*S    EENTRO =        -0.00123728
  eigenvalues    EBANDS =       -61.59166934
  atomic energy  EATOM  =      1542.31022798
  Solvation  Ediel_sol  =         0.00000000
  ---------------------------------------------------
  free energy    TOTEN  =       -28.35046369 eV

  energy without entropy =      -28.34922641  energy(sigma->0) =      -28.34984505


--------------------------------------------------------------------------------------------------------




--------------------------------------- Iteration      1(   3)  ---------------------------------------


     EDDAV:  cpu time    1.2228: real time    1.2256
       DOS:  cpu time    0.0000: real time    0.0012
    --------------------------------------------
      LOOP:  cpu time    1.2228: real time    1.2268

 eigenvalue-minimisations  :  1636
 total energy-change (2. order) :-0.1795169E+02  (-0.1786931E+02)
 number of electron      36.0000000 magnetization 
 augmentation part       36.0000000 magnetization 

 Free energy of the ion-electron system (eV)
  ---------------------------------------------------
  alpha Z        PSCENC =        90.42577596
  Ewald energy   TEWEN  =     -1146.88905665
  -Hartree energ DENC   =      -535.10238363
  -exchange      EXHF   =         0.00000000
  -V(xc)+E(xc)   XCENC  =       -72.59368065
  PAW double counting   =       813.77302396     -658.68146406
  entropy T*S    EENTRO =        -0.00000000
  eigenvalues    EBANDS =       -79.54459238
  atomic energy  EATOM  =      1542.31022798
  Solvation  Ediel_sol  =         0.00000000
  ---------------------------------------------------
  free energy    TOTEN  =       -46.30214945 eV

  energy without entropy =      -46.30214945  energy(sigma->0) =      -46.30214945


--------------------------------------------------------------------------------------------------------




--------------------------------------- Iteration      1(   4)  ---------------------------------------


     EDDAV:  cpu time    1.2588: real time    1.2607
       DOS:  cpu time    0.0010: real time    0.0012
    --------------------------------------------
      LOOP:  cpu time    1.2598: real time    1.2619

 eigenvalue-minimisations  :  1704
 total energy-change (2. order) :-0.5035240E+00  (-0.5027538E+00)
 number of electron      36.0000000 magnetization 
 augmentation part       36.0000000 magnetization 

 Free energy of the ion-electron system (eV)
  ---------------------------------------------------
  alpha Z        PSCENC =        90.42577596
  Ewald energy   TEWEN  =     -1146.88905665
  -Hartree energ DENC   =      -535.10238363
  -exchange      EXHF   =         0.00000000
  -V(xc)+E(xc)   XCENC  =       -72.59368065
  PAW double counting   =       813.77302396     -658.68146406
  entropy T*S    EENTRO =        -0.00000000
  eigenvalues    EBANDS =       -80.04811642
  atomic energy  EATOM  =      1542.31022798
  Solvation  Ediel_sol  =         0.00000000
  ---------------------------------------------------
  free energy    TOTEN  =       -46.80567349 eV

  energy without entropy =      -46.80567349  energy(sigma->0) =      -46.80567349


--------------------------------------------------------------------------------------------------------




--------------------------------------- Iteration      1(   5)  ---------------------------------------


     EDDAV:  cpu time    1.2278: real time    1.2303
       DOS:  cpu time    0.0010: real time    0.0012
    CHARGE:  cpu time    0.1090: real time    0.1087
    MIXING:  cpu time    0.0020: real time    0.0020
    --------------------------------------------
      LOOP:  cpu time    1.3398: real time    1.3423

 eigenvalue-minimisations  :  1654
 total energy-change (2. order) :-0.1474712E-01  (-0.1474353E-01)
 number of electron      36.0000005 magnetization 
 augmentation part       -1.8907020 magnetization 

 Broyden mixing:
  rms(total) = 0.97344E+00    rms(broyden)= 0.97343E+00
  rms(prec ) = 0.12180E+01
  weight for this iteration     100.00

 Free energy of the ion-electron system (eV)
  ---------------------------------------------------
  alpha Z        PSCENC =        90.42577596
  Ewald energy   TEWEN  =     -1146.88905665
  -Hartree energ DENC   =      -535.10238363
  -exchange      EXHF   =         0.00000000
  -V(xc)+E(xc)   XCENC  =       -72.59368065
  PAW double counting   =       813.77302396     -658.68146406
  entropy T*S    EENTRO =        -0.00000000
  eigenvalues    EBANDS =       -80.06286353
  atomic energy  EATOM  =      1542.31022798
  Solvation  Ediel_sol  =         0.00000000
  ---------------------------------------------------
  free energy    TOTEN  =       -46.82042061 eV

  energy without entropy =      -46.82042060  energy(sigma->0) =      -46.82042061


--------------------------------------------------------------------------------------------------------




--------------------------------------- Iteration      1(   6)  ---------------------------------------


    POTLOK:  cpu time    0.0650: real time    0.0669
    SETDIJ:  cpu time    0.0070: real time    0.0065
     EDDAV:  cpu time    1.2118: real time    1.2120
       DOS:  cpu time    0.0010: real time    0.0014
    CHARGE:  cpu time    0.1100: real time    0.1099
    MIXING:  cpu time    0.0020: real time    0.0018
    --------------------------------------------
      LOOP:  cpu time    1.3968: real time    1.3985

 eigenvalue-minimisations  :  1620
 total energy-change (2. order) : 0.2373326E+01  (-0.2499008E+01)
 number of electron      36.0000005 magnetization 
 augmentation part       -0.7429402 magnetization 

 Broyden mixing:
  rms(total) = 0.39722E+00    rms(broyden)= 0.39722E+00
  rms(prec ) = 0.59384E+00
  weight for this iteration     100.00

 eigenvalues of (default mixing * dielectric matrix)
  average eigenvalue GAMMA=   0.8000
  0.8000

 Free energy of the ion-electron system (eV)
  ---------------------------------------------------
  alpha Z        PSCENC =        90.42577596
  Ewald energy   TEWEN  =     -1146.88905665
  -Hartree energ DENC   =      -533.60599518
  -exchange      EXHF   =         0.00000000
  -V(xc)+E(xc)   XCENC  =       -70.82501847
  PAW double counting   =       847.85016110     -694.53759520
  entropy T*S    EENTRO =        -0.00000050
  eigenvalues    EBANDS =       -79.17559340
  atomic energy  EATOM  =      1542.31022798
  Solvation  Ediel_sol  =         0.00000000
  ---------------------------------------------------
  free energy    TOTEN  =       -44.44709436 eV

  energy without entropy =      -44.44709386  energy(sigma->0) =      -44.44709411


--------------------------------------------------------------------------------------------------------




--------------------------------------- Iteration      1(   7)  ---------------------------------------


    POTLOK:  cpu time    0.0650: real time    0.0673
    SETDIJ:  cpu time    0.0070: real time    0.0065
     EDDAV:  cpu time    1.2248: real time    1.2259
       DOS:  cpu time    0.0010: real time    0.0012
    CHARGE:  cpu time    0.1110: real time    0.1103
    MIXING:  cpu time    0.0020: real time    0.0019
    --------------------------------------------
      LOOP:  cpu time    1.4108: real time    1.4131

 eigenvalue-minimisations  :  1646
 total energy-change (2. order) : 0.7176543E+00  (-0.5510026E+00)
 number of electron      36.0000005 magnetization 
 augmentation part       -1.1754761 magnetization 

 Broyden mixing:
  rms(total) = 0.22035E+00    rms(broyden)= 0.22035E+00
  rms(prec ) = 0.25558E+00
  weight for this iteration     100.00

 eigenvalues of (default mixing * dielectric matrix)
  average eigenvalue GAMMA=   1.3936
  2.1514  0.6358

 Free energy of the ion-electron system (eV)
  ---------------------------------------------------
  alpha Z        PSCENC =        90.42577596
  Ewald energy   TEWEN  =     -1146.88905665
  -Hartree energ DENC   =      -538.45601899
  -exchange      EXHF   =         0.00000000
  -V(xc)+E(xc)   XCENC  =       -71.13071584
  PAW double counting   =       880.72321639     -727.82951598
  entropy T*S    EENTRO =        -0.00000000
  eigenvalues    EBANDS =       -72.88335289
  atomic energy  EATOM  =      1542.31022798
  Solvation  Ediel_sol  =         0.00000000
  ---------------------------------------------------
  free energy    TOTEN  =       -43.72944002 eV

  energy without entropy =      -43.72944002  energy(sigma->0) =      -43.72944002


--------------------------------------------------------------------------------------------------------




--------------------------------------- Iteration      1(   8)  ---------------------------------------


    POTLOK:  cpu time    0.0640: real time    0.0679
    SETDIJ:  cpu time    0.0070: real time    0.0065
     EDDAV:  cpu time    1.1818: real time    1.1813
       DOS:  cpu time    0.0010: real time    0.0012
    CHARGE:  cpu time    0.1090: real time    0.1094
    MIXING:  cpu time    0.0030: real time    0.0020
    --------------------------------------------
      LOOP:  cpu time    1.3658: real time    1.3684

 eigenvalue-minimisations  :  1576
 total energy-change (2. order) : 0.1225026E+00  (-0.5172025E-01)
 number of electron      36.0000005 magnetization 
 augmentation part       -1.1214501 magnetization 

 Broyden mixing:
  rms(total) = 0.49523E-01    rms(broyden)= 0.49522E-01
  rms(prec ) = 0.59584E-01
  weight for this iteration     100.00

 eigenvalues of (default mixing * dielectric matrix)
  average eigenvalue GAMMA=   1.3133
  0.6391  1.2254  2.0755

 Free energy of the ion-electron system (eV)
  ---------------------------------------------------
  alpha Z        PSCENC =        90.42577596
  Ewald energy   TEWEN  =     -1146.88905665
  -Hartree energ DENC   =      -540.84183108
  -exchange      EXHF   =         0.00000000
  -V(xc)+E(xc)   XCENC  =       -70.58848416
  PAW double counting   =       927.72861221     -775.88335293
  entropy T*S    EENTRO =        -0.00000000
  eigenvalues    EBANDS =       -69.86882875
  atomic energy  EATOM  =      1542.31022798
  Solvation  Ediel_sol  =         0.00000000
  ---------------------------------------------------
  free energy    TOTEN  =       -43.60693742 eV

  energy without entropy =      -43.60693742  energy(sigma->0) =      -43.60693742


--------------------------------------------------------------------------------------------------------




--------------------------------------- Iteration      1(   9)  ---------------------------------------


    POTLOK:  cpu time    0.0640: real time    0.0669
    SETDIJ:  cpu time    0.0070: real time    0.0065
     EDDAV:  cpu time    1.2988: real time    1.2983
       DOS:  cpu time    0.0010: real time    0.0012
    CHARGE:  cpu time    0.1100: real time    0.1103
    MIXING:  cpu time    0.0020: real time    0.0027
    --------------------------------------------
      LOOP:  cpu time    1.4828: real time    1.4859

 eigenvalue-minimisations  :  1762
 total energy-change (2. order) :-0.9170293E-03  (-0.7920989E-02)
 number of electron      36.0000005 magnetization 
 augmentation part       -1.0824810 magnetization 

 Broyden mixing:
  rms(total) = 0.29192E-01    rms(broyden)= 0.29191E-01
  rms(prec ) = 0.38060E-01
  weight for this iteration     100.00

 eigenvalues of (default mixing * dielectric matrix)
  average eigenvalue GAMMA=   1.5035
  2.6595  0.6512  0.9547  1.7486

 Free energy of the ion-electron system (eV)
  ---------------------------------------------------
  alpha Z        PSCENC =        90.42577596
  Ewald energy   TEWEN  =     -1146.88905665
  -Hartree energ DENC   =      -541.51136175
  -exchange      EXHF   =         0.00000000
  -V(xc)+E(xc)   XCENC  =       -70.46346798
  PAW double counting   =       937.65263802     -785.97322522
  entropy T*S    EENTRO =        -0.00000000
  eigenvalues    EBANDS =       -69.15938482
  atomic energy  EATOM  =      1542.31022798
  Solvation  Ediel_sol  =         0.00000000
  ---------------------------------------------------
  free energy    TOTEN  =       -43.60785445 eV

  energy without entropy =      -43.60785445  energy(sigma->0) =      -43.60785445


--------------------------------------------------------------------------------------------------------




--------------------------------------- Iteration      1(  10)  ---------------------------------------


    POTLOK:  cpu time    0.0650: real time    0.0671
    SETDIJ:  cpu time    0.0070: real time    0.0065
     EDDAV:  cpu time    1.3358: real time    1.3364
       DOS:  cpu time    0.0010: real time    0.0012
    CHARGE:  cpu time    0.1100: real time    0.1102
    MIXING:  cpu time    0.0030: real time    0.0019
    --------------------------------------------
      LOOP:  cpu time    1.5218: real time    1.5234

 eigenvalue-minimisations  :  1832
 total energy-change (2. order) : 0.1799672E-02  (-0.2653089E-02)
 number of electron      36.0000005 magnetization 
 augmentation part       -1.1108066 magnetization 

 Broyden mixing:
  rms(total) = 0.11378E-01    rms(broyden)= 0.11378E-01
  rms(prec ) = 0.15131E-01
  weight for this iteration     100.00

 eigenvalues of (default mixing * dielectric matrix)
  average eigenvalue GAMMA=   1.3794
  2.4268  1.7823  0.6568  0.9641  1.0672

 Free energy of the ion-electron system (eV)
  ---------------------------------------------------
  alpha Z        PSCENC =        90.42577596
  Ewald energy   TEWEN  =     -1146.88905665
  -Hartree energ DENC   =      -542.67432852
  -exchange      EXHF   =         0.00000000
  -V(xc)+E(xc)   XCENC  =       -70.41310749
  PAW double counting   =       946.84418802     -795.27060423
  entropy T*S    EENTRO =        -0.00000000
  eigenvalues    EBANDS =       -67.93914985
  atomic energy  EATOM  =      1542.31022798
  Solvation  Ediel_sol  =         0.00000000
  ---------------------------------------------------
  free energy    TOTEN  =       -43.60605478 eV

  energy without entropy =      -43.60605478  energy(sigma->0) =      -43.60605478


--------------------------------------------------------------------------------------------------------




--------------------------------------- Iteration      1(  11)  ---------------------------------------


    POTLOK:  cpu time    0.0640: real time    0.0680
    SETDIJ:  cpu time    0.0070: real time    0.0065
     EDDAV:  cpu time    1.2468: real time    1.2472
       DOS:  cpu time    0.0010: real time    0.0013
    CHARGE:  cpu time    0.1110: real time    0.1103
    MIXING:  cpu time    0.0020: real time    0.0020
    --------------------------------------------
      LOOP:  cpu time    1.4318: real time    1.4352

 eigenvalue-minimisations  :  1678
 total energy-change (2. order) : 0.3652989E-03  (-0.2781538E-03)
 number of electron      36.0000005 magnetization 
 augmentation part       -1.1009176 magnetization 

 Broyden mixing:
  rms(total) = 0.26951E-02    rms(broyden)= 0.26950E-02
  rms(prec ) = 0.38750E-02
  weight for this iteration     100.00

 eigenvalues of (default mixing * dielectric matrix)
  average eigenvalue GAMMA=   1.6116
  2.9472  2.4274  1.6755  0.6570  0.9168  1.0456

 Free energy of the ion-electron system (eV)
  ---------------------------------------------------
  alpha Z        PSCENC =        90.42577596
  Ewald energy   TEWEN  =     -1146.88905665
  -Hartree energ DENC   =      -542.64870108
  -exchange      EXHF   =         0.00000000
  -V(xc)+E(xc)   XCENC  =       -70.40579116
  PAW double counting   =       944.97107559     -793.36850938
  entropy T*S    EENTRO =        -0.00000000
  eigenvalues    EBANDS =       -68.00071074
  atomic energy  EATOM  =      1542.31022798
  Solvation  Ediel_sol  =         0.00000000
  ---------------------------------------------------
  free energy    TOTEN  =       -43.60568948 eV

  energy without entropy =      -43.60568948  energy(sigma->0) =      -43.60568948


--------------------------------------------------------------------------------------------------------




--------------------------------------- Iteration      1(  12)  ---------------------------------------


    POTLOK:  cpu time    0.0650: real time    0.0675
    SETDIJ:  cpu time    0.0070: real time    0.0065
     EDDAV:  cpu time    1.1868: real time    1.1877
       DOS:  cpu time    0.0010: real time    0.0013
    CHARGE:  cpu time    0.1100: real time    0.1097
    MIXING:  cpu time    0.0020: real time    0.0021
    --------------------------------------------
      LOOP:  cpu time    1.3718: real time    1.3747

 eigenvalue-minimisations  :  1576
 total energy-change (2. order) :-0.1232878E-03  (-0.5835401E-04)
 number of electron      36.0000005 magnetization 
 augmentation part       -1.0987479 magnetization 

 Broyden mixing:
  rms(total) = 0.17478E-02    rms(broyden)= 0.17478E-02
  rms(prec ) = 0.21085E-02
  weight for this iteration     100.00

 eigenvalues of (default mixing * dielectric matrix)
  average eigenvalue GAMMA=   1.6424
  2.9234  2.5997  1.7346  1.7346  0.6567  0.9237  0.9237

 Free energy of the ion-electron system (eV)
  ---------------------------------------------------
  alpha Z        PSCENC =        90.42577596
  Ewald energy   TEWEN  =     -1146.88905665
  -Hartree energ DENC   =      -542.97691873
  -exchange      EXHF   =         0.00000000
  -V(xc)+E(xc)   XCENC  =       -70.39108350
  PAW double counting   =       944.57810313     -792.95948887
  entropy T*S    EENTRO =        -0.00000000
  eigenvalues    EBANDS =       -67.70337209
  atomic energy  EATOM  =      1542.31022798
  Solvation  Ediel_sol  =         0.00000000
  ---------------------------------------------------
  free energy    TOTEN  =       -43.60581277 eV

  energy without entropy =      -43.60581277  energy(sigma->0) =      -43.60581277


--------------------------------------------------------------------------------------------------------




--------------------------------------- Iteration      1(  13)  ---------------------------------------


    POTLOK:  cpu time    0.0650: real time    0.0671
    SETDIJ:  cpu time    0.0070: real time    0.0065
     EDDAV:  cpu time    1.3348: real time    1.3354
       DOS:  cpu time    0.0020: real time    0.0013
    CHARGE:  cpu time    0.1090: real time    0.1100
    MIXING:  cpu time    0.0030: real time    0.0021
    --------------------------------------------
      LOOP:  cpu time    1.5208: real time    1.5223

 eigenvalue-minimisations  :  1830
 total energy-change (2. order) :-0.1434518E-05  (-0.1234020E-04)
 number of electron      36.0000005 magnetization 
 augmentation part       -1.1013005 magnetization 

 Broyden mixing:
  rms(total) = 0.13359E-02    rms(broyden)= 0.13359E-02
  rms(prec ) = 0.18037E-02
  weight for this iteration     100.00

 eigenvalues of (default mixing * dielectric matrix)
  average eigenvalue GAMMA=   1.6711
  3.1799  2.4881  2.4881  1.6534  0.6564  1.1071  0.8979  0.8979

 Free energy of the ion-electron system (eV)
  ---------------------------------------------------
  alpha Z        PSCENC =        90.42577596
  Ewald energy   TEWEN  =     -1146.88905665
  -Hartree energ DENC   =      -542.96762579
  -exchange      EXHF   =         0.00000000
  -V(xc)+E(xc)   XCENC  =       -70.39470850
  PAW double counting   =       944.44159988     -792.82152243
  entropy T*S    EENTRO =        -0.00000000
  eigenvalues    EBANDS =       -67.71050467
  atomic energy  EATOM  =      1542.31022798
  Solvation  Ediel_sol  =         0.00000000
  ---------------------------------------------------
  free energy    TOTEN  =       -43.60581420 eV

  energy without entropy =      -43.60581420  energy(sigma->0) =      -43.60581420


--------------------------------------------------------------------------------------------------------




--------------------------------------- Iteration      1(  14)  ---------------------------------------


    POTLOK:  cpu time    0.0650: real time    0.0672
    SETDIJ:  cpu time    0.0070: real time    0.0065
     EDDAV:  cpu time    1.2638: real time    1.2650
       DOS:  cpu time    0.0020: real time    0.0013
    CHARGE:  cpu time    0.1100: real time    0.1100
    MIXING:  cpu time    0.0020: real time    0.0021
    --------------------------------------------
      LOOP:  cpu time    1.4498: real time    1.4521

 eigenvalue-minimisations  :  1712
 total energy-change (2. order) : 0.4228729E-05  (-0.4940104E-05)
 number of electron      36.0000005 magnetization 
 augmentation part       -1.0998321 magnetization 

 Broyden mixing:
  rms(total) = 0.26209E-03    rms(broyden)= 0.26209E-03
  rms(prec ) = 0.39073E-03
  weight for this iteration     100.00

 eigenvalues of (default mixing * dielectric matrix)
  average eigenvalue GAMMA=   1.6402
  3.2991  2.5295  2.4005  1.5456  1.5456  0.6563  0.9886  0.8981  0.8981

 Free energy of the ion-electron system (eV)
  ---------------------------------------------------
  alpha Z        PSCENC =        90.42577596
  Ewald energy   TEWEN  =     -1146.88905665
  -Hartree energ DENC   =      -542.95061467
  -exchange      EXHF   =         0.00000000
  -V(xc)+E(xc)   XCENC  =       -70.39264821
  PAW double counting   =       944.36860262     -792.75001705
  entropy T*S    EENTRO =        -0.00000000
  eigenvalues    EBANDS =       -67.72807996
  atomic energy  EATOM  =      1542.31022798
  Solvation  Ediel_sol  =         0.00000000
  ---------------------------------------------------
  free energy    TOTEN  =       -43.60580997 eV

  energy without entropy =      -43.60580997  energy(sigma->0) =      -43.60580997


--------------------------------------------------------------------------------------------------------




--------------------------------------- Iteration      1(  15)  ---------------------------------------


    POTLOK:  cpu time    0.0650: real time    0.0672
    SETDIJ:  cpu time    0.0070: real time    0.0065
     EDDAV:  cpu time    1.0198: real time    1.0203
       DOS:  cpu time    0.0010: real time    0.0013
    --------------------------------------------
      LOOP:  cpu time    1.0928: real time    1.0954

 eigenvalue-minimisations  :  1278
 total energy-change (2. order) : 0.2853594E-06  (-0.2689508E-06)
 number of electron      36.0000005 magnetization 
 augmentation part       -1.0998321 magnetization 

 Free energy of the ion-electron system (eV)
  ---------------------------------------------------
  alpha Z        PSCENC =        90.42577596
  Ewald energy   TEWEN  =     -1146.88905665
  -Hartree energ DENC   =      -542.95750175
  -exchange      EXHF   =         0.00000000
  -V(xc)+E(xc)   XCENC  =       -70.39275072
  PAW double counting   =       944.35011473     -792.73113313
  entropy T*S    EENTRO =        -0.00000000
  eigenvalues    EBANDS =       -67.72148611
  atomic energy  EATOM  =      1542.31022798
  Solvation  Ediel_sol  =         0.00000000
  ---------------------------------------------------
  free energy    TOTEN  =       -43.60580969 eV

  energy without entropy =      -43.60580969  energy(sigma->0) =      -43.60580969


--------------------------------------------------------------------------------------------------------




 average (electrostatic) potential at core
  the test charge radii are     1.2296  0.9698
  (the norm of the test charge is              1.0000)
       1 -40.3315       2 -40.3315       3 -88.1706       4 -88.1706       5 -88.1706
       6 -88.1706
 
 
 
 E-fermi :   4.0515     XC(G=0):  -9.3247     alpha+bet : -9.6368


 k-point     1 :       0.0000    0.0000    0.0000
  band No.  band energies     occupation 
      1     -10.9296      2.00000
      2     -10.9106      2.00000
      3      -9.7292      2.00000
      4      -9.6953      2.00000
      5      -2.5231      2.00000
      6      -2.3616      2.00000
      7       0.5203      2.00000
      8       0.5203      2.00000
      9       0.5209      2.00000
     10       0.5209      2.00000
     11       1.1061      2.00000
     12       1.6253      2.00000
     13       1.6253      2.00000
     14       1.6272      2.00000
     15       1.6273      2.00000
     16       1.6746      2.00000
     17       2.9229      2.00000
     18       3.2988      2.00000
     19       5.8731      0.00000
     20       5.8738      0.00000
     21       5.8747      0.00000
     22       5.8767      0.00000

 k-point     2 :       0.1000   -0.0000    0.0000
  band No.  band energies     occupation 
      1     -10.7911      2.00000
      2     -10.7723      2.00000
      3      -9.6622      2.00000
      4      -9.6298      2.00000
      5      -2.3610      2.00000
      6      -2.2008      2.00000
      7       0.2077      2.00000
      8       0.2092      2.00000
      9       0.6295      2.00000
     10       0.6723      2.00000
     11       0.6733      2.00000
     12       0.8776      2.00000
     13       1.3994      2.00000
     14       1.4018      2.00000
     15       1.8917      2.00000
     16       2.1700      2.00000
     17       2.8811      2.00000
     18       3.1688      2.00000
     19       5.6781      0.00000
     20       5.6796      0.00000
     21       5.7246      0.00000
     22       5.8075      0.00000

 k-point     3 :       0.2000    0.0000    0.0000
  band No.  band energies     occupation 
      1     -10.4049      2.00000
      2     -10.3871      2.00000
      3      -9.4764      2.00000
      4      -9.4487      2.00000
      5      -1.9945      2.00000
      6      -1.8506      2.00000
      7      -0.4403      2.00000
      8      -0.4247      2.00000
      9      -0.0879      2.00000
     10       0.0522      2.00000
     11       0.9089      2.00000
     12       0.9120      2.00000
     13       1.0814      2.00000
     14       1.0837      2.00000
     15       1.8600      2.00000
     16       2.1089      2.00000
     17       2.6061      2.00000
     18       2.7077      2.00000
     19       5.1643      0.00000
     20       5.4718      0.00000
     21       5.6006      0.00000
     22       5.6625      0.00000

 k-point     4 :       0.3000   -0.0000    0.0000
  band No.  band energies     occupation 
      1      -9.8662      2.00000
      2      -9.8510      2.00000
      3      -9.2221      2.00000
      4      -9.2015      2.00000
      5      -1.9611      2.00000
      6      -1.8947      2.00000
      7      -0.8245      2.00000
      8      -0.7923      2.00000
      9      -0.7524      2.00000
     10      -0.7154      2.00000
     11       0.4239      2.00000
     12       0.4276      2.00000
     13       1.5351      2.00000
     14       1.6005      2.00000
     15       1.6057      2.00000
     16       1.7032      2.00000
     17       2.1791      2.00000
     18       2.2190      2.00000
     19       5.2026      0.00000
     20       5.3265      0.00000
     21       5.3400      0.00000
     22       5.4849      0.00000

 k-point     5 :       0.4000    0.0000    0.0000
  band No.  band energies     occupation 
      1      -9.3572      2.00000
      2      -9.3467      2.00000
      3      -8.9898      2.00000
      4      -8.9777      2.00000
      5      -2.3923      2.00000
      6      -2.3613      2.00000
      7      -1.4199      2.00000
      8      -1.3834      2.00000
      9      -0.8772      2.00000
     10      -0.7948      2.00000
     11       0.0919      2.00000
     12       0.0960      2.00000
     13       1.3014      2.00000
     14       1.3886      2.00000
     15       2.0089      2.00000
     16       2.0186      2.00000
     17       2.2416      2.00000
     18       2.2909      2.00000
     19       5.2603      0.00000
     20       5.2678      0.00000
     21       5.5481      0.00000
     22       5.6899      0.00000

 k-point     6 :       0.5000    0.0000    0.0000
  band No.  band energies     occupation 
      1      -9.1370      2.00000
      2      -9.1305      2.00000
      3      -8.8923      2.00000
      4      -8.8858      2.00000
      5      -2.6132      2.00000
      6      -2.5862      2.00000
      7      -1.6524      2.00000
      8      -1.6279      2.00000
      9      -0.9678      2.00000
     10      -0.8919      2.00000
     11      -0.0244      2.00000
     12      -0.0203      2.00000
     13       1.2469      2.00000
     14       1.2664      2.00000
     15       2.1536      2.00000
     16       2.1657      2.00000
     17       2.4776      2.00000
     18       2.4815      2.00000
     19       5.2849      0.00000
     20       5.2887      0.00000
     21       5.7745      0.00000
     22       5.8294      0.00000

 k-point     7 :       0.1000    0.1000    0.0000
  band No.  band energies     occupation 
      1     -10.5283      2.00000
      2     -10.5102      2.00000
      3      -9.5354      2.00000
      4      -9.5062      2.00000
      5      -2.0868      2.00000
      6      -1.9334      2.00000
      7      -0.2555      2.00000
      8      -0.2518      2.00000
      9       0.1797      2.00000
     10       0.3612      2.00000
     11       0.8553      2.00000
     12       0.8668      2.00000
     13       0.9320      2.00000
     14       0.9335      2.00000
     15       2.0729      2.00000
     16       2.3201      2.00000
     17       2.7204      2.00000
     18       2.8677      2.00000
     19       5.2421      0.00000
     20       5.4961      0.00000
     21       5.5348      0.00000
     22       5.6693      0.00000

 k-point     8 :       0.2000    0.1000    0.0000
  band No.  band energies     occupation 
      1     -10.0629      2.00000
      2     -10.0466      2.00000
      3      -9.3125      2.00000
      4      -9.2891      2.00000
      5      -1.8360      2.00000
      6      -1.7325      2.00000
      7      -0.7008      2.00000
      8      -0.6575      2.00000
      9      -0.4395      2.00000
     10      -0.3570      2.00000
     11       0.2249      2.00000
     12       0.2748      2.00000
     13       1.2526      2.00000
     14       1.2547      2.00000
     15       1.9558      2.00000
     16       2.1102      2.00000
     17       2.3570      2.00000
     18       2.3875      2.00000
     19       4.9840      0.00000
     20       5.2209      0.00000
     21       5.4752      0.00000
     22       5.6069      0.00000

 k-point     9 :       0.3000    0.1000    0.0000
  band No.  band energies     occupation 
      1      -9.5289      2.00000
      2      -9.5162      2.00000
      3      -9.0614      2.00000
      4      -9.0457      2.00000
      5      -2.0993      2.00000
      6      -2.0595      2.00000
      7      -1.1990      2.00000
      8      -1.1687      2.00000
      9      -0.7501      2.00000
     10      -0.6701      2.00000
     11      -0.0121      2.00000
     12       0.0380      2.00000
     13       1.3454      2.00000
     14       1.3561      2.00000
     15       1.5822      2.00000
     16       1.6617      2.00000
     17       2.3320      2.00000
     18       2.3472      2.00000
     19       5.1147      0.00000
     20       5.2750      0.00000
     21       5.5332      0.00000
     22       5.6174      0.00000

 k-point    10 :       0.4000    0.1000    0.0000
  band No.  band energies     occupation 
      1      -9.1480      2.00000
      2      -9.1407      2.00000
      3      -8.8868      2.00000
      4      -8.8789      2.00000
      5      -2.4209      2.00000
      6      -2.3939      2.00000
      7      -1.6870      2.00000
      8      -1.6735      2.00000
      9      -0.8854      2.00000
     10      -0.8123      2.00000
     11      -0.0490      2.00000
     12      -0.0211      2.00000
     13       1.2954      2.00000
     14       1.3343      2.00000
     15       1.4608      2.00000
     16       1.4744      2.00000
     17       2.6182      2.00000
     18       2.6368      2.00000
     19       5.2874      0.00000
     20       5.3301      0.00000
     21       5.7686      0.00000
     22       5.8431      0.00000

 k-point    11 :       0.2000    0.2000    0.0000
  band No.  band energies     occupation 
      1      -9.5944      2.00000
      2      -9.5810      2.00000
      3      -9.0863      2.00000
      4      -9.0693      2.00000
      5      -1.9068      2.00000
      6      -1.8585      2.00000
      7      -1.0510      2.00000
      8      -1.0349      2.00000
      9      -0.6156      2.00000
     10      -0.5526      2.00000
     11      -0.2225      2.00000
     12      -0.1173      2.00000
     13       0.8941      2.00000
     14       0.8962      2.00000
     15       1.8528      2.00000
     16       1.9073      2.00000
     17       2.3452      2.00000
     18       2.3469      2.00000
     19       4.9845      0.00000
     20       5.2438      0.00000
     21       5.5831      0.00000
     22       5.6488      0.00000

 k-point    12 :       0.3000    0.2000    0.0000
  band No.  band energies     occupation 
      1      -9.1654      2.00000
      2      -9.1569      2.00000
      3      -8.8776      2.00000
      4      -8.8680      2.00000
      5      -2.0425      2.00000
      6      -2.0147      2.00000
      7      -1.7426      2.00000
      8      -1.7339      2.00000
      9      -0.6151      2.00000
     10      -0.5645      2.00000
     11      -0.1235      2.00000
     12      -0.0438      2.00000
     13       0.4543      2.00000
     14       0.4788      2.00000
     15       1.4425      2.00000
     16       1.4640      2.00000
     17       2.6089      2.00000
     18       2.6213      2.00000
     19       5.2046      0.00000
     20       5.3214      0.00000
     21       5.8191      0.00000
     22       5.8983      0.00000

 k-point    13 :       0.4000    0.2000    0.0000
  band No.  band energies     occupation 
      1      -8.9855      2.00000
      2      -8.9810      2.00000
      3      -8.7893      2.00000
      4      -8.7848      2.00000
      5      -2.0648      2.00000
      6      -2.0431      2.00000
      7      -2.0103      2.00000
      8      -2.0037      2.00000
      9      -0.8107      2.00000
     10      -0.7546      2.00000
     11       0.0162      2.00000
     12       0.0693      2.00000
     13       0.3972      2.00000
     14       0.4189      2.00000
     15       1.1710      2.00000
     16       1.2153      2.00000
     17       2.8524      2.00000
     18       2.8749      2.00000
     19       5.0887      0.00000
     20       5.1064      0.00000
     21       6.2142      0.00000
     22       6.2456      0.00000

 k-point    14 :       0.3000    0.3000    0.0000
  band No.  band energies     occupation 
      1      -8.9259      2.00000
      2      -8.9227      2.00000
      3      -8.7483      2.00000
      4      -8.7448      2.00000
      5      -2.1602      2.00000
      6      -2.1480      2.00000
      7      -1.6718      2.00000
      8      -1.6547      2.00000
      9      -0.6754      2.00000
     10      -0.6660      2.00000
     11      -0.3676      2.00000
     12      -0.3332      2.00000
     13       0.1234      2.00000
     14       0.1778      2.00000
     15       1.0699      2.00000
     16       1.1022      2.00000
     17       2.9764      2.00000
     18       2.9952      2.00000
     19       4.8837      0.00000
     20       4.8976      0.00000
     21       6.0818      0.00000
     22       6.2581      0.00000

 k-point    15 :       0.0000    0.0000    0.3333
  band No.  band energies     occupation 
      1     -10.9250      2.00000
      2     -10.9155      2.00000
      3      -9.7207      2.00000
      4      -9.7037      2.00000
      5      -2.4848      2.00000
      6      -2.4041      2.00000
      7       0.5205      2.00000
      8       0.5205      2.00000
      9       0.5207      2.00000
     10       0.5207      2.00000
     11       1.2303      2.00000
     12       1.5083      2.00000
     13       1.6258      2.00000
     14       1.6258      2.00000
     15       1.6268      2.00000
     16       1.6268      2.00000
     17       3.0434      2.00000
     18       3.2253      2.00000
     19       5.8734      0.00000
     20       5.8735      0.00000
     21       5.8747      0.00000
     22       5.8851      0.00000

 k-point    16 :       0.1000   -0.0000    0.3333
  band No.  band energies     occupation 
      1     -10.7865      2.00000
      2     -10.7771      2.00000
      3      -9.6540      2.00000
      4      -9.6378      2.00000
      5      -2.3231      2.00000
      6      -2.2431      2.00000
      7       0.2080      2.00000
      8       0.2087      2.00000
      9       0.6725      2.00000
     10       0.6730      2.00000
     11       0.6971      2.00000
     12       0.8214      2.00000
     13       1.4000      2.00000
     14       1.4012      2.00000
     15       1.9392      2.00000
     16       2.0713      2.00000
     17       2.9786      2.00000
     18       3.1158      2.00000
     19       5.6791      0.00000
     20       5.6802      0.00000
     21       5.7462      0.00000
     22       5.7895      0.00000

 k-point    17 :       0.2000    0.0000    0.3333
  band No.  band energies     occupation 
      1     -10.4005      2.00000
      2     -10.3917      2.00000
      3      -9.4694      2.00000
      4      -9.4556      2.00000
      5      -1.9607      2.00000
      6      -1.8889      2.00000
      7      -0.4376      2.00000
      8      -0.4301      2.00000
      9      -0.0481      2.00000
     10       0.0215      2.00000
     11       0.9097      2.00000
     12       0.9112      2.00000
     13       1.0820      2.00000
     14       1.0831      2.00000
     15       1.9118      2.00000
     16       2.0336      2.00000
     17       2.6420      2.00000
     18       2.6902      2.00000
     19       5.2275      0.00000
     20       5.3711      0.00000
     21       5.5979      0.00000
     22       5.6055      0.00000

 k-point    18 :       0.3000   -0.0000    0.3333
  band No.  band energies     occupation 
      1      -9.8625      2.00000
      2      -9.8549      2.00000
      3      -9.2169      2.00000
      4      -9.2066      2.00000
      5      -1.9450      2.00000
      6      -1.9118      2.00000
      7      -0.8203      2.00000
      8      -0.8056      2.00000
      9      -0.7374      2.00000
     10      -0.7204      2.00000
     11       0.4248      2.00000
     12       0.4267      2.00000
     13       1.5741      2.00000
     14       1.6018      2.00000
     15       1.6044      2.00000
     16       1.6577      2.00000
     17       2.1918      2.00000
     18       2.2113      2.00000
     19       5.2642      0.00000
     20       5.3299      0.00000
     21       5.3366      0.00000
     22       5.4022      0.00000

 k-point    19 :       0.4000    0.0000    0.3333
  band No.  band energies     occupation 
      1      -9.3546      2.00000
      2      -9.3494      2.00000
      3      -8.9867      2.00000
      4      -8.9806      2.00000
      5      -2.3847      2.00000
      6      -2.3692      2.00000
      7      -1.4118      2.00000
      8      -1.3936      2.00000
      9      -0.8554      2.00000
     10      -0.8144      2.00000
     11       0.0929      2.00000
     12       0.0950      2.00000
     13       1.3221      2.00000
     14       1.3657      2.00000
     15       2.0113      2.00000
     16       2.0161      2.00000
     17       2.2551      2.00000
     18       2.2796      2.00000
     19       5.2622      0.00000
     20       5.2659      0.00000
     21       5.5807      0.00000
     22       5.6511      0.00000

 k-point    20 :       0.5000    0.0000    0.3333
  band No.  band energies     occupation 
      1      -9.1355      2.00000
      2      -9.1322      2.00000
      3      -8.8906      2.00000
      4      -8.8874      2.00000
      5      -2.6066      2.00000
      6      -2.5931      2.00000
      7      -1.6469      2.00000
      8      -1.6347      2.00000
      9      -0.9481      2.00000
     10      -0.9102      2.00000
     11      -0.0234      2.00000
     12      -0.0213      2.00000
     13       1.2516      2.00000
     14       1.2613      2.00000
     15       2.1566      2.00000
     16       2.1627      2.00000
     17       2.4787      2.00000
     18       2.4806      2.00000
     19       5.2858      0.00000
     20       5.2877      0.00000
     21       5.7885      0.00000
     22       5.8160      0.00000

 k-point    21 :       0.1000    0.1000    0.3333
  band No.  band energies     occupation 
      1     -10.5239      2.00000
      2     -10.5148      2.00000
      3      -9.5280      2.00000
      4      -9.5134      2.00000
      5      -2.0507      2.00000
      6      -1.9742      2.00000
      7      -0.2551      2.00000
      8      -0.2533      2.00000
      9       0.2297      2.00000
     10       0.3202      2.00000
     11       0.8579      2.00000
     12       0.8636      2.00000
     13       0.9325      2.00000
     14       0.9332      2.00000
     15       2.1197      2.00000
     16       2.2381      2.00000
     17       2.7748      2.00000
     18       2.8433      2.00000
     19       5.2925      0.00000
     20       5.4019      0.00000
     21       5.5857      0.00000
     22       5.6192      0.00000

 k-point    22 :       0.2000    0.1000    0.3333
  band No.  band energies     occupation 
      1     -10.0589      2.00000
      2     -10.0508      2.00000
      3      -9.3066      2.00000
      4      -9.2949      2.00000
      5      -1.8113      2.00000
      6      -1.7596      2.00000
      7      -0.6937      2.00000
      8      -0.6732      2.00000
      9      -0.4123      2.00000
     10      -0.3723      2.00000
     11       0.2374      2.00000
     12       0.2624      2.00000
     13       1.2532      2.00000
     14       1.2542      2.00000
     15       1.9895      2.00000
     16       2.0656      2.00000
     17       2.3685      2.00000
     18       2.3827      2.00000
     19       5.0427      0.00000
     20       5.1615      0.00000
     21       5.4885      0.00000
     22       5.5351      0.00000

 k-point    23 :       0.3000    0.1000    0.3333
  band No.  band energies     occupation 
      1      -9.5258      2.00000
      2      -9.5195      2.00000
      3      -9.0574      2.00000
      4      -9.0496      2.00000
      5      -2.0895      2.00000
      6      -2.0696      2.00000
      7      -1.1921      2.00000
      8      -1.1771      2.00000
      9      -0.7300      2.00000
     10      -0.6902      2.00000
     11       0.0017      2.00000
     12       0.0267      2.00000
     13       1.3475      2.00000
     14       1.3527      2.00000
     15       1.6017      2.00000
     16       1.6413      2.00000
     17       2.3363      2.00000
     18       2.3438      2.00000
     19       5.1562      0.00000
     20       5.2372      0.00000
     21       5.5458      0.00000
     22       5.5851      0.00000

 k-point    24 :       0.4000    0.1000    0.3333
  band No.  band energies     occupation 
      1      -9.1462      2.00000
      2      -9.1425      2.00000
      3      -8.8848      2.00000
      4      -8.8809      2.00000
      5      -2.4142      2.00000
      6      -2.4008      2.00000
      7      -1.6839      2.00000
      8      -1.6772      2.00000
      9      -0.8673      2.00000
     10      -0.8308      2.00000
     11      -0.0413      2.00000
     12      -0.0273      2.00000
     13       1.3040      2.00000
     14       1.3234      2.00000
     15       1.4648      2.00000
     16       1.4715      2.00000
     17       2.6230      2.00000
     18       2.6323      2.00000
     19       5.2982      0.00000
     20       5.3195      0.00000
     21       5.7857      0.00000
     22       5.8228      0.00000

 k-point    25 :       0.2000    0.2000    0.3333
  band No.  band energies     occupation 
      1      -9.5911      2.00000
      2      -9.5845      2.00000
      3      -9.0820      2.00000
      4      -9.0735      2.00000
      5      -1.8949      2.00000
      6      -1.8707      2.00000
      7      -1.0470      2.00000
      8      -1.0390      2.00000
      9      -0.6034      2.00000
     10      -0.5728      2.00000
     11      -0.1909      2.00000
     12      -0.1392      2.00000
     13       0.8945      2.00000
     14       0.8955      2.00000
     15       1.8653      2.00000
     16       1.8925      2.00000
     17       2.3457      2.00000
     18       2.3465      2.00000
     19       5.0435      0.00000
     20       5.1718      0.00000
     21       5.5872      0.00000
     22       5.6097      0.00000

 k-point    26 :       0.3000    0.2000    0.3333
  band No.  band energies     occupation 
      1      -9.1633      2.00000
      2      -9.1591      2.00000
      3      -8.8752      2.00000
      4      -8.8704      2.00000
      5      -2.0357      2.00000
      6      -2.0218      2.00000
      7      -1.7403      2.00000
      8      -1.7360      2.00000
      9      -0.6044      2.00000
     10      -0.5793      2.00000
     11      -0.1012      2.00000
     12      -0.0616      2.00000
     13       0.4606      2.00000
     14       0.4729      2.00000
     15       1.4471      2.00000
     16       1.4579      2.00000
     17       2.6121      2.00000
     18       2.6183      2.00000
     19       5.2339      0.00000
     20       5.2924      0.00000
     21       5.8315      0.00000
     22       5.8675      0.00000

 k-point    27 :       0.4000    0.2000    0.3333
  band No.  band energies     occupation 
      1      -8.9844      2.00000
      2      -8.9822      2.00000
      3      -8.7882      2.00000
      4      -8.7859      2.00000
      5      -2.0597      2.00000
      6      -2.0490      2.00000
      7      -2.0082      2.00000
      8      -2.0050      2.00000
      9      -0.7976      2.00000
     10      -0.7696      2.00000
     11       0.0305      2.00000
     12       0.0570      2.00000
     13       0.4031      2.00000
     14       0.4140      2.00000
     15       1.1813      2.00000
     16       1.2035      2.00000
     17       2.8581      2.00000
     18       2.8693      2.00000
     19       5.0933      0.00000
     20       5.1022      0.00000
     21       6.2109      0.00000
     22       6.2232      0.00000

 k-point    28 :       0.3000    0.3000    0.3333
  band No.  band energies     occupation 
      1      -8.9251      2.00000
      2      -8.9235      2.00000
      3      -8.7474      2.00000
      4      -8.7456      2.00000
      5      -2.1572      2.00000
      6      -2.1511      2.00000
      7      -1.6673      2.00000
      8      -1.6588      2.00000
      9      -0.6733      2.00000
     10      -0.6686      2.00000
     11      -0.3610      2.00000
     12      -0.3439      2.00000
     13       0.1403      2.00000
     14       0.1674      2.00000
     15       1.0767      2.00000
     16       1.0929      2.00000
     17       2.9811      2.00000
     18       2.9905      2.00000
     19       4.8872      0.00000
     20       4.8942      0.00000
     21       6.1221      0.00000
     22       6.2089      0.00000


--------------------------------------------------------------------------------------------------------


 soft charge-density along one line, spin component           1
         0         1         2         3         4         5         6         7         8         9
 total charge-density along one line
 
 pseudopotential strength for first ion, spin component:           1
 -8.238  -0.000   0.000   0.000  -0.000  -0.074   0.000  -0.000
 -0.000  -8.238   0.000  -0.000  -0.000   0.000  -0.074  -0.000
  0.000   0.000  -8.218  -0.000  -0.000  -0.000  -0.000  -0.075
  0.000  -0.000  -0.000  -8.238  -0.000  -0.000   0.000   0.000
 -0.000  -0.000  -0.000  -0.000  -8.238   0.000   0.000   0.000
 -0.074   0.000  -0.000  -0.000   0.000   0.112  -0.000   0.000
  0.000  -0.074  -0.000   0.000   0.000  -0.000   0.112   0.000
 -0.000  -0.000  -0.075   0.000   0.000   0.000   0.000   0.112
 -0.000   0.000   0.000  -0.074   0.000   0.000  -0.000  -0.000
  0.000   0.000   0.000   0.000  -0.074  -0.000  -0.000  -0.000
  0.000  -0.000  -0.005   0.000  -0.000  -0.000   0.000   0.000
 -0.000   0.000   0.001  -0.000   0.000   0.000  -0.000  -0.000
 -0.000   0.000  -0.000  -0.000  -0.007   0.000  -0.000   0.000
 -0.000   0.000   0.000  -0.000  -0.000  -0.000  -0.000  -0.000
 -0.007  -0.000   0.000   0.000  -0.000  -0.000  -0.000  -0.000
  0.000  -0.000   0.000   0.000   0.004  -0.000   0.000  -0.000
  0.000  -0.000  -0.000   0.000   0.000  -0.000   0.000   0.000
  0.004   0.000  -0.000  -0.000   0.000   0.000  -0.000   0.000
 total augmentation occupancy for first ion, spin component:           1
  0.965  -0.000  -0.000   0.000  -0.000   0.601   0.000  -0.000  -0.000  -0.000   0.000  -0.000   0.000   0.000  -0.065  -0.000
  0.000   0.907   0.000   0.000   0.000   0.000   0.839   0.000   0.000  -0.000   0.000  -0.000  -0.000  -0.000   0.000  -0.000
 -0.000   0.000   1.029   0.000   0.000  -0.000  -0.000   0.501   0.000   0.000   0.111  -0.019  -0.000   0.000   0.000   0.000
 -0.000   0.000   0.000   0.907  -0.000   0.000   0.000   0.000   0.839   0.000   0.000   0.000   0.000  -0.000  -0.000  -0.000
 -0.000   0.000   0.000  -0.000   0.965  -0.000   0.000   0.000  -0.000   0.601   0.000  -0.000  -0.065   0.000  -0.000   0.007
  0.601  -0.000  -0.000  -0.000  -0.000   0.678   0.000  -0.000   0.000  -0.000   0.000  -0.000   0.000   0.000  -0.136  -0.000
  0.000   0.839  -0.000   0.000   0.000  -0.000   1.081   0.000   0.000   0.000   0.000   0.000  -0.000   0.000  -0.000  -0.000
 -0.000   0.000   0.501   0.000   0.000  -0.000  -0.000   0.476   0.000   0.000   0.059  -0.021  -0.000  -0.000   0.000   0.000
  0.000   0.000   0.000   0.839  -0.000   0.000   0.000   0.000   1.081  -0.000   0.000   0.000   0.000  -0.000   0.000  -0.000
 -0.000  -0.000   0.000  -0.000   0.601  -0.000   0.000   0.000  -0.000   0.678   0.000  -0.000  -0.136  -0.000  -0.000   0.023
  0.000   0.000   0.111   0.000   0.000   0.000   0.000   0.059   0.000   0.000   1.207  -0.185   0.000  -0.000   0.000   0.000
 -0.000   0.000  -0.019   0.000  -0.000  -0.000  -0.000  -0.021   0.000  -0.000  -0.185   0.042  -0.000  -0.000   0.000   0.000
  0.000  -0.000  -0.000  -0.000  -0.065   0.000  -0.000  -0.000   0.000  -0.136   0.000   0.000   0.217  -0.000   0.000  -0.032
  0.000  -0.000   0.000  -0.000   0.000  -0.000   0.000  -0.000  -0.000   0.000  -0.000  -0.000  -0.000   0.264  -0.000   0.000
 -0.065   0.000   0.000   0.000  -0.000  -0.136   0.000   0.000   0.000  -0.000   0.000  -0.000   0.000   0.000   0.217  -0.000
 -0.000  -0.000   0.000  -0.000   0.007  -0.000   0.000   0.000  -0.000   0.023   0.000   0.000  -0.032   0.000  -0.000   0.005
 -0.000  -0.000  -0.000   0.000   0.000  -0.000   0.000   0.000  -0.000  -0.000   0.000   0.000   0.000  -0.038   0.000  -0.000
  0.007   0.000  -0.000   0.000   0.000   0.023  -0.000  -0.000  -0.000   0.000  -0.000   0.000  -0.000  -0.000  -0.032   0.000


------------------------ aborting loop because EDIFF is reached ----------------------------------------


    CHARGE:  cpu time    0.1100: real time    0.1106
    FORLOC:  cpu time    0.0070: real time    0.0068
    FORNL :  cpu time    0.1680: real time    0.1675
    STRESS:  cpu time    0.4869: real time    0.4873
    FORCOR:  cpu time    0.0730: real time    0.0727
    FORHAR:  cpu time    0.0160: real time    0.0161
    MIXING:  cpu time    0.0020: real time    0.0022
    OFIELD:  cpu time    0.0000: real time    0.0000

  DFT-D2 method for vdW energy calculation
  -------------------------------------------------------------------

  Parameters of vdW forcefield:
         C6(Jnm^6/mol)     R0(A)
   -----------------------------
   Mo      24.670          1.639
   S        5.570          1.683

  IVDW =   1
  VDW_RADIUS =    50.000 A
  VDW_S6 =     0.750
  VDW_SR =     1.000
  VDW_D =    20.000
  LVDW_EWALD = F

[...]
      4     -18.8531      2.00000
      5     -17.5557      2.00000
      6     -17.5358      2.00000
      7     -14.0567      2.00000
      8     -14.0539      2.00000
      9      -9.3427      2.00000
     10      -9.3344      2.00000
     11      -7.7988      2.00000
     12      -7.7525      2.00000
     13      -4.2345      2.00000
     14      -4.1287      2.00000
     15      -2.7414      2.00000
     16      -2.7379      2.00000
     17      -2.4878      2.00000
     18      -2.4411      2.00000
     19      -0.0139      0.09165
     20       0.1160      0.00918
     21       2.6146      0.00000
     22       2.6495      0.00000

 k-point    27 :       0.4000    0.2000    0.3333
  band No.  band energies     occupation 
      1     -19.9545      2.00000
      2     -19.9540      2.00000
      3     -18.5930      2.00000
      4     -18.5902      2.00000
      5     -17.3194      2.00000
      6     -17.2898      2.00000
      7     -14.1235      2.00000
      8     -14.1194      2.00000
      9     -10.0013      2.00000
     10      -9.9991      2.00000
     11      -8.0101      2.00000
     12      -7.9607      2.00000
     13      -4.1115      2.00000
     14      -4.0892      2.00000
     15      -2.5181      2.00000
     16      -2.5022      2.00000
     17      -2.4998      2.00000
     18      -2.4096      2.00000
     19      -0.4609      1.85952
     20      -0.3588      1.54801
     21       2.8360      0.00000
     22       2.8703      0.00000

 k-point    28 :       0.3000    0.3000    0.3333
  band No.  band energies     occupation 
      1     -19.6577      2.00000
      2     -19.6469      2.00000
      3     -18.7920      2.00000
      4     -18.7904      2.00000
      5     -17.2009      2.00000
      6     -17.1864      2.00000
      7     -14.1139      2.00000
      8     -14.1136      2.00000
      9     -10.4597      2.00000
     10     -10.4549      2.00000
     11      -8.2960      2.00000
     12      -8.2594      2.00000
     13      -3.8182      2.00000
     14      -3.7655      2.00000
     15      -1.9417      2.00000
     16      -1.9360      2.00000
     17      -1.7654      2.00000
     18      -1.7555      2.00000
     19       0.0847      0.01715
     20       0.1223      0.00806
     21       2.1426      0.00000
     22       2.1799      0.00000


--------------------------------------------------------------------------------------------------------


 soft charge-density along one line, spin component           1
         0         1         2         3         4         5         6         7         8         9
 total charge-density along one line
 
 pseudopotential strength for first ion, spin component:           1
 -9.518  -0.000   0.000  -0.000  -0.000   0.066   0.000  -0.000
 -0.000  -9.371  -0.000  -0.000   0.000   0.000   0.050   0.000
  0.000  -0.000  -9.372   0.000  -0.000  -0.000   0.000   0.049
 -0.000  -0.000   0.000  -9.371  -0.000   0.000   0.000  -0.000
 -0.000   0.000  -0.000  -0.000  -9.518   0.000  -0.000   0.000
  0.066   0.000  -0.000   0.000   0.000   0.104  -0.000   0.000
  0.000   0.050   0.000   0.000  -0.000  -0.000   0.104  -0.000
 -0.000   0.000   0.049  -0.000   0.000   0.000  -0.000   0.104
  0.000   0.000  -0.000   0.050   0.000  -0.000  -0.000   0.000
  0.000  -0.000   0.000   0.000   0.066  -0.000   0.000  -0.000
  0.000   0.000  -0.113   0.000  -0.000  -0.000  -0.000  -0.003
 -0.000  -0.000   0.021  -0.000   0.000   0.000   0.000   0.000
 -0.000   0.000  -0.000  -0.000  -0.212   0.000  -0.000   0.000
 -0.000   0.000   0.000  -0.000   0.000  -0.000  -0.000  -0.000
 -0.212  -0.000   0.000   0.000  -0.000  -0.003  -0.000  -0.000
  0.000  -0.000   0.000   0.000   0.100  -0.000   0.000  -0.000
  0.000  -0.000  -0.000   0.000  -0.000  -0.000   0.000   0.000
  0.100   0.000  -0.000  -0.000   0.000   0.000  -0.000   0.000
 total augmentation occupancy for first ion, spin component:           1
  1.461   0.000   0.000   0.000  -0.000   1.836   0.000   0.000   0.000  -0.000  -0.000   0.000  -0.000   0.000  -0.233  -0.000
  0.000   1.134   0.000  -0.000  -0.000   0.000   1.598   0.000  -0.000  -0.000   0.000  -0.000   0.000  -0.000   0.000   0.000
  0.000   0.000   0.937   0.000  -0.000   0.000   0.000   1.655   0.000  -0.000  -0.259   0.544   0.000  -0.000  -0.000   0.000
  0.000  -0.000   0.000   1.134   0.000   0.000  -0.000   0.000   1.598   0.000  -0.000   0.000   0.000  -0.000  -0.000   0.000
 -0.000  -0.000  -0.000   0.000   1.461   0.000  -0.000  -0.000   0.000   1.836   0.000  -0.000  -0.233  -0.000   0.000  -0.103
  1.836   0.000   0.000   0.000  -0.000   5.655   0.000   0.000   0.000   0.000  -0.000   0.000  -0.000   0.000  -1.127   0.000
  0.000   1.598   0.000  -0.000  -0.000   0.000   2.862   0.000  -0.000  -0.000   0.000  -0.000   0.000  -0.000   0.000  -0.000
  0.000   0.000   1.655   0.000  -0.000   0.000   0.000   4.249   0.000  -0.000  -1.787   1.259   0.000  -0.000  -0.000  -0.000
  0.000  -0.000   0.000   1.598   0.000   0.000  -0.000   0.000   2.862   0.000  -0.000   0.000  -0.000  -0.000  -0.000   0.000
  0.000  -0.000  -0.000   0.000   1.836   0.000  -0.000  -0.000   0.000   5.655   0.000  -0.000  -1.127  -0.000   0.000   0.030
 -0.000   0.000  -0.259  -0.000   0.000  -0.000   0.000  -1.787  -0.000   0.000   2.041  -0.395  -0.000   0.000   0.000   0.000
  0.000  -0.000   0.544   0.000  -0.000   0.000  -0.000   1.259   0.000  -0.000  -0.395   0.434  -0.000   0.000  -0.000  -0.000
 -0.000   0.000   0.000   0.000  -0.233  -0.000   0.000   0.000  -0.000  -1.127  -0.000   0.000   0.747   0.000  -0.000  -0.058
  0.000   0.000  -0.000  -0.000  -0.000  -0.000  -0.000   0.000  -0.000  -0.000   0.000  -0.000   0.000   0.432   0.000  -0.000
 -0.233   0.000  -0.000  -0.000   0.000  -1.127   0.000  -0.000  -0.000   0.000   0.000  -0.000  -0.000   0.000   0.747   0.000
 -0.000   0.000   0.000   0.000  -0.103   0.000  -0.000  -0.000  -0.000   0.030   0.000   0.000  -0.058  -0.000   0.000   0.023
 -0.000   0.000   0.000   0.000  -0.000   0.000  -0.000  -0.000  -0.000   0.000  -0.000  -0.000  -0.000  -0.066  -0.000   0.000
 -0.103   0.000  -0.000  -0.000   0.000   0.030  -0.000   0.000   0.000  -0.000  -0.000  -0.000   0.000  -0.000  -0.058  -0.000


------------------------ aborting loop because EDIFF is reached ----------------------------------------


    CHARGE:  cpu time    0.1070: real time    0.1081
    FORLOC:  cpu time    0.0070: real time    0.0069
    FORNL :  cpu time    0.1430: real time    0.1431
    STRESS:  cpu time    0.4479: real time    0.4475
    FORCOR:  cpu time    0.0740: real time    0.0740
    FORHAR:  cpu time    0.0160: real time    0.0164
    MIXING:  cpu time    0.0130: real time    0.0134
    OFIELD:  cpu time    0.0000: real time    0.0000

  Number of pair interactions contributing to vdW energy:   34334
  Edisp (eV):   -1.42925
    FORVDW:  cpu time    0.0050: real time    0.0049

  FORCE on cell =-STRESS in cart. coord.  units (eV):
  Direction    XX          YY          ZZ          XY          YZ          ZX
  --------------------------------------------------------------------------------------
  Alpha Z    36.74523    36.74523    36.74523
  Ewald    7354.30041  7354.30409 -8273.32819     0.00159     0.00000    -0.00325
  Hartree  7319.80964  7319.80969 -7190.15392     0.00012     0.00000     0.00005
  E(xc)    -175.82287  -175.82291  -167.30857    -0.00004     0.00000    -0.00001
  Local  -15455.48945-15455.49103 15385.44020    -0.00102     0.00000    -0.00004
  n-local   444.01530   436.84070   397.33767     2.17961     0.05452     0.06631
  augment   -94.04135   -94.04136    -9.47892     0.00004     0.00000    -0.00032
  Kinetic   727.72733   722.14302   639.51694     9.90460    -0.20651    -0.24258
  Fock        0.00000     0.00000     0.00000     0.00000     0.00000     0.00000
  vdW         0.37243     0.37243     0.01661    -0.00000    -0.00000     0.00000
  -------------------------------------------------------------------------------------
  Total     151.23827   151.23827   818.78705    -0.00000     0.00000     0.00000
  in kB     750.77388   750.77388  4064.60568    -0.00000     0.00000     0.00000
  external pressure =     1855.38 kB  Pullay stress =        0.00 kB


 VOLUME and BASIS-vectors are now :
 -----------------------------------------------------------------------------
  energy-cutoff  :      450.00
  volume of cell :      322.75
      direct lattice vectors                 reciprocal lattice vectors
     3.208896416  0.000000000  0.000000000     0.311633618  0.179921753 -0.000000000
    -1.604448208  2.778985814  0.000000000    -0.000000000  0.359843507  0.000000000
     0.000000000 -0.000000000 36.192709657    -0.000000000 -0.000000000  0.027629874

  length of vectors
     3.208896416  3.208896416 36.192709657     0.359843507  0.359843507  0.027629874


 FORCES acting on ions
    electron-ion (+dipol)            ewald-force                    non-local-force                 convergence-correction
 -----------------------------------------------------------------------------------------------
   -.584E-04 -.167E-04 0.134E-04   0.484E-03 -.559E-03 0.807E-09   0.444E-15 0.153E-21 0.347E-17   0.691E-08 -.659E-08 -.314E-03
   0.455E-03 -.212E-03 0.134E-04   -.484E-03 0.559E-03 -.643E-09   -.666E-15 -.153E-21 -.347E-17   -.105E-07 0.867E-08 -.197E-03
   0.332E-03 -.389E-03 -.519E+03   -.156E-02 -.280E-03 0.883E+03   0.370E-17 0.545E-16 0.153E+03   0.254E-07 -.194E-07 -.295E-02
   -.155E-02 0.109E-02 0.519E+03   0.156E-02 0.280E-03 -.883E+03   -.557E-16 -.545E-16 -.153E+03   -.167E-07 0.144E-07 0.243E-02
   0.390E-03 0.112E-02 -.519E+03   -.205E-02 0.280E-03 0.883E+03   0.696E-16 -.357E-16 0.153E+03   -.472E-07 0.146E-07 -.306E-02
   -.170E-02 -.363E-03 0.519E+03   0.205E-02 -.280E-03 -.883E+03   -.101E-15 0.219E-16 -.153E+03   0.550E-07 -.192E-07 0.255E-02
 -----------------------------------------------------------------------------------------------
   -.213E-02 0.123E-02 0.200E-04   0.664E-13 -.459E-13 -.114E-12   -.305E-15 -.139E-16 0.284E-13   0.130E-07 -.749E-08 -.154E-02
 
 
 POSITION                                       TOTAL-FORCE (eV/Angst)
 -----------------------------------------------------------------------------------
     -0.00000      1.85266      9.04818        -0.000000     -0.000000      0.000000
      1.60445      0.92633     27.14453         0.000000     -0.000000     -0.000000
     -0.00000      1.85266     27.59521         0.000000     -0.000000    517.657074
      1.60445      0.92633      8.59750        -0.000000      0.000000   -517.657074
      1.60445      0.92633      9.49885         0.000000     -0.000000    517.657074
      0.00000      1.85266     26.69386        -0.000000      0.000000   -517.657074
 -----------------------------------------------------------------------------------
    total drift:                               -0.002135      0.001232     -0.001520


--------------------------------------------------------------------------------------------------------



  FREE ENERGIE OF THE ION-ELECTRON SYSTEM (eV)
  ---------------------------------------------------
  free  energy   TOTEN  =       261.76061965 eV

  energy  without entropy=      261.80604385  energy(sigma->0) =      261.78333175
 
 d Force =-0.2453672E+04[-0.491E+04, 0.106E+00]  d Energy =-0.3065277E+03-0.215E+04
 d Force =-0.5923745E+04[-0.837E+04,-0.347E+04]  d Ewald  =-0.6528107E+04 0.604E+03


--------------------------------------------------------------------------------------------------------


    POTLOK:  cpu time    0.0700: real time    0.0700


--------------------------------------------------------------------------------------------------------


 Quasi-Newton relaxation of ions (Broydens 2nd method)
  g(Force)  = 0.517E+05   g(Stress)= 0.576E+04

 retain information from N=  1 steps
 eigenvalues of (default step * inverse Hessian matrix)
  average eigenvalue of G=   0.0678
 eigenvalue spectrum of G is  0.0678


--------------------------------------------------------------------------------------------------------


    WAVPRE:  cpu time    0.0210: real time    0.0257
    FEWALD:  cpu time    0.0010: real time    0.0004
    GENKIN:  cpu time    0.0080: real time    0.0083
    ORTHCH:  cpu time    0.0410: real time    0.0407
     LOOP+:  cpu time   71.4171: real time   71.5620


--------------------------------------- Iteration     25(   1)  ---------------------------------------


    POTLOK:  cpu time    0.0670: real time    0.0694
    SETDIJ:  cpu time    0.0060: real time    0.0057
     EDDAV:  cpu time    1.5038: real time    1.5039
       DOS:  cpu time    0.0010: real time    0.0010
    CHARGE:  cpu time    0.1110: real time    0.1113
    MIXING:  cpu time    0.0030: real time    0.0029
    --------------------------------------------
      LOOP:  cpu time    1.6917: real time    1.6942

 eigenvalue-minimisations  :  2034
 total energy-change (2. order) :-0.3353430E+03  (-0.1766839E+04)
 number of electron      36.0000014 magnetization 
 augmentation part       -0.1028727 magnetization 

  free energy =  -0.721531755711E+02  energy without entropy=  -0.721178175338E+02


--------------------------------------------------------------------------------------------------------




--------------------------------------- Iteration     25(   2)  ---------------------------------------


    POTLOK:  cpu time    0.0580: real time    0.0615
    SETDIJ:  cpu time    0.0060: real time    0.0056
     EDDAV:  cpu time    1.2398: real time    1.2408
       DOS:  cpu time    0.0010: real time    0.0011
    CHARGE:  cpu time    0.1090: real time    0.1089
    MIXING:  cpu time    0.0150: real time    0.0137
    --------------------------------------------
      LOOP:  cpu time    1.4288: real time    1.4316

 eigenvalue-minimisations  :  1604
 total energy-change (2. order) :-0.1052764E+03  (-0.3190427E+03)
 number of electron      36.0000027 magnetization 
 augmentation part        2.1863730 magnetization 

 eigenvalues of (default mixing * dielectric matrix)
  average eigenvalue GAMMA=   2.1329
 16.8507  1.6483  1.6483  3.4833  3.4833  3.5862  3.5862  0.1337  0.2358  3.3327
  3.3327  1.9780  1.9780  0.3677  2.9608  2.9608  1.9996  1.9996  3.0464  3.0464
  2.9255  2.0027  2.0027  2.8022  2.8022  2.6444  2.6444  2.4015  2.4015  2.7127
  2.6781  2.6781  2.6261  2.6261  2.4656  2.4656  2.6698  2.5459  2.5459  2.6228
  2.6228  2.5533  2.5533  2.5585  2.3553  2.3553  2.2181  2.1233  2.1325  1.7231
  0.6641  0.6641  1.2963  1.2963  1.5061  1.4242  1.4242  1.0516  1.0516  0.9647
  0.9647  0.7777  0.8484  0.8484  1.2361  1.1084  0.9377  1.0401  1.0401  0.9930
  0.9930  0.9897  0.9897  1.0049  1.0049  0.9981  0.9981

  free energy =  -0.177429539174E+03  energy without entropy=  -0.177375680891E+03


--------------------------------------------------------------------------------------------------------




--------------------------------------- Iteration     25(   3)  ---------------------------------------


    POTLOK:  cpu time    0.0580: real time    0.0610
    SETDIJ:  cpu time    0.0060: real time    0.0056
     EDDAV:  cpu time    1.3318: real time    1.3316
       DOS:  cpu time    0.0000: real time    0.0012
    CHARGE:  cpu time    0.1130: real time    0.1126
    MIXING:  cpu time    0.0150: real time    0.0139
    --------------------------------------------
      LOOP:  cpu time    1.5238: real time    1.5260

 eigenvalue-minimisations  :  1774
 total energy-change (2. order) : 0.4622536E+02  (-0.4249061E+02)
 number of electron      36.0000019 magnetization 
 augmentation part       -1.0322020 magnetization 

 eigenvalues of (default mixing * dielectric matrix)
  average eigenvalue GAMMA=   2.1046
 14.9226  4.7894  3.3891  3.3891  3.6006  3.6006  1.4237  1.4237  0.1643  0.1933
  2.2037  2.2037  2.0283  2.0283  3.1551  3.1551  0.4920  0.4920  2.9870  2.9870
  2.9911  2.4351  2.4351  2.9255  2.6668  2.6668  1.9613  1.9613  2.7889  2.7690
  2.3837  2.3837  2.6340  2.6340  2.7127  2.6742  2.6742  2.5503  2.5503  2.6094
  2.6094  2.6210  2.6210  2.5615  2.4107  2.4107  2.2515  2.2515  2.3897  1.8480
  1.8480  0.9577  0.9577  1.2198  1.2198  1.4315  1.4315  1.3534  1.3534  1.0278
  1.0278  0.7506  0.8353  0.8353  0.7874  1.0554  1.0554  1.0456  1.0456  0.9582
  0.9708  0.9882  0.9882  1.0052  1.0052  0.9995  0.9995  0.9934

  free energy =  -0.131204182793E+03  energy without entropy=  -0.131157947246E+03


--------------------------------------------------------------------------------------------------------




--------------------------------------- Iteration     25(   4)  ---------------------------------------


    POTLOK:  cpu time    0.0570: real time    0.0614
    SETDIJ:  cpu time    0.0070: real time    0.0056
     EDDAV:  cpu time    1.2888: real time    1.2894
       DOS:  cpu time    0.0020: real time    0.0013
    CHARGE:  cpu time    0.1100: real time    0.1100
    MIXING:  cpu time    0.0140: real time    0.0143
    --------------------------------------------
      LOOP:  cpu time    1.4788: real time    1.4820

 eigenvalue-minimisations  :  1712
 total energy-change (2. order) :-0.6705922E+02  (-0.3508872E+02)
 number of electron      36.0000029 magnetization 
 augmentation part        3.1153891 magnetization 

 eigenvalues of (default mixing * dielectric matrix)
  average eigenvalue GAMMA=   2.1974
 27.3230  4.2481  3.2481  3.2481  1.4538  1.4538  1.9095  1.9095  3.1894  3.1894
  2.6230  2.6230  3.1469  3.0070  3.0070  0.1862  3.0162  0.4834  0.4834  2.9298
  0.3723  0.3723  2.1307  2.1307  2.6716  2.6716  2.7661  2.7371  2.7371  2.5987
  2.5987  2.7153  2.6697  2.6697  2.6150  2.6150  2.5118  2.5118  2.5693  2.5693
  2.5346  2.3909  2.3909  2.1704  2.1704  2.4037  2.2657  2.2657  2.0928  1.5474
  1.5474  1.8389  1.5391  1.3697  1.3697  1.1335  1.1335  0.9158  0.9158  1.0320
  1.0320  0.7174  0.8021  0.8021  1.2679  0.8625  1.0800  1.0800  1.0575  0.9681
  1.0106  1.0106  0.9828  0.9907  0.9907  0.9992  0.9992  1.0024  0.9997

  free energy =  -0.198263400795E+03  energy without entropy=  -0.198199447206E+03


--------------------------------------------------------------------------------------------------------




--------------------------------------- Iteration     25(   5)  ---------------------------------------


    POTLOK:  cpu time    0.0570: real time    0.0600
    SETDIJ:  cpu time    0.0060: real time    0.0056
     EDDAV:  cpu time    1.2548: real time    1.2549
       DOS:  cpu time    0.0020: real time    0.0013
    CHARGE:  cpu time    0.1110: real time    0.1110
    MIXING:  cpu time    0.0140: real time    0.0143
    --------------------------------------------
      LOOP:  cpu time    1.4448: real time    1.4470

 eigenvalue-minimisations  :  1658
 total energy-change (2. order) :-0.5260379E+01  (-0.5477392E+01)
 number of electron      36.0000029 magnetization 
 augmentation part        4.0231152 magnetization 

 eigenvalues of (default mixing * dielectric matrix)
  average eigenvalue GAMMA=   2.3993
 37.8238  4.5855  4.5855  2.4011  0.8176  0.8176  3.4987  3.4987  0.2044  3.3806
  2.6384  2.6384  0.4472  0.4472  2.8953  2.8953  3.0607  1.6351  1.6351  2.2949
  2.2949  2.1540  2.1540  2.8595  2.6380  2.6380  2.7601  2.7601  2.7780  2.4209
  2.4209  2.6490  2.6490  2.6904  2.6599  2.6599  2.5297  2.5297  2.6135  2.6135
  2.5298  2.5298  2.5217  2.4689  2.2795  2.1737  0.9528  0.9528  1.8528  1.6549
  1.6549  0.6270  1.0307  1.0307  1.3989  1.3989  0.9119  0.9119  1.2777  1.1499
  1.1499  1.0197  1.0197  0.8288  0.9166  1.0071  1.0071  0.9490  1.0268  1.0268
  1.0171  1.0091  0.9917  0.9947  0.9988

  free energy =  -0.203523779535E+03  energy without entropy=  -0.203469831484E+03


--------------------------------------------------------------------------------------------------------




--------------------------------------- Iteration     25(   6)  ---------------------------------------


