<?xml version="1.0" encoding="ISO-8859-1"?>
<modeling>
 <generator>
  <i name="program" type="string">vasp </i>
  <i name="version" type="string">5.4.4.18Apr17-6-g9f103f2a35  </i>
  <i name="subversion" type="string">(build Jun 30 2017 11:15:00) complex            parallel </i>
  <i name="platform" type="string">STALLO_VASP_5.4.4 </i>
  <i name="date" type="string">2019 11 08 </i>
  <i name="time" type="string">13:45:25 </i>
 </generator>
 <incar>
  <i type="string" name="PREC">accurate  ! normal/accurate</i>
  <i type="string" name="ALGO"> Normal      ! Algorithm for electronic</i>
  <i type="int" name="ISPIN">     1</i>
  <i type="int" name="MAXMIX">    80</i>
  <i type="int" name="NELM">   200</i>
  <i type="int" name="NELMIN">     4</i>
  <i type="int" name="IBRION">     1</i>
  <i name="EDIFF">      0.00000100</i>
  <i name="EDIFFG">     -0.01000000</i>
  <i type="int" name="NSW">    80</i>
  <i type="int" name="ISIF">     3</i>
  <i name="ENCUT">    450.00000000</i>
  <i type="logical" name="LREAL"> F  </i>
  <i type="int" name="ISMEAR">     0</i>
  <i name="SIGMA">      0.20000000</i>
  <i type="int" name="NWRITE">     1</i>
  <v type="int" name="KPOINT_BSE">    -1     0     0     0</v>
  <i type="int" name="NELM">   200</i>
 </incar>
 <structure name="primitive_cell" >
  <crystal>
   <varray name="basis" >
    <v>       3.19031573       0.00000000       0.00000000 </v>
    <v>      -1.59515786       2.76289447       0.00000000 </v>
    <v>       0.00000000       0.00000000      14.87900430 </v>
   </varray>
   <i name="volume">    131.15106795 </i>
   <varray name="rec_basis" >
    <v>       0.31344860       0.18096963       0.00000000 </v>
    <v>       0.00000000       0.36193927       0.00000000 </v>
    <v>       0.00000000       0.00000000       0.06720880 </v>
   </varray>
  </crystal>
  <varray name="positions" >
   <v>       0.33333300      -0.33333300       0.25000000 </v>
   <v>      -0.33333400       0.33333300       0.35517400 </v>
   <v>      -0.33333300       0.33333300       0.14482600 </v>
   <v>       0.33333300      -0.33333300      -0.14482600 </v>
   <v>       0.33333400      -0.33333300      -0.35517400 </v>
   <v>      -0.33333300       0.33333300      -0.25000000 </v>
  </varray>
 </structure>
 <varray name="primitive_index" >
  <v type="int" >        1 </v>
  <v type="int" >        5 </v>
  <v type="int" >        4 </v>
  <v type="int" >        3 </v>
  <v type="int" >        6 </v>
  <v type="int" >        2 </v>
 </varray>
 <kpoints>
  <generation param="Gamma">
   <v type="int" name="divisions">      10       10        3 </v>
   <v name="usershift">      0.00000000       0.00000000       0.00000000 </v>
   <v name="genvec1">      0.10000000       0.00000000       0.00000000 </v>
   <v name="genvec2">      0.00000000       0.10000000       0.00000000 </v>
   <v name="genvec3">      0.00000000       0.00000000       0.33333333 </v>
   <v name="shift">      0.00000000       0.00000000       0.00000000 </v>
  </generation>
  <varray name="kpointlist" >
   <v>       0.00000000       0.00000000       0.00000000 </v>
   <v>       0.10000000      -0.00000000       0.00000000 </v>
   <v>       0.20000000       0.00000000       0.00000000 </v>
   <v>       0.30000000      -0.00000000       0.00000000 </v>
   <v>       0.40000000       0.00000000       0.00000000 </v>
   <v>       0.50000000       0.00000000       0.00000000 </v>
   <v>       0.10000000       0.10000000       0.00000000 </v>
   <v>       0.20000000       0.10000000       0.00000000 </v>
   <v>       0.30000000       0.10000000       0.00000000 </v>
   <v>       0.40000000       0.10000000       0.00000000 </v>
   <v>       0.20000000       0.20000000       0.00000000 </v>
   <v>       0.30000000       0.20000000       0.00000000 </v>
   <v>       0.40000000       0.20000000       0.00000000 </v>
   <v>       0.30000000       0.30000000       0.00000000 </v>
   <v>       0.00000000       0.00000000       0.33333333 </v>
   <v>       0.10000000      -0.00000000       0.33333333 </v>
   <v>       0.20000000       0.00000000       0.33333333 </v>
   <v>       0.30000000      -0.00000000       0.33333333 </v>
   <v>       0.40000000       0.00000000       0.33333333 </v>
   <v>       0.50000000       0.00000000       0.33333333 </v>
   <v>       0.10000000       0.10000000       0.33333333 </v>
   <v>       0.20000000       0.10000000       0.33333333 </v>
   <v>       0.30000000       0.10000000       0.33333333 </v>
   <v>       0.40000000       0.10000000       0.33333333 </v>
   <v>       0.20000000       0.20000000       0.33333333 </v>
   <v>       0.30000000       0.20000000       0.33333333 </v>
   <v>       0.40000000       0.20000000       0.33333333 </v>
   <v>       0.30000000       0.30000000       0.33333333 </v>
  </varray>
  <varray name="weights" >
   <v>       0.00333333 </v>
   <v>       0.02000000 </v>
   <v>       0.02000000 </v>
   <v>       0.02000000 </v>
   <v>       0.02000000 </v>
   <v>       0.01000000 </v>
   <v>       0.02000000 </v>
   <v>       0.04000000 </v>
   <v>       0.04000000 </v>
   <v>       0.04000000 </v>
   <v>       0.02000000 </v>
   <v>       0.04000000 </v>
   <v>       0.02000000 </v>
   <v>       0.02000000 </v>
   <v>       0.00666667 </v>
   <v>       0.04000000 </v>
   <v>       0.04000000 </v>
   <v>       0.04000000 </v>
   <v>       0.04000000 </v>
   <v>       0.02000000 </v>
   <v>       0.04000000 </v>
   <v>       0.08000000 </v>
   <v>       0.08000000 </v>
   <v>       0.08000000 </v>
   <v>       0.04000000 </v>
   <v>       0.08000000 </v>
   <v>       0.04000000 </v>
   <v>       0.04000000 </v>
  </varray>
 </kpoints>
 <parameters>
  <separator name="general" >
   <i type="string" name="SYSTEM">unknown system</i>
   <i type="logical" name="LCOMPAT"> F  </i>
  </separator>
  <separator name="electronic" >
   <i type="string" name="PREC">accura</i>
   <i name="ENMAX">    450.00000000</i>
   <i name="ENAUG">    345.27800000</i>
   <i name="EDIFF">      0.00000100</i>
   <i type="int" name="IALGO">    38</i>
   <i type="int" name="IWAVPR">    11</i>
   <i type="int" name="NBANDS">    22</i>
   <i name="NELECT">     36.00000000</i>
   <i type="int" name="TURBO">     0</i>
   <i type="int" name="IRESTART">     0</i>
   <i type="int" name="NREBOOT">     0</i>
   <i type="int" name="NMIN">     0</i>
   <i name="EREF">      0.00000000</i>
   <separator name="electronic smearing" >
    <i type="int" name="ISMEAR">     0</i>
    <i name="SIGMA">      0.20000000</i>
    <i name="KSPACING">      0.50000000</i>
    <i type="logical" name="KGAMMA"> T  </i>
   </separator>
   <separator name="electronic projectors" >
    <i type="logical" name="LREAL"> F  </i>
    <v name="ROPT">      0.00000000      0.00000000</v>
    <i type="int" name="LMAXPAW">  -100</i>
    <i type="int" name="LMAXMIX">     2</i>
    <i type="logical" name="NLSPLINE"> F  </i>
   </separator>
   <separator name="electronic startup" >
    <i type="int" name="ISTART">     0</i>
    <i type="int" name="ICHARG">     2</i>
    <i type="int" name="INIWAV">     1</i>
   </separator>
   <separator name="electronic spin" >
    <i type="int" name="ISPIN">     1</i>
    <i type="logical" name="LNONCOLLINEAR"> F  </i>
    <v name="MAGMOM">      1.00000000      1.00000000      1.00000000      1.00000000      1.00000000      1.00000000</v>
    <i name="NUPDOWN">     -1.00000000</i>
    <i type="logical" name="LSORBIT"> F  </i>
    <v name="SAXIS">      0.00000000      0.00000000      1.00000000</v>
    <i type="logical" name="LSPIRAL"> F  </i>
    <v name="QSPIRAL">      0.00000000      0.00000000      0.00000000</v>
    <i type="logical" name="LZEROZ"> F  </i>
   </separator>
   <separator name="electronic exchange-correlation" >
    <i type="logical" name="LASPH"> F  </i>
    <i type="logical" name="LMETAGGA"> F  </i>
   </separator>
   <separator name="electronic convergence" >
    <i type="int" name="NELM">   200</i>
    <i type="int" name="NELMDL">     0</i>
    <i type="int" name="NELMIN">     4</i>
    <i name="ENINI">    450.00000000</i>
    <separator name="electronic convergence detail" >
     <i type="logical" name="LDIAG"> T  </i>
     <i type="logical" name="LSUBROT"> F  </i>
     <i name="WEIMIN">      0.00100000</i>
     <i name="EBREAK">      0.00000001</i>
     <i name="DEPER">      0.30000000</i>
     <i type="int" name="NRMM">     4</i>
     <i name="TIME">      0.40000000</i>
    </separator>
   </separator>
   <separator name="electronic mixer" >
    <i name="AMIX">      0.40000000</i>
    <i name="BMIX">      1.00000000</i>
    <i name="AMIN">      0.10000000</i>
    <i name="AMIX_MAG">      1.60000000</i>
    <i name="BMIX_MAG">      1.00000000</i>
    <separator name="electronic mixer details" >
     <i type="int" name="IMIX">     4</i>
     <i type="logical" name="MIXFIRST"> F  </i>
     <i type="int" name="MAXMIX">    80</i>
     <i name="WC">    100.00000000</i>
     <i type="int" name="INIMIX">     1</i>
     <i type="int" name="MIXPRE">     1</i>
     <i type="int" name="MREMOVE">     5</i>
    </separator>
   </separator>
   <separator name="electronic dipolcorrection" >
    <i type="logical" name="LDIPOL"> F  </i>
    <i type="logical" name="LMONO"> F  </i>
    <i type="int" name="IDIPOL">     0</i>
    <i name="EPSILON">      1.00000000</i>
    <v name="DIPOL">   -100.00000000   -100.00000000   -100.00000000</v>
    <i name="EFIELD">      0.00000000</i>
   </separator>
  </separator>
  <separator name="grids" >
   <i type="int" name="NGX">    24</i>
   <i type="int" name="NGY">    24</i>
   <i type="int" name="NGZ">   108</i>
   <i type="int" name="NGXF">    48</i>
   <i type="int" name="NGYF">    48</i>
   <i type="int" name="NGZF">   216</i>
   <i type="logical" name="ADDGRID"> F  </i>
  </separator>
  <separator name="ionic" >
   <i type="int" name="NSW">    80</i>
   <i type="int" name="IBRION">     1</i>
   <i type="int" name="MDALGO">     0</i>
   <i type="int" name="ISIF">     3</i>
   <i name="PSTRESS">      0.00000000</i>
   <i name="EDIFFG">     -0.01000000</i>
   <i type="int" name="NFREE">     0</i>
   <i name="POTIM">      0.50000000</i>
   <i name="SMASS">     -3.00000000</i>
   <i name="SCALEE">      1.00000000</i>
  </separator>
  <separator name="ionic md" >
   <i name="TEBEG">      0.00010000</i>
   <i name="TEEND">      0.00010000</i>
   <i type="int" name="NBLOCK">     1</i>
   <i type="int" name="KBLOCK">    80</i>
   <i type="int" name="NPACO">   256</i>
   <i name="APACO">     16.00000000</i>
  </separator>
  <separator name="symmetry" >
   <i type="int" name="ISYM">     2</i>
   <i name="SYMPREC">      0.00001000</i>
  </separator>
  <separator name="dos" >
   <i type="int" name="LORBIT">     0</i>
   <v name="RWIGS">     -1.00000000     -1.00000000</v>
   <i type="int" name="NEDOS">   301</i>
   <i name="EMIN">     10.00000000</i>
   <i name="EMAX">    -10.00000000</i>
   <i name="EFERMI">      0.00000000</i>
  </separator>
  <separator name="writing" >
   <i type="int" name="NWRITE">     1</i>
   <i type="logical" name="LWAVE"> T  </i>
   <i type="logical" name="LDOWNSAMPLE"> F  </i>
   <i type="logical" name="LCHARG"> T  </i>
   <i type="logical" name="LPARD"> F  </i>
   <i type="logical" name="LVTOT"> F  </i>
   <i type="logical" name="LVHAR"> F  </i>
   <i type="logical" name="LELF"> F  </i>
   <i type="logical" name="LOPTICS"> F  </i>
   <v name="STM">      0.00000000      0.00000000      0.00000000      0.00000000      0.00000000      0.00000000      0.00000000</v>
  </separator>
  <separator name="performance" >
   <i type="int" name="NPAR">     2</i>
   <i type="int" name="NSIM">     4</i>
   <i type="int" name="NBLK">    -1</i>
   <i type="logical" name="LPLANE"> T  </i>
   <i type="logical" name="LSCALAPACK"> T  </i>
   <i type="logical" name="LSCAAWARE"> F  </i>
   <i type="logical" name="LSCALU"> F  </i>
   <i type="logical" name="LASYNC"> F  </i>
   <i type="logical" name="LORBITALREAL"> F  </i>
  </separator>
  <separator name="miscellaneous" >
   <i type="int" name="IDIOT">     3</i>
   <i type="int" name="ISPECIAL">     0</i>
   <i type="logical" name="LMUSIC"> F  </i>
   <v name="POMASS">     95.94000000     32.06600000</v>
   <v name="DARWINR">      0.00000000      0.00000000</v>
   <v name="DARWINV">      1.00000000      1.00000000</v>
   <i type="logical" name="LCORR"> T  </i>
  </separator>
  <i type="logical" name="GGA_COMPAT"> T  </i>
  <i type="logical" name="LBERRY"> F  </i>
  <i type="int" name="ICORELEVEL">     0</i>
  <i type="logical" name="LDAU"> F  </i>
  <i type="int" name="I_CONSTRAINED_M">     0</i>
  <separator name="electronic exchange-correlation" >
   <i type="string" name="GGA">--</i>
   <i type="int" name="VOSKOWN">     0</i>
   <i type="logical" name="LHFCALC"> F  </i>
   <i type="string" name="PRECFOCK"></i>
   <i type="logical" name="LSYMGRAD"> F  </i>
   <i type="logical" name="LHFONE"> F  </i>
   <i type="logical" name="LRHFCALC"> F  </i>
   <i type="logical" name="LTHOMAS"> F  </i>
   <i type="logical" name="LMODELHF"> F  </i>
   <i name="ENCUT4O">     -1.00000000</i>
   <i type="int" name="EXXOEP">     0</i>
   <i type="int" name="FOURORBIT">     0</i>
   <i name="AEXX">      0.00000000</i>
   <i name="HFALPHA">      0.00000000</i>
   <i name="MCALPHA">      0.00000000</i>
   <i name="ALDAX">      1.00000000</i>
   <i name="AGGAX">      1.00000000</i>
   <i name="ALDAC">      1.00000000</i>
   <i name="AGGAC">      1.00000000</i>
   <i type="int" name="NKREDX">     1</i>
   <i type="int" name="NKREDY">     1</i>
   <i type="int" name="NKREDZ">     1</i>
   <i type="logical" name="SHIFTRED"> F  </i>
   <i type="logical" name="ODDONLY"> F  </i>
   <i type="logical" name="EVENONLY"> F  </i>
   <i type="int" name="LMAXFOCK">     0</i>
   <i type="int" name="NMAXFOCKAE">     0</i>
   <i type="logical" name="LFOCKAEDFT"> F  </i>
   <i name="HFSCREEN">      0.00000000</i>
   <i name="HFSCREENC">      0.00000000</i>
   <i type="int" name="NBANDSGWLOW">     0</i>
  </separator>
  <separator name="vdW DFT" >
   <i type="logical" name="LUSE_VDW"> F  </i>
   <i name="Zab_VDW">     -0.84910000</i>
   <i name="PARAM1">      0.12340000</i>
   <i name="PARAM2">      1.00000000</i>
   <i name="PARAM3">      0.00000000</i>
  </separator>
  <separator name="model GW" >
   <i type="int" name="MODEL_GW">     0</i>
   <i name="MODEL_EPS0">     13.11510680</i>
   <i name="MODEL_ALPHA">      1.00000000</i>
  </separator>
  <separator name="linear response parameters" >
   <i type="logical" name="LEPSILON"> F  </i>
   <i type="logical" name="LRPA"> F  </i>
   <i type="logical" name="LNABLA"> F  </i>
   <i type="logical" name="LVEL"> F  </i>
   <i type="int" name="KINTER">     0</i>
   <i name="CSHIFT">      0.10000000</i>
   <i name="OMEGAMAX">     -1.00000000</i>
   <i name="DEG_THRESHOLD">      0.00200000</i>
   <i name="RTIME">     -0.10000000</i>
   <i name="WPLASMAI">      0.00000000</i>
   <v name="DFIELD">      0.00000000      0.00000000      0.00000000</v>
   <v name="WPLASMA">      0.00000000      0.00000000      0.00000000      0.00000000      0.00000000      0.00000000      0.00000000      0.00000000      0.00000000</v>
  </separator>
  <separator name="orbital magnetization" >
   <i type="logical" name="NUCIND"> F  </i>
   <v name="MAGPOS">      0.00000000      0.00000000      0.00000000</v>
   <i type="logical" name="LNICSALL"> T  </i>
   <i type="logical" name="ORBITALMAG"> F  </i>
   <i type="logical" name="LMAGBLOCH"> F  </i>
   <i type="logical" name="LCHIMAG"> F  </i>
   <i type="logical" name="LGAUGE"> T  </i>
   <i type="int" name="MAGATOM">     0</i>
   <v name="MAGDIPOL">      0.00000000      0.00000000      0.00000000</v>
   <v name="AVECCONST">      0.00000000      0.00000000      0.00000000</v>
  </separator>
  <separator name="response functions" >
   <i type="logical" name="LADDER"> F  </i>
   <i type="logical" name="LRPAFORCE"> F  </i>
   <i type="logical" name="LFXC"> F  </i>
   <i type="logical" name="LHARTREE"> T  </i>
   <i type="int" name="IBSE">     0</i>
   <v type="int" name="KPOINT">    -1     0     0     0</v>
   <i type="logical" name="LTCTE"> F  </i>
   <i type="logical" name="LTETE"> F  </i>
   <i type="logical" name="LTRIPLET"> F  </i>
   <i type="logical" name="LFXCEPS"> F  </i>
   <i type="logical" name="LFXHEG"> F  </i>
   <i type="int" name="NATURALO">     2</i>
   <i type="logical" name="L2ORDER"> F  </i>
   <i type="logical" name="LMP2LT"> F  </i>
   <i type="logical" name="LUSEW"> F  </i>
   <i name="ENCUTGW">     -2.00000000</i>
   <i name="ENCUTGWSOFT">     -2.00000000</i>
   <i name="ENCUTLF">     -1.00000000</i>
   <i type="int" name="LMAXMP2">    -1</i>
   <i name="SCISSOR">      0.00000000</i>
   <i type="int" name="NOMEGA">     0</i>
   <i type="int" name="NOMEGAR">     0</i>
   <i type="int" name="NBANDSGW">    -1</i>
   <i type="int" name="NBANDSO">    -1</i>
   <i type="int" name="NBANDSV">    -1</i>
   <i type="int" name="NELM">   200</i>
   <i type="int" name="NELMHF">     1</i>
   <i type="int" name="DIM">     3</i>
   <i type="int" name="ANTIRES">     0</i>
   <i name="OMEGAMAX">    -30.00000000</i>
   <i name="OMEGAMIN">    -30.00000000</i>
   <i name="OMEGATL">   -200.00000000</i>
   <i type="int" name="OMEGAGRID">   140</i>
   <i name="CSHIFT">     -0.10000000</i>
   <i type="logical" name="SELFENERGY"> F  </i>
   <i type="logical" name="LSPECTRAL"> F  </i>
   <i type="logical" name="LSPECTRALGW"> F  </i>
   <i type="logical" name="LSINGLES"> F  </i>
   <i type="logical" name="LFERMIGW"> F  </i>
   <i type="logical" name="ODDONLYGW"> F  </i>
   <i type="logical" name="EVENONLYGW"> F  </i>
   <i type="int" name="NKREDLFX">     1</i>
   <i type="int" name="NKREDLFY">     1</i>
   <i type="int" name="NKREDLFZ">     1</i>
   <i type="int" name="MAXMEM">  2800</i>
   <i type="int" name="TELESCOPE">     0</i>
   <i type="int" name="TAUPAR">     1</i>
   <i type="int" name="OMEGAPAR">    -1</i>
   <i name="LAMBDA">      1.00000000</i>
  </separator>
  <separator name="External order field" >
   <i name="OFIELD_KAPPA">      0.00000000</i>
   <v name="OFIELD_K">      0.00000000      0.00000000      0.00000000</v>
   <i name="OFIELD_Q6_NEAR">      0.00000000</i>
   <i name="OFIELD_Q6_FAR">      0.00000000</i>
   <i name="OFIELD_A">      0.00000000</i>
  </separator>
 </parameters>
 <atominfo>
  <atoms>       6 </atoms>
  <types>       2 </types>
  <array name="atoms" >
   <dimension dim="1">ion</dimension>
   <field type="string">element</field>
   <field type="int">atomtype</field>
   <set>
    <rc><c>Mo</c><c>   1</c></rc>
    <rc><c>Mo</c><c>   1</c></rc>
    <rc><c>S </c><c>   2</c></rc>
    <rc><c>S </c><c>   2</c></rc>
    <rc><c>S </c><c>   2</c></rc>
    <rc><c>S </c><c>   2</c></rc>
   </set>
  </array>
  <array name="atomtypes" >
   <dimension dim="1">type</dimension>
   <field type="int">atomspertype</field>
   <field type="string">element</field>
   <field>mass</field>
   <field>valence</field>
   <field type="string">pseudopotential</field>
   <set>
    <rc><c>   2</c><c>Mo</c><c>     95.94000000</c><c>      6.00000000</c><c> PAW_PBE Mo 08Apr2002                   </c></rc>
    <rc><c>   4</c><c>S </c><c>     32.06600000</c><c>      6.00000000</c><c>  PAW_PBE S 17Jan2003                   </c></rc>
   </set>
  </array>
 </atominfo>
 <structure name="initialpos" >
  <crystal>
   <varray name="basis" >
    <v>       3.19031573       0.00000000       0.00000000 </v>
    <v>      -1.59515786       2.76289447       0.00000000 </v>
    <v>       0.00000000       0.00000000      14.87900430 </v>
   </varray>
   <i name="volume">    131.15106795 </i>
   <varray name="rec_basis" >
    <v>       0.31344860       0.18096963       0.00000000 </v>
    <v>       0.00000000       0.36193927       0.00000000 </v>
    <v>       0.00000000       0.00000000       0.06720880 </v>
   </varray>
  </crystal>
  <varray name="positions" >
   <v>       0.33333300       0.66666700       0.25000000 </v>
   <v>       0.66666700       0.33333300       0.75000000 </v>
   <v>       0.33333300       0.66666700       0.85517400 </v>
   <v>       0.66666700       0.33333300       0.14482600 </v>
   <v>       0.66666600       0.33333300       0.35517400 </v>
   <v>       0.33333400       0.66666700       0.64482600 </v>
  </varray>
 </structure>
 <calculation>
  <scstep>
   <time name="dav">    1.00    1.00</time>
   <time name="total">    1.08    1.09</time>
   <energy>
    <i name="alphaZ">     90.42577596 </i>
    <i name="ewald">  -1146.88905665 </i>
    <i name="hartreedc">   -535.10238363 </i>
    <i name="XCdc">    -72.59368065 </i>
    <i name="pawpsdc">    813.77302396 </i>
    <i name="pawaedc">   -658.68146406 </i>
    <i name="eentropy">     -0.04972902 </i>
    <i name="bandstr">    166.75120121 </i>
    <i name="atom">   1542.31022798 </i>
    <i name="e_fr_energy">    199.94391512 </i>
    <i name="e_wo_entrp">    199.99364414 </i>
    <i name="e_0_energy">    199.96877963 </i>
   </energy>
  </scstep>
  <scstep>
   <time name="dav">    1.23    1.24</time>
   <time name="total">    1.23    1.24</time>
   <energy>
    <i name="e_fr_energy">    -28.35046369 </i>
    <i name="e_wo_entrp">    -28.34922641 </i>
    <i name="e_0_energy">    -28.34984505 </i>
   </energy>
  </scstep>
  <scstep>
   <time name="dav">    1.22    1.23</time>
   <time name="total">    1.22    1.23</time>
   <energy>
    <i name="e_fr_energy">    -46.30214945 </i>
    <i name="e_wo_entrp">    -46.30214945 </i>
    <i name="e_0_energy">    -46.30214945 </i>
   </energy>
  </scstep>
  <scstep>
   <time name="dav">    1.26    1.26</time>
   <time name="total">    1.26    1.26</time>
   <energy>
    <i name="e_fr_energy">    -46.80567349 </i>
    <i name="e_wo_entrp">    -46.80567349 </i>
    <i name="e_0_energy">    -46.80567349 </i>
   </energy>
  </scstep>
  <scstep>
   <time name="dav">    1.23    1.23</time>
   <time name="total">    1.34    1.34</time>
   <energy>
    <i name="e_fr_energy">    -46.82042061 </i>
    <i name="e_wo_entrp">    -46.82042060 </i>
    <i name="e_0_energy">    -46.82042061 </i>
   </energy>
  </scstep>
  <scstep>
   <time name="dav">    1.21    1.21</time>
   <time name="total">    1.40    1.40</time>
   <energy>
    <i name="e_fr_energy">    -44.44709436 </i>
    <i name="e_wo_entrp">    -44.44709386 </i>
    <i name="e_0_energy">    -44.44709411 </i>
   </energy>
  </scstep>
  <scstep>
   <time name="dav">    1.22    1.23</time>
   <time name="total">    1.41    1.41</time>
   <energy>
    <i name="e_fr_energy">    -43.72944002 </i>
    <i name="e_wo_entrp">    -43.72944002 </i>
    <i name="e_0_energy">    -43.72944002 </i>
   </energy>
  </scstep>
  <scstep>
   <time name="dav">    1.18    1.18</time>
   <time name="total">    1.37    1.37</time>
   <energy>
    <i name="e_fr_energy">    -43.60693742 </i>
    <i name="e_wo_entrp">    -43.60693742 </i>
    <i name="e_0_energy">    -43.60693742 </i>
   </energy>
  </scstep>
  <scstep>
   <time name="dav">    1.30    1.30</time>
   <time name="total">    1.48    1.49</time>
   <energy>
    <i name="e_fr_energy">    -43.60785445 </i>
    <i name="e_wo_entrp">    -43.60785445 </i>
    <i name="e_0_energy">    -43.60785445 </i>
   </energy>
  </scstep>
  <scstep>
   <time name="dav">    1.34    1.34</time>
   <time name="total">    1.52    1.52</time>
   <energy>
    <i name="e_fr_energy">    -43.60605478 </i>
    <i name="e_wo_entrp">    -43.60605478 </i>
    <i name="e_0_energy">    -43.60605478 </i>
   </energy>
  </scstep>
  <scstep>
   <time name="dav">    1.25    1.25</time>
   <time name="total">    1.43    1.44</time>
   <energy>
    <i name="e_fr_energy">    -43.60568948 </i>
    <i name="e_wo_entrp">    -43.60568948 </i>
    <i name="e_0_energy">    -43.60568948 </i>
   </energy>
  </scstep>
  <scstep>
   <time name="dav">    1.19    1.19</time>
   <time name="total">    1.37    1.37</time>
   <energy>
    <i name="e_fr_energy">    -43.60581277 </i>
    <i name="e_wo_entrp">    -43.60581277 </i>
    <i name="e_0_energy">    -43.60581277 </i>
   </energy>
  </scstep>
  <scstep>
   <time name="dav">    1.33    1.34</time>
   <time name="total">    1.52    1.52</time>
   <energy>
    <i name="e_fr_energy">    -43.60581420 </i>
    <i name="e_wo_entrp">    -43.60581420 </i>
    <i name="e_0_energy">    -43.60581420 </i>
   </energy>
  </scstep>
  <scstep>
   <time name="dav">    1.26    1.26</time>
   <time name="total">    1.45    1.45</time>
   <energy>
    <i name="e_fr_energy">    -43.60580997 </i>
    <i name="e_wo_entrp">    -43.60580997 </i>
    <i name="e_0_energy">    -43.60580997 </i>
   </energy>
  </scstep>
  <scstep>
   <time name="dav">    1.02    1.02</time>
   <time name="total">    1.09    1.10</time>
   <energy>
    <i name="alphaZ">     90.42577596 </i>
    <i name="ewald">  -1146.88905665 </i>
    <i name="hartreedc">   -542.95750175 </i>
    <i name="XCdc">    -70.39275072 </i>
    <i name="pawpsdc">    944.35011473 </i>
    <i name="pawaedc">   -792.73113313 </i>
    <i name="eentropy">     -0.00000000 </i>
    <i name="bandstr">    -67.72148611 </i>
    <i name="atom">   1542.31022798 </i>
    <i name="e_fr_energy">    -43.60580969 </i>
    <i name="e_wo_entrp">    -43.60580969 </i>
    <i name="e_0_energy">    -43.60580969 </i>
   </energy>
  </scstep>
  <structure>
   <crystal>
    <varray name="basis" >
     <v>       3.19031573       0.00000000       0.00000000 </v>
     <v>      -1.59515786       2.76289447       0.00000000 </v>
     <v>       0.00000000       0.00000000      14.87900430 </v>
    </varray>
    <i name="volume">    131.15106795 </i>
    <varray name="rec_basis" >
     <v>       0.31344860       0.18096963       0.00000000 </v>
     <v>       0.00000000       0.36193927       0.00000000 </v>
     <v>       0.00000000       0.00000000       0.06720880 </v>
    </varray>
   </crystal>
   <varray name="positions" >
    <v>       0.33333300       0.66666700       0.25000000 </v>
    <v>       0.66666700       0.33333300       0.75000000 </v>
    <v>       0.33333300       0.66666700       0.85517400 </v>
    <v>       0.66666700       0.33333300       0.14482600 </v>
    <v>       0.66666600       0.33333300       0.35517400 </v>
    <v>       0.33333400       0.66666700       0.64482600 </v>
   </varray>
  </structure>
  <varray name="forces" >
   <v>       0.00000000      -0.00000000       0.00000000 </v>
   <v>      -0.00000000      -0.00000000       0.00000000 </v>
   <v>       0.00000000      -0.00000000      -0.08565513 </v>
   <v>      -0.00000000       0.00000000       0.08565513 </v>
   <v>      -0.00000000       0.00000000      -0.08565513 </v>
   <v>       0.00000000      -0.00000000       0.08565513 </v>
  </varray>
  <varray name="stress" >
   <v>      -5.07458026       0.00000000       0.00000000 </v>
   <v>       0.00000000      -5.07458026      -0.00000000 </v>
   <v>       0.00000000       0.00000000     -16.59891240 </v>
  </varray>
  <energy>
   <i name="e_fr_energy">    -44.93709670 </i>
   <i name="e_wo_entrp">    -44.93709670 </i>
   <i name="e_0_energy">     -0.00000000 </i>
  </energy>
  <time name="totalsc">   21.71   21.84</time>
 </calculation>
 <calculation>
  <scstep>
   <time name="dav">    1.01    1.01</time>
   <time name="total">    1.19    1.23</time>
   <energy>
    <i name="alphaZ">     92.03837047 </i>
    <i name="ewald">  -1155.24991806 </i>
    <i name="hartreedc">   -545.51678167 </i>
    <i name="XCdc">    -69.98552162 </i>
    <i name="pawpsdc">    944.35793453 </i>
    <i name="pawaedc">   -792.73901310 </i>
    <i name="eentropy">     -0.00000000 </i>
    <i name="bandstr">    -58.84306242 </i>
    <i name="atom">   1542.31022798 </i>
    <i name="e_fr_energy">    -43.62776390 </i>
    <i name="e_wo_entrp">    -43.62776390 </i>
    <i name="e_0_energy">    -43.62776390 </i>
   </energy>
  </scstep>
  <scstep>
   <time name="dav">    1.09    1.09</time>
   <time name="total">    1.28    1.28</time>
   <energy>
    <i name="e_fr_energy">    -43.60055358 </i>
    <i name="e_wo_entrp">    -43.60055357 </i>
    <i name="e_0_energy">    -43.60055357 </i>
   </energy>
  </scstep>
  <scstep>
   <time name="dav">    1.20    1.20</time>
   <time name="total">    1.39    1.39</time>
   <energy>
    <i name="e_fr_energy">    -43.59140677 </i>
    <i name="e_wo_entrp">    -43.59140677 </i>
    <i name="e_0_energy">    -43.59140677 </i>
   </energy>
  </scstep>
  <scstep>
   <time name="dav">    1.27    1.27</time>
   <time name="total">    1.46    1.46</time>
   <energy>
    <i name="e_fr_energy">    -43.59337488 </i>
    <i name="e_wo_entrp">    -43.59337488 </i>
    <i name="e_0_energy">    -43.59337488 </i>
   </energy>
  </scstep>
  <scstep>
   <time name="dav">    1.21    1.21</time>
   <time name="total">    1.39    1.40</time>
   <energy>
    <i name="e_fr_energy">    -43.59061053 </i>
    <i name="e_wo_entrp">    -43.59061052 </i>
    <i name="e_0_energy">    -43.59061053 </i>
   </energy>
  </scstep>
  <scstep>
   <time name="dav">    1.29    1.29</time>
   <time name="total">    1.47    1.47</time>
   <energy>
    <i name="e_fr_energy">    -43.59066338 </i>
    <i name="e_wo_entrp">    -43.59066338 </i>
    <i name="e_0_energy">    -43.59066338 </i>
   </energy>
  </scstep>
  <scstep>
   <time name="dav">    1.06    1.06</time>
   <time name="total">    1.25    1.25</time>
   <energy>
    <i name="e_fr_energy">    -43.59066646 </i>
    <i name="e_wo_entrp">    -43.59066645 </i>
    <i name="e_0_energy">    -43.59066646 </i>
   </energy>
  </scstep>
  <scstep>
   <time name="dav">    1.21    1.21</time>
   <time name="total">    1.40    1.40</time>
   <energy>
    <i name="e_fr_energy">    -43.59066404 </i>
    <i name="e_wo_entrp">    -43.59066404 </i>
    <i name="e_0_energy">    -43.59066404 </i>
   </energy>
  </scstep>
  <scstep>
   <time name="dav">    0.82    0.82</time>
   <time name="total">    0.89    0.89</time>
   <energy>
    <i name="alphaZ">     92.03837047 </i>
    <i name="ewald">  -1155.24991806 </i>
    <i name="hartreedc">   -539.78713565 </i>
    <i name="XCdc">    -70.09236465 </i>
    <i name="pawpsdc">    956.04001073 </i>
    <i name="pawaedc">   -804.59363226 </i>
    <i name="eentropy">     -0.00000000 </i>
    <i name="bandstr">    -64.25622231 </i>
    <i name="atom">   1542.31022798 </i>
    <i name="e_fr_energy">    -43.59066375 </i>
    <i name="e_wo_entrp">    -43.59066375 </i>
    <i name="e_0_energy">    -43.59066375 </i>
   </energy>
  </scstep>
  <structure>
   <crystal>
    <varray name="basis" >
     <v>       3.17966020       0.00000000       0.00000000 </v>
     <v>      -1.58983010       2.75366651      -0.00000000 </v>
     <v>       0.00000000       0.00000000      14.71645141 </v>
    </varray>
    <i name="volume">    128.85318404 </i>
    <varray name="rec_basis" >
     <v>       0.31449901       0.18157609      -0.00000000 </v>
     <v>      -0.00000000       0.36315218      -0.00000000 </v>
     <v>      -0.00000000       0.00000000       0.06795116 </v>
    </varray>
   </crystal>
   <varray name="positions" >
    <v>       0.33333300       0.66666700       0.25000000 </v>
    <v>       0.66666700       0.33333300       0.75000000 </v>
    <v>       0.33333300       0.66666700       0.85489628 </v>
    <v>       0.66666700       0.33333300       0.14510372 </v>
    <v>       0.66666600       0.33333300       0.35489628 </v>
    <v>       0.33333400       0.66666700       0.64510372 </v>
   </varray>
  </structure>
  <varray name="forces" >
   <v>      -0.00000000       0.00000000       0.00000000 </v>
   <v>       0.00000000      -0.00000000       0.00000000 </v>
   <v>      -0.00000000      -0.00000000       0.39399670 </v>
   <v>      -0.00000000       0.00000000      -0.39399670 </v>
   <v>       0.00000000       0.00000000       0.39399670 </v>
   <v>      -0.00000000      -0.00000000      -0.39399670 </v>
  </varray>
  <varray name="stress" >
   <v>      15.20939846       0.00000000       0.00000000 </v>
   <v>      -0.00000000      15.20939846      -0.00000000 </v>
   <v>       0.00000000       0.00000000      19.64437654 </v>
  </varray>
  <energy>
   <i name="e_fr_energy">    -44.93098002 </i>
   <i name="e_wo_entrp">    -44.93098002 </i>
   <i name="e_0_energy">     -0.00000000 </i>
  </energy>
  <time name="totalsc">   12.74   12.81</time>
 </calculation>
 <calculation>
  <scstep>
   <time name="dav">    0.99    1.00</time>
   <time name="total">    1.18    1.18</time>
   <energy>
    <i name="alphaZ">     90.69770482 </i>
    <i name="ewald">  -1157.18788971 </i>
    <i name="hartreedc">   -530.08764460 </i>
    <i name="XCdc">    -70.47844777 </i>
    <i name="pawpsdc">    956.04401864 </i>
    <i name="pawaedc">   -804.59758827 </i>
    <i name="eentropy">     -0.00000000 </i>
    <i name="bandstr">    -70.32275246 </i>
    <i name="atom">   1542.31022798 </i>
    <i name="e_fr_energy">    -43.62237136 </i>
    <i name="e_wo_entrp">    -43.62237136 </i>
    <i name="e_0_energy">    -43.62237136 </i>
   </energy>
  </scstep>
  <scstep>
   <time name="dav">    1.10    1.10</time>
   <time name="total">    1.29    1.29</time>
   <energy>
    <i name="e_fr_energy">    -43.61342777 </i>
    <i name="e_wo_entrp">    -43.61342777 </i>
    <i name="e_0_energy">    -43.61342777 </i>
   </energy>
  </scstep>
  <scstep>
   <time name="dav">    1.21    1.21</time>
   <time name="total">    1.40    1.40</time>
   <energy>
    <i name="e_fr_energy">    -43.60595214 </i>
    <i name="e_wo_entrp">    -43.60595214 </i>
    <i name="e_0_energy">    -43.60595214 </i>
   </energy>
  </scstep>
  <scstep>
   <time name="dav">    1.18    1.18</time>
   <time name="total">    1.36    1.36</time>
   <energy>
    <i name="e_fr_energy">    -43.60538272 </i>
    <i name="e_wo_entrp">    -43.60538272 </i>
    <i name="e_0_energy">    -43.60538272 </i>
   </energy>
  </scstep>
  <scstep>
   <time name="dav">    1.23    1.23</time>
   <time name="total">    1.41    1.42</time>
   <energy>
    <i name="e_fr_energy">    -43.60538036 </i>
    <i name="e_wo_entrp">    -43.60538036 </i>
    <i name="e_0_energy">    -43.60538036 </i>
   </energy>
  </scstep>
  <scstep>
   <time name="dav">    1.19    1.19</time>
   <time name="total">    1.37    1.38</time>
   <energy>
    <i name="e_fr_energy">    -43.60537407 </i>
    <i name="e_wo_entrp">    -43.60537407 </i>
    <i name="e_0_energy">    -43.60537407 </i>
   </energy>
  </scstep>
  <scstep>
   <time name="dav">    1.17    1.17</time>
   <time name="total">    1.36    1.36</time>
   <energy>
    <i name="e_fr_energy">    -43.60535086 </i>
    <i name="e_wo_entrp">    -43.60535086 </i>
    <i name="e_0_energy">    -43.60535086 </i>
   </energy>
  </scstep>
  <scstep>
   <time name="dav">    0.96    0.96</time>
   <time name="total">    1.03    1.03</time>
   <energy>
    <i name="alphaZ">     90.69770482 </i>
    <i name="ewald">  -1157.18788971 </i>
    <i name="hartreedc">   -533.84915955 </i>
    <i name="XCdc">    -70.39315781 </i>
    <i name="pawpsdc">    944.59091236 </i>
    <i name="pawaedc">   -792.97488736 </i>
    <i name="eentropy">     -0.00000000 </i>
    <i name="bandstr">    -66.79910079 </i>
    <i name="atom">   1542.31022798 </i>
    <i name="e_fr_energy">    -43.60535007 </i>
    <i name="e_wo_entrp">    -43.60535007 </i>
    <i name="e_0_energy">    -43.60535007 </i>
   </energy>
  </scstep>
  <structure>
   <crystal>
    <varray name="basis" >
     <v>       3.19386999       0.00000000      -0.00000000 </v>
     <v>      -1.59693499       2.76597255      -0.00000000 </v>
     <v>       0.00000000       0.00000000      14.80139608 </v>
    </varray>
    <i name="volume">    130.75785227 </i>
    <varray name="rec_basis" >
     <v>       0.31309978       0.18076824      -0.00000000 </v>
     <v>      -0.00000000       0.36153649      -0.00000000 </v>
     <v>      -0.00000000       0.00000000       0.06756119 </v>
    </varray>
   </crystal>
   <varray name="positions" >
    <v>       0.33333300       0.66666700       0.25000000 </v>
    <v>       0.66666700       0.33333300       0.75000000 </v>
    <v>       0.33333300       0.66666700       0.85548316 </v>
    <v>       0.66666700       0.33333300       0.14451684 </v>
    <v>       0.66666600       0.33333300       0.35548316 </v>
    <v>       0.33333400       0.66666700       0.64451684 </v>
   </varray>
  </structure>
  <varray name="forces" >
   <v>       0.00000000      -0.00000000       0.00000000 </v>
   <v>       0.00000000      -0.00000000       0.00000000 </v>
   <v>       0.00000000       0.00000000      -0.03977148 </v>
   <v>      -0.00000000      -0.00000000       0.03977148 </v>
   <v>      -0.00000000       0.00000000      -0.03977148 </v>
   <v>       0.00000000       0.00000000       0.03977148 </v>
  </varray>
  <varray name="stress" >
   <v>      -6.48788707       0.00000000       0.00000000 </v>
   <v>      -0.00000000      -6.48788707       0.00000000 </v>
   <v>       0.00000000       0.00000000     -13.48176769 </v>
  </varray>
  <energy>
   <i name="e_fr_energy">    -44.94132413 </i>
   <i name="e_wo_entrp">    -44.94132413 </i>
   <i name="e_0_energy">     -0.00000000 </i>
  </energy>
  <time name="totalsc">   11.43   11.45</time>
 </calculation>
 <calculation>
  <scstep>
   <time name="dav">    1.01    1.01</time>
   <time name="total">    1.20    1.22</time>
   <energy>
    <i name="alphaZ">     90.99789718 </i>
    <i name="ewald">  -1162.97061125 </i>
    <i name="hartreedc">   -530.52418877 </i>
    <i name="XCdc">    -70.35265008 </i>
    <i name="pawpsdc">    944.57200872 </i>
    <i name="pawaedc">   -792.95592023 </i>
    <i name="eentropy">     -0.00000000 </i>
    <i name="bandstr">    -64.68416265 </i>
    <i name="atom">   1542.31022798 </i>
    <i name="e_fr_energy">    -43.60739912 </i>
    <i name="e_wo_entrp">    -43.60739912 </i>
    <i name="e_0_energy">    -43.60739912 </i>
   </energy>
  </scstep>
  <scstep>
   <time name="dav">    1.03    1.03</time>
   <time name="total">    1.21    1.22</time>
   <energy>
    <i name="e_fr_energy">    -43.60602445 </i>
    <i name="e_wo_entrp">    -43.60602445 </i>
    <i name="e_0_energy">    -43.60602445 </i>
   </energy>
  </scstep>
  <scstep>
   <time name="dav">    1.10    1.10</time>
   <time name="total">    1.29    1.29</time>
   <energy>
    <i name="e_fr_energy">    -43.60601426 </i>
    <i name="e_wo_entrp">    -43.60601425 </i>
    <i name="e_0_energy">    -43.60601425 </i>
   </energy>
  </scstep>
  <scstep>
   <time name="dav">    1.10    1.10</time>
   <time name="total">    1.29    1.29</time>
   <energy>
    <i name="e_fr_energy">    -43.60601408 </i>
    <i name="e_wo_entrp">    -43.60601408 </i>
    <i name="e_0_energy">    -43.60601408 </i>
   </energy>
  </scstep>
  <scstep>
   <time name="dav">    1.02    1.02</time>
   <time name="total">    1.21    1.21</time>
   <energy>
    <i name="e_fr_energy">    -43.60601244 </i>
    <i name="e_wo_entrp">    -43.60601244 </i>
    <i name="e_0_energy">    -43.60601244 </i>
   </energy>
  </scstep>
  <scstep>
   <time name="dav">    1.04    1.04</time>
   <time name="total">    1.11    1.11</time>
   <energy>
    <i name="alphaZ">     90.99789718 </i>
    <i name="ewald">  -1162.97061125 </i>
    <i name="hartreedc">   -529.28802683 </i>
    <i name="XCdc">    -70.37297960 </i>
    <i name="pawpsdc">    945.28808856 </i>
    <i name="pawaedc">   -793.68297663 </i>
    <i name="eentropy">     -0.00000000 </i>
    <i name="bandstr">    -65.88763087 </i>
    <i name="atom">   1542.31022798 </i>
    <i name="e_fr_energy">    -43.60601146 </i>
    <i name="e_wo_entrp">    -43.60601146 </i>
    <i name="e_0_energy">    -43.60601146 </i>
   </energy>
  </scstep>
  <structure>
   <crystal>
    <varray name="basis" >
     <v>       3.19261163       0.00000000      -0.00000000 </v>
     <v>      -1.59630582       2.76488278      -0.00000000 </v>
     <v>       0.00000000       0.00000000      14.76419948 </v>
    </varray>
    <i name="volume">    130.32649606 </i>
    <varray name="rec_basis" >
     <v>       0.31322319       0.18083949      -0.00000000 </v>
     <v>      -0.00000000       0.36167899      -0.00000000 </v>
     <v>      -0.00000000       0.00000000       0.06773141 </v>
    </varray>
   </crystal>
   <varray name="positions" >
    <v>       0.33333300       0.66666700       0.25000000 </v>
    <v>       0.66666700       0.33333300       0.75000000 </v>
    <v>       0.33333300       0.66666700       0.85568931 </v>
    <v>       0.66666700       0.33333300       0.14431069 </v>
    <v>       0.66666600       0.33333300       0.35568931 </v>
    <v>       0.33333400       0.66666700       0.64431069 </v>
   </varray>
  </structure>
  <varray name="forces" >
   <v>      -0.00000000       0.00000000      -0.00000000 </v>
   <v>       0.00000000      -0.00000000      -0.00000000 </v>
   <v>      -0.00000000      -0.00000000      -0.01502484 </v>
   <v>       0.00000000       0.00000000       0.01502484 </v>
   <v>       0.00000000       0.00000000      -0.01502484 </v>
   <v>      -0.00000000      -0.00000000       0.01502484 </v>
  </varray>
  <varray name="stress" >
   <v>      -4.85975928       0.00000000       0.00000000 </v>
   <v>       0.00000000      -4.85975928      -0.00000000 </v>
   <v>      -0.00000000       0.00000000     -11.47806854 </v>
  </varray>
  <energy>
   <i name="e_fr_energy">    -44.94392398 </i>
   <i name="e_wo_entrp">    -44.94392398 </i>
   <i name="e_0_energy">     -0.00000000 </i>
  </energy>
  <time name="totalsc">    8.33    8.39</time>
 </calculation>
 <calculation>
  <scstep>
   <time name="dav">    0.99    0.99</time>
   <time name="total">    1.18    1.18</time>
   <energy>
    <i name="alphaZ">     92.17154101 </i>
    <i name="ewald">  -1198.61365641 </i>
    <i name="hartreedc">   -504.91412353 </i>
    <i name="XCdc">    -70.30708467 </i>
    <i name="pawpsdc">    945.28982397 </i>
    <i name="pawaedc">   -793.68472003 </i>
    <i name="eentropy">     -0.00000000 </i>
    <i name="bandstr">    -55.88665209 </i>
    <i name="atom">   1542.31022798 </i>
    <i name="e_fr_energy">    -43.63464376 </i>
    <i name="e_wo_entrp">    -43.63464376 </i>
    <i name="e_0_energy">    -43.63464376 </i>
   </energy>
  </scstep>
  <scstep>
   <time name="dav">    1.02    1.02</time>
   <time name="total">    1.21    1.21</time>
   <energy>
    <i name="e_fr_energy">    -43.60584637 </i>
    <i name="e_wo_entrp">    -43.60584637 </i>
    <i name="e_0_energy">    -43.60584637 </i>
   </energy>
  </scstep>
  <scstep>
   <time name="dav">    1.16    1.16</time>
   <time name="total">    1.35    1.35</time>
   <energy>
    <i name="e_fr_energy">    -43.60620967 </i>
    <i name="e_wo_entrp">    -43.60620966 </i>
    <i name="e_0_energy">    -43.60620967 </i>
   </energy>
  </scstep>
  <scstep>
   <time name="dav">    1.12    1.12</time>
   <time name="total">    1.31    1.31</time>
   <energy>
    <i name="e_fr_energy">    -43.60590040 </i>
    <i name="e_wo_entrp">    -43.60590039 </i>
    <i name="e_0_energy">    -43.60590040 </i>
   </energy>
  </scstep>
  <scstep>
   <time name="dav">    1.07    1.07</time>
   <time name="total">    1.26    1.26</time>
   <energy>
    <i name="e_fr_energy">    -43.60597972 </i>
    <i name="e_wo_entrp">    -43.60597971 </i>
    <i name="e_0_energy">    -43.60597972 </i>
   </energy>
  </scstep>
  <scstep>
   <time name="dav">    1.06    1.06</time>
   <time name="total">    1.25    1.25</time>
   <energy>
    <i name="e_fr_energy">    -43.60591313 </i>
    <i name="e_wo_entrp">    -43.60591312 </i>
    <i name="e_0_energy">    -43.60591313 </i>
   </energy>
  </scstep>
  <scstep>
   <time name="dav">    1.26    1.26</time>
   <time name="total">    1.44    1.45</time>
   <energy>
    <i name="e_fr_energy">    -43.60591305 </i>
    <i name="e_wo_entrp">    -43.60591304 </i>
    <i name="e_0_energy">    -43.60591305 </i>
   </energy>
  </scstep>
  <scstep>
   <time name="dav">    0.93    0.94</time>
   <time name="total">    1.13    1.14</time>
   <energy>
    <i name="e_fr_energy">    -43.60591594 </i>
    <i name="e_wo_entrp">    -43.60591593 </i>
    <i name="e_0_energy">    -43.60591594 </i>
   </energy>
  </scstep>
  <scstep>
   <time name="dav">    1.10    1.10</time>
   <time name="total">    1.29    1.29</time>
   <energy>
    <i name="e_fr_energy">    -43.60593609 </i>
    <i name="e_wo_entrp">    -43.60593609 </i>
    <i name="e_0_energy">    -43.60593609 </i>
   </energy>
  </scstep>
  <scstep>
   <time name="dav">    1.14    1.14</time>
   <time name="total">    1.33    1.33</time>
   <energy>
    <i name="e_fr_energy">    -43.60591444 </i>
    <i name="e_wo_entrp">    -43.60591444 </i>
    <i name="e_0_energy">    -43.60591444 </i>
   </energy>
  </scstep>
  <scstep>
   <time name="dav">    1.14    1.14</time>
   <time name="total">    1.33    1.33</time>
   <energy>
    <i name="e_fr_energy">    -43.60591628 </i>
    <i name="e_wo_entrp">    -43.60591627 </i>
    <i name="e_0_energy">    -43.60591628 </i>
   </energy>
  </scstep>
  <scstep>
   <time name="dav">    1.19    1.19</time>
   <time name="total">    1.38    1.38</time>
   <energy>
    <i name="e_fr_energy">    -43.60590971 </i>
    <i name="e_wo_entrp">    -43.60590971 </i>
    <i name="e_0_energy">    -43.60590971 </i>
   </energy>
  </scstep>
  <scstep>
   <time name="dav">    1.17    1.17</time>
   <time name="total">    1.36    1.37</time>
   <energy>
    <i name="e_fr_energy">    -43.60590950 </i>
    <i name="e_wo_entrp">    -43.60590950 </i>
    <i name="e_0_energy">    -43.60590950 </i>
   </energy>
  </scstep>
  <scstep>
   <time name="dav">    0.86    0.86</time>
   <time name="total">    0.93    0.93</time>
   <energy>
    <i name="alphaZ">     92.17154101 </i>
    <i name="ewald">  -1198.61365641 </i>
    <i name="hartreedc">   -499.14967923 </i>
    <i name="XCdc">    -70.38374200 </i>
    <i name="pawpsdc">    944.79883099 </i>
    <i name="pawaedc">   -793.18578735 </i>
    <i name="eentropy">     -0.00000000 </i>
    <i name="bandstr">    -61.55364375 </i>
    <i name="atom">   1542.31022798 </i>
    <i name="e_fr_energy">    -43.60590876 </i>
    <i name="e_wo_entrp">    -43.60590876 </i>
    <i name="e_0_energy">    -43.60590876 </i>
   </energy>
  </scstep>
  <structure>
   <crystal>
    <varray name="basis" >
     <v>       3.19409227       0.00000000      -0.00000000 </v>
     <v>      -1.59704614       2.76616505      -0.00000000 </v>
     <v>      -0.00000000       0.00000000      14.56269252 </v>
    </varray>
    <i name="volume">    128.66701541 </i>
    <varray name="rec_basis" >
     <v>       0.31307799       0.18075566       0.00000000 </v>
     <v>      -0.00000000       0.36151133      -0.00000000 </v>
     <v>      -0.00000000       0.00000000       0.06866862 </v>
    </varray>
   </crystal>
   <varray name="positions" >
    <v>       0.33333300       0.66666700       0.25000000 </v>
    <v>       0.66666700       0.33333300       0.75000000 </v>
    <v>       0.33333300       0.66666700       0.85716135 </v>
    <v>       0.66666700       0.33333300       0.14283865 </v>
    <v>       0.66666600       0.33333300       0.35716135 </v>
    <v>       0.33333400       0.66666700       0.64283865 </v>
   </varray>
  </structure>
  <varray name="forces" >
   <v>       0.00000000       0.00000000      -0.00000000 </v>
   <v>      -0.00000000      -0.00000000      -0.00000000 </v>
   <v>      -0.00000000       0.00000000      -0.02372955 </v>
   <v>       0.00000000      -0.00000000       0.02372955 </v>
   <v>       0.00000000      -0.00000000      -0.02372955 </v>
   <v>      -0.00000000       0.00000000       0.02372955 </v>
  </varray>
  <varray name="stress" >
   <v>      -6.42054232      -0.00000000       0.00000000 </v>
   <v>      -0.00000000      -6.42054232      -0.00000000 </v>
   <v>      -0.00000000       0.00000000     -13.20275192 </v>
  </varray>
  <energy>
   <i name="e_fr_energy">    -44.95553039 </i>
   <i name="e_wo_entrp">    -44.95553039 </i>
   <i name="e_0_energy">     -0.00000000 </i>
  </energy>
  <time name="totalsc">   18.78   19.04</time>
 </calculation>
 <calculation>
  <scstep>
   <time name="dav">    0.99    0.99</time>
   <time name="total">    1.18    1.18</time>
   <energy>
    <i name="alphaZ">     82.14145441 </i>
    <i name="ewald">   -847.59792569 </i>
    <i name="hartreedc">   -745.89471226 </i>
    <i name="XCdc">    -70.97931042 </i>
    <i name="pawpsdc">    944.78697627 </i>
    <i name="pawaedc">   -793.17393182 </i>
    <i name="eentropy">     -0.00002417 </i>
    <i name="bandstr">   -155.93365748 </i>
    <i name="atom">   1542.31022798 </i>
    <i name="e_fr_energy">    -44.34090318 </i>
    <i name="e_wo_entrp">    -44.34087901 </i>
    <i name="e_0_energy">    -44.34089110 </i>
   </energy>
  </scstep>
  <scstep>
   <time name="dav">    1.21    1.21</time>
   <time name="total">    1.40    1.40</time>
   <energy>
    <i name="e_fr_energy">    -46.53915875 </i>
    <i name="e_wo_entrp">    -46.53915875 </i>
    <i name="e_0_energy">    -46.53915875 </i>
   </energy>
  </scstep>
  <scstep>
   <time name="dav">    1.13    1.13</time>
   <time name="total">    1.32    1.32</time>
   <energy>
    <i name="e_fr_energy">    -44.96993847 </i>
    <i name="e_wo_entrp">    -44.96993847 </i>
    <i name="e_0_energy">    -44.96993847 </i>
   </energy>
  </scstep>
  <scstep>
   <time name="dav">    1.12    1.12</time>
   <time name="total">    1.31    1.31</time>
   <energy>
    <i name="e_fr_energy">    -43.61469853 </i>
    <i name="e_wo_entrp">    -43.61469853 </i>
    <i name="e_0_energy">    -43.61469853 </i>
   </energy>
  </scstep>
  <scstep>
   <time name="dav">    1.07    1.07</time>
   <time name="total">    1.26    1.26</time>
   <energy>
    <i name="e_fr_energy">    -43.63825198 </i>
    <i name="e_wo_entrp">    -43.63825198 </i>
    <i name="e_0_energy">    -43.63825198 </i>
   </energy>
  </scstep>
  <scstep>
   <time name="dav">    1.16    1.16</time>
   <time name="total">    1.35    1.35</time>
   <energy>
    <i name="e_fr_energy">    -43.75286403 </i>
    <i name="e_wo_entrp">    -43.75286403 </i>
    <i name="e_0_energy">    -43.75286403 </i>
   </energy>
  </scstep>
  <scstep>
   <time name="dav">    1.13    1.13</time>
   <time name="total">    1.31    1.32</time>
   <energy>
    <i name="e_fr_energy">    -43.58589136 </i>
    <i name="e_wo_entrp">    -43.58589136 </i>
    <i name="e_0_energy">    -43.58589136 </i>
   </energy>
  </scstep>
  <scstep>
   <time name="dav">    1.14    1.14</time>
   <time name="total">    1.32    1.33</time>
   <energy>
    <i name="e_fr_energy">    -43.58945394 </i>
    <i name="e_wo_entrp">    -43.58945394 </i>
    <i name="e_0_energy">    -43.58945394 </i>
   </energy>
  </scstep>
  <scstep>
   <time name="dav">    1.20    1.20</time>
   <time name="total">    1.39    1.39</time>
   <energy>
    <i name="e_fr_energy">    -43.58753642 </i>
    <i name="e_wo_entrp">    -43.58753642 </i>
    <i name="e_0_energy">    -43.58753642 </i>
   </energy>
  </scstep>
  <scstep>
   <time name="dav">    1.20    1.20</time>
   <time name="total">    1.38    1.39</time>
   <energy>
    <i name="e_fr_energy">    -43.58577494 </i>
    <i name="e_wo_entrp">    -43.58577493 </i>
    <i name="e_0_energy">    -43.58577493 </i>
   </energy>
  </scstep>
  <scstep>
   <time name="dav">    1.11    1.11</time>
   <time name="total">    1.30    1.30</time>
   <energy>
    <i name="e_fr_energy">    -43.58461506 </i>
    <i name="e_wo_entrp">    -43.58461506 </i>
    <i name="e_0_energy">    -43.58461506 </i>
   </energy>
  </scstep>
  <scstep>
   <time name="dav">    1.14    1.15</time>
   <time name="total">    1.33    1.33</time>
   <energy>
    <i name="e_fr_energy">    -43.58445720 </i>
    <i name="e_wo_entrp">    -43.58445719 </i>
    <i name="e_0_energy">    -43.58445719 </i>
   </energy>
  </scstep>
  <scstep>
   <time name="dav">    1.29    1.29</time>
   <time name="total">    1.48    1.48</time>
   <energy>
    <i name="e_fr_energy">    -43.58445463 </i>
    <i name="e_wo_entrp">    -43.58445463 </i>
    <i name="e_0_energy">    -43.58445463 </i>
   </energy>
  </scstep>
  <scstep>
   <time name="dav">    1.19    1.19</time>
   <time name="total">    1.38    1.38</time>
   <energy>
    <i name="e_fr_energy">    -43.58445226 </i>
    <i name="e_wo_entrp">    -43.58445226 </i>
    <i name="e_0_energy">    -43.58445226 </i>
   </energy>
  </scstep>
  <scstep>
   <time name="dav">    0.78    0.78</time>
   <time name="total">    0.85    0.85</time>
   <energy>
    <i name="alphaZ">     82.14145441 </i>
    <i name="ewald">   -847.59792569 </i>
    <i name="hartreedc">   -802.55063761 </i>
    <i name="XCdc">    -70.23592744 </i>
    <i name="pawpsdc">    951.76807466 </i>
    <i name="pawaedc">   -800.25884033 </i>
    <i name="eentropy">     -0.00000000 </i>
    <i name="bandstr">    -99.16087807 </i>
    <i name="atom">   1542.31022798 </i>
    <i name="e_fr_energy">    -43.58445210 </i>
    <i name="e_wo_entrp">    -43.58445210 </i>
    <i name="e_0_energy">    -43.58445210 </i>
   </energy>
  </scstep>
  <structure>
   <crystal>
    <varray name="basis" >
     <v>       3.19506685      -0.00000000       0.00000000 </v>
     <v>      -1.59753343       2.76700906       0.00000000 </v>
     <v>       0.00000000      -0.00000000      16.33093899 </v>
    </varray>
    <i name="volume">    144.37822137 </i>
    <varray name="rec_basis" >
     <v>       0.31298250       0.18070053      -0.00000000 </v>
     <v>       0.00000000       0.36140106       0.00000000 </v>
     <v>      -0.00000000      -0.00000000       0.06123347 </v>
    </varray>
   </crystal>
   <varray name="positions" >
    <v>       0.33333300       0.66666700       0.25000000 </v>
    <v>       0.66666700       0.33333300       0.75000000 </v>
    <v>       0.33333300       0.66666700       0.84437517 </v>
    <v>       0.66666700       0.33333300       0.15562483 </v>
    <v>       0.66666600       0.33333300       0.34437517 </v>
    <v>       0.33333400       0.66666700       0.65562483 </v>
   </varray>
  </structure>
  <varray name="forces" >
   <v>       0.00000000      -0.00000000      -0.00000000 </v>
   <v>      -0.00000000      -0.00000000      -0.00000000 </v>
   <v>      -0.00000000       0.00000000       0.32414551 </v>
   <v>       0.00000000       0.00000000      -0.32414551 </v>
   <v>       0.00000000       0.00000000       0.32414551 </v>
   <v>      -0.00000000      -0.00000000      -0.32414551 </v>
  </varray>
  <varray name="stress" >
   <v>       3.03675120      -0.00000000       0.00000000 </v>
   <v>       0.00000000       3.03675120       0.00000000 </v>
   <v>       0.00000000       0.00000000      15.71130520 </v>
  </varray>
  <energy>
   <i name="e_fr_energy">    -44.86291904 </i>
   <i name="e_wo_entrp">    -44.86291903 </i>
   <i name="e_0_energy">     -0.00000000 </i>
  </energy>
  <time name="totalsc">   20.57   20.63</time>
 </calculation>
 <calculation>
  <scstep>
   <time name="dav">    1.03    1.03</time>
   <time name="total">    1.21    1.23</time>
   <energy>
    <i name="alphaZ">     88.17276680 </i>
    <i name="ewald">  -1074.52274183 </i>
    <i name="hartreedc">   -637.45904701 </i>
    <i name="XCdc">    -70.02548048 </i>
    <i name="pawpsdc">    951.75529738 </i>
    <i name="pawaedc">   -800.24600640 </i>
    <i name="eentropy">     -0.00000001 </i>
    <i name="bandstr">    -44.41377315 </i>
    <i name="atom">   1542.31022798 </i>
    <i name="e_fr_energy">    -44.42875672 </i>
    <i name="e_wo_entrp">    -44.42875671 </i>
    <i name="e_0_energy">    -44.42875671 </i>
   </energy>
  </scstep>
  <scstep>
   <time name="dav">    1.01    1.01</time>
   <time name="total">    1.20    1.20</time>
   <energy>
    <i name="e_fr_energy">    -44.21119870 </i>
    <i name="e_wo_entrp">    -44.21119870 </i>
    <i name="e_0_energy">    -44.21119870 </i>
   </energy>
  </scstep>
  <scstep>
   <time name="dav">    1.05    1.05</time>
   <time name="total">    1.24    1.24</time>
   <energy>
    <i name="e_fr_energy">    -43.98084748 </i>
    <i name="e_wo_entrp">    -43.98084748 </i>
    <i name="e_0_energy">    -43.98084748 </i>
   </energy>
  </scstep>
  <scstep>
   <time name="dav">    1.06    1.06</time>
   <time name="total">    1.25    1.25</time>
   <energy>
    <i name="e_fr_energy">    -43.71583484 </i>
    <i name="e_wo_entrp">    -43.71583484 </i>
    <i name="e_0_energy">    -43.71583484 </i>
   </energy>
  </scstep>
  <scstep>
   <time name="dav">    1.16    1.16</time>
   <time name="total">    1.35    1.35</time>
   <energy>
    <i name="e_fr_energy">    -44.11792907 </i>
    <i name="e_wo_entrp">    -44.11792905 </i>
    <i name="e_0_energy">    -44.11792906 </i>
   </energy>
  </scstep>
  <scstep>
   <time name="dav">    1.19    1.19</time>
   <time name="total">    1.39    1.39</time>
   <energy>
    <i name="e_fr_energy">    -56.14086416 </i>
    <i name="e_wo_entrp">    -56.14086416 </i>
    <i name="e_0_energy">    -56.14086416 </i>
   </energy>
  </scstep>
  <scstep>
   <time name="dav">    1.12    1.12</time>
   <time name="total">    1.31    1.31</time>
   <energy>
    <i name="e_fr_energy">    -43.51976004 </i>
    <i name="e_wo_entrp">    -43.51976004 </i>
    <i name="e_0_energy">    -43.51976004 </i>
   </energy>
  </scstep>
  <scstep>
   <time name="dav">    1.10    1.10</time>
   <time name="total">    1.29    1.29</time>
   <energy>
    <i name="e_fr_energy">    -43.63776016 </i>
    <i name="e_wo_entrp">    -43.63776016 </i>
    <i name="e_0_energy">    -43.63776016 </i>
   </energy>
  </scstep>
  <scstep>
   <time name="dav">    1.34    1.34</time>
   <time name="total">    1.53    1.53</time>
   <energy>
    <i name="e_fr_energy">    -43.64421494 </i>
    <i name="e_wo_entrp">    -43.64421494 </i>
    <i name="e_0_energy">    -43.64421494 </i>
   </energy>
  </scstep>
  <scstep>
   <time name="dav">    1.04    1.04</time>
   <time name="total">    1.24    1.24</time>
   <energy>
    <i name="e_fr_energy">    -43.60702037 </i>
    <i name="e_wo_entrp">    -43.60702037 </i>
    <i name="e_0_energy">    -43.60702037 </i>
   </energy>
  </scstep>
  <scstep>
   <time name="dav">    1.26    1.26</time>
   <time name="total">    1.45    1.45</time>
   <energy>
    <i name="e_fr_energy">    -43.60563958 </i>
    <i name="e_wo_entrp">    -43.60563958 </i>
    <i name="e_0_energy">    -43.60563958 </i>
   </energy>
  </scstep>
  <scstep>
   <time name="dav">    1.21    1.21</time>
   <time name="total">    1.40    1.40</time>
   <energy>
    <i name="e_fr_energy">    -43.60508495 </i>
    <i name="e_wo_entrp">    -43.60508495 </i>
    <i name="e_0_energy">    -43.60508495 </i>
   </energy>
  </scstep>
  <scstep>
   <time name="dav">    1.22    1.22</time>
   <time name="total">    1.41    1.42</time>
   <energy>
    <i name="e_fr_energy">    -43.60575495 </i>
    <i name="e_wo_entrp">    -43.60575495 </i>
    <i name="e_0_energy">    -43.60575495 </i>
   </energy>
  </scstep>
  <scstep>
   <time name="dav">    1.16    1.16</time>
   <time name="total">    1.35    1.36</time>
   <energy>
    <i name="e_fr_energy">    -43.60501895 </i>
    <i name="e_wo_entrp">    -43.60501895 </i>
    <i name="e_0_energy">    -43.60501895 </i>
   </energy>
  </scstep>
  <scstep>
   <time name="dav">    1.17    1.17</time>
   <time name="total">    1.36    1.36</time>
   <energy>
    <i name="e_fr_energy">    -43.60534072 </i>
    <i name="e_wo_entrp">    -43.60534072 </i>
    <i name="e_0_energy">    -43.60534072 </i>
   </energy>
  </scstep>
  <scstep>
   <time name="dav">    1.11    1.11</time>
   <time name="total">    1.30    1.31</time>
   <energy>
    <i name="e_fr_energy">    -43.60487146 </i>
    <i name="e_wo_entrp">    -43.60487146 </i>
    <i name="e_0_energy">    -43.60487146 </i>
   </energy>
  </scstep>
  <scstep>
   <time name="dav">    1.20    1.20</time>
   <time name="total">    1.39    1.40</time>
   <energy>
    <i name="e_fr_energy">    -43.60503972 </i>
    <i name="e_wo_entrp">    -43.60503972 </i>
    <i name="e_0_energy">    -43.60503972 </i>
   </energy>
  </scstep>
  <scstep>
   <time name="dav">    1.12    1.12</time>
   <time name="total">    1.31    1.32</time>
   <energy>
    <i name="e_fr_energy">    -43.60494678 </i>
    <i name="e_wo_entrp">    -43.60494678 </i>
    <i name="e_0_energy">    -43.60494678 </i>
   </energy>
  </scstep>
  <scstep>
   <time name="dav">    1.19    1.19</time>
   <time name="total">    1.38    1.38</time>
   <energy>
    <i name="e_fr_energy">    -43.60488770 </i>
    <i name="e_wo_entrp">    -43.60488770 </i>
    <i name="e_0_energy">    -43.60488770 </i>
   </energy>
  </scstep>
  <scstep>
   <time name="dav">    1.26    1.26</time>
   <time name="total">    1.45    1.45</time>
   <energy>
    <i name="e_fr_energy">    -43.60487701 </i>
    <i name="e_wo_entrp">    -43.60487701 </i>
    <i name="e_0_energy">    -43.60487701 </i>
   </energy>
  </scstep>
  <scstep>
   <time name="dav">    0.96    0.96</time>
   <time name="total">    1.16    1.16</time>
   <energy>
    <i name="e_fr_energy">    -43.60486928 </i>
    <i name="e_wo_entrp">    -43.60486928 </i>
    <i name="e_0_energy">    -43.60486928 </i>
   </energy>
  </scstep>
  <scstep>
   <time name="dav">    0.72    0.72</time>
   <time name="total">    0.91    0.92</time>
   <energy>
    <i name="e_fr_energy">    -43.60486688 </i>
    <i name="e_wo_entrp">    -43.60486688 </i>
    <i name="e_0_energy">    -43.60486688 </i>
   </energy>
  </scstep>
  <scstep>
   <time name="dav">    1.11    1.11</time>
   <time name="total">    1.30    1.30</time>
   <energy>
    <i name="e_fr_energy">    -43.60485044 </i>
    <i name="e_wo_entrp">    -43.60485044 </i>
    <i name="e_0_energy">    -43.60485044 </i>
   </energy>
  </scstep>
  <scstep>
   <time name="dav">    1.16    1.17</time>
   <time name="total">    1.36    1.36</time>
   <energy>
    <i name="e_fr_energy">    -43.60485267 </i>
    <i name="e_wo_entrp">    -43.60485267 </i>
    <i name="e_0_energy">    -43.60485267 </i>
   </energy>
  </scstep>
  <scstep>
   <time name="dav">    0.70    0.70</time>
   <time name="total">    0.77    0.78</time>
   <energy>
    <i name="alphaZ">     88.17276680 </i>
    <i name="ewald">  -1074.52274183 </i>
    <i name="hartreedc">   -604.80386376 </i>
    <i name="XCdc">    -70.37486214 </i>
    <i name="pawpsdc">    945.20939253 </i>
    <i name="pawaedc">   -793.60382012 </i>
    <i name="eentropy">     -0.00000000 </i>
    <i name="bandstr">    -75.99195127 </i>
    <i name="atom">   1542.31022798 </i>
    <i name="e_fr_energy">    -43.60485181 </i>
    <i name="e_wo_entrp">    -43.60485181 </i>
    <i name="e_0_energy">    -43.60485181 </i>
   </energy>
  </scstep>
  <structure>
   <crystal>
    <varray name="basis" >
     <v>       3.18933571      -0.00000000       0.00000000 </v>
     <v>      -1.59466786       2.76204575       0.00000000 </v>
     <v>       0.00000000      -0.00000000      15.26857488 </v>
    </varray>
    <i name="volume">    134.50226774 </i>
    <varray name="rec_basis" >
     <v>       0.31354492       0.18102524      -0.00000000 </v>
     <v>       0.00000000       0.36205048       0.00000000 </v>
     <v>      -0.00000000      -0.00000000       0.06549400 </v>
    </varray>
   </crystal>
   <varray name="positions" >
    <v>       0.33333300       0.66666700       0.25000000 </v>
    <v>       0.66666700       0.33333300       0.75000000 </v>
    <v>       0.33333300       0.66666700       0.85239002 </v>
    <v>       0.66666700       0.33333300       0.14760998 </v>
    <v>       0.66666600       0.33333300       0.35239002 </v>
    <v>       0.33333400       0.66666700       0.64760998 </v>
   </varray>
  </structure>
  <varray name="forces" >
   <v>      -0.00000000      -0.00000000       0.00000000 </v>
   <v>      -0.00000000       0.00000000       0.00000000 </v>
   <v>       0.00000000       0.00000000      -0.05515751 </v>
   <v>       0.00000000      -0.00000000       0.05515751 </v>
   <v>       0.00000000      -0.00000000      -0.05515751 </v>
   <v>      -0.00000000       0.00000000       0.05515751 </v>
  </varray>
  <varray name="stress" >
   <v>      -3.31977228      -0.00000000      -0.00000000 </v>
   <v>       0.00000000      -3.31977228      -0.00000000 </v>
   <v>       0.00000000       0.00000000     -12.98771015 </v>
  </varray>
  <energy>
   <i name="e_fr_energy">    -44.91743593 </i>
   <i name="e_wo_entrp">    -44.91743593 </i>
   <i name="e_0_energy">     -0.00000000 </i>
  </energy>
  <time name="totalsc">   33.36   33.44</time>
 </calculation>
 <calculation>
  <scstep>
   <time name="dav">    0.99    0.99</time>
   <time name="total">    1.18    1.18</time>
   <energy>
    <i name="alphaZ">     85.63562770 </i>
    <i name="ewald">   -989.38346823 </i>
    <i name="hartreedc">   -664.21603418 </i>
    <i name="XCdc">    -70.55550922 </i>
    <i name="pawpsdc">    945.20845901 </i>
    <i name="pawaedc">   -793.60289296 </i>
    <i name="eentropy">     -0.00000001 </i>
    <i name="bandstr">    -99.10401825 </i>
    <i name="atom">   1542.31022798 </i>
    <i name="e_fr_energy">    -43.70760814 </i>
    <i name="e_wo_entrp">    -43.70760813 </i>
    <i name="e_0_energy">    -43.70760814 </i>
   </energy>
  </scstep>
  <scstep>
   <time name="dav">    1.00    1.00</time>
   <time name="total">    1.19    1.19</time>
   <energy>
    <i name="e_fr_energy">    -43.65885523 </i>
    <i name="e_wo_entrp">    -43.65885523 </i>
    <i name="e_0_energy">    -43.65885523 </i>
   </energy>
  </scstep>
  <scstep>
   <time name="dav">    1.16    1.16</time>
   <time name="total">    1.36    1.36</time>
   <energy>
    <i name="e_fr_energy">    -43.77628811 </i>
    <i name="e_wo_entrp">    -43.77628810 </i>
    <i name="e_0_energy">    -43.77628811 </i>
   </energy>
  </scstep>
  <scstep>
   <time name="dav">    1.30    1.30</time>
   <time name="total">    1.50    1.50</time>
   <energy>
    <i name="e_fr_energy">    -43.88513568 </i>
    <i name="e_wo_entrp">    -43.88513568 </i>
    <i name="e_0_energy">    -43.88513568 </i>
   </energy>
  </scstep>
  <scstep>
   <time name="dav">    1.14    1.14</time>
   <time name="total">    1.34    1.34</time>
   <energy>
    <i name="e_fr_energy">    -43.84823709 </i>
    <i name="e_wo_entrp">    -43.84823709 </i>
    <i name="e_0_energy">    -43.84823709 </i>
   </energy>
  </scstep>
  <scstep>
   <time name="dav">    1.10    1.10</time>
   <time name="total">    1.29    1.29</time>
   <energy>
    <i name="e_fr_energy">    -43.69638583 </i>
    <i name="e_wo_entrp">    -43.69638583 </i>
    <i name="e_0_energy">    -43.69638583 </i>
   </energy>
  </scstep>
  <scstep>
   <time name="dav">    1.07    1.07</time>
   <time name="total">    1.26    1.26</time>
   <energy>
    <i name="e_fr_energy">    -43.61641041 </i>
    <i name="e_wo_entrp">    -43.61641041 </i>
    <i name="e_0_energy">    -43.61641041 </i>
   </energy>
  </scstep>
  <scstep>
   <time name="dav">    1.08    1.08</time>
   <time name="total">    1.28    1.28</time>
   <energy>
    <i name="e_fr_energy">    -43.61232985 </i>
    <i name="e_wo_entrp">    -43.61232985 </i>
    <i name="e_0_energy">    -43.61232985 </i>
   </energy>
  </scstep>
  <scstep>
   <time name="dav">    1.09    1.09</time>
   <time name="total">    1.28    1.28</time>
   <energy>
    <i name="e_fr_energy">    -43.61294051 </i>
    <i name="e_wo_entrp">    -43.61294051 </i>
    <i name="e_0_energy">    -43.61294051 </i>
   </energy>
  </scstep>
  <scstep>
   <time name="dav">    1.08    1.08</time>
   <time name="total">    1.28    1.28</time>
   <energy>
    <i name="e_fr_energy">    -43.60378640 </i>
    <i name="e_wo_entrp">    -43.60378640 </i>
    <i name="e_0_energy">    -43.60378640 </i>
   </energy>
  </scstep>
  <scstep>
   <time name="dav">    1.12    1.12</time>
   <time name="total">    1.31    1.32</time>
   <energy>
    <i name="e_fr_energy">    -43.60467737 </i>
    <i name="e_wo_entrp">    -43.60467737 </i>
    <i name="e_0_energy">    -43.60467737 </i>
   </energy>
  </scstep>
  <scstep>
   <time name="dav">    1.25    1.25</time>
   <time name="total">    1.44    1.44</time>
   <energy>
    <i name="e_fr_energy">    -43.60568815 </i>
    <i name="e_wo_entrp">    -43.60568815 </i>
    <i name="e_0_energy">    -43.60568815 </i>
   </energy>
  </scstep>
  <scstep>
   <time name="dav">    1.13    1.13</time>
   <time name="total">    1.33    1.33</time>
   <energy>
    <i name="e_fr_energy">    -43.60293221 </i>
    <i name="e_wo_entrp">    -43.60293221 </i>
    <i name="e_0_energy">    -43.60293221 </i>
   </energy>
  </scstep>
  <scstep>
   <time name="dav">    1.16    1.16</time>
   <time name="total">    1.35    1.36</time>
   <energy>
    <i name="e_fr_energy">    -43.60265680 </i>
    <i name="e_wo_entrp">    -43.60265680 </i>
    <i name="e_0_energy">    -43.60265680 </i>
   </energy>
  </scstep>
  <scstep>
   <time name="dav">    1.20    1.20</time>
   <time name="total">    1.39    1.39</time>
   <energy>
    <i name="e_fr_energy">    -43.60250655 </i>
    <i name="e_wo_entrp">    -43.60250655 </i>
    <i name="e_0_energy">    -43.60250655 </i>
   </energy>
  </scstep>
  <scstep>
   <time name="dav">    1.24    1.29</time>
   <time name="total">    1.44    1.50</time>
   <energy>
    <i name="e_fr_energy">    -43.60249764 </i>
    <i name="e_wo_entrp">    -43.60249764 </i>
    <i name="e_0_energy">    -43.60249764 </i>
   </energy>
  </scstep>
  <scstep>
   <time name="dav">    1.13    1.13</time>
   <time name="total">    1.33    1.33</time>
   <energy>
    <i name="e_fr_energy">    -43.60248982 </i>
    <i name="e_wo_entrp">    -43.60248982 </i>
    <i name="e_0_energy">    -43.60248982 </i>
   </energy>
  </scstep>
  <scstep>
   <time name="dav">    1.27    1.27</time>
   <time name="total">    1.47    1.47</time>
   <energy>
    <i name="e_fr_energy">    -43.60249256 </i>
    <i name="e_wo_entrp">    -43.60249256 </i>
    <i name="e_0_energy">    -43.60249256 </i>
   </energy>
  </scstep>
  <scstep>
   <time name="dav">    1.01    1.01</time>
   <time name="total">    1.20    1.21</time>
   <energy>
    <i name="e_fr_energy">    -43.60248977 </i>
    <i name="e_wo_entrp">    -43.60248977 </i>
    <i name="e_0_energy">    -43.60248977 </i>
   </energy>
  </scstep>
  <scstep>
   <time name="dav">    1.14    1.14</time>
   <time name="total">    1.21    1.21</time>
   <energy>
    <i name="alphaZ">     85.63562770 </i>
    <i name="ewald">   -989.38346823 </i>
    <i name="hartreedc">   -678.13143150 </i>
    <i name="XCdc">    -70.36690412 </i>
    <i name="pawpsdc">    945.77283491 </i>
    <i name="pawaedc">   -794.17552674 </i>
    <i name="eentropy">     -0.00000000 </i>
    <i name="bandstr">    -85.26384951 </i>
    <i name="atom">   1542.31022798 </i>
    <i name="e_fr_energy">    -43.60248950 </i>
    <i name="e_wo_entrp">    -43.60248950 </i>
    <i name="e_0_energy">    -43.60248950 </i>
   </energy>
  </scstep>
  <structure>
   <crystal>
    <varray name="basis" >
     <v>       3.19047158      -0.00000000      -0.00000000 </v>
     <v>      -1.59523579       2.76302944       0.00000000 </v>
     <v>       0.00000000      -0.00000000      15.70974720 </v>
    </varray>
    <i name="volume">    138.48718584 </i>
    <varray name="rec_basis" >
     <v>       0.31343329       0.18096079      -0.00000000 </v>
     <v>       0.00000000       0.36192159       0.00000000 </v>
     <v>       0.00000000      -0.00000000       0.06365475 </v>
    </varray>
   </crystal>
   <varray name="positions" >
    <v>       0.33333300       0.66666700       0.25000000 </v>
    <v>       0.66666700       0.33333300       0.75000000 </v>
    <v>       0.33333300       0.66666700       0.84935209 </v>
    <v>       0.66666700       0.33333300       0.15064791 </v>
    <v>       0.66666600       0.33333300       0.34935209 </v>
    <v>       0.33333400       0.66666700       0.65064791 </v>
   </varray>
  </structure>
  <varray name="forces" >
   <v>      -0.00000000       0.00000000      -0.00000000 </v>
   <v>       0.00000000       0.00000000      -0.00000000 </v>
   <v>       0.00000000      -0.00000000      -0.01806314 </v>
   <v>      -0.00000000       0.00000000       0.01806314 </v>
   <v>      -0.00000000      -0.00000000      -0.01806314 </v>
   <v>       0.00000000      -0.00000000       0.01806314 </v>
  </varray>
  <varray name="stress" >
   <v>      -2.74294746      -0.00000000       0.00000000 </v>
   <v>       0.00000000      -2.74294746      -0.00000000 </v>
   <v>       0.00000000      -0.00000000      -8.97364135 </v>
  </varray>
  <energy>
   <i name="e_fr_energy">    -44.89781598 </i>
   <i name="e_wo_entrp">    -44.89781598 </i>
   <i name="e_0_energy">     -0.00000000 </i>
  </energy>
  <time name="totalsc">   27.46   27.60</time>
 </calculation>
 <calculation>
  <scstep>
   <time name="dav">    1.01    1.01</time>
   <time name="total">    1.19    1.19</time>
   <energy>
    <i name="alphaZ">     79.57876915 </i>
    <i name="ewald">   -735.52383208 </i>
    <i name="hartreedc">   -863.37458622 </i>
    <i name="XCdc">    -70.72102568 </i>
    <i name="pawpsdc">    945.77498398 </i>
    <i name="pawaedc">   -794.17795343 </i>
    <i name="eentropy">     -0.00000116 </i>
    <i name="bandstr">   -147.88788474 </i>
    <i name="atom">   1542.31022798 </i>
    <i name="e_fr_energy">    -44.02130219 </i>
    <i name="e_wo_entrp">    -44.02130103 </i>
    <i name="e_0_energy">    -44.02130161 </i>
   </energy>
  </scstep>
  <scstep>
   <time name="dav">    1.03    1.03</time>
   <time name="total">    1.23    1.23</time>
   <energy>
    <i name="e_fr_energy">    -43.84880228 </i>
    <i name="e_wo_entrp">    -43.84880228 </i>
    <i name="e_0_energy">    -43.84880228 </i>
   </energy>
  </scstep>
  <scstep>
   <time name="dav">    1.10    1.10</time>
   <time name="total">    1.29    1.30</time>
   <energy>
    <i name="e_fr_energy">    -43.92479192 </i>
    <i name="e_wo_entrp">    -43.92479192 </i>
    <i name="e_0_energy">    -43.92479192 </i>
   </energy>
  </scstep>
  <scstep>
   <time name="dav">    1.02    1.02</time>
   <time name="total">    1.22    1.22</time>
   <energy>
    <i name="e_fr_energy">    -43.76741435 </i>
    <i name="e_wo_entrp">    -43.76741434 </i>
    <i name="e_0_energy">    -43.76741435 </i>
   </energy>
  </scstep>
  <scstep>
   <time name="dav">    1.09    1.09</time>
   <time name="total">    1.29    1.29</time>
   <energy>
    <i name="e_fr_energy">    -47.16042315 </i>
    <i name="e_wo_entrp">    -47.16042046 </i>
    <i name="e_0_energy">    -47.16042181 </i>
   </energy>
  </scstep>
  <scstep>
   <time name="dav">    1.32    1.32</time>
   <time name="total">    1.52    1.53</time>
   <energy>
    <i name="e_fr_energy">    -47.63496049 </i>
    <i name="e_wo_entrp">    -47.63495612 </i>
    <i name="e_0_energy">    -47.63495831 </i>
   </energy>
  </scstep>
  <scstep>
   <time name="dav">    1.04    1.04</time>
   <time name="total">    1.23    1.23</time>
   <energy>
    <i name="e_fr_energy">    -43.51669841 </i>
    <i name="e_wo_entrp">    -43.51669841 </i>
    <i name="e_0_energy">    -43.51669841 </i>
   </energy>
  </scstep>
  <scstep>
   <time name="dav">    1.02    1.02</time>
   <time name="total">    1.21    1.21</time>
   <energy>
    <i name="e_fr_energy">    -43.59221912 </i>
    <i name="e_wo_entrp">    -43.59221912 </i>
    <i name="e_0_energy">    -43.59221912 </i>
   </energy>
  </scstep>
  <scstep>
   <time name="dav">    1.30    1.30</time>
   <time name="total">    1.50    1.50</time>
   <energy>
    <i name="e_fr_energy">    -43.61051406 </i>
    <i name="e_wo_entrp">    -43.61051406 </i>
    <i name="e_0_energy">    -43.61051406 </i>
   </energy>
  </scstep>
  <scstep>
   <time name="dav">    1.12    1.12</time>
   <time name="total">    1.31    1.31</time>
   <energy>
    <i name="e_fr_energy">    -43.59299445 </i>
    <i name="e_wo_entrp">    -43.59299445 </i>
    <i name="e_0_energy">    -43.59299445 </i>
   </energy>
  </scstep>
  <scstep>
   <time name="dav">    1.13    1.13</time>
   <time name="total">    1.32    1.32</time>
   <energy>
    <i name="e_fr_energy">    -43.58618580 </i>
    <i name="e_wo_entrp">    -43.58618580 </i>
    <i name="e_0_energy">    -43.58618580 </i>
   </energy>
  </scstep>
  <scstep>
   <time name="dav">    1.29    1.29</time>
   <time name="total">    1.48    1.48</time>
   <energy>
    <i name="e_fr_energy">    -43.58688644 </i>
    <i name="e_wo_entrp">    -43.58688644 </i>
    <i name="e_0_energy">    -43.58688644 </i>
   </energy>
  </scstep>
  <scstep>
   <time name="dav">    1.16    1.16</time>
   <time name="total">    1.35    1.36</time>
   <energy>
    <i name="e_fr_energy">    -43.58605262 </i>
    <i name="e_wo_entrp">    -43.58605262 </i>
    <i name="e_0_energy">    -43.58605262 </i>
   </energy>
  </scstep>
  <scstep>
   <time name="dav">    1.16    1.16</time>
   <time name="total">    1.36    1.36</time>
   <energy>
    <i name="e_fr_energy">    -43.58521583 </i>
    <i name="e_wo_entrp">    -43.58521583 </i>
    <i name="e_0_energy">    -43.58521583 </i>
   </energy>
  </scstep>
  <scstep>
   <time name="dav">    1.26    1.26</time>
   <time name="total">    1.45    1.46</time>
   <energy>
    <i name="e_fr_energy">    -43.58517375 </i>
    <i name="e_wo_entrp">    -43.58517375 </i>
    <i name="e_0_energy">    -43.58517375 </i>
   </energy>
  </scstep>
  <scstep>
   <time name="dav">    1.10    1.10</time>
   <time name="total">    1.29    1.30</time>
   <energy>
    <i name="e_fr_energy">    -43.58520152 </i>
    <i name="e_wo_entrp">    -43.58520152 </i>
    <i name="e_0_energy">    -43.58520152 </i>
   </energy>
  </scstep>
  <scstep>
   <time name="dav">    1.25    1.25</time>
   <time name="total">    1.44    1.44</time>
   <energy>
    <i name="e_fr_energy">    -43.58516108 </i>
    <i name="e_wo_entrp">    -43.58516108 </i>
    <i name="e_0_energy">    -43.58516108 </i>
   </energy>
  </scstep>
  <scstep>
   <time name="dav">    1.12    1.12</time>
   <time name="total">    1.32    1.32</time>
   <energy>
    <i name="e_fr_energy">    -43.58509922 </i>
    <i name="e_wo_entrp">    -43.58509922 </i>
    <i name="e_0_energy">    -43.58509922 </i>
   </energy>
  </scstep>
  <scstep>
   <time name="dav">    1.19    1.19</time>
   <time name="total">    1.39    1.39</time>
   <energy>
    <i name="e_fr_energy">    -43.58509398 </i>
    <i name="e_wo_entrp">    -43.58509398 </i>
    <i name="e_0_energy">    -43.58509398 </i>
   </energy>
  </scstep>
  <scstep>
   <time name="dav">    1.07    1.07</time>
   <time name="total">    1.27    1.27</time>
   <energy>
    <i name="e_fr_energy">    -43.58509148 </i>
    <i name="e_wo_entrp">    -43.58509148 </i>
    <i name="e_0_energy">    -43.58509148 </i>
   </energy>
  </scstep>
  <scstep>
   <time name="dav">    0.71    0.72</time>
   <time name="total">    0.91    0.91</time>
   <energy>
    <i name="e_fr_energy">    -43.58508996 </i>
    <i name="e_wo_entrp">    -43.58508996 </i>
    <i name="e_0_energy">    -43.58508996 </i>
   </energy>
  </scstep>
  <scstep>
   <time name="dav">    0.88    0.88</time>
   <time name="total">    0.96    0.96</time>
   <energy>
    <i name="alphaZ">     79.57876915 </i>
    <i name="ewald">   -735.52383208 </i>
    <i name="hartreedc">   -902.82640712 </i>
    <i name="XCdc">    -70.22430190 </i>
    <i name="pawpsdc">    952.00111587 </i>
    <i name="pawaedc">   -800.49423179 </i>
    <i name="eentropy">     -0.00000000 </i>
    <i name="bandstr">   -108.40642934 </i>
    <i name="atom">   1542.31022798 </i>
    <i name="e_fr_energy">    -43.58508922 </i>
    <i name="e_wo_entrp">    -43.58508922 </i>
    <i name="e_0_energy">    -43.58508922 </i>
   </energy>
  </scstep>
  <structure>
[...]
    <v>       0.66666700       0.33333300       0.75000000 </v>
    <v>       0.33333300       0.66666700       0.82793566 </v>
    <v>       0.66666700       0.33333300       0.17206434 </v>
    <v>       0.66666600       0.33333300       0.32793566 </v>
    <v>       0.33333400       0.66666700       0.67206434 </v>
   </varray>
  </structure>
  <varray name="forces" >
   <v>      -0.00000000       0.00000000       0.00000000 </v>
   <v>      -0.00000000      -0.00000000       0.00000000 </v>
   <v>       0.00000000      -0.00000000      -0.01116519 </v>
   <v>       0.00000000       0.00000000       0.01116519 </v>
   <v>      -0.00000000       0.00000000      -0.01116519 </v>
   <v>       0.00000000       0.00000000       0.01116519 </v>
  </varray>
  <varray name="stress" >
   <v>      -2.61861166       0.00000000      -0.00000000 </v>
   <v>      -0.00000000      -2.61861166      -0.00000000 </v>
   <v>      -0.00000000      -0.00000000      -7.42498147 </v>
  </varray>
  <energy>
   <i name="e_fr_energy">    -44.76704926 </i>
   <i name="e_wo_entrp">    -44.76704926 </i>
   <i name="e_0_energy">     -0.00000000 </i>
  </energy>
  <time name="totalsc">   20.39   20.44</time>
 </calculation>
 <calculation>
  <scstep>
   <time name="dav">    1.33    1.33</time>
   <time name="total">    1.52    1.53</time>
   <energy>
    <i name="alphaZ">     36.74522820 </i>
    <i name="ewald">   6435.27658584 </i>
    <i name="hartreedc">  -6881.20520751 </i>
    <i name="XCdc">    -43.99218396 </i>
    <i name="pawpsdc">    948.18746798 </i>
    <i name="pawaedc">   -796.58773363 </i>
    <i name="eentropy">     -0.02288388 </i>
    <i name="bandstr">   -947.08343919 </i>
    <i name="atom">   1542.31022798 </i>
    <i name="e_fr_energy">    293.62806184 </i>
    <i name="e_wo_entrp">    293.65094571 </i>
    <i name="e_0_energy">    293.63950377 </i>
   </energy>
  </scstep>
  <scstep>
   <time name="dav">    1.57    1.57</time>
   <time name="total">    1.75    1.76</time>
   <energy>
    <i name="e_fr_energy">   -194.68713837 </i>
    <i name="e_wo_entrp">   -194.63445215 </i>
    <i name="e_0_energy">   -194.66079526 </i>
   </energy>
  </scstep>
  <scstep>
   <time name="dav">    1.43    1.43</time>
   <time name="total">    1.62    1.62</time>
   <energy>
    <i name="e_fr_energy">    253.79661758 </i>
    <i name="e_wo_entrp">    253.80989693 </i>
    <i name="e_0_energy">    253.80325725 </i>
   </energy>
  </scstep>
  <scstep>
   <time name="dav">    1.35    1.35</time>
   <time name="total">    1.54    1.54</time>
   <energy>
    <i name="e_fr_energy">    218.29427072 </i>
    <i name="e_wo_entrp">    218.31056419 </i>
    <i name="e_0_energy">    218.30241746 </i>
   </energy>
  </scstep>
  <scstep>
   <time name="dav">    1.32    1.32</time>
   <time name="total">    1.51    1.51</time>
   <energy>
    <i name="e_fr_energy">    206.22426074 </i>
    <i name="e_wo_entrp">    206.27325465 </i>
    <i name="e_0_energy">    206.24875770 </i>
   </energy>
  </scstep>
  <scstep>
   <time name="dav">    1.33    1.33</time>
   <time name="total">    1.53    1.53</time>
   <energy>
    <i name="e_fr_energy">    225.71253428 </i>
    <i name="e_wo_entrp">    225.74677863 </i>
    <i name="e_0_energy">    225.72965645 </i>
   </energy>
  </scstep>
  <scstep>
   <time name="dav">    1.21    1.21</time>
   <time name="total">    1.40    1.40</time>
   <energy>
    <i name="e_fr_energy">    230.82948250 </i>
    <i name="e_wo_entrp">    230.85468718 </i>
    <i name="e_0_energy">    230.84208484 </i>
   </energy>
  </scstep>
  <scstep>
   <time name="dav">    1.22    1.22</time>
   <time name="total">    1.40    1.40</time>
   <energy>
    <i name="e_fr_energy">    222.24379691 </i>
    <i name="e_wo_entrp">    222.25071171 </i>
    <i name="e_0_energy">    222.24725431 </i>
   </energy>
  </scstep>
  <scstep>
   <time name="dav">    1.25    1.25</time>
   <time name="total">    1.43    1.43</time>
   <energy>
    <i name="e_fr_energy">    225.32054855 </i>
    <i name="e_wo_entrp">    225.33053718 </i>
    <i name="e_0_energy">    225.32554287 </i>
   </energy>
  </scstep>
  <scstep>
   <time name="dav">    1.16    1.16</time>
   <time name="total">    1.34    1.35</time>
   <energy>
    <i name="e_fr_energy">    223.58375984 </i>
    <i name="e_wo_entrp">    223.60324479 </i>
    <i name="e_0_energy">    223.59350231 </i>
   </energy>
  </scstep>
  <scstep>
   <time name="dav">    1.13    1.13</time>
   <time name="total">    1.31    1.32</time>
   <energy>
    <i name="e_fr_energy">    223.90404966 </i>
    <i name="e_wo_entrp">    223.92235080 </i>
    <i name="e_0_energy">    223.91320023 </i>
   </energy>
  </scstep>
  <scstep>
   <time name="dav">    1.18    1.18</time>
   <time name="total">    1.37    1.37</time>
   <energy>
    <i name="e_fr_energy">    225.09339232 </i>
    <i name="e_wo_entrp">    225.10866648 </i>
    <i name="e_0_energy">    225.10102940 </i>
   </energy>
  </scstep>
  <scstep>
   <time name="dav">    1.15    1.15</time>
   <time name="total">    1.33    1.34</time>
   <energy>
    <i name="e_fr_energy">    227.90287556 </i>
    <i name="e_wo_entrp">    227.91898611 </i>
    <i name="e_0_energy">    227.91093084 </i>
   </energy>
  </scstep>
  <scstep>
   <time name="dav">    1.12    1.12</time>
   <time name="total">    1.30    1.30</time>
   <energy>
    <i name="e_fr_energy">    229.93063926 </i>
    <i name="e_wo_entrp">    229.93482539 </i>
    <i name="e_0_energy">    229.93273233 </i>
   </energy>
  </scstep>
  <scstep>
   <time name="dav">    1.20    1.20</time>
   <time name="total">    1.38    1.39</time>
   <energy>
    <i name="e_fr_energy">    231.83157749 </i>
    <i name="e_wo_entrp">    231.83607749 </i>
    <i name="e_0_energy">    231.83382749 </i>
   </energy>
  </scstep>
  <scstep>
   <time name="dav">    1.18    1.18</time>
   <time name="total">    1.37    1.37</time>
   <energy>
    <i name="e_fr_energy">    230.99744315 </i>
    <i name="e_wo_entrp">    230.99984864 </i>
    <i name="e_0_energy">    230.99864590 </i>
   </energy>
  </scstep>
  <scstep>
   <time name="dav">    1.17    1.17</time>
   <time name="total">    1.35    1.36</time>
   <energy>
    <i name="e_fr_energy">    231.87097864 </i>
    <i name="e_wo_entrp">    231.87099667 </i>
    <i name="e_0_energy">    231.87098765 </i>
   </energy>
  </scstep>
  <scstep>
   <time name="dav">    1.17    1.17</time>
   <time name="total">    1.35    1.35</time>
   <energy>
    <i name="e_fr_energy">    232.13087164 </i>
    <i name="e_wo_entrp">    232.13087164 </i>
    <i name="e_0_energy">    232.13087164 </i>
   </energy>
  </scstep>
  <scstep>
   <time name="dav">    1.15    1.15</time>
   <time name="total">    1.33    1.33</time>
   <energy>
    <i name="e_fr_energy">    231.28341251 </i>
    <i name="e_wo_entrp">    231.28341251 </i>
    <i name="e_0_energy">    231.28341251 </i>
   </energy>
  </scstep>
  <scstep>
   <time name="dav">    1.17    1.17</time>
   <time name="total">    1.35    1.35</time>
   <energy>
    <i name="e_fr_energy">    230.35121844 </i>
    <i name="e_wo_entrp">    230.35121844 </i>
    <i name="e_0_energy">    230.35121844 </i>
   </energy>
  </scstep>
  <scstep>
   <time name="dav">    1.22    1.22</time>
   <time name="total">    1.40    1.40</time>
   <energy>
    <i name="e_fr_energy">    229.62512991 </i>
    <i name="e_wo_entrp">    229.62512991 </i>
    <i name="e_0_energy">    229.62512991 </i>
   </energy>
  </scstep>
  <scstep>
   <time name="dav">    1.14    1.14</time>
   <time name="total">    1.32    1.33</time>
   <energy>
    <i name="e_fr_energy">    230.02422526 </i>
    <i name="e_wo_entrp">    230.02422526 </i>
    <i name="e_0_energy">    230.02422526 </i>
   </energy>
  </scstep>
  <scstep>
   <time name="dav">    1.17    1.17</time>
   <time name="total">    1.35    1.35</time>
   <energy>
    <i name="e_fr_energy">    230.26545445 </i>
    <i name="e_wo_entrp">    230.26545445 </i>
    <i name="e_0_energy">    230.26545445 </i>
   </energy>
  </scstep>
  <scstep>
   <time name="dav">    1.15    1.15</time>
   <time name="total">    1.33    1.34</time>
   <energy>
    <i name="e_fr_energy">    230.88021593 </i>
    <i name="e_wo_entrp">    230.88021593 </i>
    <i name="e_0_energy">    230.88021593 </i>
   </energy>
  </scstep>
  <scstep>
   <time name="dav">    1.25    1.25</time>
   <time name="total">    1.43    1.43</time>
   <energy>
    <i name="e_fr_energy">    231.13404017 </i>
    <i name="e_wo_entrp">    231.13404017 </i>
    <i name="e_0_energy">    231.13404017 </i>
   </energy>
  </scstep>
  <scstep>
   <time name="dav">    1.09    1.09</time>
   <time name="total">    1.27    1.27</time>
   <energy>
    <i name="e_fr_energy">    229.82536016 </i>
    <i name="e_wo_entrp">    229.82536016 </i>
    <i name="e_0_energy">    229.82536016 </i>
   </energy>
  </scstep>
  <scstep>
   <time name="dav">    1.07    1.07</time>
   <time name="total">    1.25    1.25</time>
   <energy>
    <i name="e_fr_energy">    231.69641156 </i>
    <i name="e_wo_entrp">    231.69641156 </i>
    <i name="e_0_energy">    231.69641156 </i>
   </energy>
  </scstep>
  <scstep>
   <time name="dav">    1.18    1.18</time>
   <time name="total">    1.37    1.37</time>
   <energy>
    <i name="e_fr_energy">    234.74628577 </i>
    <i name="e_wo_entrp">    234.74628577 </i>
    <i name="e_0_energy">    234.74628577 </i>
   </energy>
  </scstep>
  <scstep>
   <time name="dav">    1.18    1.18</time>
   <time name="total">    1.37    1.37</time>
   <energy>
    <i name="e_fr_energy">    237.67785319 </i>
    <i name="e_wo_entrp">    237.67785320 </i>
    <i name="e_0_energy">    237.67785319 </i>
   </energy>
  </scstep>
  <scstep>
   <time name="dav">    1.13    1.13</time>
   <time name="total">    1.32    1.32</time>
   <energy>
    <i name="e_fr_energy">    246.34824379 </i>
    <i name="e_wo_entrp">    246.35158883 </i>
    <i name="e_0_energy">    246.34991631 </i>
   </energy>
  </scstep>
  <scstep>
   <time name="dav">    1.15    1.15</time>
   <time name="total">    1.34    1.34</time>
   <energy>
    <i name="e_fr_energy">    258.62193450 </i>
    <i name="e_wo_entrp">    258.67004045 </i>
    <i name="e_0_energy">    258.64598748 </i>
   </energy>
  </scstep>
  <scstep>
   <time name="dav">    1.23    1.23</time>
   <time name="total">    1.41    1.42</time>
   <energy>
    <i name="e_fr_energy">    258.50629635 </i>
    <i name="e_wo_entrp">    258.55405940 </i>
    <i name="e_0_energy">    258.53017787 </i>
   </energy>
  </scstep>
  <scstep>
   <time name="dav">    1.30    1.30</time>
   <time name="total">    1.48    1.49</time>
   <energy>
    <i name="e_fr_energy">    258.69404203 </i>
    <i name="e_wo_entrp">    258.74264118 </i>
    <i name="e_0_energy">    258.71834161 </i>
   </energy>
  </scstep>
  <scstep>
   <time name="dav">    1.16    1.16</time>
   <time name="total">    1.35    1.35</time>
   <energy>
    <i name="e_fr_energy">    259.62766027 </i>
    <i name="e_wo_entrp">    259.68182216 </i>
    <i name="e_0_energy">    259.65474121 </i>
   </energy>
  </scstep>
  <scstep>
   <time name="dav">    1.14    1.14</time>
   <time name="total">    1.33    1.33</time>
   <energy>
    <i name="e_fr_energy">    261.18036257 </i>
    <i name="e_wo_entrp">    261.23801706 </i>
    <i name="e_0_energy">    261.20918981 </i>
   </energy>
  </scstep>
  <scstep>
   <time name="dav">    1.20    1.20</time>
   <time name="total">    1.39    1.40</time>
   <energy>
    <i name="e_fr_energy">    262.59930511 </i>
    <i name="e_wo_entrp">    262.65503376 </i>
    <i name="e_0_energy">    262.62716943 </i>
   </energy>
  </scstep>
  <scstep>
   <time name="dav">    1.27    1.27</time>
   <time name="total">    1.45    1.46</time>
   <energy>
    <i name="e_fr_energy">    262.84969479 </i>
    <i name="e_wo_entrp">    262.90260333 </i>
    <i name="e_0_energy">    262.87614906 </i>
   </energy>
  </scstep>
  <scstep>
   <time name="dav">    1.22    1.22</time>
   <time name="total">    1.41    1.41</time>
   <energy>
    <i name="e_fr_energy">    263.06688749 </i>
    <i name="e_wo_entrp">    263.10941262 </i>
    <i name="e_0_energy">    263.08815006 </i>
   </energy>
  </scstep>
  <scstep>
   <time name="dav">    1.25    1.25</time>
   <time name="total">    1.43    1.44</time>
   <energy>
    <i name="e_fr_energy">    263.09780861 </i>
    <i name="e_wo_entrp">    263.13850782 </i>
    <i name="e_0_energy">    263.11815821 </i>
   </energy>
  </scstep>
  <scstep>
   <time name="dav">    1.26    1.27</time>
   <time name="total">    1.44    1.45</time>
   <energy>
    <i name="e_fr_energy">    263.11572390 </i>
    <i name="e_wo_entrp">    263.15658914 </i>
    <i name="e_0_energy">    263.13615652 </i>
   </energy>
  </scstep>
  <scstep>
   <time name="dav">    1.19    1.19</time>
   <time name="total">    1.37    1.37</time>
   <energy>
    <i name="e_fr_energy">    263.15454701 </i>
    <i name="e_wo_entrp">    263.19842821 </i>
    <i name="e_0_energy">    263.17648761 </i>
   </energy>
  </scstep>
  <scstep>
   <time name="dav">    1.29    1.29</time>
   <time name="total">    1.47    1.48</time>
   <energy>
    <i name="e_fr_energy">    263.18550512 </i>
    <i name="e_wo_entrp">    263.23028927 </i>
    <i name="e_0_energy">    263.20789720 </i>
   </energy>
  </scstep>
  <scstep>
   <time name="dav">    1.08    1.08</time>
   <time name="total">    1.27    1.27</time>
   <energy>
    <i name="e_fr_energy">    263.40258367 </i>
    <i name="e_wo_entrp">    263.45078728 </i>
    <i name="e_0_energy">    263.42668547 </i>
   </energy>
  </scstep>
  <scstep>
   <time name="dav">    1.06    1.06</time>
   <time name="total">    1.24    1.24</time>
   <energy>
    <i name="e_fr_energy">    263.19746411 </i>
    <i name="e_wo_entrp">    263.24261234 </i>
    <i name="e_0_energy">    263.22003823 </i>
   </energy>
  </scstep>
  <scstep>
   <time name="dav">    1.20    1.20</time>
   <time name="total">    1.39    1.40</time>
   <energy>
    <i name="e_fr_energy">    263.19171060 </i>
    <i name="e_wo_entrp">    263.23743170 </i>
    <i name="e_0_energy">    263.21457115 </i>
   </energy>
  </scstep>
  <scstep>
   <time name="dav">    1.15    1.15</time>
   <time name="total">    1.34    1.34</time>
   <energy>
    <i name="e_fr_energy">    263.19119432 </i>
    <i name="e_wo_entrp">    263.23681038 </i>
    <i name="e_0_energy">    263.21400235 </i>
   </energy>
  </scstep>
  <scstep>
   <time name="dav">    1.21    1.21</time>
   <time name="total">    1.41    1.41</time>
   <energy>
    <i name="e_fr_energy">    263.19008671 </i>
    <i name="e_wo_entrp">    263.23551259 </i>
    <i name="e_0_energy">    263.21279965 </i>
   </energy>
  </scstep>
  <scstep>
   <time name="dav">    1.23    1.23</time>
   <time name="total">    1.43    1.43</time>
   <energy>
    <i name="e_fr_energy">    263.18992347 </i>
    <i name="e_wo_entrp">    263.23531357 </i>
    <i name="e_0_energy">    263.21261852 </i>
   </energy>
  </scstep>
  <scstep>
   <time name="dav">    1.10    1.10</time>
   <time name="total">    1.30    1.30</time>
   <energy>
    <i name="e_fr_energy">    263.18988130 </i>
    <i name="e_wo_entrp">    263.23534554 </i>
    <i name="e_0_energy">    263.21261342 </i>
   </energy>
  </scstep>
  <scstep>
   <time name="dav">    1.13    1.13</time>
   <time name="total">    1.33    1.33</time>
   <energy>
    <i name="e_fr_energy">    263.18986846 </i>
    <i name="e_wo_entrp">    263.23529297 </i>
    <i name="e_0_energy">    263.21258071 </i>
   </energy>
  </scstep>
  <scstep>
   <time name="dav">    0.89    0.89</time>
   <time name="total">    0.96    0.96</time>
   <energy>
    <i name="alphaZ">     36.74522820 </i>
    <i name="ewald">   6435.27658584 </i>
    <i name="hartreedc">  -7449.45765015 </i>
    <i name="XCdc">    -53.99316174 </i>
    <i name="pawpsdc">   1910.47784392 </i>
    <i name="pawaedc">  -1772.03628705 </i>
    <i name="eentropy">     -0.04542420 </i>
    <i name="bandstr">   -386.08749468 </i>
    <i name="atom">   1542.31022798 </i>
    <i name="e_fr_energy">    263.18986811 </i>
    <i name="e_wo_entrp">    263.23529231 </i>
    <i name="e_0_energy">    263.21258021 </i>
   </energy>
  </scstep>
  <structure>
   <crystal>
    <varray name="basis" >
     <v>       3.20889642       0.00000000       0.00000000 </v>
     <v>      -1.60444821       2.77898581       0.00000000 </v>
     <v>       0.00000000      -0.00000000      36.19270966 </v>
    </varray>
    <i name="volume">    322.74767828 </i>
    <varray name="rec_basis" >
     <v>       0.31163362       0.17992175      -0.00000000 </v>
     <v>      -0.00000000       0.35984351       0.00000000 </v>
     <v>      -0.00000000      -0.00000000       0.02762987 </v>
    </varray>
   </crystal>
   <varray name="positions" >
    <v>       0.33333300       0.66666700       0.25000000 </v>
    <v>       0.66666700       0.33333300       0.75000000 </v>
    <v>       0.33333300       0.66666700       0.76245205 </v>
    <v>       0.66666700       0.33333300       0.23754795 </v>
    <v>       0.66666600       0.33333300       0.26245205 </v>
    <v>       0.33333400       0.66666700       0.73754795 </v>
   </varray>
  </structure>
  <varray name="forces" >
   <v>      -0.00000000      -0.00000000       0.00000000 </v>
   <v>       0.00000000      -0.00000000      -0.00000000 </v>
   <v>       0.00000000      -0.00000000     517.65707448 </v>
   <v>      -0.00000000       0.00000000    -517.65707448 </v>
   <v>       0.00000000      -0.00000000     517.65707448 </v>
   <v>      -0.00000000       0.00000000    -517.65707448 </v>
  </varray>
  <varray name="stress" >
   <v>     750.77387709      -0.00000000       0.00000000 </v>
   <v>      -0.00000000     750.77387709       0.00000000 </v>
   <v>       0.00000000       0.00000000    4064.60567611 </v>
  </varray>
  <energy>
   <i name="e_fr_energy">    261.76061965 </i>
   <i name="e_wo_entrp">    261.78333175 </i>
   <i name="e_0_energy">     -0.04542420 </i>
  </energy>
  <time name="totalsc">   71.42   71.56</time>
 </calculation>
 <calculation>
  <scstep>
   <time name="dav">    1.50    1.50</time>
   <time name="total">    1.69    1.69</time>
   <energy>
    <i name="alphaZ">     67.34748719 </i>
    <i name="ewald">    -97.79963065 </i>
    <i name="hartreedc">  -1855.74157120 </i>
    <i name="XCdc">    -63.47000894 </i>
    <i name="pawpsdc">   1910.47098358 </i>
    <i name="pawaedc">  -1772.02934381 </i>
    <i name="eentropy">     -0.03535804 </i>
    <i name="bandstr">    196.79403831 </i>
    <i name="atom">   1542.31022798 </i>
    <i name="e_fr_energy">    -72.15317557 </i>
    <i name="e_wo_entrp">    -72.11781753 </i>
    <i name="e_0_energy">    -72.13549655 </i>
   </energy>
  </scstep>
  <scstep>
   <time name="dav">    1.24    1.24</time>
   <time name="total">    1.43    1.43</time>
   <energy>
    <i name="e_fr_energy">   -177.42953917 </i>
    <i name="e_wo_entrp">   -177.37568089 </i>
    <i name="e_0_energy">   -177.40261003 </i>
   </energy>
  </scstep>
  <scstep>
   <time name="dav">    1.33    1.33</time>
   <time name="total">    1.52    1.53</time>
   <energy>
    <i name="e_fr_energy">   -131.20418279 </i>
    <i name="e_wo_entrp">   -131.15794725 </i>
    <i name="e_0_energy">   -131.18106502 </i>
   </energy>
  </scstep>
  <scstep>
   <time name="dav">    1.29    1.29</time>
   <time name="total">    1.48    1.48</time>
   <energy>
    <i name="e_fr_energy">   -198.26340079 </i>
    <i name="e_wo_entrp">   -198.19944721 </i>
    <i name="e_0_energy">   -198.23142400 </i>
   </energy>
  </scstep>
  <scstep>
   <time name="dav">    1.25    1.25</time>
   <time name="total">    1.44    1.45</time>
   <energy>
    <i name="e_fr_energy">   -203.52377953 </i>
    <i name="e_wo_entrp">   -203.46983148 </i>
    <i name="e_0_energy">   -203.49680551 </i>
   </energy>
  </scstep>
  <scstep>
