unknown system                          
           1
     3.190316    0.000000    0.000000
    -1.595158    2.762894    0.000000
     0.000000    0.000000   14.879004
   Mo   S 
   2   4
Direct configuration=     1
   0.33333300  0.66666700  0.25000000
   0.66666700  0.33333300  0.75000000
   0.33333300  0.66666700  0.85517400
   0.66666700  0.33333300  0.14482600
   0.66666600  0.33333300  0.35517400
   0.33333400  0.66666700  0.64482600
unknown system                          
           1
     3.179660    0.000000    0.000000
    -1.589830    2.753667   -0.000000
     0.000000    0.000000   14.716451
   Mo   S 
   2   4
Direct configuration=     2
   0.33333300  0.66666700  0.25000000
   0.66666700  0.33333300  0.75000000
   0.33333300  0.66666700  0.85489628
   0.66666700  0.33333300  0.14510372
   0.66666600  0.33333300  0.35489628
   0.33333400  0.66666700  0.64510372
unknown system                          
           1
     3.193870    0.000000   -0.000000
    -1.596935    2.765973   -0.000000
     0.000000    0.000000   14.801396
   Mo   S 
   2   4
Direct configuration=     3
   0.33333300  0.66666700  0.25000000
   0.66666700  0.33333300  0.75000000
   0.33333300  0.66666700  0.85548316
   0.66666700  0.33333300  0.14451684
   0.66666600  0.33333300  0.35548316
   0.33333400  0.66666700  0.64451684
unknown system                          
           1
     3.192612    0.000000   -0.000000
    -1.596306    2.764883   -0.000000
     0.000000    0.000000   14.764199
   Mo   S 
   2   4
Direct configuration=     4
   0.33333300  0.66666700  0.25000000
   0.66666700  0.33333300  0.75000000
   0.33333300  0.66666700  0.85568931
   0.66666700  0.33333300  0.14431069
   0.66666600  0.33333300  0.35568931
   0.33333400  0.66666700  0.64431069
unknown system                          
           1
     3.194092    0.000000   -0.000000
    -1.597046    2.766165   -0.000000
    -0.000000    0.000000   14.562693
   Mo   S 
   2   4
Direct configuration=     5
   0.33333300  0.66666700  0.25000000
   0.66666700  0.33333300  0.75000000
   0.33333300  0.66666700  0.85716135
   0.66666700  0.33333300  0.14283865
   0.66666600  0.33333300  0.35716135
   0.33333400  0.66666700  0.64283865
unknown system                          
           1
     3.195067   -0.000000    0.000000
    -1.597533    2.767009    0.000000
     0.000000   -0.000000   16.330939
   Mo   S 
   2   4
Direct configuration=     6
   0.33333300  0.66666700  0.25000000
   0.66666700  0.33333300  0.75000000
   0.33333300  0.66666700  0.84437517
   0.66666700  0.33333300  0.15562483
   0.66666600  0.33333300  0.34437517
   0.33333400  0.66666700  0.65562483
unknown system                          
           1
     3.189336   -0.000000    0.000000
    -1.594668    2.762046    0.000000
     0.000000   -0.000000   15.268575
   Mo   S 
   2   4
Direct configuration=     7
   0.33333300  0.66666700  0.25000000
   0.66666700  0.33333300  0.75000000
   0.33333300  0.66666700  0.85239002
   0.66666700  0.33333300  0.14760998
   0.66666600  0.33333300  0.35239002
   0.33333400  0.66666700  0.64760998
unknown system                          
           1
     3.190472   -0.000000   -0.000000
    -1.595236    2.763029    0.000000
     0.000000   -0.000000   15.709747
   Mo   S 
   2   4
Direct configuration=     8
   0.33333300  0.66666700  0.25000000
   0.66666700  0.33333300  0.75000000
   0.33333300  0.66666700  0.84935209
   0.66666700  0.33333300  0.15064791
   0.66666600  0.33333300  0.34935209
   0.33333400  0.66666700  0.65064791
unknown system                          
           1
     3.190362   -0.000000    0.000000
    -1.595181    2.762935    0.000000
     0.000000   -0.000000   16.906598
   Mo   S 
   2   4
Direct configuration=     9
   0.33333300  0.66666700  0.25000000
   0.66666700  0.33333300  0.75000000
   0.33333300  0.66666700  0.84137345
   0.66666700  0.33333300  0.15862655
   0.66666600  0.33333300  0.34137345
   0.33333400  0.66666700  0.65862655
unknown system                          
           1
     3.190933   -0.000000    0.000000
    -1.595466    2.763429    0.000000
     0.000000   -0.000000   16.145880
   Mo   S 
   2   4
Direct configuration=    10
   0.33333300  0.66666700  0.25000000
   0.66666700  0.33333300  0.75000000
   0.33333300  0.66666700  0.84669672
   0.66666700  0.33333300  0.15330328
   0.66666600  0.33333300  0.34669672
   0.33333400  0.66666700  0.65330328
unknown system                          
           1
     3.190862   -0.000000    0.000000
    -1.595431    2.763367    0.000000
     0.000000   -0.000000   16.430254
   Mo   S 
   2   4
Direct configuration=    11
   0.33333300  0.66666700  0.25000000
   0.66666700  0.33333300  0.75000000
   0.33333300  0.66666700  0.84493875
   0.66666700  0.33333300  0.15506125
   0.66666600  0.33333300  0.34493875
   0.33333400  0.66666700  0.65506125
unknown system                          
           1
     3.191897   -0.000000    0.000000
    -1.595949    2.764264    0.000000
     0.000000   -0.000000   17.448766
   Mo   S 
   2   4
Direct configuration=    12
   0.33333300  0.66666700  0.25000000
   0.66666700  0.33333300  0.75000000
   0.33333300  0.66666700  0.83887930
   0.66666700  0.33333300  0.16112070
   0.66666600  0.33333300  0.33887930
   0.33333400  0.66666700  0.66112070
unknown system                          
           1
     3.190603   -0.000000    0.000000
    -1.595302    2.763144    0.000000
     0.000000   -0.000000   16.989654
   Mo   S 
   2   4
Direct configuration=    13
   0.33333300  0.66666700  0.25000000
   0.66666700  0.33333300  0.75000000
   0.33333300  0.66666700  0.84182614
   0.66666700  0.33333300  0.15817386
   0.66666600  0.33333300  0.34182614
   0.33333400  0.66666700  0.65817386
unknown system                          
           1
     3.190684   -0.000000    0.000000
    -1.595342    2.763213    0.000000
     0.000000   -0.000000   17.242631
   Mo   S 
   2   4
Direct configuration=    14
   0.33333300  0.66666700  0.25000000
   0.66666700  0.33333300  0.75000000
   0.33333300  0.66666700  0.84041161
   0.66666700  0.33333300  0.15958839
   0.66666600  0.33333300  0.34041161
   0.33333400  0.66666700  0.65958839
unknown system                          
           1
     3.191015   -0.000000    0.000000
    -1.595508    2.763500    0.000000
     0.000000   -0.000000   18.095599
   Mo   S 
   2   4
Direct configuration=    15
   0.33333300  0.66666700  0.25000000
   0.66666700  0.33333300  0.75000000
   0.33333300  0.66666700  0.83584696
   0.66666700  0.33333300  0.16415304
   0.66666600  0.33333300  0.33584696
   0.33333400  0.66666700  0.66415304
unknown system                          
           1
     3.190923   -0.000000    0.000000
    -1.595462    2.763420    0.000000
     0.000000   -0.000000   17.826782
   Mo   S 
   2   4
Direct configuration=    16
   0.33333300  0.66666700  0.25000000
   0.66666700  0.33333300  0.75000000
   0.33333300  0.66666700  0.83747878
   0.66666700  0.33333300  0.16252122
   0.66666600  0.33333300  0.33747878
   0.33333400  0.66666700  0.66252122
unknown system                          
           1
     3.190978   -0.000000    0.000000
    -1.595489    2.763468    0.000000
     0.000000   -0.000000   18.020954
   Mo   S 
   2   4
Direct configuration=    17
   0.33333300  0.66666700  0.25000000
   0.66666700  0.33333300  0.75000000
   0.33333300  0.66666700  0.83649239
   0.66666700  0.33333300  0.16350761
   0.66666600  0.33333300  0.33649239
   0.33333400  0.66666700  0.66350761
unknown system                          
           1
     3.190991   -0.000000    0.000000
    -1.595496    2.763480    0.000000
     0.000000   -0.000000   19.050305
   Mo   S 
   2   4
Direct configuration=    18
   0.33333300  0.66666700  0.25000000
   0.66666700  0.33333300  0.75000000
   0.33333300  0.66666700  0.83147535
   0.66666700  0.33333300  0.16852465
   0.66666600  0.33333300  0.33147535
   0.33333400  0.66666700  0.66852465
unknown system                          
           1
     3.191459   -0.000000    0.000000
    -1.595730    2.763885    0.000000
     0.000000   -0.000000   18.617120
   Mo   S 
   2   4
Direct configuration=    19
   0.33333300  0.66666700  0.25000000
   0.66666700  0.33333300  0.75000000
   0.33333300  0.66666700  0.83378276
   0.66666700  0.33333300  0.16621724
   0.66666600  0.33333300  0.33378276
   0.33333400  0.66666700  0.66621724
unknown system                          
           1
     3.191615   -0.000000    0.000000
    -1.595808    2.764020    0.000000
     0.000000   -0.000000   18.905354
   Mo   S 
   2   4
Direct configuration=    20
   0.33333300  0.66666700  0.25000000
   0.66666700  0.33333300  0.75000000
   0.33333300  0.66666700  0.83245063
   0.66666700  0.33333300  0.16754937
   0.66666600  0.33333300  0.33245063
   0.33333400  0.66666700  0.66754937
unknown system                          
           1
     3.192793   -0.000000    0.000000
    -1.596397    2.765040    0.000000
     0.000000   -0.000000   20.580092
   Mo   S 
   2   4
Direct configuration=    21
   0.33333300  0.66666700  0.25000000
   0.66666700  0.33333300  0.75000000
   0.33333300  0.66666700  0.82499866
   0.66666700  0.33333300  0.17500134
   0.66666600  0.33333300  0.32499866
   0.33333400  0.66666700  0.67500134
unknown system                          
           1
     3.191866   -0.000000    0.000000
    -1.595933    2.764237    0.000000
     0.000000   -0.000000   19.488549
   Mo   S 
   2   4
Direct configuration=    22
   0.33333300  0.66666700  0.25000000
   0.66666700  0.33333300  0.75000000
   0.33333300  0.66666700  0.83008909
   0.66666700  0.33333300  0.16991091
   0.66666600  0.33333300  0.33008909
   0.33333400  0.66666700  0.66991091
unknown system                          
           1
     3.192491   -0.000000    0.000000
    -1.596246    2.764779    0.000000
     0.000000   -0.000000   20.008100
   Mo   S 
   2   4
Direct configuration=    23
   0.33333300  0.66666700  0.25000000
   0.66666700  0.33333300  0.75000000
   0.33333300  0.66666700  0.82793566
   0.66666700  0.33333300  0.17206434
   0.66666600  0.33333300  0.32793566
   0.33333400  0.66666700  0.67206434
unknown system                          
           1
     3.208896    0.000000    0.000000
    -1.604448    2.778986    0.000000
     0.000000   -0.000000   36.192710
   Mo   S 
   2   4
Direct configuration=    24
   0.33333300  0.66666700  0.25000000
   0.66666700  0.33333300  0.75000000
   0.33333300  0.66666700  0.76245205
   0.66666700  0.33333300  0.23754795
   0.66666600  0.33333300  0.26245205
   0.33333400  0.66666700  0.73754795
