   3   3   0   0
  0.9072772E+02  0.3190316E-09  0.3190316E-09  0.3087900E-08  0.5000000E-15
  1.000000000000000E-004
  CAR 
 unknown system                          
      5.77490045    -19.78848750  301     -3.74746157      1.00000000
    -19.788  0.0000E+00  0.0000E+00
    -19.703  0.0000E+00  0.0000E+00
    -19.618  0.0000E+00  0.0000E+00
    -19.533  0.0000E+00  0.0000E+00
    -19.448  0.0000E+00  0.0000E+00
    -19.362  0.0000E+00  0.0000E+00
    -19.277  0.0000E+00  0.0000E+00
    -19.192  0.0000E+00  0.0000E+00
    -19.107  0.0000E+00  0.0000E+00
    -19.022  0.0000E+00  0.0000E+00
    -18.936  0.0000E+00  0.0000E+00
    -18.851  0.0000E+00  0.0000E+00
    -18.766  0.0000E+00  0.0000E+00
    -18.681  0.0000E+00  0.0000E+00
    -18.596  0.0000E+00  0.0000E+00
    -18.510  0.0000E+00  0.0000E+00
    -18.425  0.0000E+00  0.0000E+00
    -18.340  0.0000E+00  0.0000E+00
    -18.255  0.0000E+00  0.0000E+00
    -18.169  0.0000E+00  0.0000E+00
    -18.084  0.0000E+00  0.0000E+00
    -17.999  0.0000E+00  0.0000E+00
    -17.914  0.0000E+00  0.0000E+00
    -17.829  0.0000E+00  0.0000E+00
    -17.743  0.1843E+00  0.4153E-02
    -17.658  0.5327E+00  0.3470E-01
    -17.573  0.4779E+00  0.9439E-01
    -17.488  0.5174E+00  0.1368E+00
    -17.403  0.5569E+00  0.1826E+00
    -17.317  0.5964E+00  0.2317E+00
    -17.232  0.6358E+00  0.2842E+00
    -17.147  0.6622E+00  0.3398E+00
    -17.062  0.6693E+00  0.3966E+00
    -16.977  0.6853E+00  0.4540E+00
    -16.891  0.7183E+00  0.5138E+00
    -16.806  0.7513E+00  0.5764E+00
    -16.721  0.7843E+00  0.6419E+00
    -16.636  0.8173E+00  0.7101E+00
    -16.550  0.1387E+01  0.7892E+00
    -16.465  0.2061E+01  0.9707E+00
    -16.380  0.2356E+01  0.1159E+01
    -16.295  0.2675E+01  0.1373E+01
    -16.210  0.2892E+01  0.1610E+01
    -16.124  0.3230E+01  0.1871E+01
    -16.039  0.3568E+01  0.2160E+01
    -15.954  0.4222E+01  0.2617E+01
    -15.869  0.4244E+01  0.2975E+01
    -15.784  0.3765E+01  0.3366E+01
    -15.698  0.3350E+01  0.3777E+01
    -15.613  0.0000E+00  0.4000E+01
    -15.528  0.0000E+00  0.4000E+01
    -15.443  0.0000E+00  0.4000E+01
    -15.358  0.0000E+00  0.4000E+01
    -15.272  0.0000E+00  0.4000E+01
    -15.187  0.0000E+00  0.4000E+01
    -15.102  0.0000E+00  0.4000E+01
    -15.017  0.0000E+00  0.4000E+01
    -14.931  0.0000E+00  0.4000E+01
    -14.846  0.0000E+00  0.4000E+01
    -14.761  0.0000E+00  0.4000E+01
    -14.676  0.0000E+00  0.4000E+01
    -14.591  0.0000E+00  0.4000E+01
    -14.505  0.0000E+00  0.4000E+01
    -14.420  0.0000E+00  0.4000E+01
    -14.335  0.0000E+00  0.4000E+01
    -14.250  0.0000E+00  0.4000E+01
    -14.165  0.0000E+00  0.4000E+01
    -14.079  0.0000E+00  0.4000E+01
    -13.994  0.0000E+00  0.4000E+01
    -13.909  0.0000E+00  0.4000E+01
    -13.824  0.0000E+00  0.4000E+01
    -13.738  0.0000E+00  0.4000E+01
    -13.653  0.0000E+00  0.4000E+01
    -13.568  0.0000E+00  0.4000E+01
    -13.483  0.0000E+00  0.4000E+01
    -13.398  0.0000E+00  0.4000E+01
    -13.312  0.0000E+00  0.4000E+01
    -13.227  0.0000E+00  0.4000E+01
    -13.142  0.0000E+00  0.4000E+01
    -13.057  0.0000E+00  0.4000E+01
    -12.972  0.0000E+00  0.4000E+01
    -12.886  0.0000E+00  0.4000E+01
    -12.801  0.0000E+00  0.4000E+01
    -12.716  0.0000E+00  0.4000E+01
    -12.631  0.0000E+00  0.4000E+01
    -12.546  0.0000E+00  0.4000E+01
    -12.460  0.0000E+00  0.4000E+01
    -12.375  0.0000E+00  0.4000E+01
    -12.290  0.0000E+00  0.4000E+01
    -12.205  0.0000E+00  0.4000E+01
    -12.119  0.0000E+00  0.4000E+01
    -12.034  0.0000E+00  0.4000E+01
    -11.949  0.0000E+00  0.4000E+01
    -11.864  0.0000E+00  0.4000E+01
    -11.779  0.0000E+00  0.4000E+01
    -11.693  0.0000E+00  0.4000E+01
    -11.608  0.0000E+00  0.4000E+01
    -11.523  0.0000E+00  0.4000E+01
    -11.438  0.0000E+00  0.4000E+01
    -11.353  0.0000E+00  0.4000E+01
    -11.267  0.0000E+00  0.4000E+01
    -11.182  0.0000E+00  0.4000E+01
    -11.097  0.0000E+00  0.4000E+01
    -11.012  0.0000E+00  0.4000E+01
    -10.927  0.0000E+00  0.4000E+01
    -10.841  0.0000E+00  0.4000E+01
    -10.756  0.0000E+00  0.4000E+01
    -10.671  0.0000E+00  0.4000E+01
    -10.586  0.0000E+00  0.4000E+01
    -10.500  0.0000E+00  0.4000E+01
    -10.415  0.0000E+00  0.4000E+01
    -10.330  0.0000E+00  0.4000E+01
    -10.245  0.0000E+00  0.4000E+01
    -10.160  0.0000E+00  0.4000E+01
    -10.074  0.0000E+00  0.4000E+01
     -9.989  0.0000E+00  0.4000E+01
     -9.904  0.0000E+00  0.4000E+01
     -9.819  0.0000E+00  0.4000E+01
     -9.734  0.0000E+00  0.4000E+01
     -9.648  0.0000E+00  0.4000E+01
     -9.563  0.0000E+00  0.4000E+01
     -9.478  0.0000E+00  0.4000E+01
     -9.393  0.4672E+00  0.4018E+01
     -9.307  0.9994E+00  0.4080E+01
     -9.222  0.1794E+01  0.4199E+01
     -9.137  0.2634E+01  0.4395E+01
     -9.052  0.2849E+01  0.4636E+01
     -8.967  0.3823E+01  0.4952E+01
     -8.881  0.3158E+01  0.5250E+01
     -8.796  0.4899E+01  0.5520E+01
     -8.711  0.3954E+01  0.5975E+01
     -8.626  0.5255E+01  0.6166E+01
     -8.541  0.2746E+01  0.6498E+01
     -8.455  0.1328E+01  0.6638E+01
     -8.370  0.1193E+01  0.6745E+01
     -8.285  0.1057E+01  0.6841E+01
     -8.200  0.9215E+00  0.6926E+01
     -8.115  0.8328E+00  0.6999E+01
     -8.029  0.8376E+00  0.7070E+01
     -7.944  0.8424E+00  0.7142E+01
     -7.859  0.8471E+00  0.7214E+01
     -7.774  0.1874E+01  0.7302E+01
     -7.688  0.4831E+01  0.7587E+01
     -7.603  0.5177E+01  0.8121E+01
     -7.518  0.5155E+01  0.8542E+01
     -7.433  0.3263E+01  0.8900E+01
     -7.348  0.1453E+01  0.9099E+01
     -7.262  0.1187E+01  0.9207E+01
     -7.177  0.1091E+01  0.9304E+01
     -7.092  0.9948E+00  0.9393E+01
     -7.007  0.8986E+00  0.9474E+01
     -6.922  0.1168E+02  0.1005E+02
     -6.836  0.3834E+01  0.1064E+02
     -6.751  0.2398E+01  0.1090E+02
     -6.666  0.2394E+01  0.1119E+02
     -6.581  0.1839E+01  0.1135E+02
     -6.496  0.1727E+01  0.1150E+02
     -6.410  0.1615E+01  0.1165E+02
     -6.325  0.3479E+01  0.1181E+02
     -6.240  0.2151E+01  0.1206E+02
     -6.155  0.1689E+01  0.1224E+02
     -6.069  0.8722E+00  0.1234E+02
     -5.984  0.8658E+00  0.1241E+02
     -5.899  0.8593E+00  0.1248E+02
     -5.814  0.8529E+00  0.1256E+02
     -5.729  0.3702E+01  0.1273E+02
     -5.643  0.9333E+01  0.1324E+02
     -5.558  0.7022E+01  0.1396E+02
     -5.473  0.1873E+01  0.1435E+02
     -5.388  0.1500E+01  0.1448E+02
     -5.303  0.1451E+01  0.1461E+02
     -5.217  0.1475E+01  0.1473E+02
     -5.132  0.1659E+01  0.1487E+02
     -5.047  0.4217E+01  0.1503E+02
     -4.962  0.3286E+01  0.1543E+02
     -4.877  0.2296E+01  0.1564E+02
     -4.791  0.2720E+01  0.1584E+02
     -4.706  0.6793E+00  0.1599E+02
     -4.621  0.1366E+01  0.1603E+02
     -4.536  0.4232E+01  0.1627E+02
     -4.450  0.3713E+01  0.1661E+02
     -4.365  0.3395E+01  0.1691E+02
     -4.280  0.3029E+01  0.1719E+02
     -4.195  0.2114E+01  0.1741E+02
     -4.110  0.1801E+01  0.1758E+02
     -4.024  0.1487E+01  0.1772E+02
     -3.939  0.1173E+01  0.1783E+02
     -3.854  0.8549E+00  0.1796E+02
     -3.769  0.2063E-01  0.1800E+02
     -3.684  0.0000E+00  0.1800E+02
     -3.598  0.0000E+00  0.1800E+02
     -3.513  0.0000E+00  0.1800E+02
     -3.428  0.0000E+00  0.1800E+02
     -3.343  0.0000E+00  0.1800E+02
     -3.257  0.0000E+00  0.1800E+02
     -3.172  0.0000E+00  0.1800E+02
     -3.087  0.0000E+00  0.1800E+02
     -3.002  0.0000E+00  0.1800E+02
     -2.917  0.0000E+00  0.1800E+02
     -2.831  0.0000E+00  0.1800E+02
     -2.746  0.0000E+00  0.1800E+02
     -2.661  0.0000E+00  0.1800E+02
     -2.576  0.0000E+00  0.1800E+02
     -2.491  0.0000E+00  0.1800E+02
     -2.405  0.0000E+00  0.1800E+02
     -2.320  0.0000E+00  0.1800E+02
     -2.235  0.0000E+00  0.1800E+02
     -2.150  0.0000E+00  0.1800E+02
     -2.065  0.0000E+00  0.1800E+02
     -1.979  0.0000E+00  0.1800E+02
     -1.894  0.6948E+00  0.1806E+02
     -1.809  0.9173E+00  0.1813E+02
     -1.724  0.5841E+01  0.1836E+02
     -1.638  0.8243E+01  0.1897E+02
     -1.553  0.9483E+00  0.1971E+02
     -1.468  0.8016E+00  0.1978E+02
     -1.383  0.3604E+01  0.1990E+02
     -1.298  0.6253E+01  0.2051E+02
     -1.212  0.5621E+01  0.2093E+02
     -1.127  0.4781E+01  0.2133E+02
     -1.042  0.4063E+01  0.2183E+02
     -0.957  0.3292E+01  0.2214E+02
     -0.872  0.2456E+01  0.2239E+02
     -0.786  0.2719E+01  0.2259E+02
     -0.701  0.2628E+01  0.2281E+02
     -0.616  0.1871E+01  0.2307E+02
     -0.531  0.2369E+01  0.2325E+02
     -0.446  0.2036E+01  0.2350E+02
     -0.360  0.1976E+01  0.2367E+02
     -0.275  0.1915E+01  0.2384E+02
     -0.190  0.1751E+01  0.2400E+02
     -0.105  0.1916E+01  0.2417E+02
     -0.019  0.1624E+01  0.2432E+02
      0.066  0.1251E+01  0.2444E+02
      0.151  0.9584E+00  0.2453E+02
      0.236  0.1058E+01  0.2462E+02
      0.321  0.1158E+01  0.2471E+02
      0.407  0.2998E+01  0.2485E+02
      0.492  0.1369E+02  0.2528E+02
      0.577  0.1808E+01  0.2551E+02
      0.662  0.1480E+01  0.2565E+02
      0.747  0.1152E+01  0.2576E+02
      0.833  0.1104E+01  0.2585E+02
      0.918  0.1268E+01  0.2595E+02
      1.003  0.0000E+00  0.2600E+02
      1.088  0.0000E+00  0.2600E+02
      1.173  0.0000E+00  0.2600E+02
      1.259  0.0000E+00  0.2600E+02
      1.344  0.0000E+00  0.2600E+02
      1.429  0.0000E+00  0.2600E+02
      1.514  0.0000E+00  0.2600E+02
      1.600  0.0000E+00  0.2600E+02
      1.685  0.2854E-01  0.2600E+02
      1.770  0.1451E+00  0.2601E+02
      1.855  0.2616E+00  0.2603E+02
      1.940  0.3782E+00  0.2605E+02
      2.026  0.4948E+00  0.2609E+02
      2.111  0.3348E+00  0.2612E+02
      2.196  0.3555E+00  0.2615E+02
      2.281  0.3762E+00  0.2618E+02
      2.366  0.3968E+00  0.2621E+02
      2.452  0.4684E+00  0.2625E+02
      2.537  0.6098E+00  0.2629E+02
      2.622  0.7511E+00  0.2635E+02
      2.707  0.8627E+00  0.2642E+02
      2.793  0.9724E+00  0.2650E+02
      2.878  0.1104E+01  0.2659E+02
      2.963  0.1661E+01  0.2670E+02
      3.048  0.1698E+01  0.2684E+02
      3.133  0.1734E+01  0.2699E+02
      3.219  0.2089E+01  0.2718E+02
      3.304  0.2127E+01  0.2736E+02
      3.389  0.2085E+01  0.2754E+02
      3.474  0.1588E+01  0.2769E+02
      3.559  0.1091E+01  0.2781E+02
      3.645  0.1260E+01  0.2792E+02
      3.730  0.4361E+00  0.2799E+02
      3.815  0.0000E+00  0.2800E+02
      3.900  0.0000E+00  0.2800E+02
      3.985  0.0000E+00  0.2800E+02
      4.071  0.0000E+00  0.2800E+02
      4.156  0.0000E+00  0.2800E+02
      4.241  0.0000E+00  0.2800E+02
      4.326  0.0000E+00  0.2800E+02
      4.412  0.0000E+00  0.2800E+02
      4.497  0.0000E+00  0.2800E+02
      4.582  0.0000E+00  0.2800E+02
      4.667  0.0000E+00  0.2800E+02
      4.752  0.0000E+00  0.2800E+02
      4.838  0.0000E+00  0.2800E+02
      4.923  0.0000E+00  0.2800E+02
      5.008  0.0000E+00  0.2800E+02
      5.093  0.0000E+00  0.2800E+02
      5.178  0.0000E+00  0.2800E+02
      5.264  0.0000E+00  0.2800E+02
      5.349  0.0000E+00  0.2800E+02
      5.434  0.0000E+00  0.2800E+02
      5.519  0.0000E+00  0.2800E+02
      5.604  0.0000E+00  0.2800E+02
      5.690  0.0000E+00  0.2800E+02
      5.775  0.0000E+00  0.2800E+02
