    3    3    1    1
  0.9072772E+02  0.3190316E-09  0.3190316E-09  0.3087900E-08  0.5000000E-15
  1.000000000000000E-004
  CAR 
 unknown system                          
     18     10     14
 
  0.0000000E+00  0.0000000E+00  0.0000000E+00  0.1562500E-01
    1      -17.788488   1.000000
    2      -16.580449   1.000000
    3       -9.308913   1.000000
    4       -6.348078   1.000000
    5       -6.348072   1.000000
    6       -5.486806   1.000000
    7       -5.242503   1.000000
    8       -5.242471   1.000000
    9       -3.766657   1.000000
   10       -0.994997   0.000000
   11       -0.994966   0.000000
   12       -0.771243   0.000000
   13       -0.771230   0.000000
   14        1.663893   0.000000
 
  0.1250000E+00 -0.2081668E-16  0.0000000E+00  0.9375000E-01
    1      -17.574338   1.000000
    2      -16.478059   1.000000
    3       -9.064377   1.000000
    4       -6.811476   1.000000
    5       -6.294819   1.000000
    6       -6.113662   1.000000
    7       -5.578220   1.000000
    8       -4.809277   1.000000
    9       -3.905048   1.000000
   10       -1.275104   0.000000
   11       -1.209297   0.000000
   12       -1.007855   0.000000
   13       -0.640195   0.000000
   14        2.034135   0.000000
 
  0.2500000E+00 -0.4163336E-16  0.0000000E+00  0.9375000E-01
    1      -17.005562   1.000000
    2      -16.209221   1.000000
    3       -8.698211   1.000000
    4       -7.538083   1.000000
    5       -7.275635   1.000000
    6       -6.213227   1.000000
    7       -5.526577   1.000000
    8       -5.060859   1.000000
    9       -4.472927   1.000000
   10       -1.599305   0.000000
   11       -1.422648   0.000000
   12       -0.880612   0.000000
   13       -0.023240   0.000000
   14        2.849231   0.000000
 
  0.3750000E+00 -0.8326673E-16  0.0000000E+00  0.9375000E-01
    1      -16.330422   1.000000
    2      -15.900741   1.000000
    3       -9.135464   1.000000
    4       -8.143028   1.000000
    5       -7.670934   1.000000
    6       -6.710540   1.000000
    7       -5.470172   1.000000
    8       -4.936029   1.000000
    9       -4.668053   1.000000
   10       -1.604206   0.000000
   11       -1.325381   0.000000
   12       -0.162083   0.000000
   13        0.370083   0.000000
   14        3.376377   0.000000
 
  0.5000000E+00 -0.8326673E-16  0.0000000E+00  0.4687500E-01
    1      -16.002138   1.000000
    2      -15.757377   1.000000
    3       -9.468148   1.000000
    4       -8.507948   1.000000
    5       -7.797190   1.000000
    6       -6.891091   1.000000
    7       -5.609018   1.000000
    8       -4.708921   1.000000
    9       -4.387228   1.000000
   10       -1.581972   0.000000
   11       -1.066031   0.000000
   12        0.136544   0.000000
   13        0.485524   0.000000
   14        2.415734   0.000000
 
  0.1250000E+00  0.1250000E+00  0.0000000E+00  0.9375000E-01
    1      -17.181497   1.000000
    2      -16.290994   1.000000
    3       -8.717065   1.000000
    4       -7.375482   1.000000
    5       -6.856948   1.000000
    6       -6.392052   1.000000
    7       -5.774187   1.000000
    8       -4.674780   1.000000
    9       -4.276880   1.000000
   10       -1.674384   0.000000
   11       -1.296180   0.000000
   12       -1.284423   0.000000
   13       -0.045386   0.000000
   14        2.627090   0.000000
 
  0.2500000E+00  0.1250000E+00  0.0000000E+00  0.1875000E+00
    1      -16.547887   1.000000
    2      -15.992414   1.000000
    3       -8.779766   1.000000
    4       -7.802155   1.000000
    5       -7.539142   1.000000
    6       -6.896359   1.000000
    7       -5.674753   1.000000
    8       -5.037010   1.000000
    9       -4.560425   1.000000
   10       -1.757775   0.000000
   11       -1.309353   0.000000
   12       -0.814456   0.000000
   13        0.462405   0.000000
   14        3.595920   0.000000
 
  0.3750000E+00  0.1250000E+00  0.0000000E+00  0.1875000E+00
    1      -16.017377   1.000000
    2      -15.748447   1.000000
    3       -9.180787   1.000000
    4       -8.565179   1.000000
    5       -7.669472   1.000000
    6       -6.913166   1.000000
    7       -5.659558   1.000000
    8       -5.518844   1.000000
    9       -4.233518   1.000000
   10       -1.563088   0.000000
   11       -1.052815   0.000000
   12       -0.192723   0.000000
   13        0.496082   0.000000
   14        2.942602   0.000000
 
  0.2500000E+00  0.2500000E+00  0.0000000E+00  0.9375000E-01
    1      -16.032348   1.000000
    2      -15.739460   1.000000
    3       -8.820384   1.000000
    4       -8.615930   1.000000
    5       -7.342359   1.000000
    6       -6.961521   1.000000
    7       -6.642382   1.000000
    8       -5.385403   1.000000
    9       -4.262381   1.000000
   10       -1.614060   0.000000
   11       -1.003105   0.000000
   12       -0.691291   0.000000
   13        0.784089   0.000000
   14        3.774900   0.000000
 
  0.3750000E+00  0.2500000E+00  0.0000000E+00  0.9375000E-01
    1      -15.797443   1.000000
    2      -15.620288   1.000000
    3       -9.000345   1.000000
    4       -8.651413   1.000000
    5       -7.626637   1.000000
    6       -6.964045   1.000000
    7       -6.733894   1.000000
    8       -5.771674   1.000000
    9       -3.894962   1.000000
   10       -1.939750   0.000000
   11       -0.632906   0.000000
   12       -0.452469   0.000000
   13        0.929371   0.000000
   14        3.185621   0.000000
