Automatically generated mesh
      10
Reciprocal lattice
    0.00000000000000    0.00000000000000    0.00000000000000             1
    0.12500000000000   -0.00000000000000    0.00000000000000             6
    0.25000000000000   -0.00000000000000    0.00000000000000             6
    0.37500000000000   -0.00000000000000    0.00000000000000             6
    0.50000000000000   -0.00000000000000    0.00000000000000             3
    0.12500000000000    0.12500000000000    0.00000000000000             6
    0.25000000000000    0.12500000000000    0.00000000000000            12
    0.37500000000000    0.12500000000000    0.00000000000000            12
    0.25000000000000    0.25000000000000    0.00000000000000             6
    0.37500000000000    0.25000000000000    0.00000000000000             6
Tetrahedra
        36    0.00260416666667
        12         2         2         2         6
        12         1         2         2         2
         6         1         1         2         2
         6         2         2         6         6
        12         3         6         6         7
        12         2         3         6         6
        12         2         2         3         6
        12         3         6         7         7
        12         3         3         6         7
        12         2         3         3         6
        12         4         7         7         8
        12         3         4         7         7
        12         3         3         4         7
        12         4         7         8         8
        12         4         4         7         8
        12         3         4         4         7
        12         5         8         8         8
        12         4         5         8         8
        12         4         4         5         8
         6         5         5         8         8
        12         4         5         5         8
        12         7         7         7         9
        12         6         7         7         7
         6         6         6         7         7
         6         7         7         9         9
        12         8         9         9        10
        12         7         8         9         9
        12         7         7         8         9
        12         8         9        10        10
        12         8         8         9        10
        12         7         8         8         9
         6         8         8        10        10
        12         8         8         8        10
         6        10        10        10        10
        12         9        10        10        10
         6         9         9        10        10
