 vasp.5.4.4.18Apr17-6-g9f103f2a35 (build Jun 30 2017 11:15:00) complex          
  
 executed on    STALLO_VASP_5.4.4 date 2019.11.08  12:21:31
 running on    4 total cores
 distrk:  each k-point on    4 cores,    1 groups
 distr:  one band on NCORES_PER_BAND=   2 cores,    2 groups


--------------------------------------------------------------------------------------------------------


 INCAR:
 POTCAR:   PAW_PBE Mo 08Apr2002                   
 POTCAR:    PAW_PBE S 17Jan2003                   
 POTCAR:   PAW_PBE Mo 08Apr2002                   
   VRHFIN =Mo: 4p5s4d                                                           
   LEXCH  = PE                                                                  
   EATOM  =   217.5180 eV,   15.9871 Ry                                         
                                                                                
   TITEL  = PAW_PBE Mo 08Apr2002                                                
   LULTRA =        F    use ultrasoft PP ?                                      
   IUNSCR =        1    unscreen: 0-lin 1-nonlin 2-no                           
   RPACOR =    2.200    partial core radius                                     
   POMASS =   95.940; ZVAL   =    6.000    mass and valenz                      
   RCORE  =    2.750    outmost cutoff radius                                   
   RWIGS  =    2.750; RWIGS  =    1.455    wigner-seitz radius (au A)           
   ENMAX  =  224.584; ENMIN  =  168.438 eV                                      
   RCLOC  =    2.111    cutoff for local pot                                    
   LCOR   =        T    correct aug charges                                     
   LPAW   =        T    paw PP                                                  
   EAUG   =  345.278                                                            
   DEXC   =    -.088                                                            
   RMAX   =    3.077    core radius for proj-oper                               
   RAUG   =    1.300    factor for augmentation sphere                          
   RDEP   =    2.815    radius for radial grids                                 
   QCUT   =   -4.063; QGAM   =    8.126    optimization parameters              
                                                                                
   Description                                                                  
     l     E      TYP  RCUT    TYP  RCUT                                        
     2   .000     23  2.500                                                     
     2   .000     23  2.500                                                     
     0   .000     23  2.600                                                     
     0  1.000     23  2.600                                                     
     1   .400     23  2.750                                                     
     1  2.000     23  2.750                                                     
     3   .000      7   .000                                                     
  local pseudopotential read in
  partial core-charges read in
  atomic valenz-charges read in
  non local Contribution for L=           2  read in
    real space projection operators read in
  non local Contribution for L=           2  read in
    real space projection operators read in
  non local Contribution for L=           0  read in
    real space projection operators read in
  non local Contribution for L=           0  read in
    real space projection operators read in
  non local Contribution for L=           1  read in
    real space projection operators read in
  non local Contribution for L=           1  read in
    real space projection operators read in
    PAW grid and wavefunctions read in
 
   number of l-projection  operators is LMAX  =           6
   number of lm-projection operators is LMMAX =          18
 
 POTCAR:    PAW_PBE S 17Jan2003                   
   VRHFIN =S : s2p4                                                             
   LEXCH  = PE                                                                  
   EATOM  =   276.8230 eV,   20.3459 Ry                                         
                                                                                
   TITEL  = PAW_PBE S 17Jan2003                                                 
   LULTRA =        F    use ultrasoft PP ?                                      
   IUNSCR =        1    unscreen: 0-lin 1-nonlin 2-no                           
   RPACOR =    1.500    partial core radius                                     
   POMASS =   32.066; ZVAL   =    6.000    mass and valenz                      
   RCORE  =    1.900    outmost cutoff radius                                   
   RWIGS  =    2.200; RWIGS  =    1.164    wigner-seitz radius (au A)           
   ENMAX  =  280.000; ENMIN  =  194.016 eV                                      
   ICORE  =        2    local potential                                         
   LCOR   =        T    correct aug charges                                     
   LPAW   =        T    paw PP                                                  
   EAUG   =  335.092                                                            
   DEXC   =     .000                                                            
   RMAX   =    2.867    core radius for proj-oper                               
   RAUG   =    1.300    factor for augmentation sphere                          
   RDEP   =    1.954    radius for radial grids                                 
   QCUT   =   -4.360; QGAM   =    8.721    optimization parameters              
                                                                                
   Description                                                                  
     l     E      TYP  RCUT    TYP  RCUT                                        
     0   .000     23  1.900                                                     
     0   .000     23  1.900                                                     
     1   .000     23  1.900                                                     
     1   .000     23  1.900                                                     
     2   .000     23  1.900                                                     
  local pseudopotential read in
  partial core-charges read in
  atomic valenz-charges read in
  non local Contribution for L=           0  read in
    real space projection operators read in
  non local Contribution for L=           0  read in
    real space projection operators read in
  non local Contribution for L=           1  read in
    real space projection operators read in
  non local Contribution for L=           1  read in
    real space projection operators read in
    PAW grid and wavefunctions read in
 
   number of l-projection  operators is LMAX  =           4
   number of lm-projection operators is LMMAX =           8
 
 PAW_PBE Mo 08Apr2002                   :
 energy of atom  1       EATOM= -217.5180
 kinetic energy error for atom=    0.0023 (will be added to EATOM!!)
  PAW_PBE S 17Jan2003                   :
 energy of atom  2       EATOM= -276.8230
 kinetic energy error for atom=    0.0033 (will be added to EATOM!!)
 
 
 POSCAR: MoS2_mp-2815_computed                   
  positions in cartesian coordinates
  velocities in cartesian coordinates
  No initial velocities read in
 exchange correlation table for  LEXCH =        8
   RHO(1)=    0.500       N(1)  =     2000
   RHO(2)=  100.500       N(2)  =     4000
 


--------------------------------------------------------------------------------------------------------


 ion  position               nearest neighbor table
   1  0.333  0.667  0.120-   3 2.42   2 2.42   2 2.42   3 2.42   3 2.42   2 2.42
   2  0.667  0.333  0.070-   1 2.42   1 2.42   1 2.42
   3  0.667  0.333  0.171-   1 2.42   1 2.42   1 2.42
 
  LATTYP: Found a hexagonal cell.
 ALAT       =     3.1903157300
 C/A-ratio  =     9.6789806757
  
  Lattice vectors:
  
 A1 = (   3.1903157300,   0.0000000000,   0.0000000000)
 A2 = (  -1.5951578650,   2.7628944683,   0.0000000000)
 A3 = (   0.0000000000,   0.0000000000,  30.8790043000)


Analysis of symmetry for initial positions (statically):
=====================================================================
 Subroutine PRICEL returns:
 Original cell was already a primitive cell.
 

 Routine SETGRP: Setting up the symmetry group for a 
 hexagonal supercell.


 Subroutine GETGRP returns: Found 12 space group operations
 (whereof  6 operations were pure point group operations)
 out of a pool of 24 trial point group operations.


The static configuration has the point symmetry C_3v.
 The point group associated with its full space group is D_3h.


Analysis of symmetry for dynamics (positions and initial velocities):
=====================================================================
 Subroutine PRICEL returns:
 Original cell was already a primitive cell.
 

 Routine SETGRP: Setting up the symmetry group for a 
 hexagonal supercell.


 Subroutine GETGRP returns: Found 12 space group operations
 (whereof  6 operations were pure point group operations)
 out of a pool of 24 trial point group operations.


The dynamic configuration has the point symmetry C_3v.
 The point group associated with its full space group is D_3h.


 Subroutine INISYM returns: Found 12 space group operations
 (whereof  6 operations are pure point group operations),
 and found     1 'primitive' translations

 
 
 KPOINTS: k-density: 4.0                          

Automatic generation of k-mesh.
Space group operators:
 irot       det(A)        alpha          n_x          n_y          n_z        tau_x        tau_y        tau_z
    1     1.000000     0.000000     1.000000     0.000000     0.000000     0.000000     0.000000     0.000000
    2     1.000000   120.000000     0.000000     0.000000    -1.000000     0.000000     0.000000     0.000000
    3     1.000000   120.000000     0.000000     0.000000     1.000000     0.000000     0.000000     0.000000
    4    -1.000000   180.000000     1.000000    -0.000000     0.000000     0.000000     0.000000     0.000000
    5    -1.000000   180.000000     0.500000    -0.866025     0.000000     0.000000     0.000000     0.000000
    6    -1.000000   180.000000    -0.500000    -0.866025     0.000000     0.000000     0.000000     0.000000
    7    -1.000000    60.000000     0.000000     0.000000    -1.000000     0.000000     0.000000     0.240924
    8    -1.000000   179.999999     0.000000     0.000000     1.000000     0.000000     0.000000     0.240924
    9    -1.000000    60.000000     0.000000     0.000000     1.000000     0.000000     0.000001     0.240924
   10     1.000000   180.000000     0.866025    -0.500000     0.000000     0.000000     0.000000     0.240924
   11     1.000000   180.000000     0.000000     1.000000     0.000000     0.000000     0.000000     0.240924
   12     1.000000   180.000000     0.866025     0.500000     0.000000    -0.000000     0.000001     0.240924
 
 Subroutine IBZKPT returns following result:
 ===========================================
 
 Found     10 irreducible k-points:
 
 Following reciprocal coordinates:
            Coordinates               Weight
  0.000000  0.000000  0.000000      1.000000
  0.125000 -0.000000  0.000000      6.000000
  0.250000 -0.000000  0.000000      6.000000
  0.375000 -0.000000  0.000000      6.000000
  0.500000 -0.000000  0.000000      3.000000
  0.125000  0.125000  0.000000      6.000000
  0.250000  0.125000  0.000000     12.000000
  0.375000  0.125000  0.000000     12.000000
  0.250000  0.250000  0.000000      6.000000
  0.375000  0.250000  0.000000      6.000000
 
 Following cartesian coordinates:
            Coordinates               Weight
  0.000000  0.000000  0.000000      1.000000
  0.039181  0.022621  0.000000      6.000000
  0.078362  0.045242  0.000000      6.000000
  0.117543  0.067864  0.000000      6.000000
  0.156724  0.090485  0.000000      3.000000
  0.039181  0.067864  0.000000      6.000000
  0.078362  0.090485  0.000000     12.000000
  0.117543  0.113106  0.000000     12.000000
  0.078362  0.135727  0.000000      6.000000
  0.117543  0.158348  0.000000      6.000000
 
 TETIRR: Found     36 inequivalent tetrahedra from      384


--------------------------------------------------------------------------------------------------------




 Dimension of arrays:
   k-points           NKPTS =     10   k-points in BZ     NKDIM =     10   number of bands    NBANDS=     14
   number of dos      NEDOS =    301   number of ions     NIONS =      3
   non local maximal  LDIM  =      6   non local SUM 2l+1 LMDIM =     18
   total plane-waves  NPLWV =  51840
   max r-space proj   IRMAX =      1   max aug-charges    IRDMAX=  12426
   dimension x,y,z NGX =    18 NGY =   18 NGZ =  160
   dimension x,y,z NGXF=    36 NGYF=   36 NGZF=  320
   support grid    NGXF=    36 NGYF=   36 NGZF=  320
   ions per type =               1   2
   NGX,Y,Z   is equivalent  to a cutoff of   9.38,  9.38,  8.61 a.u.
   NGXF,Y,Z  is equivalent  to a cutoff of  18.76, 18.76, 17.23 a.u.

 SYSTEM =  unknown system                          
 POSCAR =  MoS2_mp-2815_computed                   

 Startparameter for this run:
   NWRITE =      2    write-flag & timer
   PREC   = normal    normal or accurate (medium, high low for compatibility)
   ISTART =      0    job   : 0-new  1-cont  2-samecut
   ICHARG =      2    charge: 1-file 2-atom 10-const
   ISPIN  =      1    spin polarized calculation?
   LNONCOLLINEAR =      F non collinear calculations
   LSORBIT =      F    spin-orbit coupling
   INIWAV =      1    electr: 0-lowe 1-rand  2-diag
   LASPH  =      F    aspherical Exc in radial PAW
   METAGGA=      F    non-selfconsistent MetaGGA calc.

 Electronic Relaxation 1
   ENCUT  =  450.0 eV  33.07 Ry    5.75 a.u.   5.52  5.52 53.41*2*pi/ulx,y,z
   ENINI  =  450.0     initial cutoff
   ENAUG  =  345.3 eV  augmentation charge cutoff
   NELM   =     60;   NELMIN=  4; NELMDL=  0     # of ELM steps 
   EDIFF  = 0.1E-04   stopping-criterion for ELM
   LREAL  =      F    real-space projection
   NLSPLINE    = F    spline interpolate recip. space projectors
   LCOMPAT=      F    compatible to vasp.4.4
   GGA_COMPAT  = T    GGA compatible to vasp.4.4-vasp.4.6
   LMAXPAW     = -100 max onsite density
   LMAXMIX     =    2 max onsite mixed and CHGCAR
   VOSKOWN=      0    Vosko Wilk Nusair interpolation
   ROPT   =    0.00000   0.00000
 Ionic relaxation
   EDIFFG = 0.1E-03   stopping-criterion for IOM
   NSW    =      0    number of steps for IOM
   NBLOCK =      1;   KBLOCK =      1    inner block; outer block 
   IBRION =     -1    ionic relax: 0-MD 1-quasi-New 2-CG
   NFREE  =      0    steps in history (QN), initial steepest desc. (CG)
   ISIF   =      2    stress and relaxation
   IWAVPR =     10    prediction:  0-non 1-charg 2-wave 3-comb
   ISYM   =      2    0-nonsym 1-usesym 2-fastsym
   LCORR  =      T    Harris-Foulkes like correction to forces

   POTIM  = 0.5000    time-step for ionic-motion
   TEIN   =    0.0    initial temperature
   TEBEG  =    0.0;   TEEND  =   0.0 temperature during run
   SMASS  =  -3.00    Nose mass-parameter (am)
   estimated Nose-frequenzy (Omega)   =  0.10E-29 period in steps =****** mass=  -0.233E-27a.u.
   SCALEE = 1.0000    scale energy and forces
   NPACO  =    256;   APACO  = 16.0  distance and # of slots for P.C.
   PSTRESS=    0.0 pullay stress

  Mass of Ions in am
   POMASS =  95.94 32.07
  Ionic Valenz
   ZVAL   =   6.00  6.00
  Atomic Wigner-Seitz radii
   RWIGS  =  -1.00 -1.00
  virtual crystal weights 
   VCA    =   1.00  1.00
   NELECT =      18.0000    total number of electrons
   NUPDOWN=      -1.0000    fix difference up-down

 DOS related values:
   EMIN   =  10.00;   EMAX   =-10.00  energy-range for DOS
   EFERMI =   0.00
   ISMEAR =    -5;   SIGMA  =   0.20  broadening in eV -4-tet -1-fermi 0-gaus

 Electronic relaxation 2 (details)
   IALGO  =     68    algorithm
   LDIAG  =      T    sub-space diagonalisation (order eigenvalues)
   LSUBROT=      F    optimize rotation matrix (better conditioning)
   TURBO    =      0    0=normal 1=particle mesh
   IRESTART =      0    0=no restart 2=restart with 2 vectors
   NREBOOT  =      0    no. of reboots
   NMIN     =      0    reboot dimension
   EREF     =   0.00    reference energy to select bands
   IMIX   =      4    mixing-type and parameters
     AMIX     =   0.40;   BMIX     =  1.00
     AMIX_MAG =   1.60;   BMIX_MAG =  1.00
     AMIN     =   0.10
     WC   =   100.;   INIMIX=   1;  MIXPRE=   1;  MAXMIX= -45

 Intra band minimization:
   WEIMIN = 0.0000     energy-eigenvalue tresh-hold
   EBREAK =  0.18E-06  absolut break condition
   DEPER  =   0.30     relativ break condition  

   TIME   =   0.40     timestep for ELM

  volume/ion in A,a.u.               =      90.73       612.26
  Fermi-wavevector in a.u.,A,eV,Ry     =   0.662031  1.251058  5.963237  0.438286
  Thomas-Fermi vector in A             =   1.734975
 
 Write flags
   LWAVE        =      F    write WAVECAR
   LDOWNSAMPLE  =      F    k-point downsampling of WAVECAR
   LCHARG       =      T    write CHGCAR
   LVTOT        =      F    write LOCPOT, total local potential
   LVHAR        =      F    write LOCPOT, Hartree potential only
   LELF         =      F    write electronic localiz. function (ELF)
   LORBIT       =      0    0 simple, 1 ext, 2 COOP (PROOUT), +10 PAW based schemes


 Dipole corrections
   LMONO  =      F    monopole corrections only (constant potential shift)
   LDIPOL =      F    correct potential (dipole corrections)
   IDIPOL =      0    1-x, 2-y, 3-z, 4-all directions 
   EPSILON=  1.0000000 bulk dielectric constant

 Exchange correlation treatment:
   GGA     =    --    GGA type
   LEXCH   =     8    internal setting for exchange type
   VOSKOWN=      0    Vosko Wilk Nusair interpolation
   LHFCALC =     F    Hartree Fock is set to
   LHFONE  =     F    Hartree Fock one center treatment
   AEXX    =    0.0000 exact exchange contribution

 Linear response parameters
   LEPSILON=     F    determine dielectric tensor
   LRPA    =     F    only Hartree local field effects (RPA)
   LNABLA  =     F    use nabla operator in PAW spheres
   LVEL    =     F    velocity operator in full k-point grid
   LINTERFAST=   F  fast interpolation
   KINTER  =     0    interpolate to denser k-point grid
   CSHIFT  =0.1000    complex shift for real part using Kramers Kronig
   OMEGAMAX=  -1.0    maximum frequency
   DEG_THRESHOLD= 0.2000000E-02 threshold for treating states as degnerate
   RTIME   =   -0.100 relaxation time in fs
  (WPLASMAI=    0.000 imaginary part of plasma frequency in eV, 0.658/RTIME)
   DFIELD  = 0.0000000 0.0000000 0.0000000 field for delta impulse in time
 
 Orbital magnetization related:
   ORBITALMAG=     F  switch on orbital magnetization
   LCHIMAG   =     F  perturbation theory with respect to B field
   DQ        =  0.001000  dq finite difference perturbation B field
   LLRAUG    =     F  two centre corrections for induced B field



--------------------------------------------------------------------------------------------------------


 Static calculation
 charge density and potential will be updated during run
 non-spin polarized calculation
 RMM-DIIS sequential band-by-band and
  variant of blocked Davidson during initial phase
 perform sub-space diagonalisation
    before iterative eigenvector-optimisation
 modified Broyden-mixing scheme, WC =      100.0
 initial mixing is a Kerker type mixing with AMIX =  0.4000 and BMIX =      1.0000
 Hartree-type preconditioning will be used
 using additional bands            5
 reciprocal scheme for non local part
 use partial core corrections
 calculate Harris-corrections to forces 
   (improved forces if not selfconsistent)
 use gradient corrections 
 use of overlap-Matrix (Vanderbilt PP)
 Fermi weights with tetrahedron method with Bloechl corrections


--------------------------------------------------------------------------------------------------------


  energy-cutoff  :      450.00
  volume of cell :      272.18
      direct lattice vectors                 reciprocal lattice vectors
     3.190315730  0.000000000  0.000000000     0.313448600  0.180969634  0.000000000
    -1.595157865  2.762894468  0.000000000     0.000000000  0.361939267  0.000000000
     0.000000000  0.000000000 30.879004300     0.000000000  0.000000000  0.032384464

  length of vectors
     3.190315730  3.190315730 30.879004300     0.361939267  0.361939267  0.032384464


 
 k-points in units of 2pi/SCALE and weight: k-density: 4.0                          
   0.00000000  0.00000000  0.00000000       0.016
   0.03918108  0.02262120  0.00000000       0.094
   0.07836215  0.04524241  0.00000000       0.094
   0.11754323  0.06786361  0.00000000       0.094
   0.15672430  0.09048482  0.00000000       0.047
   0.03918108  0.06786361  0.00000000       0.094
   0.07836215  0.09048482  0.00000000       0.188
   0.11754323  0.11310602  0.00000000       0.188
   0.07836215  0.13572723  0.00000000       0.094
   0.11754323  0.15834843  0.00000000       0.094
 
 k-points in reciprocal lattice and weights: k-density: 4.0                          
   0.00000000  0.00000000  0.00000000       0.016
   0.12500000 -0.00000000  0.00000000       0.094
   0.25000000 -0.00000000  0.00000000       0.094
   0.37500000 -0.00000000  0.00000000       0.094
   0.50000000 -0.00000000  0.00000000       0.047
   0.12500000  0.12500000  0.00000000       0.094
   0.25000000  0.12500000  0.00000000       0.188
   0.37500000  0.12500000  0.00000000       0.188
   0.25000000  0.25000000  0.00000000       0.094
   0.37500000  0.25000000  0.00000000       0.094
 
 position of ions in fractional coordinates (direct lattice) 
   0.33333300  0.66666700  0.12046214
   0.66666700  0.33333300  0.06978420
   0.66666600  0.33333300  0.17114009
 
 position of ions in cartesian coordinates  (Angst):
  -0.00000160  1.84193057  3.71975108
   1.59515946  0.92096390  2.15486668
   1.59515627  0.92096390  5.28463547
 


--------------------------------------------------------------------------------------------------------


 k-point  1 :   0.0000 0.0000 0.0000  plane waves:    6011
 k-point  2 :   0.1250-0.0000 0.0000  plane waves:    5991
 k-point  3 :   0.2500-0.0000 0.0000  plane waves:    5920
 k-point  4 :   0.3750-0.0000 0.0000  plane waves:    5888
 k-point  5 :   0.5000-0.0000 0.0000  plane waves:    5816
 k-point  6 :   0.1250 0.1250 0.0000  plane waves:    5923
 k-point  7 :   0.2500 0.1250 0.0000  plane waves:    5911
 k-point  8 :   0.3750 0.1250 0.0000  plane waves:    5862
 k-point  9 :   0.2500 0.2500 0.0000  plane waves:    5894
 k-point 10 :   0.3750 0.2500 0.0000  plane waves:    5880

 maximum and minimum number of plane-waves per node :      3007     2873

 maximum number of plane-waves:      6011
 maximum index in each direction: 
   IXMAX=    5   IYMAX=    5   IZMAX=   53
   IXMIN=   -6   IYMIN=   -5   IZMIN=  -53


 parallel 3D FFT for wavefunctions:
    minimum data exchange during FFTs selected (reduces bandwidth)
 parallel 3D FFT for charge:
    minimum data exchange during FFTs selected (reduces bandwidth)


 total amount of memory used by VASP MPI-rank0    53411. kBytes
=======================================================================

   base      :      30000. kBytes
   nonl-proj :       8807. kBytes
   fftplans  :       4304. kBytes
   grid      :       6871. kBytes
   one-center:         31. kBytes
   wavefun   :       3398. kBytes
 
     INWAV:  cpu time    0.0010: real time    0.0003
 Broyden mixing: mesh for mixing (old mesh)
   NGX = 11   NGY = 11   NGZ =107
  (NGX  = 36   NGY  = 36   NGZ  =320)
  gives a total of  12947 points

 initial charge density was supplied:
 charge density of overlapping atoms calculated
 number of electron      18.0000000 magnetization 
 keeping initial charge density in first step


--------------------------------------------------------------------------------------------------------


 Maximum index for augmentation-charges         2904 (set IRDMAX)


--------------------------------------------------------------------------------------------------------


 First call to EWALD:  gamma=   0.273
 Maximum number of real-space cells 6x 6x 1
 Maximum number of reciprocal cells 2x 2x11

    FEWALD:  cpu time    0.0010: real time    0.0015


--------------------------------------- Iteration      1(   1)  ---------------------------------------


    POTLOK:  cpu time    0.0590: real time    0.0881
    SETDIJ:  cpu time    0.0030: real time    0.0028
     EDDAV:  cpu time    0.2860: real time    0.2860
 BZINTS: Fermi energy:  6.443696; 18.000000 electrons
         Band energy: -16.699818;  BLOECHL correction: -0.371328
       DOS:  cpu time    0.0010: real time    0.0009
    --------------------------------------------
      LOOP:  cpu time    0.3489: real time    0.3777

 eigenvalue-minimisations  :   280
 total energy-change (2. order) : 0.1330290E+03  (-0.5271378E+03)
 number of electron      18.0000000 magnetization 
 augmentation part       18.0000000 magnetization 

 Free energy of the ion-electron system (eV)
  ---------------------------------------------------
  alpha Z        PSCENC =        10.89288288
  Ewald energy   TEWEN  =      5368.65661653
  -Hartree energ DENC   =     -6042.21104469
  -exchange      EXHF   =         0.00000000
  -V(xc)+E(xc)   XCENC  =       -36.31053806
  PAW double counting   =       406.88651198     -329.34073203
  entropy T*S    EENTRO =         0.00000000
  eigenvalues    EBANDS =       -16.69981766
  atomic energy  EATOM  =       771.15511399
  Solvation  Ediel_sol  =         0.00000000
  ---------------------------------------------------
  free energy    TOTEN  =       133.02899293 eV

  energy without entropy =      133.02899293  energy(sigma->0) =      133.02899293


--------------------------------------------------------------------------------------------------------




--------------------------------------- Iteration      1(   2)  ---------------------------------------


     EDDAV:  cpu time    0.4379: real time    0.4390
 BZINTS: Fermi energy: -2.339023; 18.000000 electrons
         Band energy:-155.695742;  BLOECHL correction:  0.000000
       DOS:  cpu time    0.0000: real time    0.0002
    --------------------------------------------
      LOOP:  cpu time    0.4379: real time    0.4392

 eigenvalue-minimisations  :   492
 total energy-change (2. order) :-0.1389959E+03  (-0.1306442E+03)
 number of electron      18.0000000 magnetization 
 augmentation part       18.0000000 magnetization 

 Free energy of the ion-electron system (eV)
  ---------------------------------------------------
  alpha Z        PSCENC =        10.89288288
  Ewald energy   TEWEN  =      5368.65661653
  -Hartree energ DENC   =     -6042.21104469
  -exchange      EXHF   =         0.00000000
  -V(xc)+E(xc)   XCENC  =       -36.31053806
  PAW double counting   =       406.88651198     -329.34073203
  entropy T*S    EENTRO =         0.00000000
  eigenvalues    EBANDS =      -155.69574158
  atomic energy  EATOM  =       771.15511399
  Solvation  Ediel_sol  =         0.00000000
  ---------------------------------------------------
  free energy    TOTEN  =        -5.96693098 eV

  energy without entropy =       -5.96693098  energy(sigma->0) =       -5.96693098


--------------------------------------------------------------------------------------------------------




--------------------------------------- Iteration      1(   3)  ---------------------------------------


     EDDAV:  cpu time    0.3509: real time    0.3510
 BZINTS: Fermi energy: -3.616905; 18.000000 electrons
         Band energy:-172.770172;  BLOECHL correction:  0.000000
       DOS:  cpu time    0.0000: real time    0.0003
    --------------------------------------------
      LOOP:  cpu time    0.3519: real time    0.3513

 eigenvalue-minimisations  :   376
 total energy-change (2. order) :-0.1707443E+02  (-0.1690190E+02)
 number of electron      18.0000000 magnetization 
 augmentation part       18.0000000 magnetization 

 Free energy of the ion-electron system (eV)
  ---------------------------------------------------
  alpha Z        PSCENC =        10.89288288
  Ewald energy   TEWEN  =      5368.65661653
  -Hartree energ DENC   =     -6042.21104469
  -exchange      EXHF   =         0.00000000
  -V(xc)+E(xc)   XCENC  =       -36.31053806
  PAW double counting   =       406.88651198     -329.34073203
  entropy T*S    EENTRO =         0.00000000
  eigenvalues    EBANDS =      -172.77017166
  atomic energy  EATOM  =       771.15511399
  Solvation  Ediel_sol  =         0.00000000
  ---------------------------------------------------
  free energy    TOTEN  =       -23.04136107 eV

  energy without entropy =      -23.04136107  energy(sigma->0) =      -23.04136107


--------------------------------------------------------------------------------------------------------




--------------------------------------- Iteration      1(   4)  ---------------------------------------


     EDDAV:  cpu time    0.3539: real time    0.3556
 BZINTS: Fermi energy: -3.656446; 18.000000 electrons
         Band energy:-173.127914;  BLOECHL correction:  0.000000
       DOS:  cpu time    0.0000: real time    0.0002
    --------------------------------------------
      LOOP:  cpu time    0.3529: real time    0.3559

 eigenvalue-minimisations  :   378
 total energy-change (2. order) :-0.3577424E+00  (-0.3558572E+00)
 number of electron      18.0000000 magnetization 
 augmentation part       18.0000000 magnetization 

 Free energy of the ion-electron system (eV)
  ---------------------------------------------------
  alpha Z        PSCENC =        10.89288288
  Ewald energy   TEWEN  =      5368.65661653
  -Hartree energ DENC   =     -6042.21104469
  -exchange      EXHF   =         0.00000000
  -V(xc)+E(xc)   XCENC  =       -36.31053806
  PAW double counting   =       406.88651198     -329.34073203
  entropy T*S    EENTRO =         0.00000000
  eigenvalues    EBANDS =      -173.12791407
  atomic energy  EATOM  =       771.15511399
  Solvation  Ediel_sol  =         0.00000000
  ---------------------------------------------------
  free energy    TOTEN  =       -23.39910348 eV

  energy without entropy =      -23.39910348  energy(sigma->0) =      -23.39910348


--------------------------------------------------------------------------------------------------------




--------------------------------------- Iteration      1(   5)  ---------------------------------------


     EDDAV:  cpu time    0.3409: real time    0.3401
 BZINTS: Fermi energy: -3.666833; 18.000000 electrons
         Band energy:-173.136424;  BLOECHL correction:  0.000000
       DOS:  cpu time    0.0000: real time    0.0003
    CHARGE:  cpu time    0.0260: real time    0.0265
    MIXING:  cpu time    0.0020: real time    0.0017
    --------------------------------------------
      LOOP:  cpu time    0.3689: real time    0.3686

 eigenvalue-minimisations  :   366
 total energy-change (2. order) :-0.8509835E-02  (-0.8507214E-02)
 number of electron      18.0000016 magnetization 
 augmentation part       -0.9454880 magnetization 

 Broyden mixing:
  rms(total) = 0.68874E+00    rms(broyden)= 0.68873E+00
  rms(prec ) = 0.73255E+00
  weight for this iteration     100.00

 Free energy of the ion-electron system (eV)
  ---------------------------------------------------
  alpha Z        PSCENC =        10.89288288
  Ewald energy   TEWEN  =      5368.65661653
  -Hartree energ DENC   =     -6042.21104469
  -exchange      EXHF   =         0.00000000
  -V(xc)+E(xc)   XCENC  =       -36.31053806
  PAW double counting   =       406.88651198     -329.34073203
  entropy T*S    EENTRO =         0.00000000
  eigenvalues    EBANDS =      -173.13642391
  atomic energy  EATOM  =       771.15511399
  Solvation  Ediel_sol  =         0.00000000
  ---------------------------------------------------
  free energy    TOTEN  =       -23.40761331 eV

  energy without entropy =      -23.40761331  energy(sigma->0) =      -23.40761331


--------------------------------------------------------------------------------------------------------




--------------------------------------- Iteration      1(   6)  ---------------------------------------


    POTLOK:  cpu time    0.0530: real time    0.0528
    SETDIJ:  cpu time    0.0030: real time    0.0025
    EDDIAG:  cpu time    0.0560: real time    0.0571
  RMM-DIIS:  cpu time    0.2470: real time    0.2459
    ORTHCH:  cpu time    0.0050: real time    0.0054
 BZINTS: Fermi energy: -4.736818; 18.000000 electrons
         Band energy:-173.668610;  BLOECHL correction:  0.000000
       DOS:  cpu time    0.0000: real time    0.0002
    CHARGE:  cpu time    0.0260: real time    0.0262
    MIXING:  cpu time    0.0020: real time    0.0019
    --------------------------------------------
      LOOP:  cpu time    0.3919: real time    0.3921

 eigenvalue-minimisations  :   295
 total energy-change (2. order) : 0.1161113E+01  (-0.5435551E+00)
 number of electron      18.0000016 magnetization 
 augmentation part       -0.3988894 magnetization 

 Broyden mixing:
  rms(total) = 0.26166E+00    rms(broyden)= 0.26166E+00
  rms(prec ) = 0.29688E+00
  weight for this iteration     100.00

 eigenvalues of (default mixing * dielectric matrix)
  average eigenvalue GAMMA=   0.8336
  0.8336

 Free energy of the ion-electron system (eV)
  ---------------------------------------------------
  alpha Z        PSCENC =        10.89288288
  Ewald energy   TEWEN  =      5368.65661653
  -Hartree energ DENC   =     -6040.51457188
  -exchange      EXHF   =         0.00000000
  -V(xc)+E(xc)   XCENC  =       -35.42368625
  PAW double counting   =       423.97507062     -347.31931537
  entropy T*S    EENTRO =         0.00000000
  eigenvalues    EBANDS =      -173.66861034
  atomic energy  EATOM  =       771.15511399
  Solvation  Ediel_sol  =         0.00000000
  ---------------------------------------------------
  free energy    TOTEN  =       -22.24649982 eV

  energy without entropy =      -22.24649982  energy(sigma->0) =      -22.24649982


--------------------------------------------------------------------------------------------------------




--------------------------------------- Iteration      1(   7)  ---------------------------------------


    POTLOK:  cpu time    0.0470: real time    0.0492
    SETDIJ:  cpu time    0.0030: real time    0.0025
    EDDIAG:  cpu time    0.0550: real time    0.0555
  RMM-DIIS:  cpu time    0.2440: real time    0.2434
    ORTHCH:  cpu time    0.0050: real time    0.0054
 BZINTS: Fermi energy: -4.153048; 18.000000 electrons
         Band energy:-167.350246;  BLOECHL correction:  0.000000
       DOS:  cpu time    0.0000: real time    0.0002
    CHARGE:  cpu time    0.0270: real time    0.0264
    MIXING:  cpu time    0.0010: real time    0.0018
    --------------------------------------------
      LOOP:  cpu time    0.3819: real time    0.3845

 eigenvalue-minimisations  :   292
 total energy-change (2. order) : 0.3843493E+00  (-0.5600504E-01)
 number of electron      18.0000016 magnetization 
 augmentation part       -0.6003965 magnetization 

 Broyden mixing:
  rms(total) = 0.15062E+00    rms(broyden)= 0.15062E+00
  rms(prec ) = 0.15705E+00
  weight for this iteration     100.00

 eigenvalues of (default mixing * dielectric matrix)
  average eigenvalue GAMMA=   1.3627
  0.6662  2.0593

 Free energy of the ion-electron system (eV)
  ---------------------------------------------------
  alpha Z        PSCENC =        10.89288288
  Ewald energy   TEWEN  =      5368.65661653
  -Hartree energ DENC   =     -6046.07009658
  -exchange      EXHF   =         0.00000000
  -V(xc)+E(xc)   XCENC  =       -35.56901291
  PAW double counting   =       441.56949621     -365.14690446
  entropy T*S    EENTRO =         0.00000000
  eigenvalues    EBANDS =      -167.35024619
  atomic energy  EATOM  =       771.15511399
  Solvation  Ediel_sol  =         0.00000000
  ---------------------------------------------------
  free energy    TOTEN  =       -21.86215053 eV

  energy without entropy =      -21.86215053  energy(sigma->0) =      -21.86215053


--------------------------------------------------------------------------------------------------------




--------------------------------------- Iteration      1(   8)  ---------------------------------------


    POTLOK:  cpu time    0.0460: real time    0.0468
    SETDIJ:  cpu time    0.0040: real time    0.0025
    EDDIAG:  cpu time    0.0560: real time    0.0563
  RMM-DIIS:  cpu time    0.2520: real time    0.2520
    ORTHCH:  cpu time    0.0050: real time    0.0055
 BZINTS: Fermi energy: -4.043004; 18.000000 electrons
         Band energy:-163.046113;  BLOECHL correction:  0.000000
       DOS:  cpu time    0.0000: real time    0.0002
    CHARGE:  cpu time    0.0260: real time    0.0264
    MIXING:  cpu time    0.0030: real time    0.0026
    --------------------------------------------
      LOOP:  cpu time    0.3919: real time    0.3923

 eigenvalue-minimisations  :   308
 total energy-change (2. order) : 0.6030219E-01  (-0.2342537E-01)
 number of electron      18.0000016 magnetization 
 augmentation part       -0.5516970 magnetization 

 Broyden mixing:
  rms(total) = 0.35393E-01    rms(broyden)= 0.35392E-01
  rms(prec ) = 0.37202E-01
  weight for this iteration     100.00

 eigenvalues of (default mixing * dielectric matrix)
  average eigenvalue GAMMA=   1.5016
  1.9201  1.9201  0.6646

 Free energy of the ion-electron system (eV)
  ---------------------------------------------------
  alpha Z        PSCENC =        10.89288288
  Ewald energy   TEWEN  =      5368.65661653
  -Hartree energ DENC   =     -6050.06972492
  -exchange      EXHF   =         0.00000000
  -V(xc)+E(xc)   XCENC  =       -35.29673377
  PAW double counting   =       465.17916474     -389.27305436
  entropy T*S    EENTRO =         0.00000000
  eigenvalues    EBANDS =      -163.04611344
  atomic energy  EATOM  =       771.15511399
  Solvation  Ediel_sol  =         0.00000000
  ---------------------------------------------------
  free energy    TOTEN  =       -21.80184835 eV

  energy without entropy =      -21.80184835  energy(sigma->0) =      -21.80184835


--------------------------------------------------------------------------------------------------------




--------------------------------------- Iteration      1(   9)  ---------------------------------------


    POTLOK:  cpu time    0.0490: real time    0.0507
    SETDIJ:  cpu time    0.0040: real time    0.0026
    EDDIAG:  cpu time    0.0560: real time    0.0563
  RMM-DIIS:  cpu time    0.2720: real time    0.2717
    ORTHCH:  cpu time    0.0050: real time    0.0054
 BZINTS: Fermi energy: -3.968373; 18.000000 electrons
         Band energy:-161.683906;  BLOECHL correction:  0.000000
       DOS:  cpu time    0.0000: real time    0.0002
    CHARGE:  cpu time    0.0270: real time    0.0262
    MIXING:  cpu time    0.0020: real time    0.0020
    --------------------------------------------
      LOOP:  cpu time    0.4149: real time    0.4152

 eigenvalue-minimisations  :   336
 total energy-change (2. order) : 0.4879670E-02  (-0.8843457E-03)
 number of electron      18.0000016 magnetization 
 augmentation part       -0.5471760 magnetization 

 Broyden mixing:
  rms(total) = 0.95359E-02    rms(broyden)= 0.95353E-02
  rms(prec ) = 0.11305E-01
  weight for this iteration     100.00

 eigenvalues of (default mixing * dielectric matrix)
  average eigenvalue GAMMA=   1.5074
  0.6668  1.0467  2.4356  1.8806

 Free energy of the ion-electron system (eV)
  ---------------------------------------------------
  alpha Z        PSCENC =        10.89288288
  Ewald energy   TEWEN  =      5368.65661653
  -Hartree energ DENC   =     -6051.40168667
  -exchange      EXHF   =         0.00000000
  -V(xc)+E(xc)   XCENC  =       -35.24452015
  PAW double counting   =       470.49267475     -394.66414395
  entropy T*S    EENTRO =         0.00000000
  eigenvalues    EBANDS =      -161.68390605
  atomic energy  EATOM  =       771.15511399
  Solvation  Ediel_sol  =         0.00000000
  ---------------------------------------------------
  free energy    TOTEN  =       -21.79696868 eV

  energy without entropy =      -21.79696868  energy(sigma->0) =      -21.79696868


--------------------------------------------------------------------------------------------------------




--------------------------------------- Iteration      1(  10)  ---------------------------------------


    POTLOK:  cpu time    0.0500: real time    0.0530
    SETDIJ:  cpu time    0.0030: real time    0.0026
    EDDIAG:  cpu time    0.0570: real time    0.0570
  RMM-DIIS:  cpu time    0.2650: real time    0.2654
    ORTHCH:  cpu time    0.0060: real time    0.0054
 BZINTS: Fermi energy: -3.909181; 18.000000 electrons
         Band energy:-160.526528;  BLOECHL correction:  0.000000
       DOS:  cpu time    0.0000: real time    0.0002
    CHARGE:  cpu time    0.0260: real time    0.0264
    MIXING:  cpu time    0.0020: real time    0.0021
    --------------------------------------------
      LOOP:  cpu time    0.4089: real time    0.4121

 eigenvalue-minimisations  :   332
 total energy-change (2. order) : 0.7495285E-03  (-0.1656074E-03)
 number of electron      18.0000016 magnetization 
 augmentation part       -0.5514342 magnetization 

 Broyden mixing:
  rms(total) = 0.44090E-02    rms(broyden)= 0.44089E-02
  rms(prec ) = 0.57743E-02
  weight for this iteration     100.00

 eigenvalues of (default mixing * dielectric matrix)
  average eigenvalue GAMMA=   1.6670
  0.6675  1.0370  2.1705  2.2301  2.2301

 Free energy of the ion-electron system (eV)
  ---------------------------------------------------
  alpha Z        PSCENC =        10.89288288
  Ewald energy   TEWEN  =      5368.65661653
  -Hartree energ DENC   =     -6052.54949897
  -exchange      EXHF   =         0.00000000
  -V(xc)+E(xc)   XCENC  =       -35.22327926
  PAW double counting   =       472.73498227     -396.93650869
  entropy T*S    EENTRO =         0.00000000
  eigenvalues    EBANDS =      -160.52652790
  atomic energy  EATOM  =       771.15511399
  Solvation  Ediel_sol  =         0.00000000
  ---------------------------------------------------
  free energy    TOTEN  =       -21.79621915 eV

  energy without entropy =      -21.79621915  energy(sigma->0) =      -21.79621915


--------------------------------------------------------------------------------------------------------




--------------------------------------- Iteration      1(  11)  ---------------------------------------


    POTLOK:  cpu time    0.0510: real time    0.0509
    SETDIJ:  cpu time    0.0030: real time    0.0026
    EDDIAG:  cpu time    0.0560: real time    0.0569
  RMM-DIIS:  cpu time    0.2530: real time    0.2519
    ORTHCH:  cpu time    0.0050: real time    0.0054
 BZINTS: Fermi energy: -3.851321; 18.000000 electrons
         Band energy:-159.392542;  BLOECHL correction:  0.000000
       DOS:  cpu time    0.0000: real time    0.0002
    CHARGE:  cpu time    0.0260: real time    0.0264
    MIXING:  cpu time    0.0030: real time    0.0022
    --------------------------------------------
      LOOP:  cpu time    0.3969: real time    0.3967

 eigenvalue-minimisations  :   315
 total energy-change (2. order) : 0.6949567E-04  (-0.1611185E-03)
 number of electron      18.0000016 magnetization 
 augmentation part       -0.5479680 magnetization 

 Broyden mixing:
  rms(total) = 0.52732E-02    rms(broyden)= 0.52732E-02
  rms(prec ) = 0.59611E-02
  weight for this iteration     100.00

 eigenvalues of (default mixing * dielectric matrix)
  average eigenvalue GAMMA=   1.6725
  2.9172  2.6866  0.6680  0.9291  1.4169  1.4169

 Free energy of the ion-electron system (eV)
  ---------------------------------------------------
  alpha Z        PSCENC =        10.89288288
  Ewald energy   TEWEN  =      5368.65661653
  -Hartree energ DENC   =     -6053.70557877
  -exchange      EXHF   =         0.00000000
  -V(xc)+E(xc)   XCENC  =       -35.21007808
  PAW double counting   =       472.21511322     -396.40767731
  entropy T*S    EENTRO =         0.00000000
  eigenvalues    EBANDS =      -159.39254211
  atomic energy  EATOM  =       771.15511399
  Solvation  Ediel_sol  =         0.00000000
  ---------------------------------------------------
  free energy    TOTEN  =       -21.79614965 eV

  energy without entropy =      -21.79614965  energy(sigma->0) =      -21.79614965


--------------------------------------------------------------------------------------------------------




--------------------------------------- Iteration      1(  12)  ---------------------------------------


    POTLOK:  cpu time    0.0510: real time    0.0513
    SETDIJ:  cpu time    0.0030: real time    0.0026
    EDDIAG:  cpu time    0.0560: real time    0.0569
  RMM-DIIS:  cpu time    0.2500: real time    0.2488
    ORTHCH:  cpu time    0.0050: real time    0.0054
 BZINTS: Fermi energy: -3.813151; 18.000000 electrons
         Band energy:-158.678499;  BLOECHL correction:  0.000000
       DOS:  cpu time    0.0000: real time    0.0002
    CHARGE:  cpu time    0.0260: real time    0.0260
    MIXING:  cpu time    0.0020: real time    0.0023
    --------------------------------------------
      LOOP:  cpu time    0.3929: real time    0.3934

 eigenvalue-minimisations  :   304
 total energy-change (2. order) : 0.1621521E-03  (-0.5177986E-04)
 number of electron      18.0000016 magnetization 
 augmentation part       -0.5505042 magnetization 

 Broyden mixing:
  rms(total) = 0.17485E-02    rms(broyden)= 0.17484E-02
  rms(prec ) = 0.22509E-02
  weight for this iteration     100.00

 eigenvalues of (default mixing * dielectric matrix)
  average eigenvalue GAMMA=   1.9530
  3.8529  2.7499  2.7499  0.6681  0.9636  1.4165  1.2704

 Free energy of the ion-electron system (eV)
  ---------------------------------------------------
  alpha Z        PSCENC =        10.89288288
  Ewald energy   TEWEN  =      5368.65661653
  -Hartree energ DENC   =     -6054.42586610
  -exchange      EXHF   =         0.00000000
  -V(xc)+E(xc)   XCENC  =       -35.20616607
  PAW double counting   =       472.37703229     -396.56710215
  entropy T*S    EENTRO =         0.00000000
  eigenvalues    EBANDS =      -158.67849887
  atomic energy  EATOM  =       771.15511399
  Solvation  Ediel_sol  =         0.00000000
  ---------------------------------------------------
  free energy    TOTEN  =       -21.79598750 eV

  energy without entropy =      -21.79598750  energy(sigma->0) =      -21.79598750


--------------------------------------------------------------------------------------------------------




--------------------------------------- Iteration      1(  13)  ---------------------------------------


    POTLOK:  cpu time    0.0510: real time    0.0543
    SETDIJ:  cpu time    0.0040: real time    0.0026
    EDDIAG:  cpu time    0.0560: real time    0.0570
  RMM-DIIS:  cpu time    0.2270: real time    0.2262
    ORTHCH:  cpu time    0.0050: real time    0.0054
 BZINTS: Fermi energy: -3.771589; 18.000000 electrons
         Band energy:-157.905634;  BLOECHL correction:  0.000000
       DOS:  cpu time    0.0000: real time    0.0002
    CHARGE:  cpu time    0.0260: real time    0.0262
    MIXING:  cpu time    0.0020: real time    0.0024
    --------------------------------------------
      LOOP:  cpu time    0.3709: real time    0.3742

 eigenvalue-minimisations  :   282
 total energy-change (2. order) :-0.3372866E-03  (-0.1671778E-04)
 number of electron      18.0000016 magnetization 
 augmentation part       -0.5489635 magnetization 

 Broyden mixing:
  rms(total) = 0.19804E-02    rms(broyden)= 0.19804E-02
  rms(prec ) = 0.21689E-02
  weight for this iteration     100.00

 eigenvalues of (default mixing * dielectric matrix)
  average eigenvalue GAMMA=   1.9150
  4.8373  2.7050  2.3813  1.4212  1.4212  0.6682  0.9427  0.9427

 Free energy of the ion-electron system (eV)
  ---------------------------------------------------
  alpha Z        PSCENC =        10.89288288
  Ewald energy   TEWEN  =      5368.65661653
  -Hartree energ DENC   =     -6055.20104592
  -exchange      EXHF   =         0.00000000
  -V(xc)+E(xc)   XCENC  =       -35.19905570
  PAW double counting   =       472.33062471     -396.52582684
  entropy T*S    EENTRO =         0.00000000
  eigenvalues    EBANDS =      -157.90563444
  atomic energy  EATOM  =       771.15511399
  Solvation  Ediel_sol  =         0.00000000
  ---------------------------------------------------
  free energy    TOTEN  =       -21.79632479 eV

  energy without entropy =      -21.79632479  energy(sigma->0) =      -21.79632479


--------------------------------------------------------------------------------------------------------




--------------------------------------- Iteration      1(  14)  ---------------------------------------


    POTLOK:  cpu time    0.0500: real time    0.0497
    SETDIJ:  cpu time    0.0030: real time    0.0025
    EDDIAG:  cpu time    0.0560: real time    0.0559
  RMM-DIIS:  cpu time    0.2250: real time    0.2252
    ORTHCH:  cpu time    0.0060: real time    0.0054
 BZINTS: Fermi energy: -3.762309; 18.000000 electrons
         Band energy:-157.736418;  BLOECHL correction:  0.000000
       DOS:  cpu time    0.0000: real time    0.0002
    CHARGE:  cpu time    0.0250: real time    0.0262
    MIXING:  cpu time    0.0030: real time    0.0026
    --------------------------------------------
      LOOP:  cpu time    0.3679: real time    0.3676

 eigenvalue-minimisations  :   256
 total energy-change (2. order) :-0.5826066E-04  (-0.2567940E-05)
 number of electron      18.0000016 magnetization 
 augmentation part       -0.5500921 magnetization 

 Broyden mixing:
  rms(total) = 0.49285E-03    rms(broyden)= 0.49284E-03
  rms(prec ) = 0.62901E-03
  weight for this iteration     100.00

 eigenvalues of (default mixing * dielectric matrix)
  average eigenvalue GAMMA=   2.1811
  6.6178  2.9601  2.3906  2.3906  1.5094  0.6682  1.1848  0.9545  0.9545

 Free energy of the ion-electron system (eV)
  ---------------------------------------------------
  alpha Z        PSCENC =        10.89288288
  Ewald energy   TEWEN  =      5368.65661653
  -Hartree energ DENC   =     -6055.37300808
  -exchange      EXHF   =         0.00000000
  -V(xc)+E(xc)   XCENC  =       -35.20111837
  PAW double counting   =       472.14041136     -396.33086310
  entropy T*S    EENTRO =         0.00000000
  eigenvalues    EBANDS =      -157.73641826
  atomic energy  EATOM  =       771.15511399
  Solvation  Ediel_sol  =         0.00000000
  ---------------------------------------------------
  free energy    TOTEN  =       -21.79638305 eV

  energy without entropy =      -21.79638305  energy(sigma->0) =      -21.79638305


--------------------------------------------------------------------------------------------------------




--------------------------------------- Iteration      1(  15)  ---------------------------------------


    POTLOK:  cpu time    0.0490: real time    0.0491
    SETDIJ:  cpu time    0.0030: real time    0.0025
    EDDIAG:  cpu time    0.0550: real time    0.0554
  RMM-DIIS:  cpu time    0.1770: real time    0.1760
    ORTHCH:  cpu time    0.0050: real time    0.0054
 BZINTS: Fermi energy: -3.752726; 18.000000 electrons
         Band energy:-157.576167;  BLOECHL correction:  0.000000
       DOS:  cpu time    0.0000: real time    0.0002
    CHARGE:  cpu time    0.0260: real time    0.0261
    MIXING:  cpu time    0.0020: real time    0.0025
    --------------------------------------------
      LOOP:  cpu time    0.3170: real time    0.3171

 eigenvalue-minimisations  :   192
 total energy-change (2. order) :-0.1260369E-03  (-0.1128892E-05)
 number of electron      18.0000016 magnetization 
 augmentation part       -0.5498376 magnetization 

 Broyden mixing:
  rms(total) = 0.26466E-03    rms(broyden)= 0.26466E-03
  rms(prec ) = 0.32742E-03
  weight for this iteration     100.00

 eigenvalues of (default mixing * dielectric matrix)
  average eigenvalue GAMMA=   2.1564
  6.7213  3.5330  2.6180  1.7053  1.7053  1.6222  0.6682  1.0277  1.0277  0.9350

 Free energy of the ion-electron system (eV)
  ---------------------------------------------------
  alpha Z        PSCENC =        10.89288288
  Ewald energy   TEWEN  =      5368.65661653
  -Hartree energ DENC   =     -6055.53345737
  -exchange      EXHF   =         0.00000000
  -V(xc)+E(xc)   XCENC  =       -35.20081850
  PAW double counting   =       472.16611810     -396.35679817
  entropy T*S    EENTRO =         0.00000000
  eigenvalues    EBANDS =      -157.57616655
  atomic energy  EATOM  =       771.15511399
  Solvation  Ediel_sol  =         0.00000000
  ---------------------------------------------------
  free energy    TOTEN  =       -21.79650909 eV

  energy without entropy =      -21.79650909  energy(sigma->0) =      -21.79650909


--------------------------------------------------------------------------------------------------------




--------------------------------------- Iteration      1(  16)  ---------------------------------------


    POTLOK:  cpu time    0.0490: real time    0.0511
    SETDIJ:  cpu time    0.0040: real time    0.0032
    EDDIAG:  cpu time    0.0550: real time    0.0554
  RMM-DIIS:  cpu time    0.1600: real time    0.1595
    ORTHCH:  cpu time    0.0050: real time    0.0053
 BZINTS: Fermi energy: -3.749277; 18.000000 electrons
         Band energy:-157.517714;  BLOECHL correction:  0.000000
       DOS:  cpu time    0.0000: real time    0.0002
    CHARGE:  cpu time    0.0260: real time    0.0258
    MIXING:  cpu time    0.0030: real time    0.0028
    --------------------------------------------
      LOOP:  cpu time    0.3020: real time    0.3033

 eigenvalue-minimisations  :   174
 total energy-change (2. order) :-0.4128206E-04  (-0.2755874E-06)
 number of electron      18.0000016 magnetization 
 augmentation part       -0.5499775 magnetization 

 Broyden mixing:
  rms(total) = 0.15329E-03    rms(broyden)= 0.15329E-03
  rms(prec ) = 0.18038E-03
  weight for this iteration     100.00

 eigenvalues of (default mixing * dielectric matrix)
  average eigenvalue GAMMA=   2.2866
  7.4111  3.7221  2.9004  2.6806  2.1380  1.5576  0.6682  1.0961  1.0961  0.9689
  0.9137

 Free energy of the ion-electron system (eV)
  ---------------------------------------------------
  alpha Z        PSCENC =        10.89288288
  Ewald energy   TEWEN  =      5368.65661653
  -Hartree energ DENC   =     -6055.59113813
  -exchange      EXHF   =         0.00000000
  -V(xc)+E(xc)   XCENC  =       -35.20075303
  PAW double counting   =       472.21509503     -396.40665321
  entropy T*S    EENTRO =         0.00000000
  eigenvalues    EBANDS =      -157.51771442
  atomic energy  EATOM  =       771.15511399
  Solvation  Ediel_sol  =         0.00000000
  ---------------------------------------------------
  free energy    TOTEN  =       -21.79655037 eV

  energy without entropy =      -21.79655037  energy(sigma->0) =      -21.79655037


--------------------------------------------------------------------------------------------------------




--------------------------------------- Iteration      1(  17)  ---------------------------------------


    POTLOK:  cpu time    0.0490: real time    0.0494
    SETDIJ:  cpu time    0.0040: real time    0.0032
    EDDIAG:  cpu time    0.0550: real time    0.0556
  RMM-DIIS:  cpu time    0.1420: real time    0.1413
    ORTHCH:  cpu time    0.0050: real time    0.0053
 BZINTS: Fermi energy: -3.747630; 18.000000 electrons
         Band energy:-157.487519;  BLOECHL correction:  0.000000
       DOS:  cpu time    0.0000: real time    0.0002
    CHARGE:  cpu time    0.0250: real time    0.0256
    MIXING:  cpu time    0.0030: real time    0.0027
    --------------------------------------------
      LOOP:  cpu time    0.2830: real time    0.2832

 eigenvalue-minimisations  :   138
 total energy-change (2. order) :-0.3128709E-04  (-0.2206568E-06)
 number of electron      18.0000016 magnetization 
 augmentation part       -0.5500022 magnetization 

 Broyden mixing:
  rms(total) = 0.11055E-03    rms(broyden)= 0.11055E-03
  rms(prec ) = 0.12639E-03
  weight for this iteration     100.00

 eigenvalues of (default mixing * dielectric matrix)
  average eigenvalue GAMMA=   2.2909
  7.6904  4.7148  2.9097  2.4549  2.1694  1.4711  1.4711  0.6682  1.0422  1.0422
  0.9286  0.9286

 Free energy of the ion-electron system (eV)
  ---------------------------------------------------
  alpha Z        PSCENC =        10.89288288
  Ewald energy   TEWEN  =      5368.65661653
  -Hartree energ DENC   =     -6055.62202486
  -exchange      EXHF   =         0.00000000
  -V(xc)+E(xc)   XCENC  =       -35.20090861
  PAW double counting   =       472.17845706     -396.36919976
  entropy T*S    EENTRO =         0.00000000
  eigenvalues    EBANDS =      -157.48751889
  atomic energy  EATOM  =       771.15511399
  Solvation  Ediel_sol  =         0.00000000
  ---------------------------------------------------
  free energy    TOTEN  =       -21.79658165 eV

  energy without entropy =      -21.79658165  energy(sigma->0) =      -21.79658165


--------------------------------------------------------------------------------------------------------




--------------------------------------- Iteration      1(  18)  ---------------------------------------


    POTLOK:  cpu time    0.0470: real time    0.0474
    SETDIJ:  cpu time    0.0040: real time    0.0032
    EDDIAG:  cpu time    0.0540: real time    0.0549
  RMM-DIIS:  cpu time    0.1280: real time    0.1271
    ORTHCH:  cpu time    0.0050: real time    0.0053
 BZINTS: Fermi energy: -3.747462; 18.000000 electrons
         Band energy:-157.485031;  BLOECHL correction:  0.000000
       DOS:  cpu time    0.0000: real time    0.0002
    --------------------------------------------
      LOOP:  cpu time    0.2380: real time    0.2381

 eigenvalue-minimisations  :    81
 total energy-change (2. order) :-0.4464959E-05  (-0.4390519E-07)
 number of electron      18.0000016 magnetization 
 augmentation part       -0.5500022 magnetization 

 Free energy of the ion-electron system (eV)
  ---------------------------------------------------
  alpha Z        PSCENC =        10.89288288
  Ewald energy   TEWEN  =      5368.65661653
  -Hartree energ DENC   =     -6055.62440329
  -exchange      EXHF   =         0.00000000
  -V(xc)+E(xc)   XCENC  =       -35.20086509
  PAW double counting   =       472.18526034     -396.37616025
  entropy T*S    EENTRO =         0.00000000
  eigenvalues    EBANDS =      -157.48503122
  atomic energy  EATOM  =       771.15511399
  Solvation  Ediel_sol  =         0.00000000
  ---------------------------------------------------
  free energy    TOTEN  =       -21.79658612 eV

  energy without entropy =      -21.79658612  energy(sigma->0) =      -21.79658612


--------------------------------------------------------------------------------------------------------




 average (electrostatic) potential at core
  the test charge radii are     1.2296  0.9698
  (the norm of the test charge is              1.0000)
       1 -47.2005       2 -95.0392       3 -95.0392
 
 
 
 E-fermi :  -3.7475     XC(G=0):  -2.5027     alpha+bet : -2.3217


 k-point     1 :       0.0000    0.0000    0.0000
  band No.  band energies     occupation 
      1     -17.7885      2.00000
      2     -16.5804      2.00000
      3      -9.3089      2.00000
      4      -6.3481      2.00000
      5      -6.3481      2.00000
      6      -5.4868      2.00000
      7      -5.2425      2.00000
      8      -5.2425      2.00000
      9      -3.7667      2.00000
     10      -0.9950      0.00000
     11      -0.9950      0.00000
     12      -0.7712      0.00000
     13      -0.7712      0.00000
     14       1.6639      0.00000

 k-point     2 :       0.1250   -0.0000    0.0000
  band No.  band energies     occupation 
      1     -17.5743      2.00000
      2     -16.4781      2.00000
      3      -9.0644      2.00000
      4      -6.8115      2.00000
      5      -6.2948      2.00000
      6      -6.1137      2.00000
      7      -5.5782      2.00000
      8      -4.8093      2.00000
      9      -3.9050      2.00000
     10      -1.2751      0.00000
     11      -1.2093      0.00000
     12      -1.0079      0.00000
     13      -0.6402      0.00000
     14       2.0341      0.00000

 k-point     3 :       0.2500   -0.0000    0.0000
  band No.  band energies     occupation 
      1     -17.0056      2.00000
      2     -16.2092      2.00000
      3      -8.6982      2.00000
      4      -7.5381      2.00000
      5      -7.2756      2.00000
      6      -6.2132      2.00000
      7      -5.5266      2.00000
      8      -5.0609      2.00000
      9      -4.4729      2.00000
     10      -1.5993      0.00000
     11      -1.4226      0.00000
     12      -0.8806      0.00000
     13      -0.0232      0.00000
     14       2.8492      0.00000

 k-point     4 :       0.3750   -0.0000    0.0000
  band No.  band energies     occupation 
      1     -16.3304      2.00000
      2     -15.9007      2.00000
      3      -9.1355      2.00000
      4      -8.1430      2.00000
      5      -7.6709      2.00000
      6      -6.7105      2.00000
      7      -5.4702      2.00000
      8      -4.9360      2.00000
      9      -4.6681      2.00000
     10      -1.6042      0.00000
     11      -1.3254      0.00000
     12      -0.1621      0.00000
     13       0.3701      0.00000
     14       3.3764      0.00000

 k-point     5 :       0.5000   -0.0000    0.0000
  band No.  band energies     occupation 
      1     -16.0021      2.00000
      2     -15.7574      2.00000
      3      -9.4681      2.00000
      4      -8.5079      2.00000
      5      -7.7972      2.00000
      6      -6.8911      2.00000
      7      -5.6090      2.00000
      8      -4.7089      2.00000
      9      -4.3872      2.00000
     10      -1.5820      0.00000
     11      -1.0660      0.00000
     12       0.1365      0.00000
     13       0.4855      0.00000
     14       2.4157      0.00000

 k-point     6 :       0.1250    0.1250    0.0000
  band No.  band energies     occupation 
      1     -17.1815      2.00000
      2     -16.2910      2.00000
      3      -8.7171      2.00000
      4      -7.3755      2.00000
      5      -6.8569      2.00000
      6      -6.3921      2.00000
      7      -5.7742      2.00000
      8      -4.6748      2.00000
      9      -4.2769      2.00000
     10      -1.6744      0.00000
     11      -1.2962      0.00000
     12      -1.2844      0.00000
     13      -0.0454      0.00000
     14       2.6271      0.00000

 k-point     7 :       0.2500    0.1250    0.0000
  band No.  band energies     occupation 
      1     -16.5479      2.00000
      2     -15.9924      2.00000
      3      -8.7798      2.00000
      4      -7.8022      2.00000
      5      -7.5391      2.00000
      6      -6.8964      2.00000
      7      -5.6748      2.00000
      8      -5.0370      2.00000
      9      -4.5604      2.00000
     10      -1.7578      0.00000
     11      -1.3094      0.00000
     12      -0.8145      0.00000
     13       0.4624      0.00000
     14       3.5959      0.00000

 k-point     8 :       0.3750    0.1250    0.0000
  band No.  band energies     occupation 
      1     -16.0174      2.00000
      2     -15.7484      2.00000
      3      -9.1808      2.00000
      4      -8.5652      2.00000
      5      -7.6695      2.00000
      6      -6.9132      2.00000
      7      -5.6596      2.00000
      8      -5.5188      2.00000
      9      -4.2335      2.00000
     10      -1.5631      0.00000
     11      -1.0528      0.00000
     12      -0.1927      0.00000
     13       0.4961      0.00000
     14       2.9426      0.00000

 k-point     9 :       0.2500    0.2500    0.0000
  band No.  band energies     occupation 
      1     -16.0323      2.00000
      2     -15.7395      2.00000
      3      -8.8204      2.00000
      4      -8.6159      2.00000
      5      -7.3424      2.00000
      6      -6.9615      2.00000
      7      -6.6424      2.00000
      8      -5.3854      2.00000
      9      -4.2624      2.00000
     10      -1.6141      0.00000
     11      -1.0031      0.00000
     12      -0.6913      0.00000
     13       0.7841      0.00000
     14       3.7749      0.00000

 k-point    10 :       0.3750    0.2500    0.0000
  band No.  band energies     occupation 
      1     -15.7974      2.00000
      2     -15.6203      2.00000
      3      -9.0003      2.00000
      4      -8.6514      2.00000
      5      -7.6266      2.00000
      6      -6.9640      2.00000
      7      -6.7339      2.00000
      8      -5.7717      2.00000
      9      -3.8950      2.00000
     10      -1.9398      0.00000
     11      -0.6329      0.00000
     12      -0.4525      0.00000
     13       0.9294      0.00000
     14       3.1856      0.00000


--------------------------------------------------------------------------------------------------------


 soft charge-density along one line, spin component           1
         0         1         2         3         4         5         6         7         8         9
 total charge-density along one line
 
 pseudopotential strength for first ion, spin component:           1
-10.073  -0.000   0.000   0.000   0.000   0.111   0.000  -0.000
 -0.000 -10.074  -0.000  -0.000   0.000   0.000   0.111   0.000
  0.000  -0.000 -10.053  -0.000  -0.000  -0.000   0.000   0.109
  0.000  -0.000  -0.000 -10.074  -0.000  -0.000   0.000   0.000
  0.000   0.000  -0.000  -0.000 -10.073  -0.000  -0.000   0.000
  0.111   0.000  -0.000  -0.000  -0.000   0.097  -0.000   0.000
  0.000   0.111   0.000   0.000  -0.000  -0.000   0.097  -0.000
 -0.000   0.000   0.109   0.000   0.000   0.000  -0.000   0.097
 -0.000   0.000   0.000   0.111   0.000  -0.000  -0.000  -0.000
 -0.000  -0.000   0.000   0.000   0.111   0.000   0.000  -0.000
  0.000   0.000  -0.005   0.000  -0.000  -0.000  -0.000   0.000
 -0.000  -0.000   0.001  -0.000   0.000   0.000   0.000  -0.000
 -0.000   0.000  -0.000  -0.000  -0.007   0.000  -0.000   0.000
 -0.000   0.000   0.000  -0.000   0.000  -0.000  -0.000  -0.000
 -0.007  -0.000   0.000   0.000  -0.000  -0.000  -0.000  -0.000
  0.000  -0.000   0.000   0.000   0.004  -0.000   0.000  -0.000
  0.000  -0.000  -0.000   0.000  -0.000  -0.000   0.000   0.000
  0.004   0.000  -0.000  -0.000   0.000   0.000  -0.000   0.000
 total augmentation occupancy for first ion, spin component:           1
  0.965   0.000  -0.000  -0.000  -0.000   0.601   0.000  -0.000  -0.000  -0.000  -0.000   0.000   0.000  -0.000  -0.066  -0.000
  0.000   0.907   0.000   0.000   0.000   0.000   0.839  -0.000   0.000   0.000   0.000   0.000   0.000   0.000   0.000  -0.000
 -0.000   0.000   1.029   0.000   0.000  -0.000   0.000   0.501  -0.000   0.000   0.111  -0.019  -0.000   0.000   0.000   0.000
 -0.000   0.000   0.000   0.907   0.000   0.000   0.000   0.000   0.839   0.000   0.000  -0.000   0.000   0.000   0.000   0.000
 -0.000   0.000   0.000  -0.000   0.965  -0.000   0.000   0.000   0.000   0.601   0.000  -0.000  -0.066   0.000  -0.000   0.007
  0.601   0.000  -0.000   0.000  -0.000   0.678   0.000  -0.000   0.000  -0.000   0.000  -0.000   0.000   0.000  -0.136  -0.000
  0.000   0.839   0.000   0.000   0.000  -0.000   1.081   0.000   0.000   0.000   0.000   0.000  -0.000   0.000   0.000  -0.000
 -0.000   0.000   0.501   0.000   0.000  -0.000   0.000   0.476  -0.000   0.000   0.059  -0.021  -0.000  -0.000   0.000   0.000
 -0.000   0.000   0.000   0.839   0.000   0.000   0.000   0.000   1.081   0.000   0.000   0.000  -0.000   0.000   0.000   0.000
 -0.000  -0.000   0.000  -0.000   0.601  -0.000   0.000   0.000  -0.000   0.678   0.000  -0.000  -0.136   0.000  -0.000   0.023
 -0.000   0.000   0.111   0.000   0.000   0.000   0.000   0.059   0.000   0.000   1.207  -0.185  -0.000  -0.000   0.000   0.000
  0.000   0.000  -0.019   0.000  -0.000  -0.000   0.000  -0.021   0.000  -0.000  -0.185   0.042   0.000  -0.000   0.000   0.000
  0.000   0.000  -0.000   0.000  -0.066   0.000   0.000  -0.000   0.000  -0.136   0.000   0.000   0.217   0.000   0.000  -0.032
 -0.000   0.000   0.000   0.000   0.000   0.000   0.000  -0.000   0.000   0.000   0.000  -0.000   0.000   0.264  -0.000   0.000
 -0.066   0.000   0.000   0.000  -0.000  -0.136   0.000   0.000   0.000  -0.000   0.000  -0.000   0.000  -0.000   0.217  -0.000
 -0.000   0.000   0.000  -0.000   0.007  -0.000   0.000   0.000   0.000   0.023   0.000   0.000  -0.032   0.000  -0.000   0.005
  0.000  -0.000   0.000   0.000   0.000  -0.000   0.000  -0.000   0.000   0.000  -0.000  -0.000   0.000  -0.038   0.000   0.000
  0.007   0.000  -0.000  -0.000   0.000   0.023   0.000  -0.000   0.000   0.000  -0.000  -0.000  -0.000   0.000  -0.032   0.000


------------------------ aborting loop because EDIFF is reached ----------------------------------------


    CHARGE:  cpu time    0.0250: real time    0.0256
    FORLOC:  cpu time    0.0050: real time    0.0048
    FORNL :  cpu time    0.0400: real time    0.0390
    STRESS:  cpu time    0.2210: real time    0.2214
    FORCOR:  cpu time    0.0560: real time    0.0553
    FORHAR:  cpu time    0.0130: real time    0.0126
    MIXING:  cpu time    0.0020: real time    0.0029
    OFIELD:  cpu time    0.0000: real time    0.0000

  DFT-D2 method for vdW energy calculation
  -------------------------------------------------------------------

  Parameters of vdW forcefield:
         C6(Jnm^6/mol)     R0(A)
   -----------------------------
   Mo      24.670          1.639
   S        5.570          1.683

  IVDW =   1
  VDW_RADIUS =    50.000 A
  VDW_S6 =     0.750
  VDW_SR =     1.000
  VDW_D =    20.000
  LVDW_EWALD = F

  Number of pair interactions contributing to vdW energy:   11979
  Edisp (eV):   -0.59080
    FORVDW:  cpu time    0.0110: real time    0.0172

  FORCE on cell =-STRESS in cart. coord.  units (eV):
  Direction    XX          YY          ZZ          XY          YZ          ZX
  --------------------------------------------------------------------------------------
  Alpha Z    10.89288    10.89288    10.89288
  Ewald    5935.52296  5935.52341 -6502.38985     0.00019     0.00000     0.00012
  Hartree  6017.36570  6017.36571 -5979.09372     0.00002    -0.00000    -0.00000
  E(xc)     -70.29687   -70.29688   -70.90164    -0.00000    -0.00000    -0.00000
  Local  -12231.98504-12231.98537 12196.42099    -0.00021    -0.00000    -0.00006
  n-local   127.16284   125.78461   131.68466    -0.25464    -0.00000    -0.00001
  augment   -25.56576   -25.56569   -26.66814     0.00007     0.00000    -0.00000
  Kinetic   235.88858   238.69030   239.80671    -7.41134     0.00001     0.00002
  Fock        0.00000     0.00000     0.00000     0.00000     0.00000     0.00000
  vdW         0.16052     0.16052    -0.13380     0.00000     0.00000    -0.00000
  -------------------------------------------------------------------------------------
  Total      -0.14236    -0.14236    -0.38191     0.00000     0.00000     0.00000
  in kB      -0.83796    -0.83796    -2.24809     0.00000     0.00000     0.00000
  external pressure =       -1.31 kB  Pullay stress =        0.00 kB


 VOLUME and BASIS-vectors are now :
 -----------------------------------------------------------------------------
  energy-cutoff  :      450.00
  volume of cell :      272.18
      direct lattice vectors                 reciprocal lattice vectors
     3.190315730  0.000000000  0.000000000     0.313448600  0.180969634  0.000000000
    -1.595157865  2.762894468  0.000000000     0.000000000  0.361939267  0.000000000
     0.000000000  0.000000000 30.879004300     0.000000000  0.000000000  0.032384464

  length of vectors
     3.190315730  3.190315730 30.879004300     0.361939267  0.361939267  0.032384464


 FORCES acting on ions
    electron-ion (+dipol)            ewald-force                    non-local-force                 convergence-correction
 -----------------------------------------------------------------------------------------------
   -.953E-05 -.170E-05 -.105E-04   0.931E-04 -.108E-03 0.343E-06   -.382E-16 -.208E-16 0.169E-20   0.170E-09 -.138E-09 0.858E-07
   -.853E-03 0.494E-03 0.596E+03   -.864E-04 0.538E-04 -.601E+03   -.182E-16 0.173E-17 0.480E+01   -.690E-08 0.308E-08 0.217E-02
   0.864E-03 0.494E-03 -.596E+03   -.674E-05 0.538E-04 0.601E+03   -.954E-17 -.173E-17 -.480E+01   0.789E-08 0.308E-08 -.217E-02
 -----------------------------------------------------------------------------------------------
   0.207E-05 0.986E-03 0.208E-04   0.253E-13 0.199E-13 0.000E+00   -.659E-16 -.208E-16 -.888E-15   0.116E-08 0.602E-08 0.225E-06
 
 
 POSITION                                       TOTAL-FORCE (eV/Angst)
 -----------------------------------------------------------------------------------
     -0.00000      1.84193      3.71975         0.000000     -0.000000     -0.000000
      1.59516      0.92096      2.15487        -0.000000      0.000000      0.115847
      1.59516      0.92096      5.28464        -0.000000      0.000000     -0.115847
 -----------------------------------------------------------------------------------
    total drift:                                0.000002      0.000986      0.000021


--------------------------------------------------------------------------------------------------------



  FREE ENERGIE OF THE ION-ELECTRON SYSTEM (eV)
  ---------------------------------------------------
  free  energy   TOTEN  =       -22.38738434 eV

  energy  without entropy=      -22.38738434  energy(sigma->0) =      -22.38738434
 


--------------------------------------------------------------------------------------------------------


    POTLOK:  cpu time    0.0510: real time    0.0503


--------------------------------------------------------------------------------------------------------


     LOOP+:  cpu time    7.3459: real time    7.4460
    4ORBIT:  cpu time    0.0000: real time    0.0000
 BZINTS: Fermi energy: -3.747462; 18.000000 electrons
         Band energy:-157.485031;  BLOECHL correction:  0.000000

 total amount of memory used by VASP MPI-rank0    53411. kBytes
=======================================================================

   base      :      30000. kBytes
   nonl-proj :       8807. kBytes
   fftplans  :       4304. kBytes
   grid      :       6871. kBytes
   one-center:         31. kBytes
   wavefun   :       3398. kBytes
 
  
  
 General timing and accounting informations for this job:
 ========================================================
  
                  Total CPU time used (sec):        8.466
                            User time (sec):        8.192
                          System time (sec):        0.274
                         Elapsed time (sec):        8.986
  
                   Maximum memory used (kb):       48688.
                   Average memory used (kb):           0.
  
                          Minor page faults:        13757
                          Major page faults:           18
                 Voluntary context switches:         2013
