perl: warning: Setting locale failed.
perl: warning: Please check that your locale settings:
	LANGUAGE = (unset),
	LC_ALL = (unset),
	LC_CTYPE = "UTF-8",
	LANG = "en_US.iso885915"
    are supported and installed on your system.
perl: warning: Falling back to the standard locale ("C").
Starting job 28531325 ("jobname") on c16-6 at Fri Nov 8 09:50:32 CET 2019
 running on    4 total cores
 distrk:  each k-point on    4 cores,    1 groups
 distr:  one band on    2 cores,    2 groups
 using from now: INCAR     
 vasp.5.4.4.18Apr17-6-g9f103f2a35 (build Jun 30 2017 11:15:00) complex          
  
 POSCAR found type information on POSCAR  Mo S 
 POSCAR found :  2 types and       6 ions
 scaLAPACK will be used
 LDA part: xc-table for Pade appr. of Perdew
 POSCAR, INCAR and KPOINTS ok, starting setup
 FFT: planning ...
 WAVECAR not read
 entering main loop
       N       E                     dE             d eps       ncg     rms          rms(c)
DAV:   1     0.285921998734E+03    0.28592E+03   -0.15972E+04   440   0.157E+03
  WARNING: DENTET: can't reach specified precision
  Number of Electrons is NELECT =   36.0264268042779     
DAV:   2    -0.153990357121E+02   -0.30132E+03   -0.29369E+03   662   0.275E+02
DAV:   3    -0.456263810131E+02   -0.30227E+02   -0.29986E+02   536   0.947E+01
DAV:   4    -0.467935706076E+02   -0.11672E+01   -0.11636E+01   642   0.196E+01
DAV:   5    -0.468213381828E+02   -0.27768E-01   -0.27755E-01   582   0.312E+00    0.973E+00
RMM:   6    -0.444296543020E+02    0.23917E+01   -0.24245E+01   495   0.197E+01    0.334E+00
RMM:   7    -0.436949693987E+02    0.73468E+00   -0.20670E+00   488   0.581E+00    0.178E+00
RMM:   8    -0.436289772862E+02    0.65992E-01   -0.78435E-01   520   0.328E+00    0.788E-01
RMM:   9    -0.436131554956E+02    0.15822E-01   -0.20951E-01   545   0.200E+00    0.428E-01
RMM:  10    -0.436038624609E+02    0.92930E-02   -0.22773E-02   537   0.771E-01    0.716E-02
RMM:  11    -0.436039485152E+02   -0.86054E-04   -0.62109E-03   600   0.249E-01    0.473E-02
RMM:  12    -0.436038954566E+02    0.53059E-04   -0.14830E-03   540   0.182E-01    0.354E-02
RMM:  13    -0.436038683290E+02    0.27128E-04   -0.21903E-04   564   0.668E-02    0.118E-02
RMM:  14    -0.436039675919E+02   -0.99263E-04   -0.16132E-04   555   0.508E-02    0.142E-02
RMM:  15    -0.436039929192E+02   -0.25327E-04   -0.11131E-04   506   0.499E-02    0.952E-03
RMM:  16    -0.436040183410E+02   -0.25422E-04   -0.25985E-05   355   0.238E-02    0.221E-03
RMM:  17    -0.436040775932E+02   -0.59252E-04   -0.82292E-06   341   0.137E-02    0.252E-03
RMM:  18    -0.436041093970E+02   -0.31804E-04   -0.32710E-06   302   0.831E-03    0.897E-04
RMM:  19    -0.436041281531E+02   -0.18756E-04   -0.27968E-06   212   0.613E-03    0.641E-04
RMM:  20    -0.436041319020E+02   -0.37489E-05   -0.94566E-07   178   0.492E-03
 Error reading item 'IVDW' from file INCAR
   1 F= -.43604132E+02 E0= -.43604132E+02  d E =0.000000E+00

Currently Loaded Modulefiles:
  1) Anaconda3/5.1.0       3) vesta/3.3.8           5) intel/2016.1
  2) gnuplot/5.0.4         4) imagemagick/6.7.9-0   6) vasp/5.4.1.Feb16

Job script resource usage:
       JobID  MaxVMSize     MaxRSS 
------------ ---------- ---------- 
28531325.ba+    216888K      2062K 

Job step resource usage:
       JobID    JobName  AllocCPUS  MaxVMSize     MaxRSS    Elapsed ExitCode 
------------ ---------- ---------- ---------- ---------- ---------- -------- 
28531325        jobname          4                         00:00:30      0:0 
28531325.0    pmi_proxy          1    279832K       523K   00:00:25      0:0 

Job 28531325 ("jobname") completed on c16-6 at Fri Nov 8 09:50:58 CET 2019
