perl: warning: Setting locale failed.
perl: warning: Please check that your locale settings:
	LANGUAGE = (unset),
	LC_ALL = (unset),
	LC_CTYPE = "UTF-8",
	LANG = "en_US.iso885915"
    are supported and installed on your system.
perl: warning: Falling back to the standard locale ("C").
Starting job 28533318 ("jobname") on c15-17 at Fri Nov 8 12:21:30 CET 2019
 running on    4 total cores
 distrk:  each k-point on    4 cores,    1 groups
 distr:  one band on    2 cores,    2 groups
 using from now: INCAR     
 vasp.5.4.4.18Apr17-6-g9f103f2a35 (build Jun 30 2017 11:15:00) complex          
  
 POSCAR found type information on POSCAR  Mo S 
 POSCAR found :  2 types and       3 ions
 scaLAPACK will be used
 LDA part: xc-table for Pade appr. of Perdew
 POSCAR, INCAR and KPOINTS ok, starting setup
 FFT: planning ...
 WAVECAR not read
 WARNING: random wavefunctions but no delay for mixing, default for NELMDL
 entering main loop
       N       E                     dE             d eps       ncg     rms          rms(c)
DAV:   1     0.133028992932E+03    0.13303E+03   -0.52714E+03   280   0.799E+02
DAV:   2    -0.596693098488E+01   -0.13900E+03   -0.13064E+03   492   0.158E+02
DAV:   3    -0.230413610659E+02   -0.17074E+02   -0.16902E+02   376   0.732E+01
DAV:   4    -0.233991034773E+02   -0.35774E+00   -0.35586E+00   378   0.132E+01
DAV:   5    -0.234076133123E+02   -0.85098E-02   -0.85072E-02   366   0.201E+00    0.689E+00
RMM:   6    -0.222464998166E+02    0.11611E+01   -0.54356E+00   295   0.124E+01    0.262E+00
RMM:   7    -0.218621505349E+02    0.38435E+00   -0.56005E-01   292   0.343E+00    0.151E+00
RMM:   8    -0.218018483480E+02    0.60302E-01   -0.23425E-01   308   0.252E+00    0.354E-01
RMM:   9    -0.217969686776E+02    0.48797E-02   -0.88435E-03   336   0.608E-01    0.954E-02
RMM:  10    -0.217962191491E+02    0.74953E-03   -0.16561E-03   332   0.218E-01    0.441E-02
RMM:  11    -0.217961496535E+02    0.69496E-04   -0.16112E-03   315   0.187E-01    0.527E-02
RMM:  12    -0.217959875013E+02    0.16215E-03   -0.51780E-04   304   0.128E-01    0.175E-02
RMM:  13    -0.217963247879E+02   -0.33729E-03   -0.16718E-04   282   0.722E-02    0.198E-02
RMM:  14    -0.217963830486E+02   -0.58261E-04   -0.25679E-05   256   0.277E-02    0.493E-03
RMM:  15    -0.217965090855E+02   -0.12604E-03   -0.11289E-05   192   0.171E-02    0.265E-03
RMM:  16    -0.217965503675E+02   -0.41282E-04   -0.27559E-06   174   0.844E-03    0.153E-03
RMM:  17    -0.217965816546E+02   -0.31287E-04   -0.22066E-06   138   0.687E-03    0.111E-03
RMM:  18    -0.217965861196E+02   -0.44650E-05   -0.43905E-07    81   0.417E-03
   1 F= -.22387384E+02 E0= -.22387384E+02  d E =0.000000E+00

Currently Loaded Modulefiles:
  1) Anaconda3/5.1.0       3) vesta/3.3.8           5) intel/2016.1
  2) gnuplot/5.0.4         4) imagemagick/6.7.9-0   6) vasp/5.4.1.Feb16

Job script resource usage:
       JobID  MaxVMSize     MaxRSS 
------------ ---------- ---------- 
28533318.ba+    216888K      2878K 

Job step resource usage:
       JobID    JobName  AllocCPUS  MaxVMSize     MaxRSS    Elapsed ExitCode 
------------ ---------- ---------- ---------- ---------- ---------- -------- 
28533318        jobname          4                         00:00:12      0:0 
28533318.0    pmi_proxy          1    279832K       519K   00:00:10      0:0 

Job 28533318 ("jobname") completed on c15-17 at Fri Nov 8 12:21:40 CET 2019
