perl: warning: Setting locale failed.
perl: warning: Please check that your locale settings:
	LANGUAGE = (unset),
	LC_ALL = (unset),
	LC_CTYPE = "UTF-8",
	LANG = "en_US.iso885915"
    are supported and installed on your system.
perl: warning: Falling back to the standard locale ("C").
Starting job 28532153 ("jobname") on c15-11 at Fri Nov 8 11:19:52 CET 2019
 running on    4 total cores
 distrk:  each k-point on    4 cores,    1 groups
 distr:  one band on    2 cores,    2 groups
 using from now: INCAR     
 vasp.5.4.4.18Apr17-6-g9f103f2a35 (build Jun 30 2017 11:15:00) complex          
  
 POSCAR found type information on POSCAR  Mo S 
 POSCAR found :  2 types and       3 ions
 scaLAPACK will be used
 LDA part: xc-table for Pade appr. of Perdew
 POSCAR, INCAR and KPOINTS ok, starting setup
 FFT: planning ...
 WAVECAR not read
 WARNING: random wavefunctions but no delay for mixing, default for NELMDL
 entering main loop
       N       E                     dE             d eps       ncg     rms          rms(c)
DAV:   1     0.151472496470E+03    0.15147E+03   -0.63151E+03   280   0.107E+03
DAV:   2    -0.335788876142E+01   -0.15483E+03   -0.14552E+03   500   0.173E+02
DAV:   3    -0.229445293521E+02   -0.19587E+02   -0.19358E+02   390   0.801E+01
DAV:   4    -0.233968931772E+02   -0.45236E+00   -0.44967E+00   358   0.149E+01
DAV:   5    -0.234095549276E+02   -0.12662E-01   -0.12650E-01   366   0.244E+00    0.689E+00
RMM:   6    -0.222482393696E+02    0.11613E+01   -0.54350E+00   296   0.125E+01    0.261E+00
RMM:   7    -0.218645764777E+02    0.38366E+00   -0.55649E-01   291   0.342E+00    0.150E+00
RMM:   8    -0.218043267898E+02    0.60250E-01   -0.23276E-01   306   0.253E+00    0.354E-01
RMM:   9    -0.217994393670E+02    0.48874E-02   -0.88463E-03   334   0.614E-01    0.956E-02
RMM:  10    -0.217986819367E+02    0.75743E-03   -0.17214E-03   334   0.222E-01    0.444E-02
RMM:  11    -0.217986166456E+02    0.65291E-04   -0.16552E-03   315   0.192E-01    0.544E-02
RMM:  12    -0.217984461101E+02    0.17054E-03   -0.52966E-04   304   0.130E-01    0.173E-02
RMM:  13    -0.217987837557E+02   -0.33765E-03   -0.16490E-04   281   0.731E-02    0.203E-02
RMM:  14    -0.217988383088E+02   -0.54553E-04   -0.26267E-05   259   0.282E-02    0.491E-03
RMM:  15    -0.217989650153E+02   -0.12671E-03   -0.11219E-05   193   0.175E-02    0.259E-03
RMM:  16    -0.217990057549E+02   -0.40740E-04   -0.27356E-06   173   0.844E-03    0.153E-03
RMM:  17    -0.217990365794E+02   -0.30825E-04   -0.24825E-06   148   0.703E-03    0.113E-03
RMM:  18    -0.217990413567E+02   -0.47773E-05   -0.40736E-07    87   0.397E-03
 Error reading item 'IVDW' from file INCAR
   1 F= -.21799041E+02 E0= -.21799041E+02  d E =0.000000E+00

Currently Loaded Modulefiles:
  1) Anaconda3/5.1.0       3) vesta/3.3.8           5) intel/2016.1
  2) gnuplot/5.0.4         4) imagemagick/6.7.9-0   6) vasp/5.4.1.Feb16

Job script resource usage:
       JobID  MaxVMSize     MaxRSS 
------------ ---------- ---------- 
28532153.ba+    216888K      2349K 

Job step resource usage:
       JobID    JobName  AllocCPUS  MaxVMSize     MaxRSS    Elapsed ExitCode 
------------ ---------- ---------- ---------- ---------- ---------- -------- 
28532153        jobname          4                         00:00:17      0:0 
28532153.0    pmi_proxy          1    279832K       524K   00:00:15      0:0 

Job 28532153 ("jobname") completed on c15-11 at Fri Nov 8 11:20:07 CET 2019
