<?xml version="1.0" encoding="ISO-8859-1"?>
<modeling>
 <generator>
  <i name="program" type="string">vasp </i>
  <i name="version" type="string">5.4.4.18Apr17-6-g9f103f2a35  </i>
  <i name="subversion" type="string">(build Jun 30 2017 11:15:00) complex            parallel </i>
  <i name="platform" type="string">STALLO_VASP_5.4.4 </i>
  <i name="date" type="string">2019 11 08 </i>
  <i name="time" type="string">12:21:31 </i>
 </generator>
 <incar>
  <i type="string" name="PREC">normal    ! low/normal/accurate</i>
  <i type="string" name="ALGO"> Fast      ! Algorithm for electronic re</i>
  <i type="int" name="ISPIN">     1</i>
  <i type="int" name="NELMIN">     4</i>
  <i name="EDIFF">      0.00001000</i>
  <i type="int" name="NSW">     0</i>
  <i name="ENCUT">    450.00000000</i>
  <i type="logical" name="LREAL"> F  </i>
  <i type="int" name="ISMEAR">    -5</i>
  <i name="SIGMA">      0.20000000</i>
  <i type="logical" name="LWAVE"> F  </i>
  <v type="int" name="KPOINT_BSE">    -1     0     0     0</v>
 </incar>
 <structure name="primitive_cell" >
  <crystal>
   <varray name="basis" >
    <v>       3.19031573       0.00000000       0.00000000 </v>
    <v>      -1.59515786       2.76289447       0.00000000 </v>
    <v>       0.00000000       0.00000000      30.87900430 </v>
   </varray>
   <i name="volume">    272.18315887 </i>
   <varray name="rec_basis" >
    <v>       0.31344860       0.18096963       0.00000000 </v>
    <v>       0.00000000       0.36193927       0.00000000 </v>
    <v>       0.00000000       0.00000000       0.03238446 </v>
   </varray>
  </crystal>
  <varray name="positions" >
   <v>       0.33333300      -0.33333300       0.12046214 </v>
   <v>      -0.33333400       0.33333300       0.17114009 </v>
   <v>      -0.33333300       0.33333300       0.06978420 </v>
  </varray>
 </structure>
 <varray name="primitive_index" >
  <v type="int" >        1 </v>
  <v type="int" >        3 </v>
  <v type="int" >        2 </v>
 </varray>
 <kpoints>
  <generation param="Gamma">
   <v type="int" name="divisions">       8        8        1 </v>
   <v name="usershift">      0.00000000       0.00000000       0.00000000 </v>
   <v name="genvec1">      0.12500000       0.00000000       0.00000000 </v>
   <v name="genvec2">      0.00000000       0.12500000       0.00000000 </v>
   <v name="genvec3">      0.00000000       0.00000000       1.00000000 </v>
   <v name="shift">      0.00000000       0.00000000       0.00000000 </v>
  </generation>
  <varray name="kpointlist" >
   <v>       0.00000000       0.00000000       0.00000000 </v>
   <v>       0.12500000      -0.00000000       0.00000000 </v>
   <v>       0.25000000      -0.00000000       0.00000000 </v>
   <v>       0.37500000      -0.00000000       0.00000000 </v>
   <v>       0.50000000      -0.00000000       0.00000000 </v>
   <v>       0.12500000       0.12500000       0.00000000 </v>
   <v>       0.25000000       0.12500000       0.00000000 </v>
   <v>       0.37500000       0.12500000       0.00000000 </v>
   <v>       0.25000000       0.25000000       0.00000000 </v>
   <v>       0.37500000       0.25000000       0.00000000 </v>
  </varray>
  <varray name="weights" >
   <v>       0.01562500 </v>
   <v>       0.09375000 </v>
   <v>       0.09375000 </v>
   <v>       0.09375000 </v>
   <v>       0.04687500 </v>
   <v>       0.09375000 </v>
   <v>       0.18750000 </v>
   <v>       0.18750000 </v>
   <v>       0.09375000 </v>
   <v>       0.09375000 </v>
  </varray>
  <varray name="tetrahedronlist"  type="int" >
   <v type="int" >       12        2        2        2        6 </v>
   <v type="int" >       12        1        2        2        2 </v>
   <v type="int" >        6        1        1        2        2 </v>
   <v type="int" >        6        2        2        6        6 </v>
   <v type="int" >       12        3        6        6        7 </v>
   <v type="int" >       12        2        3        6        6 </v>
   <v type="int" >       12        2        2        3        6 </v>
   <v type="int" >       12        3        6        7        7 </v>
   <v type="int" >       12        3        3        6        7 </v>
   <v type="int" >       12        2        3        3        6 </v>
   <v type="int" >       12        4        7        7        8 </v>
   <v type="int" >       12        3        4        7        7 </v>
   <v type="int" >       12        3        3        4        7 </v>
   <v type="int" >       12        4        7        8        8 </v>
   <v type="int" >       12        4        4        7        8 </v>
   <v type="int" >       12        3        4        4        7 </v>
   <v type="int" >       12        5        8        8        8 </v>
   <v type="int" >       12        4        5        8        8 </v>
   <v type="int" >       12        4        4        5        8 </v>
   <v type="int" >        6        5        5        8        8 </v>
   <v type="int" >       12        4        5        5        8 </v>
   <v type="int" >       12        7        7        7        9 </v>
   <v type="int" >       12        6        7        7        7 </v>
   <v type="int" >        6        6        6        7        7 </v>
   <v type="int" >        6        7        7        9        9 </v>
   <v type="int" >       12        8        9        9       10 </v>
   <v type="int" >       12        7        8        9        9 </v>
   <v type="int" >       12        7        7        8        9 </v>
   <v type="int" >       12        8        9       10       10 </v>
   <v type="int" >       12        8        8        9       10 </v>
   <v type="int" >       12        7        8        8        9 </v>
   <v type="int" >        6        8        8       10       10 </v>
   <v type="int" >       12        8        8        8       10 </v>
   <v type="int" >        6       10       10       10       10 </v>
   <v type="int" >       12        9       10       10       10 </v>
   <v type="int" >        6        9        9       10       10 </v>
  </varray>
  <i name="volumeweight">      0.00260417 </i>
 </kpoints>
 <parameters>
  <separator name="general" >
   <i type="string" name="SYSTEM">unknown system</i>
   <i type="logical" name="LCOMPAT"> F  </i>
  </separator>
  <separator name="electronic" >
   <i type="string" name="PREC">normal</i>
   <i name="ENMAX">    450.00000000</i>
   <i name="ENAUG">    345.27800000</i>
   <i name="EDIFF">      0.00001000</i>
   <i type="int" name="IALGO">    68</i>
   <i type="int" name="IWAVPR">    10</i>
   <i type="int" name="NBANDS">    14</i>
   <i name="NELECT">     18.00000000</i>
   <i type="int" name="TURBO">     0</i>
   <i type="int" name="IRESTART">     0</i>
   <i type="int" name="NREBOOT">     0</i>
   <i type="int" name="NMIN">     0</i>
   <i name="EREF">      0.00000000</i>
   <separator name="electronic smearing" >
    <i type="int" name="ISMEAR">    -5</i>
    <i name="SIGMA">      0.20000000</i>
    <i name="KSPACING">      0.50000000</i>
    <i type="logical" name="KGAMMA"> T  </i>
   </separator>
   <separator name="electronic projectors" >
    <i type="logical" name="LREAL"> F  </i>
    <v name="ROPT">      0.00000000      0.00000000</v>
    <i type="int" name="LMAXPAW">  -100</i>
    <i type="int" name="LMAXMIX">     2</i>
    <i type="logical" name="NLSPLINE"> F  </i>
   </separator>
   <separator name="electronic startup" >
    <i type="int" name="ISTART">     0</i>
    <i type="int" name="ICHARG">     2</i>
    <i type="int" name="INIWAV">     1</i>
   </separator>
   <separator name="electronic spin" >
    <i type="int" name="ISPIN">     1</i>
    <i type="logical" name="LNONCOLLINEAR"> F  </i>
    <v name="MAGMOM">      1.00000000      1.00000000      1.00000000</v>
    <i name="NUPDOWN">     -1.00000000</i>
    <i type="logical" name="LSORBIT"> F  </i>
    <v name="SAXIS">      0.00000000      0.00000000      1.00000000</v>
    <i type="logical" name="LSPIRAL"> F  </i>
    <v name="QSPIRAL">      0.00000000      0.00000000      0.00000000</v>
    <i type="logical" name="LZEROZ"> F  </i>
   </separator>
   <separator name="electronic exchange-correlation" >
    <i type="logical" name="LASPH"> F  </i>
    <i type="logical" name="LMETAGGA"> F  </i>
   </separator>
   <separator name="electronic convergence" >
    <i type="int" name="NELM">    60</i>
    <i type="int" name="NELMDL">     0</i>
    <i type="int" name="NELMIN">     4</i>
    <i name="ENINI">    450.00000000</i>
    <separator name="electronic convergence detail" >
     <i type="logical" name="LDIAG"> T  </i>
     <i type="logical" name="LSUBROT"> F  </i>
     <i name="WEIMIN">      0.00000000</i>
     <i name="EBREAK">      0.00000018</i>
     <i name="DEPER">      0.30000000</i>
     <i type="int" name="NRMM">     4</i>
     <i name="TIME">      0.40000000</i>
    </separator>
   </separator>
   <separator name="electronic mixer" >
    <i name="AMIX">      0.40000000</i>
    <i name="BMIX">      1.00000000</i>
    <i name="AMIN">      0.10000000</i>
    <i name="AMIX_MAG">      1.60000000</i>
    <i name="BMIX_MAG">      1.00000000</i>
    <separator name="electronic mixer details" >
     <i type="int" name="IMIX">     4</i>
     <i type="logical" name="MIXFIRST"> F  </i>
     <i type="int" name="MAXMIX">   -45</i>
     <i name="WC">    100.00000000</i>
     <i type="int" name="INIMIX">     1</i>
     <i type="int" name="MIXPRE">     1</i>
     <i type="int" name="MREMOVE">     5</i>
    </separator>
   </separator>
   <separator name="electronic dipolcorrection" >
    <i type="logical" name="LDIPOL"> F  </i>
    <i type="logical" name="LMONO"> F  </i>
    <i type="int" name="IDIPOL">     0</i>
    <i name="EPSILON">      1.00000000</i>
    <v name="DIPOL">   -100.00000000   -100.00000000   -100.00000000</v>
    <i name="EFIELD">      0.00000000</i>
   </separator>
  </separator>
  <separator name="grids" >
   <i type="int" name="NGX">    18</i>
   <i type="int" name="NGY">    18</i>
   <i type="int" name="NGZ">   160</i>
   <i type="int" name="NGXF">    36</i>
   <i type="int" name="NGYF">    36</i>
   <i type="int" name="NGZF">   320</i>
   <i type="logical" name="ADDGRID"> F  </i>
  </separator>
  <separator name="ionic" >
   <i type="int" name="NSW">     0</i>
   <i type="int" name="IBRION">    -1</i>
   <i type="int" name="MDALGO">     0</i>
   <i type="int" name="ISIF">     2</i>
   <i name="PSTRESS">      0.00000000</i>
   <i name="EDIFFG">      0.00010000</i>
   <i type="int" name="NFREE">     0</i>
   <i name="POTIM">      0.50000000</i>
   <i name="SMASS">     -3.00000000</i>
   <i name="SCALEE">      1.00000000</i>
  </separator>
  <separator name="ionic md" >
   <i name="TEBEG">      0.00010000</i>
   <i name="TEEND">      0.00010000</i>
   <i type="int" name="NBLOCK">     1</i>
   <i type="int" name="KBLOCK">     1</i>
   <i type="int" name="NPACO">   256</i>
   <i name="APACO">     16.00000000</i>
  </separator>
  <separator name="symmetry" >
   <i type="int" name="ISYM">     2</i>
   <i name="SYMPREC">      0.00001000</i>
  </separator>
  <separator name="dos" >
   <i type="int" name="LORBIT">     0</i>
   <v name="RWIGS">     -1.00000000     -1.00000000</v>
   <i type="int" name="NEDOS">   301</i>
   <i name="EMIN">     10.00000000</i>
   <i name="EMAX">    -10.00000000</i>
   <i name="EFERMI">      0.00000000</i>
  </separator>
  <separator name="writing" >
   <i type="int" name="NWRITE">     2</i>
   <i type="logical" name="LWAVE"> F  </i>
   <i type="logical" name="LDOWNSAMPLE"> F  </i>
   <i type="logical" name="LCHARG"> T  </i>
   <i type="logical" name="LPARD"> F  </i>
   <i type="logical" name="LVTOT"> F  </i>
   <i type="logical" name="LVHAR"> F  </i>
   <i type="logical" name="LELF"> F  </i>
   <i type="logical" name="LOPTICS"> F  </i>
   <v name="STM">      0.00000000      0.00000000      0.00000000      0.00000000      0.00000000      0.00000000      0.00000000</v>
  </separator>
  <separator name="performance" >
   <i type="int" name="NPAR">     2</i>
   <i type="int" name="NSIM">     4</i>
   <i type="int" name="NBLK">    -1</i>
   <i type="logical" name="LPLANE"> T  </i>
   <i type="logical" name="LSCALAPACK"> T  </i>
   <i type="logical" name="LSCAAWARE"> F  </i>
   <i type="logical" name="LSCALU"> F  </i>
   <i type="logical" name="LASYNC"> F  </i>
   <i type="logical" name="LORBITALREAL"> F  </i>
  </separator>
  <separator name="miscellaneous" >
   <i type="int" name="IDIOT">     3</i>
   <i type="int" name="ISPECIAL">     0</i>
   <i type="logical" name="LMUSIC"> F  </i>
   <v name="POMASS">     95.94000000     32.06600000</v>
   <v name="DARWINR">      0.00000000      0.00000000</v>
   <v name="DARWINV">      1.00000000      1.00000000</v>
   <i type="logical" name="LCORR"> T  </i>
  </separator>
  <i type="logical" name="GGA_COMPAT"> T  </i>
  <i type="logical" name="LBERRY"> F  </i>
  <i type="int" name="ICORELEVEL">     0</i>
  <i type="logical" name="LDAU"> F  </i>
  <i type="int" name="I_CONSTRAINED_M">     0</i>
  <separator name="electronic exchange-correlation" >
   <i type="string" name="GGA">--</i>
   <i type="int" name="VOSKOWN">     0</i>
   <i type="logical" name="LHFCALC"> F  </i>
   <i type="string" name="PRECFOCK"></i>
   <i type="logical" name="LSYMGRAD"> F  </i>
   <i type="logical" name="LHFONE"> F  </i>
   <i type="logical" name="LRHFCALC"> F  </i>
   <i type="logical" name="LTHOMAS"> F  </i>
   <i type="logical" name="LMODELHF"> F  </i>
   <i name="ENCUT4O">     -1.00000000</i>
   <i type="int" name="EXXOEP">     0</i>
   <i type="int" name="FOURORBIT">     0</i>
   <i name="AEXX">      0.00000000</i>
   <i name="HFALPHA">      0.00000000</i>
   <i name="MCALPHA">      0.00000000</i>
   <i name="ALDAX">      1.00000000</i>
   <i name="AGGAX">      1.00000000</i>
   <i name="ALDAC">      1.00000000</i>
   <i name="AGGAC">      1.00000000</i>
   <i type="int" name="NKREDX">     1</i>
   <i type="int" name="NKREDY">     1</i>
   <i type="int" name="NKREDZ">     1</i>
   <i type="logical" name="SHIFTRED"> F  </i>
   <i type="logical" name="ODDONLY"> F  </i>
   <i type="logical" name="EVENONLY"> F  </i>
   <i type="int" name="LMAXFOCK">     0</i>
   <i type="int" name="NMAXFOCKAE">     0</i>
   <i type="logical" name="LFOCKAEDFT"> F  </i>
   <i name="HFSCREEN">      0.00000000</i>
   <i name="HFSCREENC">      0.00000000</i>
   <i type="int" name="NBANDSGWLOW">     0</i>
  </separator>
  <separator name="vdW DFT" >
   <i type="logical" name="LUSE_VDW"> F  </i>
   <i name="Zab_VDW">     -0.84910000</i>
   <i name="PARAM1">      0.12340000</i>
   <i name="PARAM2">      1.00000000</i>
   <i name="PARAM3">      0.00000000</i>
  </separator>
  <separator name="model GW" >
   <i type="int" name="MODEL_GW">     0</i>
   <i name="MODEL_EPS0">     54.43663177</i>
   <i name="MODEL_ALPHA">      1.00000000</i>
  </separator>
  <separator name="linear response parameters" >
   <i type="logical" name="LEPSILON"> F  </i>
   <i type="logical" name="LRPA"> F  </i>
   <i type="logical" name="LNABLA"> F  </i>
   <i type="logical" name="LVEL"> F  </i>
   <i type="int" name="KINTER">     0</i>
   <i name="CSHIFT">      0.10000000</i>
   <i name="OMEGAMAX">     -1.00000000</i>
   <i name="DEG_THRESHOLD">      0.00200000</i>
   <i name="RTIME">     -0.10000000</i>
   <i name="WPLASMAI">      0.00000000</i>
   <v name="DFIELD">      0.00000000      0.00000000      0.00000000</v>
   <v name="WPLASMA">      0.00000000      0.00000000      0.00000000      0.00000000      0.00000000      0.00000000      0.00000000      0.00000000      0.00000000</v>
  </separator>
  <separator name="orbital magnetization" >
   <i type="logical" name="NUCIND"> F  </i>
   <v name="MAGPOS">      0.00000000      0.00000000      0.00000000</v>
   <i type="logical" name="LNICSALL"> T  </i>
   <i type="logical" name="ORBITALMAG"> F  </i>
   <i type="logical" name="LMAGBLOCH"> F  </i>
   <i type="logical" name="LCHIMAG"> F  </i>
   <i type="logical" name="LGAUGE"> T  </i>
   <i type="int" name="MAGATOM">     0</i>
   <v name="MAGDIPOL">      0.00000000      0.00000000      0.00000000</v>
   <v name="AVECCONST">      0.00000000      0.00000000      0.00000000</v>
  </separator>
  <separator name="response functions" >
   <i type="logical" name="LADDER"> F  </i>
   <i type="logical" name="LRPAFORCE"> F  </i>
   <i type="logical" name="LFXC"> F  </i>
   <i type="logical" name="LHARTREE"> T  </i>
   <i type="int" name="IBSE">     0</i>
   <v type="int" name="KPOINT">    -1     0     0     0</v>
   <i type="logical" name="LTCTE"> F  </i>
   <i type="logical" name="LTETE"> F  </i>
   <i type="logical" name="LTRIPLET"> F  </i>
   <i type="logical" name="LFXCEPS"> F  </i>
   <i type="logical" name="LFXHEG"> F  </i>
   <i type="int" name="NATURALO">     2</i>
   <i type="logical" name="L2ORDER"> F  </i>
   <i type="logical" name="LMP2LT"> F  </i>
   <i type="logical" name="LUSEW"> F  </i>
   <i name="ENCUTGW">     -2.00000000</i>
   <i name="ENCUTGWSOFT">     -2.00000000</i>
   <i name="ENCUTLF">     -1.00000000</i>
   <i type="int" name="LMAXMP2">    -1</i>
   <i name="SCISSOR">      0.00000000</i>
   <i type="int" name="NOMEGA">     0</i>
   <i type="int" name="NOMEGAR">     0</i>
   <i type="int" name="NBANDSGW">    -1</i>
   <i type="int" name="NBANDSO">    -1</i>
   <i type="int" name="NBANDSV">    -1</i>
   <i type="int" name="NELM">     1</i>
   <i type="int" name="NELMHF">     1</i>
   <i type="int" name="DIM">     3</i>
   <i type="int" name="ANTIRES">     0</i>
   <i name="OMEGAMAX">    -30.00000000</i>
   <i name="OMEGAMIN">    -30.00000000</i>
   <i name="OMEGATL">   -200.00000000</i>
   <i type="int" name="OMEGAGRID">   140</i>
   <i name="CSHIFT">     -0.10000000</i>
   <i type="logical" name="SELFENERGY"> F  </i>
   <i type="logical" name="LSPECTRAL"> F  </i>
   <i type="logical" name="LSPECTRALGW"> F  </i>
   <i type="logical" name="LSINGLES"> F  </i>
   <i type="logical" name="LFERMIGW"> F  </i>
   <i type="logical" name="ODDONLYGW"> F  </i>
   <i type="logical" name="EVENONLYGW"> F  </i>
   <i type="int" name="NKREDLFX">     1</i>
   <i type="int" name="NKREDLFY">     1</i>
   <i type="int" name="NKREDLFZ">     1</i>
   <i type="int" name="MAXMEM">  2800</i>
   <i type="int" name="TELESCOPE">     0</i>
   <i type="int" name="TAUPAR">     1</i>
   <i type="int" name="OMEGAPAR">    -1</i>
   <i name="LAMBDA">      1.00000000</i>
  </separator>
  <separator name="External order field" >
   <i name="OFIELD_KAPPA">      0.00000000</i>
   <v name="OFIELD_K">      0.00000000      0.00000000      0.00000000</v>
   <i name="OFIELD_Q6_NEAR">      0.00000000</i>
   <i name="OFIELD_Q6_FAR">      0.00000000</i>
   <i name="OFIELD_A">      0.00000000</i>
  </separator>
 </parameters>
 <atominfo>
  <atoms>       3 </atoms>
  <types>       2 </types>
  <array name="atoms" >
   <dimension dim="1">ion</dimension>
   <field type="string">element</field>
   <field type="int">atomtype</field>
   <set>
    <rc><c>Mo</c><c>   1</c></rc>
    <rc><c>S </c><c>   2</c></rc>
    <rc><c>S </c><c>   2</c></rc>
   </set>
  </array>
  <array name="atomtypes" >
   <dimension dim="1">type</dimension>
   <field type="int">atomspertype</field>
   <field type="string">element</field>
   <field>mass</field>
   <field>valence</field>
   <field type="string">pseudopotential</field>
   <set>
    <rc><c>   1</c><c>Mo</c><c>     95.94000000</c><c>      6.00000000</c><c> PAW_PBE Mo 08Apr2002                   </c></rc>
    <rc><c>   2</c><c>S </c><c>     32.06600000</c><c>      6.00000000</c><c>  PAW_PBE S 17Jan2003                   </c></rc>
   </set>
  </array>
 </atominfo>
 <structure name="initialpos" >
  <crystal>
   <varray name="basis" >
    <v>       3.19031573       0.00000000       0.00000000 </v>
    <v>      -1.59515786       2.76289447       0.00000000 </v>
    <v>       0.00000000       0.00000000      30.87900430 </v>
   </varray>
   <i name="volume">    272.18315887 </i>
   <varray name="rec_basis" >
    <v>       0.31344860       0.18096963       0.00000000 </v>
    <v>       0.00000000       0.36193927       0.00000000 </v>
    <v>       0.00000000       0.00000000       0.03238446 </v>
   </varray>
  </crystal>
  <varray name="positions" >
   <v>       0.33333300       0.66666700       0.12046214 </v>
   <v>       0.66666700       0.33333300       0.06978420 </v>
   <v>       0.66666600       0.33333300       0.17114009 </v>
  </varray>
 </structure>
 <calculation>
  <scstep>
   <time name="dav">    0.29    0.29</time>
   <time name="total">    0.35    0.38</time>
   <energy>
    <i name="alphaZ">     10.89288288 </i>
    <i name="ewald">   5368.65661653 </i>
    <i name="hartreedc">  -6042.21104469 </i>
    <i name="XCdc">    -36.31053806 </i>
    <i name="pawpsdc">    406.88651198 </i>
    <i name="pawaedc">   -329.34073203 </i>
    <i name="eentropy">      0.00000000 </i>
    <i name="bandstr">    -16.69981766 </i>
    <i name="atom">    771.15511399 </i>
    <i name="e_fr_energy">    133.02899293 </i>
    <i name="e_wo_entrp">    133.02899293 </i>
    <i name="e_0_energy">    133.02899293 </i>
   </energy>
  </scstep>
  <scstep>
   <time name="dav">    0.44    0.44</time>
   <time name="total">    0.44    0.44</time>
   <energy>
    <i name="e_fr_energy">     -5.96693098 </i>
    <i name="e_wo_entrp">     -5.96693098 </i>
    <i name="e_0_energy">     -5.96693098 </i>
   </energy>
  </scstep>
  <scstep>
   <time name="dav">    0.35    0.35</time>
   <time name="total">    0.35    0.35</time>
   <energy>
    <i name="e_fr_energy">    -23.04136107 </i>
    <i name="e_wo_entrp">    -23.04136107 </i>
    <i name="e_0_energy">    -23.04136107 </i>
   </energy>
  </scstep>
  <scstep>
   <time name="dav">    0.35    0.36</time>
   <time name="total">    0.35    0.36</time>
   <energy>
    <i name="e_fr_energy">    -23.39910348 </i>
    <i name="e_wo_entrp">    -23.39910348 </i>
    <i name="e_0_energy">    -23.39910348 </i>
   </energy>
  </scstep>
  <scstep>
   <time name="dav">    0.34    0.34</time>
   <time name="total">    0.37    0.37</time>
   <energy>
    <i name="e_fr_energy">    -23.40761331 </i>
    <i name="e_wo_entrp">    -23.40761331 </i>
    <i name="e_0_energy">    -23.40761331 </i>
   </energy>
  </scstep>
  <scstep>
   <time name="diag">    0.06    0.06</time>
   <time name="diis">    0.25    0.25</time>
   <time name="orth">    0.00    0.01</time>
   <time name="total">    0.39    0.39</time>
   <energy>
    <i name="e_fr_energy">    -22.24649982 </i>
    <i name="e_wo_entrp">    -22.24649982 </i>
    <i name="e_0_energy">    -22.24649982 </i>
   </energy>
  </scstep>
  <scstep>
   <time name="diag">    0.05    0.06</time>
   <time name="diis">    0.24    0.24</time>
   <time name="orth">    0.00    0.01</time>
   <time name="total">    0.38    0.38</time>
   <energy>
    <i name="e_fr_energy">    -21.86215053 </i>
    <i name="e_wo_entrp">    -21.86215053 </i>
    <i name="e_0_energy">    -21.86215053 </i>
   </energy>
  </scstep>
  <scstep>
   <time name="diag">    0.06    0.06</time>
   <time name="diis">    0.25    0.25</time>
   <time name="orth">    0.01    0.01</time>
   <time name="total">    0.39    0.39</time>
   <energy>
    <i name="e_fr_energy">    -21.80184835 </i>
    <i name="e_wo_entrp">    -21.80184835 </i>
    <i name="e_0_energy">    -21.80184835 </i>
   </energy>
  </scstep>
  <scstep>
   <time name="diag">    0.06    0.06</time>
   <time name="diis">    0.27    0.27</time>
   <time name="orth">    0.00    0.01</time>
   <time name="total">    0.41    0.42</time>
   <energy>
    <i name="e_fr_energy">    -21.79696868 </i>
    <i name="e_wo_entrp">    -21.79696868 </i>
    <i name="e_0_energy">    -21.79696868 </i>
   </energy>
  </scstep>
  <scstep>
   <time name="diag">    0.06    0.06</time>
   <time name="diis">    0.26    0.27</time>
   <time name="orth">    0.01    0.01</time>
   <time name="total">    0.41    0.41</time>
   <energy>
    <i name="e_fr_energy">    -21.79621915 </i>
    <i name="e_wo_entrp">    -21.79621915 </i>
    <i name="e_0_energy">    -21.79621915 </i>
   </energy>
  </scstep>
  <scstep>
   <time name="diag">    0.06    0.06</time>
   <time name="diis">    0.25    0.25</time>
   <time name="orth">    0.00    0.01</time>
   <time name="total">    0.40    0.40</time>
   <energy>
    <i name="e_fr_energy">    -21.79614965 </i>
    <i name="e_wo_entrp">    -21.79614965 </i>
    <i name="e_0_energy">    -21.79614965 </i>
   </energy>
  </scstep>
  <scstep>
   <time name="diag">    0.06    0.06</time>
   <time name="diis">    0.25    0.25</time>
   <time name="orth">    0.00    0.01</time>
   <time name="total">    0.39    0.39</time>
   <energy>
    <i name="e_fr_energy">    -21.79598750 </i>
    <i name="e_wo_entrp">    -21.79598750 </i>
    <i name="e_0_energy">    -21.79598750 </i>
   </energy>
  </scstep>
  <scstep>
   <time name="diag">    0.06    0.06</time>
   <time name="diis">    0.23    0.23</time>
   <time name="orth">    0.00    0.01</time>
   <time name="total">    0.37    0.37</time>
   <energy>
    <i name="e_fr_energy">    -21.79632479 </i>
    <i name="e_wo_entrp">    -21.79632479 </i>
    <i name="e_0_energy">    -21.79632479 </i>
   </energy>
  </scstep>
  <scstep>
   <time name="diag">    0.06    0.06</time>
   <time name="diis">    0.22    0.23</time>
   <time name="orth">    0.01    0.01</time>
   <time name="total">    0.37    0.37</time>
   <energy>
    <i name="e_fr_energy">    -21.79638305 </i>
    <i name="e_wo_entrp">    -21.79638305 </i>
    <i name="e_0_energy">    -21.79638305 </i>
   </energy>
  </scstep>
  <scstep>
   <time name="diag">    0.05    0.06</time>
   <time name="diis">    0.18    0.18</time>
   <time name="orth">    0.00    0.01</time>
   <time name="total">    0.32    0.32</time>
   <energy>
    <i name="e_fr_energy">    -21.79650909 </i>
    <i name="e_wo_entrp">    -21.79650909 </i>
    <i name="e_0_energy">    -21.79650909 </i>
   </energy>
  </scstep>
  <scstep>
   <time name="diag">    0.05    0.06</time>
   <time name="diis">    0.16    0.16</time>
   <time name="orth">    0.00    0.01</time>
   <time name="total">    0.30    0.30</time>
   <energy>
    <i name="e_fr_energy">    -21.79655037 </i>
    <i name="e_wo_entrp">    -21.79655037 </i>
    <i name="e_0_energy">    -21.79655037 </i>
   </energy>
  </scstep>
  <scstep>
   <time name="diag">    0.05    0.06</time>
   <time name="diis">    0.14    0.14</time>
   <time name="orth">    0.00    0.01</time>
   <time name="total">    0.28    0.28</time>
   <energy>
    <i name="e_fr_energy">    -21.79658165 </i>
    <i name="e_wo_entrp">    -21.79658165 </i>
    <i name="e_0_energy">    -21.79658165 </i>
   </energy>
  </scstep>
  <scstep>
   <time name="diag">    0.05    0.05</time>
   <time name="diis">    0.13    0.13</time>
   <time name="orth">    0.00    0.01</time>
   <time name="total">    0.24    0.24</time>
   <energy>
    <i name="alphaZ">     10.89288288 </i>
    <i name="ewald">   5368.65661653 </i>
    <i name="hartreedc">  -6055.62440329 </i>
    <i name="XCdc">    -35.20086509 </i>
    <i name="pawpsdc">    472.18526034 </i>
    <i name="pawaedc">   -396.37616025 </i>
    <i name="eentropy">      0.00000000 </i>
    <i name="bandstr">   -157.48503122 </i>
    <i name="atom">    771.15511399 </i>
    <i name="e_fr_energy">    -21.79658612 </i>
    <i name="e_wo_entrp">    -21.79658612 </i>
    <i name="e_0_energy">    -21.79658612 </i>
   </energy>
  </scstep>
  <structure>
   <crystal>
    <varray name="basis" >
     <v>       3.19031573       0.00000000       0.00000000 </v>
     <v>      -1.59515786       2.76289447       0.00000000 </v>
     <v>       0.00000000       0.00000000      30.87900430 </v>
    </varray>
    <i name="volume">    272.18315887 </i>
    <varray name="rec_basis" >
     <v>       0.31344860       0.18096963       0.00000000 </v>
     <v>       0.00000000       0.36193927       0.00000000 </v>
     <v>       0.00000000       0.00000000       0.03238446 </v>
    </varray>
   </crystal>
   <varray name="positions" >
    <v>       0.33333300       0.66666700       0.12046214 </v>
    <v>       0.66666700       0.33333300       0.06978420 </v>
    <v>       0.66666600       0.33333300       0.17114009 </v>
   </varray>
  </structure>
  <varray name="forces" >
   <v>       0.00000000      -0.00000000      -0.00000000 </v>
   <v>      -0.00000000       0.00000000       0.11584738 </v>
   <v>      -0.00000000       0.00000000      -0.11584738 </v>
  </varray>
  <varray name="stress" >
   <v>      -0.83796142       0.00000000       0.00000000 </v>
   <v>       0.00000000      -0.83796142       0.00000000 </v>
   <v>      -0.00000000       0.00000000      -2.24808838 </v>
  </varray>
  <energy>
   <i name="e_fr_energy">    -22.38738434 </i>
   <i name="e_wo_entrp">    -22.38738434 </i>
   <i name="e_0_energy">      0.00000000 </i>
  </energy>
  <time name="totalsc">    7.35    7.45</time>
  <eigenvalues>
   <array>
    <dimension dim="1">band</dimension>
    <dimension dim="2">kpoint</dimension>
    <dimension dim="3">spin</dimension>
    <field>eigene</field>
    <field>occ</field>
    <set>
     <set comment="spin 1">
      <set comment="kpoint 1">
       <r>  -17.7885    1.0000 </r>
       <r>  -16.5804    1.0000 </r>
       <r>   -9.3089    1.0000 </r>
       <r>   -6.3481    1.0000 </r>
       <r>   -6.3481    1.0000 </r>
       <r>   -5.4868    1.0000 </r>
       <r>   -5.2425    1.0000 </r>
       <r>   -5.2425    1.0000 </r>
       <r>   -3.7667    1.0000 </r>
       <r>   -0.9950    0.0000 </r>
       <r>   -0.9950    0.0000 </r>
       <r>   -0.7712    0.0000 </r>
       <r>   -0.7712    0.0000 </r>
       <r>    1.6639    0.0000 </r>
      </set>
      <set comment="kpoint 2">
       <r>  -17.5743    1.0000 </r>
       <r>  -16.4781    1.0000 </r>
       <r>   -9.0644    1.0000 </r>
       <r>   -6.8115    1.0000 </r>
       <r>   -6.2948    1.0000 </r>
       <r>   -6.1137    1.0000 </r>
       <r>   -5.5782    1.0000 </r>
       <r>   -4.8093    1.0000 </r>
       <r>   -3.9050    1.0000 </r>
       <r>   -1.2751    0.0000 </r>
       <r>   -1.2093    0.0000 </r>
       <r>   -1.0079    0.0000 </r>
       <r>   -0.6402    0.0000 </r>
       <r>    2.0341    0.0000 </r>
      </set>
      <set comment="kpoint 3">
       <r>  -17.0056    1.0000 </r>
       <r>  -16.2092    1.0000 </r>
       <r>   -8.6982    1.0000 </r>
       <r>   -7.5381    1.0000 </r>
       <r>   -7.2756    1.0000 </r>
       <r>   -6.2132    1.0000 </r>
       <r>   -5.5266    1.0000 </r>
       <r>   -5.0609    1.0000 </r>
       <r>   -4.4729    1.0000 </r>
       <r>   -1.5993    0.0000 </r>
       <r>   -1.4226    0.0000 </r>
       <r>   -0.8806    0.0000 </r>
       <r>   -0.0232    0.0000 </r>
       <r>    2.8492    0.0000 </r>
      </set>
      <set comment="kpoint 4">
       <r>  -16.3304    1.0000 </r>
       <r>  -15.9007    1.0000 </r>
       <r>   -9.1355    1.0000 </r>
       <r>   -8.1430    1.0000 </r>
       <r>   -7.6709    1.0000 </r>
       <r>   -6.7105    1.0000 </r>
       <r>   -5.4702    1.0000 </r>
       <r>   -4.9360    1.0000 </r>
       <r>   -4.6681    1.0000 </r>
       <r>   -1.6042    0.0000 </r>
       <r>   -1.3254    0.0000 </r>
       <r>   -0.1621    0.0000 </r>
       <r>    0.3701    0.0000 </r>
       <r>    3.3764    0.0000 </r>
      </set>
      <set comment="kpoint 5">
       <r>  -16.0021    1.0000 </r>
       <r>  -15.7574    1.0000 </r>
       <r>   -9.4681    1.0000 </r>
       <r>   -8.5079    1.0000 </r>
       <r>   -7.7972    1.0000 </r>
       <r>   -6.8911    1.0000 </r>
       <r>   -5.6090    1.0000 </r>
       <r>   -4.7089    1.0000 </r>
       <r>   -4.3872    1.0000 </r>
       <r>   -1.5820    0.0000 </r>
       <r>   -1.0660    0.0000 </r>
       <r>    0.1365    0.0000 </r>
       <r>    0.4855    0.0000 </r>
       <r>    2.4157    0.0000 </r>
      </set>
      <set comment="kpoint 6">
       <r>  -17.1815    1.0000 </r>
       <r>  -16.2910    1.0000 </r>
       <r>   -8.7171    1.0000 </r>
       <r>   -7.3755    1.0000 </r>
       <r>   -6.8569    1.0000 </r>
       <r>   -6.3921    1.0000 </r>
       <r>   -5.7742    1.0000 </r>
       <r>   -4.6748    1.0000 </r>
       <r>   -4.2769    1.0000 </r>
       <r>   -1.6744    0.0000 </r>
       <r>   -1.2962    0.0000 </r>
       <r>   -1.2844    0.0000 </r>
       <r>   -0.0454    0.0000 </r>
       <r>    2.6271    0.0000 </r>
      </set>
      <set comment="kpoint 7">
       <r>  -16.5479    1.0000 </r>
       <r>  -15.9924    1.0000 </r>
       <r>   -8.7798    1.0000 </r>
       <r>   -7.8022    1.0000 </r>
       <r>   -7.5391    1.0000 </r>
       <r>   -6.8964    1.0000 </r>
       <r>   -5.6748    1.0000 </r>
       <r>   -5.0370    1.0000 </r>
       <r>   -4.5604    1.0000 </r>
       <r>   -1.7578    0.0000 </r>
       <r>   -1.3094    0.0000 </r>
       <r>   -0.8145    0.0000 </r>
       <r>    0.4624    0.0000 </r>
       <r>    3.5959    0.0000 </r>
      </set>
      <set comment="kpoint 8">
       <r>  -16.0174    1.0000 </r>
       <r>  -15.7484    1.0000 </r>
       <r>   -9.1808    1.0000 </r>
       <r>   -8.5652    1.0000 </r>
       <r>   -7.6695    1.0000 </r>
       <r>   -6.9132    1.0000 </r>
       <r>   -5.6596    1.0000 </r>
       <r>   -5.5188    1.0000 </r>
       <r>   -4.2335    1.0000 </r>
       <r>   -1.5631    0.0000 </r>
       <r>   -1.0528    0.0000 </r>
       <r>   -0.1927    0.0000 </r>
       <r>    0.4961    0.0000 </r>
       <r>    2.9426    0.0000 </r>
      </set>
      <set comment="kpoint 9">
       <r>  -16.0323    1.0000 </r>
       <r>  -15.7395    1.0000 </r>
       <r>   -8.8204    1.0000 </r>
       <r>   -8.6159    1.0000 </r>
       <r>   -7.3424    1.0000 </r>
       <r>   -6.9615    1.0000 </r>
       <r>   -6.6424    1.0000 </r>
       <r>   -5.3854    1.0000 </r>
       <r>   -4.2624    1.0000 </r>
       <r>   -1.6141    0.0000 </r>
       <r>   -1.0031    0.0000 </r>
       <r>   -0.6913    0.0000 </r>
       <r>    0.7841    0.0000 </r>
       <r>    3.7749    0.0000 </r>
      </set>
      <set comment="kpoint 10">
       <r>  -15.7974    1.0000 </r>
       <r>  -15.6203    1.0000 </r>
       <r>   -9.0003    1.0000 </r>
       <r>   -8.6514    1.0000 </r>
       <r>   -7.6266    1.0000 </r>
       <r>   -6.9640    1.0000 </r>
       <r>   -6.7339    1.0000 </r>
       <r>   -5.7717    1.0000 </r>
       <r>   -3.8950    1.0000 </r>
       <r>   -1.9398    0.0000 </r>
       <r>   -0.6329    0.0000 </r>
       <r>   -0.4525    0.0000 </r>
       <r>    0.9294    0.0000 </r>
       <r>    3.1856    0.0000 </r>
      </set>
     </set>
    </set>
   </array>
  </eigenvalues>
  <separator name="orbital magnetization" >
   <v name="MAGDIPOLOUT">      0.00000000      0.00000000      0.00000000</v>
  </separator>
  <dos>
   <i name="efermi">     -3.74746157 </i>
   <total>
    <array>
     <dimension dim="1">gridpoints</dimension>
     <dimension dim="2">spin</dimension>
     <field>energy</field>
     <field>total</field>
     <field>integrated</field>
     <set>
      <set comment="spin 1">
       <r>   -19.7885     0.0000     0.0000 </r>
       <r>   -19.7033     0.0000     0.0000 </r>
       <r>   -19.6181     0.0000     0.0000 </r>
       <r>   -19.5329     0.0000     0.0000 </r>
       <r>   -19.4476     0.0000     0.0000 </r>
       <r>   -19.3624     0.0000     0.0000 </r>
       <r>   -19.2772     0.0000     0.0000 </r>
       <r>   -19.1920     0.0000     0.0000 </r>
       <r>   -19.1068     0.0000     0.0000 </r>
       <r>   -19.0216     0.0000     0.0000 </r>
       <r>   -18.9364     0.0000     0.0000 </r>
       <r>   -18.8512     0.0000     0.0000 </r>
       <r>   -18.7660     0.0000     0.0000 </r>
       <r>   -18.6807     0.0000     0.0000 </r>
       <r>   -18.5955     0.0000     0.0000 </r>
       <r>   -18.5103     0.0000     0.0000 </r>
       <r>   -18.4251     0.0000     0.0000 </r>
       <r>   -18.3399     0.0000     0.0000 </r>
       <r>   -18.2547     0.0000     0.0000 </r>
       <r>   -18.1695     0.0000     0.0000 </r>
       <r>   -18.0843     0.0000     0.0000 </r>
       <r>   -17.9991     0.0000     0.0000 </r>
       <r>   -17.9138     0.0000     0.0000 </r>
       <r>   -17.8286     0.0000     0.0000 </r>
       <r>   -17.7434     0.1843     0.0042 </r>
       <r>   -17.6582     0.5327     0.0347 </r>
       <r>   -17.5730     0.4779     0.0944 </r>
       <r>   -17.4878     0.5174     0.1368 </r>
       <r>   -17.4026     0.5569     0.1826 </r>
       <r>   -17.3174     0.5964     0.2317 </r>
       <r>   -17.2321     0.6358     0.2842 </r>
       <r>   -17.1469     0.6622     0.3398 </r>
       <r>   -17.0617     0.6693     0.3966 </r>
       <r>   -16.9765     0.6853     0.4540 </r>
       <r>   -16.8913     0.7183     0.5138 </r>
       <r>   -16.8061     0.7513     0.5764 </r>
       <r>   -16.7209     0.7843     0.6419 </r>
       <r>   -16.6357     0.8173     0.7101 </r>
       <r>   -16.5505     1.3867     0.7892 </r>
       <r>   -16.4652     2.0609     0.9707 </r>
       <r>   -16.3800     2.3558     1.1589 </r>
       <r>   -16.2948     2.6754     1.3726 </r>
       <r>   -16.2096     2.8916     1.6101 </r>
       <r>   -16.1244     3.2296     1.8709 </r>
       <r>   -16.0392     3.5682     2.1605 </r>
       <r>   -15.9540     4.2219     2.6172 </r>
       <r>   -15.8688     4.2438     2.9748 </r>
       <r>   -15.7836     3.7654     3.3664 </r>
       <r>   -15.6983     3.3505     3.7766 </r>
       <r>   -15.6131     0.0000     4.0000 </r>
       <r>   -15.5279     0.0000     4.0000 </r>
       <r>   -15.4427     0.0000     4.0000 </r>
       <r>   -15.3575     0.0000     4.0000 </r>
       <r>   -15.2723     0.0000     4.0000 </r>
       <r>   -15.1871     0.0000     4.0000 </r>
       <r>   -15.1019     0.0000     4.0000 </r>
       <r>   -15.0167     0.0000     4.0000 </r>
       <r>   -14.9314     0.0000     4.0000 </r>
       <r>   -14.8462     0.0000     4.0000 </r>
       <r>   -14.7610     0.0000     4.0000 </r>
       <r>   -14.6758     0.0000     4.0000 </r>
       <r>   -14.5906     0.0000     4.0000 </r>
       <r>   -14.5054     0.0000     4.0000 </r>
       <r>   -14.4202     0.0000     4.0000 </r>
       <r>   -14.3350     0.0000     4.0000 </r>
       <r>   -14.2498     0.0000     4.0000 </r>
       <r>   -14.1645     0.0000     4.0000 </r>
       <r>   -14.0793     0.0000     4.0000 </r>
       <r>   -13.9941     0.0000     4.0000 </r>
       <r>   -13.9089     0.0000     4.0000 </r>
       <r>   -13.8237     0.0000     4.0000 </r>
       <r>   -13.7385     0.0000     4.0000 </r>
       <r>   -13.6533     0.0000     4.0000 </r>
       <r>   -13.5681     0.0000     4.0000 </r>
       <r>   -13.4829     0.0000     4.0000 </r>
       <r>   -13.3976     0.0000     4.0000 </r>
       <r>   -13.3124     0.0000     4.0000 </r>
       <r>   -13.2272     0.0000     4.0000 </r>
       <r>   -13.1420     0.0000     4.0000 </r>
       <r>   -13.0568     0.0000     4.0000 </r>
       <r>   -12.9716     0.0000     4.0000 </r>
       <r>   -12.8864     0.0000     4.0000 </r>
       <r>   -12.8012     0.0000     4.0000 </r>
       <r>   -12.7160     0.0000     4.0000 </r>
       <r>   -12.6307     0.0000     4.0000 </r>
       <r>   -12.5455     0.0000     4.0000 </r>
       <r>   -12.4603     0.0000     4.0000 </r>
       <r>   -12.3751     0.0000     4.0000 </r>
       <r>   -12.2899     0.0000     4.0000 </r>
       <r>   -12.2047     0.0000     4.0000 </r>
       <r>   -12.1195     0.0000     4.0000 </r>
       <r>   -12.0343     0.0000     4.0000 </r>
       <r>   -11.9490     0.0000     4.0000 </r>
       <r>   -11.8638     0.0000     4.0000 </r>
       <r>   -11.7786     0.0000     4.0000 </r>
       <r>   -11.6934     0.0000     4.0000 </r>
       <r>   -11.6082     0.0000     4.0000 </r>
       <r>   -11.5230     0.0000     4.0000 </r>
       <r>   -11.4378     0.0000     4.0000 </r>
       <r>   -11.3526     0.0000     4.0000 </r>
       <r>   -11.2674     0.0000     4.0000 </r>
       <r>   -11.1821     0.0000     4.0000 </r>
       <r>   -11.0969     0.0000     4.0000 </r>
       <r>   -11.0117     0.0000     4.0000 </r>
       <r>   -10.9265     0.0000     4.0000 </r>
       <r>   -10.8413     0.0000     4.0000 </r>
       <r>   -10.7561     0.0000     4.0000 </r>
       <r>   -10.6709     0.0000     4.0000 </r>
       <r>   -10.5857     0.0000     4.0000 </r>
       <r>   -10.5005     0.0000     4.0000 </r>
       <r>   -10.4152     0.0000     4.0000 </r>
       <r>   -10.3300     0.0000     4.0000 </r>
       <r>   -10.2448     0.0000     4.0000 </r>
       <r>   -10.1596     0.0000     4.0000 </r>
       <r>   -10.0744     0.0000     4.0000 </r>
       <r>    -9.9892     0.0000     4.0000 </r>
       <r>    -9.9040     0.0000     4.0000 </r>
       <r>    -9.8188     0.0000     4.0000 </r>
       <r>    -9.7336     0.0000     4.0000 </r>
       <r>    -9.6483     0.0000     4.0000 </r>
       <r>    -9.5631     0.0000     4.0000 </r>
       <r>    -9.4779     0.0000     4.0000 </r>
       <r>    -9.3927     0.4672     4.0176 </r>
       <r>    -9.3075     0.9994     4.0799 </r>
       <r>    -9.2223     1.7943     4.1989 </r>
       <r>    -9.1371     2.6336     4.3951 </r>
       <r>    -9.0519     2.8488     4.6361 </r>
       <r>    -8.9667     3.8226     4.9523 </r>
       <r>    -8.8814     3.1579     5.2497 </r>
       <r>    -8.7962     4.8989     5.5195 </r>
       <r>    -8.7110     3.9541     5.9747 </r>
       <r>    -8.6258     5.2547     6.1662 </r>
       <r>    -8.5406     2.7465     6.4982 </r>
       <r>    -8.4554     1.3281     6.6381 </r>
       <r>    -8.3702     1.1926     6.7455 </r>
       <r>    -8.2850     1.0570     6.8413 </r>
       <r>    -8.1998     0.9215     6.9256 </r>
       <r>    -8.1145     0.8328     6.9990 </r>
       <r>    -8.0293     0.8376     7.0702 </r>
       <r>    -7.9441     0.8424     7.1418 </r>
       <r>    -7.8589     0.8471     7.2137 </r>
       <r>    -7.7737     1.8744     7.3016 </r>
       <r>    -7.6885     4.8313     7.5873 </r>
       <r>    -7.6033     5.1765     8.1212 </r>
       <r>    -7.5181     5.1547     8.5416 </r>
       <r>    -7.4328     3.2631     8.9003 </r>
       <r>    -7.3476     1.4533     9.0989 </r>
       <r>    -7.2624     1.1871     9.2073 </r>
       <r>    -7.1772     1.0909     9.3043 </r>
       <r>    -7.0920     0.9948     9.3932 </r>
       <r>    -7.0068     0.8986     9.4738 </r>
       <r>    -6.9216    11.6779    10.0489 </r>
       <r>    -6.8364     3.8342    10.6353 </r>
       <r>    -6.7512     2.3978    10.9025 </r>
       <r>    -6.6659     2.3936    11.1860 </r>
       <r>    -6.5807     1.8385    11.3526 </r>
       <r>    -6.4955     1.7269    11.5045 </r>
       <r>    -6.4103     1.6152    11.6469 </r>
       <r>    -6.3251     3.4794    11.8121 </r>
       <r>    -6.2399     2.1512    12.0594 </r>
       <r>    -6.1547     1.6891    12.2362 </r>
       <r>    -6.0695     0.8722    12.3351 </r>
       <r>    -5.9843     0.8658    12.4091 </r>
       <r>    -5.8990     0.8593    12.4826 </r>
       <r>    -5.8138     0.8529    12.5556 </r>
       <r>    -5.7286     3.7020    12.7338 </r>
       <r>    -5.6434     9.3327    13.2436 </r>
       <r>    -5.5582     7.0221    13.9604 </r>
       <r>    -5.4730     1.8733    14.3478 </r>
       <r>    -5.3878     1.4996    14.4849 </r>
       <r>    -5.3026     1.4514    14.6105 </r>
       <r>    -5.2174     1.4750    14.7331 </r>
       <r>    -5.1321     1.6585    14.8667 </r>
       <r>    -5.0469     4.2171    15.0323 </r>
       <r>    -4.9617     3.2856    15.4289 </r>
       <r>    -4.8765     2.2962    15.6412 </r>
       <r>    -4.7913     2.7197    15.8448 </r>
       <r>    -4.7061     0.6793    15.9894 </r>
       <r>    -4.6209     1.3656    16.0322 </r>
       <r>    -4.5357     4.2324    16.2746 </r>
       <r>    -4.4505     3.7130    16.6107 </r>
       <r>    -4.3652     3.3950    16.9140 </r>
       <r>    -4.2800     3.0294    17.1878 </r>
       <r>    -4.1948     2.1142    17.4116 </r>
       <r>    -4.1096     1.8005    17.5784 </r>
       <r>    -4.0244     1.4868    17.7185 </r>
       <r>    -3.9392     1.1732    17.8318 </r>
       <r>    -3.8540     0.8549    17.9627 </r>
       <r>    -3.7688     0.0206    18.0000 </r>
       <r>    -3.6836     0.0000    18.0000 </r>
       <r>    -3.5983     0.0000    18.0000 </r>
       <r>    -3.5131     0.0000    18.0000 </r>
       <r>    -3.4279     0.0000    18.0000 </r>
       <r>    -3.3427     0.0000    18.0000 </r>
       <r>    -3.2575     0.0000    18.0000 </r>
       <r>    -3.1723     0.0000    18.0000 </r>
       <r>    -3.0871     0.0000    18.0000 </r>
       <r>    -3.0019     0.0000    18.0000 </r>
       <r>    -2.9167     0.0000    18.0000 </r>
       <r>    -2.8314     0.0000    18.0000 </r>
       <r>    -2.7462     0.0000    18.0000 </r>
       <r>    -2.6610     0.0000    18.0000 </r>
       <r>    -2.5758     0.0000    18.0000 </r>
       <r>    -2.4906     0.0000    18.0000 </r>
       <r>    -2.4054     0.0000    18.0000 </r>
       <r>    -2.3202     0.0000    18.0000 </r>
       <r>    -2.2350     0.0000    18.0000 </r>
       <r>    -2.1497     0.0000    18.0000 </r>
       <r>    -2.0645     0.0000    18.0000 </r>
       <r>    -1.9793     0.0000    18.0000 </r>
       <r>    -1.8941     0.6948    18.0602 </r>
       <r>    -1.8089     0.9173    18.1289 </r>
       <r>    -1.7237     5.8411    18.3572 </r>
       <r>    -1.6385     8.2434    18.9744 </r>
       <r>    -1.5533     0.9483    19.7090 </r>
       <r>    -1.4681     0.8016    19.7836 </r>
       <r>    -1.3828     3.6042    19.9044 </r>
       <r>    -1.2976     6.2532    20.5074 </r>
       <r>    -1.2124     5.6212    20.9346 </r>
       <r>    -1.1272     4.7808    21.3282 </r>
       <r>    -1.0420     4.0626    21.8260 </r>
       <r>    -0.9568     3.2920    22.1419 </r>
       <r>    -0.8716     2.4563    22.3865 </r>
       <r>    -0.7864     2.7187    22.5939 </r>
       <r>    -0.7012     2.6283    22.8141 </r>
       <r>    -0.6159     1.8708    23.0723 </r>
       <r>    -0.5307     2.3687    23.2529 </r>
       <r>    -0.4455     2.0360    23.5016 </r>
       <r>    -0.3603     1.9755    23.6725 </r>
       <r>    -0.2751     1.9150    23.8383 </r>
       <r>    -0.1899     1.7505    23.9985 </r>
       <r>    -0.1047     1.9158    24.1718 </r>
       <r>    -0.0195     1.6238    24.3188 </r>
       <r>     0.0657     1.2511    24.4412 </r>
       <r>     0.1510     0.9584    24.5325 </r>
       <r>     0.2362     1.0580    24.6185 </r>
       <r>     0.3214     1.1577    24.7129 </r>
       <r>     0.4066     2.9984    24.8475 </r>
       <r>     0.4918    13.6895    25.2798 </r>
       <r>     0.5770     1.8085    25.5097 </r>
       <r>     0.6622     1.4801    25.6498 </r>
       <r>     0.7474     1.1518    25.7620 </r>
       <r>     0.8326     1.1042    25.8529 </r>
       <r>     0.9179     1.2684    25.9540 </r>
       <r>     1.0031     0.0000    26.0000 </r>
       <r>     1.0883     0.0000    26.0000 </r>
       <r>     1.1735     0.0000    26.0000 </r>
       <r>     1.2587     0.0000    26.0000 </r>
       <r>     1.3439     0.0000    26.0000 </r>
       <r>     1.4291     0.0000    26.0000 </r>
       <r>     1.5143     0.0000    26.0000 </r>
       <r>     1.5995     0.0000    26.0000 </r>
       <r>     1.6848     0.0285    26.0003 </r>
       <r>     1.7700     0.1451    26.0077 </r>
       <r>     1.8552     0.2616    26.0250 </r>
       <r>     1.9404     0.3782    26.0523 </r>
       <r>     2.0256     0.4948    26.0895 </r>
       <r>     2.1108     0.3348    26.1187 </r>
       <r>     2.1960     0.3555    26.1481 </r>
       <r>     2.2812     0.3762    26.1793 </r>
       <r>     2.3664     0.3968    26.2122 </r>
       <r>     2.4517     0.4684    26.2478 </r>
       <r>     2.5369     0.6098    26.2938 </r>
       <r>     2.6221     0.7511    26.3518 </r>
       <r>     2.7073     0.8627    26.4206 </r>
       <r>     2.7925     0.9724    26.4988 </r>
       <r>     2.8777     1.1038    26.5866 </r>
       <r>     2.9629     1.6612    26.6962 </r>
       <r>     3.0481     1.6975    26.8393 </r>
       <r>     3.1334     1.7339    26.9855 </r>
       <r>     3.2186     2.0889    27.1766 </r>
       <r>     3.3038     2.1266    27.3562 </r>
       <r>     3.3890     2.0852    27.5385 </r>
       <r>     3.4742     1.5879    27.6950 </r>
       <r>     3.5594     1.0907    27.8091 </r>
       <r>     3.6446     1.2605    27.9179 </r>
       <r>     3.7298     0.4361    27.9902 </r>
       <r>     3.8150     0.0000    28.0000 </r>
       <r>     3.9003     0.0000    28.0000 </r>
       <r>     3.9855     0.0000    28.0000 </r>
       <r>     4.0707     0.0000    28.0000 </r>
       <r>     4.1559     0.0000    28.0000 </r>
       <r>     4.2411     0.0000    28.0000 </r>
       <r>     4.3263     0.0000    28.0000 </r>
       <r>     4.4115     0.0000    28.0000 </r>
       <r>     4.4967     0.0000    28.0000 </r>
       <r>     4.5819     0.0000    28.0000 </r>
       <r>     4.6672     0.0000    28.0000 </r>
       <r>     4.7524     0.0000    28.0000 </r>
       <r>     4.8376     0.0000    28.0000 </r>
       <r>     4.9228     0.0000    28.0000 </r>
       <r>     5.0080     0.0000    28.0000 </r>
       <r>     5.0932     0.0000    28.0000 </r>
       <r>     5.1784     0.0000    28.0000 </r>
       <r>     5.2636     0.0000    28.0000 </r>
       <r>     5.3488     0.0000    28.0000 </r>
       <r>     5.4341     0.0000    28.0000 </r>
       <r>     5.5193     0.0000    28.0000 </r>
       <r>     5.6045     0.0000    28.0000 </r>
       <r>     5.6897     0.0000    28.0000 </r>
       <r>     5.7749     0.0000    28.0000 </r>
      </set>
     </set>
    </array>
   </total>
  </dos>
 </calculation>
 <structure name="finalpos" >
  <crystal>
   <varray name="basis" >
    <v>       3.19031573       0.00000000       0.00000000 </v>
    <v>      -1.59515786       2.76289447       0.00000000 </v>
    <v>       0.00000000       0.00000000      30.87900430 </v>
   </varray>
   <i name="volume">    272.18315887 </i>
   <varray name="rec_basis" >
    <v>       0.31344860       0.18096963       0.00000000 </v>
    <v>       0.00000000       0.36193927       0.00000000 </v>
    <v>       0.00000000       0.00000000       0.03238446 </v>
   </varray>
  </crystal>
  <varray name="positions" >
   <v>       0.33333300       0.66666700       0.12046214 </v>
   <v>       0.66666700       0.33333300       0.06978420 </v>
   <v>       0.66666600       0.33333300       0.17114009 </v>
  </varray>
 </structure>
</modeling>
