unknown system                          
   1.00000000000000     
     3.190316    0.000000    0.000000
    -1.595158    2.762894    0.000000
     0.000000    0.000000   32.879004
   Mo   S 
     1     2
Direct
  0.333333  0.666667  0.113135
  0.666667  0.333333  0.065539
  0.666666  0.333333  0.160730
 
   24   24  256
 0.45294     0.45942     0.47699     0.50774     0.55505     0.61818     0.69167     0.76894     0.84433     0.91311    
 0.97077      1.0106      1.0227      1.0017     0.95570     0.90076     0.84433     0.77990     0.70260     0.62226    
 0.55503     0.50766     0.47666     0.45848     0.45909     0.45973     0.47590     0.50853     0.56008     0.63142    
 0.72031     0.82161     0.92632      1.0230      1.1035      1.1656      1.2041      1.2069      1.1652      1.0884    
 0.99811     0.90847     0.81886     0.72666     0.63825     0.56411     0.50977     0.47524     0.47715     0.46660    
 0.47657     0.50910     0.56418     0.64001     0.73632     0.85267     0.98218      1.1102      1.2217      1.3089    
  1.3694      1.3985      1.3860      1.3245      1.2202      1.0937     0.96658     0.84904     0.74103     0.64365    
 0.56397     0.50850     0.50963     0.48413     0.48057     0.50669     0.56428     0.64530     0.74620     0.87113    
  1.0172      1.1692      1.3109      1.4308      1.5176      1.5632      1.5684      1.5353      1.4564      1.3278    
  1.1688      1.0118     0.87259     0.74814     0.63980     0.55900     0.55503     0.51503     0.49373     0.50253    
 0.55504     0.64057     0.74499     0.87467      1.0350      1.2074      1.3704      1.5194      1.6452      1.7206    
  1.7332      1.7029      1.6452      1.5436      1.3875      1.2057      1.0350     0.88155     0.74053     0.62671    
 0.60887     0.55417     0.51939     0.50413     0.53777     0.62153     0.72734     0.85306      1.0198      1.2156    
  1.4006      1.5653      1.7232      1.8507      1.9002      1.8710      1.8064      1.7178      1.5789      1.3929    
  1.2032      1.0309     0.86430     0.71266     0.67239     0.59376     0.55219     0.51843     0.52205     0.59178    
 0.69839     0.81422     0.96682      1.1742      1.3896      1.5696      1.7350      1.9013      2.0159      2.0293    
  1.9686      1.8791      1.7501      1.5636      1.3573      1.1727     0.99728     0.81760     0.75190     0.63438    
 0.58185     0.54249     0.51724     0.55744     0.66077     0.77490     0.90175      1.0902      1.3259      1.5355    
  1.7026      1.8701      2.0282      2.1067      2.0868      2.0150      1.9053      1.7287      1.5047      1.2978    
  1.1198     0.93333     0.84433     0.68431     0.60437     0.56429     0.52413     0.52566     0.60850     0.72891    
 0.84433     0.99527      1.2179      1.4561      1.6452      1.8049      1.9666      2.0859      2.1128      2.0726    
  1.9988      1.8619      1.6452      1.4122      1.2197      1.0397     0.93050     0.74583     0.62659     0.57504    
 0.53457     0.50583     0.54712     0.65847     0.77952     0.90521      1.0890      1.3261      1.5448      1.7185    
  1.8786      2.0152      2.0735      2.0528      2.0014      1.9142      1.7436      1.5112      1.2966      1.1175    
 0.98991     0.80688     0.65672     0.57848     0.53846     0.50067     0.50004     0.57450     0.69102     0.81006    
 0.95773      1.1629      1.3863      1.5793      1.7503      1.9065      2.0008      2.0021      1.9515      1.8849    
  1.7674      1.5722      1.3523      1.1639      1.0180     0.85000     0.69191     0.58524     0.53311     0.49858    
 0.47880     0.51019     0.59729     0.70649     0.83214     0.99915      1.1987      1.3894      1.5612      1.7282    
  1.8634      1.9144      1.8831      1.8174      1.7259      1.5774      1.3804      1.1875      1.0227     0.86687    
 0.71870     0.59890     0.52608     0.48735     0.46638     0.47452     0.52607     0.61054     0.71658     0.85366    
  1.0227      1.1957      1.3520      1.5018      1.6452      1.7439      1.7652      1.7233      1.6452      1.5289    
  1.3689      1.1902      1.0091     0.86150     0.72641     0.61146     0.52613     0.47252     0.44638     0.44709    
 0.47697     0.53373     0.61475     0.72478     0.86550      1.0206      1.1662      1.2950      1.4125      1.5127    
  1.5729      1.5773      1.5289      1.4379      1.3122      1.1635     0.97485     0.84150     0.71650     0.61308    
 0.53165     0.46850     0.42868     0.41927     0.43696     0.47365     0.52961     0.61145     0.72065     0.85026    
 0.98787      1.1168      1.2220      1.2997      1.3553      1.3853      1.3745      1.3147      1.2181      1.1023    
 0.91819     0.80980     0.69748     0.60297     0.53291     0.47535     0.42833     0.40541     0.41028     0.43177    
 0.46670     0.52349     0.60235     0.69533     0.80311     0.92612      1.0425      1.1233      1.1673      1.1934    
  1.2015      1.1723      1.1033      1.0147     0.84433     0.76529     0.67398     0.58826     0.52610     0.48032    
 0.43913     0.41081     0.40564     0.41546     0.43288     0.46813     0.52607     0.59130     0.65680     0.73954    
 0.84433     0.94000     0.99703      1.0229      1.0350      1.0255     0.98169     0.91545     0.76282     0.70906    
 0.64452     0.57450     0.51842     0.48044     0.44873     0.42324     0.41493     0.42037     0.42727     0.44238    
 0.48166     0.53630     0.58251     0.62261     0.68060     0.75677     0.82222     0.86032     0.87947     0.88298    
 0.86067     0.81487     0.68326     0.64799     0.60843     0.56106     0.51716     0.48616     0.46217     0.44073    
 0.43072     0.43528     0.44117     0.44309     0.45797     0.49691     0.54267     0.57498     0.60009     0.63464    
 0.67659     0.71208     0.73658     0.75004     0.74522     0.71905     0.61293     0.59146     0.57049     0.54580    
 0.52060     0.50236     0.48953     0.47580     0.46483     0.46503     0.47186     0.47259     0.46884     0.47710    
 0.50403     0.53705     0.56259     0.58020     0.59514     0.60963     0.62440     0.63809     0.64338     0.63352    
 0.55505     0.54513     0.53725     0.53030     0.52411     0.52231     0.52557     0.52808     0.52610     0.52431    
 0.52757     0.53108     0.52608     0.51334     0.50424     0.50836     0.52413     0.54171     0.55226     0.55468    
 0.55504     0.55878     0.56369     0.56300     0.50958     0.50924     0.51174     0.51844     0.52861     0.54247    
 0.56110     0.58246     0.60035     0.60996     0.61312     0.61472     0.61401     0.60339     0.57852     0.54714    
 0.52395     0.51640     0.51846     0.51935     0.51530     0.51057     0.50914     0.50975     0.47682     0.48277    
 0.49360     0.51170     0.53708     0.56713     0.60019     0.63651     0.67382     0.70443     0.72074     0.72311    
 0.71854     0.71002     0.69111     0.65445     0.60421     0.55572     0.52214     0.50413     0.49356     0.48442    
 0.47723     0.47464     0.45813     0.46626     0.48219     0.50862     0.54736     0.59541     0.64741     0.70048    
 0.75375     0.80343     0.84092     0.85763     0.85230     0.83247     0.80630     0.77311     0.72519     0.66108    
 0.59318     0.53833     0.50280     0.48086     0.46603     0.45788     0.60565     0.61713     0.64954     0.70513    
 0.78715     0.89383      1.0174      1.1480      1.2757      1.3912      1.4859      1.5495      1.5697      1.5402    
  1.4699      1.3781      1.2756      1.1596      1.0290     0.89817     0.78715     0.70506     0.64920     0.61612    
 0.61677     0.61742     0.64733     0.70702     0.79821     0.92037      1.0689      1.2354      1.4062      1.5649    
  1.6980      1.7985      1.8577      1.8606      1.7981      1.6819      1.5386      1.3875      1.2325      1.0756    
 0.92752     0.80243     0.70834     0.64667     0.64969     0.63035     0.64911     0.70762     0.80460     0.93622    
  1.0997      1.2913      1.5000      1.7058      1.8876      2.0314      2.1292      2.1718      2.1468      2.0479    
  1.8860      1.6884      1.4835      1.2874      1.1045     0.94001     0.80438     0.70699     0.70710     0.66066    
 0.65693     0.70404     0.80258     0.94172      1.1148      1.3228      1.5592      1.8036      2.0340      2.2316    
  2.3768      2.4538      2.4593      2.3954      2.2586      2.0519      1.8032      1.5534      1.3243      1.1168    
 0.93596     0.79702     0.78715     0.71175     0.67792     0.69857     0.78714     0.92993      1.1086      1.3264    
  1.5854      1.8627      2.1309      2.3788      2.5876      2.7184      2.7498      2.6998      2.5876      2.4044    
  2.1490      1.8608      1.5855      1.3337      1.1040     0.91535     0.88406     0.77843     0.71676     0.70066    
 0.76114     0.89742      1.0763      1.2916      1.5617      1.8712      2.1746      2.4562      2.7211      2.9321    
  3.0264      2.9956      2.8852      2.7154      2.4705      2.1665      1.8582      1.5735      1.3035      1.0609    
 0.99714     0.85184     0.76844     0.71925     0.73664     0.84979      1.0247      1.2277      1.4838      1.8089    
  2.1511      2.4607      2.7516      3.0274      3.2173      3.2560      3.1674      3.0040      2.7675      2.4544    
  2.1171      1.8073      1.5159      1.2312      1.1300     0.93080     0.82173     0.75216     0.72547     0.79592    
 0.95871      1.1544      1.3804      1.6848      2.0498      2.3958      2.6993      2.9945      3.2548      3.3898    
  3.3687      3.2409      3.0316      2.7269      2.3633      2.0202      1.7160      1.4137      1.2756      1.0212    
 0.87081     0.78656     0.72973     0.74571     0.87509      1.0682      1.2756      1.5357      1.8837      2.2584    
  2.5876      2.8837      3.1653      3.3678      3.4236      3.3537      3.1993      2.9439      2.5876      2.2120    
  1.8855      1.5825      1.4095      1.1220     0.92040     0.81190     0.74093     0.71059     0.78241     0.95397    
  1.1574      1.3827      1.6826      2.0497      2.4055      2.7162      3.0036      3.2412      3.3547      3.3328    
  3.2266      3.0411      2.7427      2.3701      2.0185      1.7127      1.5061      1.2168     0.97635     0.83028    
 0.74764     0.69389     0.70713     0.82614      1.0126      1.2201      1.4720      1.7957      2.1470      2.4709    
  2.7679      3.0331      3.2014      3.2272      3.1493      3.0103      2.7860      2.4634      2.1111      1.7968    
  1.5573      1.2844      1.0329     0.85082     0.74586     0.68322     0.66236     0.72175     0.86368      1.0484    
  1.2655      1.5374      1.8519      2.1621      2.4518      2.7264      2.9454      3.0412      3.0083      2.8968    
  2.7241      2.4689      2.1526      1.8401      1.5697      1.3137      1.0738     0.87537     0.74230     0.66537    
 0.63075     0.65177     0.74229     0.88774      1.0716      1.2998      1.5697      1.8488      2.1109      2.3601    
  2.5876      2.7429      2.7835      2.7212      2.5876      2.3888      2.1287      1.8430      1.5480      1.3081    
  1.0863     0.89404     0.74504     0.64577     0.59555     0.59616     0.65026     0.75302     0.89754      1.0846    
  1.3123      1.5601      1.7992      2.0168      2.2123      2.3717      2.4643      2.4688      2.3888      2.2392    
  2.0350      1.7963      1.4901      1.2754      1.0716     0.89574     0.75175     0.63942     0.56783     0.54752    
 0.57639     0.64477     0.74965     0.89400      1.0758      1.2847      1.5040      1.7120      1.8879      2.0222    
  2.1150      2.1585      2.1351      2.0381      1.8839      1.6966      1.3964      1.2198      1.0389     0.87971    
 0.75210     0.64650     0.56420     0.52262     0.52772     0.56784     0.63753     0.74223     0.87895      1.0365    
  1.2129      1.4049      1.5855      1.7196      1.8016      1.8479      1.8564      1.8068      1.6985      1.5563    
  1.2757      1.1424     0.99459     0.85414     0.74231     0.65379     0.57867     0.52827     0.51562     0.53313    
 0.57219     0.64114     0.74229     0.85719     0.97644      1.1153      1.2756      1.4207      1.5157      1.5652    
  1.5854      1.5678      1.4995      1.3949      1.1416      1.0473     0.93926     0.82616     0.73047     0.65805    
 0.59795     0.55172     0.53258     0.53821     0.55586     0.59136     0.65946     0.74924     0.83448     0.91621    
  1.0174      1.1352      1.2360      1.2993      1.3316      1.3352      1.2996      1.2284      1.0087     0.94520    
 0.87499     0.79710     0.72522     0.67020     0.62637     0.58961     0.56993     0.57145     0.58077     0.59201    
 0.62200     0.68150     0.75201     0.81182     0.86635     0.93112      1.0015      1.0602      1.0999      1.1188    
  1.1089      1.0676     0.88835     0.84946     0.80969     0.76694     0.72615     0.69566     0.67367     0.65318    
 0.63766     0.63578     0.64289     0.64571     0.64586     0.66060     0.69736     0.74348     0.78478     0.82003    
 0.85327     0.88478     0.91294     0.93420     0.93970     0.92249     0.78715     0.76890     0.75269     0.73929    
 0.72971     0.72796     0.73396     0.74048     0.74231     0.74319     0.74756     0.75025     0.74230     0.72505    
 0.71150     0.71318     0.72973     0.75139     0.76853     0.77892     0.78714     0.79686     0.80411     0.80123    
 0.70707     0.70564     0.70872     0.71929     0.73755     0.76354     0.79717     0.83443     0.86672     0.88703    
 0.89581     0.89750     0.89134     0.87003     0.83035     0.78241     0.74393     0.72465     0.71932     0.71670    
 0.71202     0.70817     0.70769     0.70830     0.64935     0.65925     0.67779     0.70865     0.75250     0.80622    
 0.86644     0.93091     0.99440      1.0461      1.0759      1.0828      1.0736      1.0521      1.0127     0.94982    
 0.87062     0.79414     0.73673     0.70065     0.67774     0.66098     0.64979     0.64598     0.61574     0.63004    
 0.65863     0.70494     0.77119     0.85356     0.94458      1.0383      1.1304      1.2132      1.2748      1.3039    
  1.2983      1.2658      1.2162      1.1508      1.0644     0.95900     0.85122     0.76170     0.69886     0.65723    
 0.62973     0.61545     0.80967     0.82990     0.88788     0.98453      1.1212      1.2935      1.4903      1.6978    
  1.9009      2.0844      2.2333      2.3320      2.3642      2.3221      2.2163      2.0704      1.9008      1.7102    
  1.5027      1.2981      1.1212     0.98451     0.88754     0.82881     0.82951     0.83019     0.88273     0.98600    
  1.1389      1.3376      1.5737      1.8348      2.1019      2.3511      2.5614      2.7184      2.8078      2.8109    
  2.7180      2.5443      2.3233      2.0820      1.8319      1.5809      1.3451      1.1434     0.98743     0.88207    
 0.88804     0.85475     0.88744     0.98665      1.1478      1.3630      1.6251      1.9268      2.2516      2.5720    
  2.8573      3.0837      3.2351      3.2967      3.2537      3.1012      2.8557      2.5536      2.2342      1.9226    
  1.6302      1.3669      1.1476     0.98598     0.98664     0.90818     0.90424     0.98341      1.1435      1.3687    
  1.6476      1.9774      2.3470      2.7284      3.0892      3.3986      3.6257      3.7458      3.7517      3.6455    
  3.4274      3.1082      2.7280      2.3407      1.9789      1.6497      1.3626      1.1376      1.1212     0.99336    
 0.94095     0.97939      1.1212      1.3476      1.6345      1.9811      2.3860      2.8189      3.2419      3.6305    
  3.9522      4.1554      4.2110      4.1357      3.9522      3.6575      3.2609      2.8169      2.3860      1.9889    
  1.6297      1.3322      1.2832      1.1037      1.0028     0.98579      1.0854      1.2973      1.5815      1.9269    
  2.3495      2.8279      3.3054      3.7526      4.1603      4.4761      4.6242      4.5915      4.4262      4.1542    
  3.7678      3.2968      2.8142      2.3621      1.9397      1.5653      1.4689      1.2281      1.0846      1.0134    
  1.0509      1.2260      1.4981      1.8268      2.2345      2.7339      3.2630      3.7573      4.2156      4.6265    
  4.9031      4.9698      4.8501      4.6017      4.2326      3.7507      3.2271      2.7323      2.2685      1.8305    
  1.6788      1.3632      1.1736      1.0610      1.0326      1.1461      1.3929      1.7048      2.0747      2.5498    
  3.1060      3.6484      4.1372      4.5915      4.9690      5.1648      5.1426      4.9544      4.6309      4.1664    
  3.6139      3.0746      2.5829      2.1098      1.9008      1.5121      1.2619      1.1150      1.0348      1.0716    
  1.2664      1.5619      1.9008      2.3202      2.8533      3.4271      3.9522      4.4246      4.8479      5.1416    
  5.2277      5.1267      4.8839      4.4884      3.9522      3.3780      2.8552      2.3698      2.1037      1.6694    
  1.3520      1.1634      1.0496      1.0175      1.1322      1.3875      1.7068      2.0752      2.5451      3.1032    
  3.6562      4.1530      4.6000      4.9543      5.1277      5.1044      4.9386      4.6398      4.1812      3.6186    
  3.0700      2.5770      2.2546      1.8133      1.4466      1.2065      1.0647     0.98904      1.0218      1.2021    
  1.4851      1.8168      2.2184      2.7154      3.2540      3.7640      4.2301      4.6312      4.8862      4.9398    
  4.8310      4.6071      4.2493      3.7560      3.2159      2.7165      2.3403      1.9169      1.5358      1.2509    
  1.0742     0.97354     0.95141      1.0487      1.2647      1.5524      1.8969      2.3191      2.8016      3.2865    
  3.7437      4.1639      4.4901      4.6411      4.6062      4.4387      4.1614      3.7619      3.2764      2.7891    
  2.3642      1.9650      1.5986      1.2949      1.0825     0.95564     0.90326     0.94113      1.0825      1.3081    
  1.5963      1.9502      2.3642      2.7984      3.2157      3.6079      3.9522      4.1835      4.2495      4.1603    
  3.9522      3.6384      3.2346      2.7922      2.3303      1.9591      1.6187      1.3246      1.0945     0.93828    
 0.85839     0.85891     0.94283      1.1029      1.3284      1.6168      1.9635      2.3432      2.7192      3.0682    
  3.3782      3.6230      3.7611      3.7659      3.6410      3.4067      3.0875      2.7160      2.2376      1.9074    
  1.5963      1.3264      1.1049     0.93413     0.82597     0.79333     0.83483     0.93970      1.1027      1.3245    
  1.6006      1.9173      2.2525      2.5763      2.8576      3.0767      3.2249      3.2883      3.2462      3.0935    
  2.8535      2.5599      2.0897      1.8164      1.5422      1.2995      1.1019     0.94148     0.82127     0.76047    
 0.76580     0.82511     0.93214      1.0915      1.2986      1.5397      1.8092      2.0988      2.3729      2.5866    
  2.7264      2.8033      2.8121      2.7317      2.5644      2.3421      1.9009      1.6909      1.4660      1.2545    
  1.0825     0.94654     0.83724     0.76639     0.74718     0.77148     0.83053     0.93342      1.0825      1.2576    
  1.4467      1.6624      1.9008      2.1172      2.2683      2.3534      2.3860      2.3559      2.2511      2.0901    
  1.6912      1.5397      1.3720      1.2022      1.0580     0.94785     0.86085     0.79776     0.77090     0.77674    
 0.80205     0.85402     0.94949      1.0778      1.2109      1.3476      1.5081      1.6843      1.8355      1.9353    
  1.9867      1.9904      1.9355      1.8275      1.4812      1.3786      1.2663      1.1477      1.0410     0.95979    
 0.89872     0.85213     0.82813     0.82883     0.83939     0.85457     0.89415     0.97173      1.0692      1.1633    
  1.2573      1.3636      1.4734      1.5645      1.6254      1.6519      1.6348      1.5723      1.2877      1.2257    
  1.1607      1.0941      1.0339     0.99085     0.96339     0.94273     0.92971     0.93033     0.93773     0.93805    
 0.93497     0.94961     0.99265      1.0523      1.1131      1.1717      1.2296      1.2838      1.3297      1.3608    
  1.3666      1.3397      1.1212      1.0936      1.0679      1.0473      1.0348      1.0358      1.0501      1.0684    
  1.0825      1.0926      1.1006      1.1000      1.0825      1.0522      1.0264      1.0201      1.0348      1.0601    
  1.0847      1.1042      1.1212      1.1375      1.1473      1.1421     0.98660     0.98688     0.99434      1.0135    
  1.0455      1.0906      1.1478      1.2109      1.2677      1.3072      1.3265      1.3284      1.3119      1.2713    
  1.2066      1.1321      1.0697      1.0318      1.0135      1.0028     0.99363     0.98780     0.98675     0.98736    
 0.88769     0.90672     0.94085     0.99424      1.0677      1.1571      1.2573      1.3632      1.4658      1.5498    
  1.6008      1.6149      1.5984      1.5562      1.4852      1.3832      1.2617      1.1443      1.0509     0.98574    
 0.94075     0.90853     0.88814     0.88128     0.82842     0.85447     0.90604     0.98610      1.0959      1.2300    
  1.3779      1.5303      1.6783      1.8095      1.9068      1.9546      1.9486      1.8972      1.8127      1.6999    
  1.5579      1.3932      1.2274      1.0859     0.97970     0.90456     0.85407     0.82806      1.0915      1.1245    
  1.2197      1.3752      1.5890      1.8534      2.1540      2.4727      2.7883      3.0764      3.3112      3.4666    
  3.5185      3.4560      3.2931      3.0615      2.7883      2.4860      2.1672      1.8583      1.5891      1.3752    
  1.2194      1.1233      1.1241      1.1248      1.2092      1.3734      1.6126      1.9188      2.2807      2.6817    
  3.0966      3.4908      3.8289      4.0821      4.2235      4.2267      4.0816      3.8107      3.4612      3.0756    
  2.6787      2.2883      1.9268      1.6173      1.3749      1.2085      1.2199      1.1676      1.2192      1.3741    
  1.6237      1.9558      2.3603      2.8271      3.3341      3.8424      4.3046      4.6769      4.9250      5.0210    
  4.9448      4.6955      4.3029      3.8229      3.3155      2.8225      2.3656      1.9599      1.6234      1.3734    
  1.3775      1.2561      1.2519      1.3740      1.6174      1.9618      2.3928      2.9063      3.4872      4.0972    
  4.6854      5.1973      5.5770      5.7793      5.7855      5.5982      5.2281      4.7055      4.0965      3.4804    
  2.9078      2.3951      1.9553      1.6111      1.5891      1.3914      1.3146      1.3765      1.5890      1.9295    
  2.3701      2.9100      3.5466      4.2408      4.9368      5.5847      6.1216      6.4668      6.5710      6.4458    
  6.1216      5.6134      4.9570      4.2386      3.5466      2.9185      2.3651      1.9131      1.8424      1.5637    
  1.4117      1.3936      1.5443      1.8576      2.2890      2.8270      3.4896      4.2502      5.0355      5.7904    
  6.4740      6.9982      7.2569      7.2220      6.9451      6.4674      5.8066      5.0264      4.2357      3.5032    
  2.8407      2.2716      2.1312      1.7595      1.5366      1.4371      1.5007      1.7573      2.1625      2.6734    
  3.3158      4.1028      4.9592      5.7954      6.5787      7.2606      7.7164      7.8438      7.6600      7.2341    
  6.5967      5.7884      4.9210      4.1011      3.3521      2.6772      2.4526      1.9728      1.6747      1.5062    
  1.4760      1.6454      2.0044      2.4804      3.0680      3.8190      4.7032      5.6037      6.4493      7.2233    
  7.8434      8.1690      8.1453      7.8280      7.2653      6.4803      5.5670      4.6698      3.8541      3.1052    
  2.7883      2.2038      1.8163      1.5866      1.4767      1.5404      1.8209      2.2567      2.7883      3.4580    
  4.3004      5.2279      6.1216      6.9433      7.6576      8.1443      8.2968      8.1285      7.6960      7.0112    
  6.1216      5.1755      4.3024      3.5107      3.0970      2.4418      1.9610      1.6647      1.4955      1.4613    
  1.6315      1.9987      2.4814      3.0665      3.8116      4.6977      5.6096      6.4642      7.2312      7.8274    
  8.1295      8.1047      7.8106      7.2734      6.4943      5.5696      4.6624      3.8455      3.3338      2.6571    
  2.1077      1.7386      1.5189      1.4153      1.4734      1.7341      2.1486      2.6607      3.2952      4.0787    
  4.9451      5.7987      6.5914      7.2644      7.6984      7.8123      7.6396      7.2387      6.6118      5.7901    
  4.9046      4.0800      3.4753      2.8140      2.2409      1.8121      1.5394      1.3891      1.3655      1.5123    
  1.8269      2.2587      2.7928      3.4527      4.2168      5.0103      5.7770      6.4757      7.0130      7.2761    
  7.2389      6.9583      6.4732      5.7963      4.9994      4.2035      3.5185      2.8905      2.3332      1.8794    
  1.5587      1.3655      1.2900      1.3499      1.5587      1.8936      2.3309      2.8747      3.5185      4.2134    
  4.9044      5.5581      6.1216      6.4987      6.6147      6.4739      6.1216      5.5907      4.9245      4.2067    
  3.4647      2.8842      2.3636      1.9223      1.5792      1.3458      1.2262      1.2266      1.3504      1.5882    
  1.9263      2.3615      2.8888      3.4786      4.0829      4.6603      5.1757      5.5768      5.7996      5.8045    
  5.5958      5.2061      4.6811      4.0795      3.3156      2.8040      2.3308      1.9242      1.5931      1.3412    
  1.1828      1.1332      1.1919      1.3470      1.5909      1.9222      2.3353      2.8145      3.3317      3.8447    
  4.3048      4.6721      4.9188      5.0172      4.9412      4.6900      4.3007      3.8274      3.0820      2.6603    
  2.2478      1.8844      1.5870      1.3489      1.1748      1.0864      1.0919      1.1788      1.3392      1.5761    
  1.8832      2.2450      2.6528      3.0918      3.5139      3.8579      4.0949      4.2241      4.2334      4.1004    
  3.8346      3.4813      2.7883      2.4644      2.1283      1.8162      1.5587      1.3543      1.1945      1.0925    
  1.0631      1.0979      1.1876      1.3407      1.5587      1.8191      2.1078      2.4344      2.7883      3.1129    
  3.3518      3.4940      3.5466      3.4964      3.3335      3.0843      2.4659      2.2330      1.9821      1.7343    
  1.5223      1.3572      1.2287      1.1378      1.0973      1.1034      1.1423      1.2217      1.3591      1.5430    
  1.7432      1.9564      2.1996      2.4584      2.6825      2.8361      2.9162      2.9200      2.8362      2.6741    
  2.1445      1.9892      1.8208      1.6481      1.4938      1.3745      1.2852      1.2196      1.1850      1.1827    
  1.1967      1.2220      1.2805      1.3872      1.5237      1.6647      1.8114      1.9732      2.1360      2.2708    
  2.3606      2.3974      2.3704      2.2791      1.8473      1.7570      1.6610      1.5644      1.4787      1.4171    
  1.3783      1.3518      1.3368      1.3373      1.3450      1.3453      1.3435      1.3637      1.4191      1.4983    
  1.5847      1.6728      1.7610      1.8431      1.9104      1.9535      1.9595      1.9210      1.5890      1.5531    
  1.5187      1.4916      1.4767      1.4808      1.5033      1.5331      1.5587      1.5774      1.5887      1.5851    
  1.5587      1.5160      1.4782      1.4640      1.4767      1.5053      1.5367      1.5643      1.5890      1.6111    
  1.6231      1.6159      1.3774      1.3845      1.4027      1.4371      1.4897      1.5607      1.6482      1.7433    
  1.8299      1.8924      1.9243      1.9263      1.8975      1.8339      1.7387      1.6314      1.5385      1.4752    
  1.4372      1.4117      1.3916      1.3787      1.3742      1.3748      1.2195      1.2546      1.3145      1.4025    
  1.5185      1.6573      1.8115      1.9730      2.1281      2.2557      2.3354      2.3595      2.3330      2.2626    
  2.1487      1.9941      1.8161      1.6436      1.5007      1.3935      1.3144      1.2565      1.2200      1.2076    
  1.1229      1.1673      1.2539      1.3836      1.5555      1.7615      1.9884      2.2231      2.4513      2.6532    
  2.8033      2.8793      2.8729      2.7931      2.6564      2.4742      2.2525      2.0047      1.7588      1.5448    
  1.3768      1.2523      1.1668      1.1226      1.4813      1.5310      1.6747      1.9076      2.2253      2.6184    
  3.0710      3.5608      4.0568      4.5186      4.8996      5.1531      5.2394      5.1417      4.8801      4.5025    
  4.0569      3.5751      3.0852      2.6237      2.2253      1.9076      1.6743      1.5298      1.5306      1.5314    
  1.6561      1.8991      2.2537      2.7112      3.2600      3.8809      4.5393      5.1818      5.7461      6.1731    
  6.4095      6.4130      6.1724      5.7267      5.1503      4.5171      3.8778      3.2681      2.7197      2.2587    
  1.9007      1.6552      1.6749      1.5988      1.6741      1.8998      2.2666      2.7630      3.3809      4.1103    
  4.9223      5.7589      6.5408      7.1847      7.6163      7.7777      7.6374      7.2047      6.5392      5.7381    
  4.9024      4.1054      3.3865      2.7674      2.2663      1.8990      1.9100      1.7347      1.7302      1.9062    
  2.2587      2.7694      3.4281      4.2351      5.1726      6.1859      7.1915      8.0878      8.7648      9.1298    
  9.1365      8.7875      8.1207      7.2130      6.1850      5.1651      4.2366      3.4305      2.7625      2.2521    
  2.2253      1.9371      1.8299      1.9212      2.2253      2.7225      3.3912      4.2389      5.2663      6.4236    
  7.6246      8.7706      9.7347      10.369      10.575      10.347      9.7347      8.8013      7.6460      6.4211    
  5.2663      4.2480      3.3859      2.7050      2.6067      2.1936      1.9760      1.9567      2.1730      2.6230    
  3.2689      4.1101      5.1748      6.4334      7.7880      9.1376      10.375      11.331      11.826      11.788    
  11.274      10.368      9.1548      7.7783      6.4180      5.1895      4.1249      3.2503      3.0468      2.4883    