unknown system                          
   1.00000000000000     
     3.190316    0.000000    0.000000
    -1.595158    2.762894    0.000000
     0.000000    0.000000   32.879004
   Mo   S 
     1     2
Direct
  0.333333  0.666667  0.113135
  0.666667  0.333333  0.065539
  0.666666  0.333333  0.160730
 
   24   24  256
 0.45293858810E+00 0.45942369562E+00 0.47698528973E+00 0.50774299365E+00 0.55505039771E+00
 0.61817667307E+00 0.69166741351E+00 0.76894038065E+00 0.84433423662E+00 0.91311141882E+00
 0.97077093585E+00 0.10105536846E+01 0.10226783144E+01 0.10017299686E+01 0.95569530499E+00
 0.90076447733E+00 0.84433043593E+00 0.77990309120E+00 0.70259844756E+00 0.62225537129E+00
 0.55503080846E+00 0.50765632115E+00 0.47665678891E+00 0.45847888586E+00 0.45909442342E+00
 0.45972585644E+00 0.47590246941E+00 0.50852906174E+00 0.56008150882E+00 0.63141806321E+00
 0.72031410184E+00 0.82161261431E+00 0.92631680137E+00 0.10229551333E+01 0.11035461554E+01
 0.11655756376E+01 0.12041170888E+01 0.12068567376E+01 0.11651853837E+01 0.10883795765E+01
 0.99810769545E+00 0.90847095824E+00 0.81885715874E+00 0.72666244128E+00 0.63824991664E+00
 0.56411284450E+00 0.50976637950E+00 0.47524015856E+00 0.47714791424E+00 0.46660424538E+00
 0.47657283772E+00 0.50910183013E+00 0.56418321298E+00 0.64000969554E+00 0.73631757522E+00
 0.85267310182E+00 0.98218292838E+00 0.11102031724E+01 0.12217288729E+01 0.13088945703E+01
 0.13693934759E+01 0.13984810132E+01 0.13860066498E+01 0.13244715458E+01 0.12201857855E+01
 0.10936640874E+01 0.96657732887E+00 0.84903559034E+00 0.74102559646E+00 0.64364786915E+00
 0.56396888962E+00 0.50850434606E+00 0.50962587189E+00 0.48413270004E+00 0.48057213702E+00
 0.50668577450E+00 0.56428382548E+00 0.64530126946E+00 0.74619642761E+00 0.87113347949E+00
 0.10172201688E+01 0.11691934262E+01 0.13108620998E+01 0.14307722931E+01 0.15176450474E+01
 0.15631617059E+01 0.15683536990E+01 0.15352591567E+01 0.14563837680E+01 0.13277566567E+01
 0.11688207682E+01 0.10118109807E+01 0.87258939927E+00 0.74814283353E+00 0.63980074652E+00
 0.55900368264E+00 0.55503079403E+00 0.51502755284E+00 0.49372672113E+00 0.50253357749E+00
 0.55503578420E+00 0.64056779412E+00 0.74498750201E+00 0.87466855119E+00 0.10349914615E+01
 0.12073957723E+01 0.13703765050E+01 0.15193846983E+01 0.16451759623E+01 0.17206306276E+01
 0.17331700643E+01 0.17029491317E+01 0.16451723266E+01 0.15436026115E+01 0.13875155859E+01
 0.12056915913E+01 0.10349889434E+01 0.88154909781E+00 0.74053448484E+00 0.62670512936E+00
 0.60887277765E+00 0.55416692979E+00 0.51938672992E+00 0.50412783665E+00 0.53776712281E+00
 0.62152726672E+00 0.72733874811E+00 0.85305907254E+00 0.10197846556E+01 0.12155664746E+01
 0.14005964163E+01 0.15653058678E+01 0.17231653833E+01 0.18507453989E+01 0.19001899596E+01
 0.18710435320E+01 0.18063560895E+01 0.17178207070E+01 0.15788847697E+01 0.13929309857E+01
 0.12032382492E+01 0.10309182502E+01 0.86429575666E+00 0.71266433650E+00 0.67239047217E+00
 0.59376233799E+00 0.55218561915E+00 0.51842563898E+00 0.52205102987E+00 0.59177804472E+00
 0.69838618265E+00 0.81422097925E+00 0.96681812186E+00 0.11742189404E+01 0.13895638107E+01
 0.15696257017E+01 0.17349708536E+01 0.19012582436E+01 0.20159411014E+01 0.20292649844E+01
 0.19686249049E+01 0.18791310312E+01 0.17500574231E+01 0.15636246296E+01 0.13573076017E+01
 0.11726678752E+01 0.99727643460E+00 0.81759514873E+00 0.75189977755E+00 0.63437730806E+00
 0.58184763120E+00 0.54248784766E+00 0.51723582140E+00 0.55744132152E+00 0.66076872483E+00
 0.77489585875E+00 0.90174508077E+00 0.10902182204E+01 0.13258586537E+01 0.15355221908E+01
 0.17025875104E+01 0.18701244528E+01 0.20281821554E+01 0.21067448960E+01 0.20867792690E+01
 0.20150044124E+01 0.19052567997E+01 0.17286863439E+01 0.15046700571E+01 0.12977837702E+01
 0.11197898391E+01 0.93333469761E+00 0.84433044355E+00 0.68431035378E+00 0.60437367092E+00
 0.56429389772E+00 0.52413014618E+00 0.52565723703E+00 0.60849854133E+00 0.72890644083E+00
 0.84433438502E+00 0.99526740093E+00 0.12179061367E+01 0.14561125748E+01 0.16451768417E+01
 0.18049340984E+01 0.19666254142E+01 0.20859159083E+01 0.21127500996E+01 0.20726028310E+01
 0.19988328829E+01 0.18619184496E+01 0.16451723598E+01 0.14122344772E+01 0.12196946685E+01
 0.10396719207E+01 0.93050071984E+00 0.74582691492E+00 0.62658915230E+00 0.57503965103E+00
 0.53456908786E+00 0.50582543685E+00 0.54712329699E+00 0.65846938302E+00 0.77952435424E+00
 0.90521066896E+00 0.10889869848E+01 0.13261065886E+01 0.15448004785E+01 0.17184587511E+01
 0.18786378498E+01 0.20152300181E+01 0.20734723911E+01 0.20527604580E+01 0.20014063083E+01
 0.19141623610E+01 0.17436146374E+01 0.15112476328E+01 0.12966129007E+01 0.11175002973E+01
 0.98991179238E+00 0.80688109321E+00 0.65672388650E+00 0.57848484715E+00 0.53845755233E+00
 0.50066532724E+00 0.50004064082E+00 0.57450497227E+00 0.69101685339E+00 0.81005749918E+00
 0.95773128828E+00 0.11629141224E+01 0.13862649633E+01 0.15793458077E+01 0.17502872432E+01
 0.19064965389E+01 0.20008419025E+01 0.20020564026E+01 0.19515166646E+01 0.18849298356E+01
 0.17673865531E+01 0.15722008308E+01 0.13522813253E+01 0.11639233887E+01 0.10179663180E+01
 0.85000116057E+00 0.69190791114E+00 0.58524044473E+00 0.53310660452E+00 0.49857576238E+00
 0.47879602648E+00 0.51018635955E+00 0.59728904610E+00 0.70649224503E+00 0.83214350734E+00
 0.99915133000E+00 0.11986672243E+01 0.13894122963E+01 0.15612319286E+01 0.17282035697E+01
 0.18633502034E+01 0.19143641086E+01 0.18831443832E+01 0.18173714200E+01 0.17259377444E+01
 0.15774284801E+01 0.13803671397E+01 0.11874808602E+01 0.10226783562E+01 0.86686571652E+00
 0.71870241102E+00 0.59890258397E+00 0.52608239952E+00 0.48735385539E+00 0.46638205276E+00
 0.47452089861E+00 0.52607237147E+00 0.61054262581E+00 0.71657529670E+00 0.85365688215E+00
 0.10226782116E+01 0.11956963700E+01 0.13520484754E+01 0.15017987844E+01 0.16451768821E+01
 0.17438563278E+01 0.17651788383E+01 0.17232825361E+01 0.16451760359E+01 0.15289410097E+01
 0.13689023631E+01 0.11902361036E+01 0.10091356162E+01 0.86150336000E+00 0.72640898384E+00
 0.61146309257E+00 0.52613196482E+00 0.47251738703E+00 0.44638307506E+00 0.44708610954E+00
 0.47696584026E+00 0.53373340945E+00 0.61475052764E+00 0.72477619504E+00 0.86550426904E+00
 0.10205608901E+01 0.11662097756E+01 0.12949522451E+01 0.14125147528E+01 0.15126921382E+01
 0.15729213765E+01 0.15772703580E+01 0.15288958969E+01 0.14379151473E+01 0.13121902682E+01
 0.11635420144E+01 0.97484857488E+00 0.84150224539E+00 0.71649802596E+00 0.61308205403E+00
 0.53164733074E+00 0.46849628905E+00 0.42867843149E+00 0.41926726070E+00 0.43695593978E+00
 0.47365133153E+00 0.52960976742E+00 0.61145485894E+00 0.72065293850E+00 0.85025742636E+00
 0.98787015808E+00 0.11168456566E+01 0.12219837785E+01 0.12997329445E+01 0.13552782499E+01
 0.13853362792E+01 0.13744541452E+01 0.13147092674E+01 0.12181424161E+01 0.11022841429E+01
 0.91818546370E+00 0.80980018398E+00 0.69748122131E+00 0.60297211079E+00 0.53291303102E+00
 0.47534915439E+00 0.42832509519E+00 0.40541405238E+00 0.41028439702E+00 0.43176762222E+00
 0.46669972809E+00 0.52348612782E+00 0.60235117787E+00 0.69532997934E+00 0.80310593284E+00
 0.92611776059E+00 0.10425211979E+01 0.11232956067E+01 0.11672673919E+01 0.11933547688E+01
 0.12015405786E+01 0.11722979255E+01 0.11032516062E+01 0.10147415291E+01 0.84433425438E+00
 0.76529313065E+00 0.67398335111E+00 0.58826234241E+00 0.52609986327E+00 0.48032220897E+00
 0.43913209935E+00 0.41080830768E+00 0.40564428546E+00 0.41545989703E+00 0.43287832240E+00
 0.46813440594E+00 0.52607235125E+00 0.59130224194E+00 0.65680038529E+00 0.73953860519E+00
 0.84433439518E+00 0.93999793750E+00 0.99702611716E+00 0.10229177465E+01 0.10349914995E+01
 0.10255001666E+01 0.98169182580E+00 0.91545175966E+00 0.76281648226E+00 0.70906368723E+00
 0.64451529518E+00 0.57449542999E+00 0.51842316114E+00 0.48043527074E+00 0.44873459903E+00
 0.42323746217E+00 0.41493391855E+00 0.42036713446E+00 0.42726875071E+00 0.44238030664E+00
 0.48166246064E+00 0.53630171715E+00 0.58250644216E+00 0.62260922969E+00 0.68060278380E+00
 0.75677159054E+00 0.82222245644E+00 0.86031774010E+00 0.87947390532E+00 0.88298211334E+00
 0.86067460353E+00 0.81487317669E+00 0.68325735450E+00 0.64798846918E+00 0.60843166945E+00
 0.56105805100E+00 0.51716063198E+00 0.48616332521E+00 0.46216620810E+00 0.44073311218E+00
 0.43072202595E+00 0.43527668750E+00 0.44116611412E+00 0.44308740869E+00 0.45797200198E+00
 0.49690993172E+00 0.54266718992E+00 0.57498196665E+00 0.60008848355E+00 0.63464299114E+00
 0.67658828735E+00 0.71207859422E+00 0.73657743057E+00 0.75004356397E+00 0.74521878410E+00
 0.71905208013E+00 0.61293326728E+00 0.59146065281E+00 0.57049278232E+00 0.54579948433E+00
 0.52060021778E+00 0.50236171924E+00 0.48952916473E+00 0.47579962115E+00 0.46482926417E+00
 0.46503170866E+00 0.47186211663E+00 0.47258753684E+00 0.46884496159E+00 0.47709604975E+00
 0.50403119050E+00 0.53704995809E+00 0.56259358490E+00 0.58020125476E+00 0.59514391612E+00
 0.60963297842E+00 0.62439513970E+00 0.63808830779E+00 0.64337554715E+00 0.63352188105E+00
 0.55505039898E+00 0.54512793073E+00 0.53724684005E+00 0.53030363373E+00 0.52410554631E+00
 0.52231374619E+00 0.52557070215E+00 0.52807695097E+00 0.52609985051E+00 0.52430911350E+00
 0.52756970847E+00 0.53107993015E+00 0.52608236656E+00 0.51334038348E+00 0.50424107992E+00
 0.50836273860E+00 0.52413014290E+00 0.54170925875E+00 0.55225901562E+00 0.55467960559E+00
 0.55503579989E+00 0.55878439670E+00 0.56369209741E+00 0.56299586038E+00 0.50958120995E+00
 0.50923561630E+00 0.51174149448E+00 0.51843558990E+00 0.52861196149E+00 0.54247299131E+00
 0.56109740469E+00 0.58245755692E+00 0.60035007008E+00 0.60996304842E+00 0.61312140870E+00
 0.61471941542E+00 0.61400626342E+00 0.60339365979E+00 0.57852418367E+00 0.54714162467E+00
 0.52395235840E+00 0.51640143611E+00 0.51846498042E+00 0.51934862693E+00 0.51530104380E+00
 0.51057225968E+00 0.50914119263E+00 0.50975174629E+00 0.47681811112E+00 0.48276668054E+00
 0.49360316896E+00 0.51170214048E+00 0.53707965230E+00 0.56712692906E+00 0.60018877286E+00
 0.63651380761E+00 0.67381615912E+00 0.70443279800E+00 0.72074280967E+00 0.72311331520E+00
 0.71853524197E+00 0.71002180275E+00 0.69110753912E+00 0.65444782141E+00 0.60420649553E+00
 0.55572188372E+00 0.52214482653E+00 0.50412657374E+00 0.49355952941E+00 0.48441925654E+00
 0.47723114678E+00 0.47464044431E+00 0.45812512677E+00 0.46625908168E+00 0.48218768358E+00
 0.50861726684E+00 0.54735924023E+00 0.59540548273E+00 0.64740945769E+00 0.70048319393E+00
 0.75374502209E+00 0.80342756576E+00 0.84092321894E+00 0.85762866347E+00 0.85230165793E+00
 0.83246627645E+00 0.80630210474E+00 0.77310659218E+00 0.72519153860E+00 0.66108207102E+00
 0.59318335861E+00 0.53832779813E+00 0.50279973536E+00 0.48086456737E+00 0.46602524518E+00
 0.45788483016E+00 0.60565260334E+00 0.61712655131E+00 0.64954004869E+00 0.70513235541E+00
 0.78715167279E+00 0.89382922275E+00 0.10174247237E+01 0.11479775949E+01 0.12756535900E+01
 0.13912014540E+01 0.14858965162E+01 0.15495012918E+01 0.15697423396E+01 0.15401979589E+01
 0.14699383773E+01 0.13780799913E+01 0.12756170132E+01 0.11596068909E+01 0.10290353484E+01
 0.89816548145E+00 0.78714605173E+00 0.70506217662E+00 0.64919820369E+00 0.61611551922E+00
 0.61677097092E+00 0.61742017045E+00 0.64732841140E+00 0.70701520960E+00 0.79821303014E+00
 0.92037260935E+00 0.10689312040E+01 0.12353635444E+01 0.14062401077E+01 0.15648599602E+01
 0.16979798786E+01 0.17984967562E+01 0.18577185869E+01 0.18606443953E+01 0.17981216579E+01
 0.16819408376E+01 0.15386004491E+01 0.13874561247E+01 0.12325403859E+01 0.10756381142E+01
 0.92751615852E+00 0.80242536243E+00 0.70834293525E+00 0.64667069178E+00 0.64969239641E+00
 0.63035434530E+00 0.64910983992E+00 0.70762122370E+00 0.80459993944E+00 0.93622104899E+00
 0.10996602217E+01 0.12912729237E+01 0.14999643589E+01 0.17057750458E+01 0.18876247589E+01
 0.20314417108E+01 0.21292187222E+01 0.21717621762E+01 0.21467727491E+01 0.20479087783E+01
 0.18860416059E+01 0.16883878230E+01 0.14835267960E+01 0.12873739962E+01 0.11045239535E+01
 0.94000800836E+00 0.80438144686E+00 0.70698970839E+00 0.70710468963E+00 0.66065754732E+00
 0.65693100638E+00 0.70404407716E+00 0.80257970014E+00 0.94172191504E+00 0.11147761814E+01
 0.13228021094E+01 0.15591506308E+01 0.18036260789E+01 0.20340024688E+01 0.22315848406E+01
 0.23768198136E+01 0.24538177242E+01 0.24593017811E+01 0.23954253116E+01 0.22586458886E+01
 0.20518674573E+01 0.18032331719E+01 0.15533849052E+01 0.13242685911E+01 0.11168178355E+01
 0.93595681589E+00 0.79702093731E+00 0.78714603730E+00 0.71175111031E+00 0.67792328857E+00
 0.69857428082E+00 0.78714125141E+00 0.92993188324E+00 0.11086498411E+01 0.13264097285E+01
 0.15854482723E+01 0.18626811753E+01 0.21309410354E+01 0.23788469431E+01 0.25876039042E+01
 0.27184450412E+01 0.27498264612E+01 0.26997954980E+01 0.25875976422E+01 0.24043684766E+01
 0.21489664640E+01 0.18608350924E+01 0.15854520417E+01 0.13337334753E+01 0.11040297745E+01
 0.91535330916E+00 0.88406146799E+00 0.77843318386E+00 0.71676174308E+00 0.70066413629E+00
 0.76113912543E+00 0.89741611368E+00 0.10763224256E+01 0.12915513115E+01 0.15617413026E+01
 0.18712449431E+01 0.21746351823E+01 0.24562348670E+01 0.27210770740E+01 0.29320996547E+01
 0.30264011491E+01 0.29956218161E+01 0.28852150171E+01 0.27154057116E+01 0.24705374060E+01
 0.21665178762E+01 0.18582384784E+01 0.15735487719E+01 0.13034866899E+01 0.10608786755E+01
 0.99713769257E+00 0.85184124209E+00 0.76844149760E+00 0.71924582382E+00 0.73663709402E+00
 0.84979059766E+00 0.10246576934E+01 0.12276859388E+01 0.14837714766E+01 0.18088856493E+01
 0.21510736554E+01 0.24607223086E+01 0.27515885670E+01 0.30274031476E+01 0.32173334978E+01
 0.32560203854E+01 0.31673675399E+01 0.30040366459E+01 0.27675318457E+01 0.24544247385E+01
 0.21170687993E+01 0.18072843487E+01 0.15159186496E+01 0.12311871824E+01 0.11300122749E+01
 0.93079621206E+00 0.82172986898E+00 0.75216361033E+00 0.72546698098E+00 0.79591852510E+00
 0.95870828565E+00 0.11544225035E+01 0.13804422308E+01 0.16847601779E+01 0.20498183501E+01
 0.23957982055E+01 0.26993099175E+01 0.29945115122E+01 0.32548043047E+01 0.33897662583E+01
 0.33687050956E+01 0.32409249674E+01 0.30316226093E+01 0.27268790160E+01 0.23632664719E+01
 0.20202303061E+01 0.17159737695E+01 0.14136888655E+01 0.12756170208E+01 0.10212110695E+01
 0.87081209361E+00 0.78655839082E+00 0.72972914298E+00 0.74570539193E+00 0.87509041989E+00
 0.10682499746E+01 0.12756222698E+01 0.15356568139E+01 0.18836974463E+01 0.22583930570E+01
 0.25876077094E+01 0.28837100579E+01 0.31652539248E+01 0.33677917907E+01 0.34236033764E+01
 0.33537381134E+01 0.31992651983E+01 0.29438806436E+01 0.25875976754E+01 0.22120417890E+01
 0.18855474214E+01 0.15825066068E+01 0.14095040787E+01 0.11219686740E+01 0.92040484365E+00
 0.81189822216E+00 0.74092628252E+00 0.71058534121E+00 0.78240755212E+00 0.95397313669E+00
 0.11574084763E+01 0.13827155182E+01 0.16826262812E+01 0.20497121663E+01 0.24055343872E+01
 0.27161667213E+01 0.30036464717E+01 0.32412328226E+01 0.33546542718E+01 0.33327648881E+01
 0.32266049720E+01 0.30411499098E+01 0.27427269965E+01 0.23700611201E+01 0.20184933958E+01
 0.17127094892E+01 0.15060746155E+01 0.12168185041E+01 0.97635305925E+00 0.83027767051E+00
 0.74763900286E+00 0.69388564989E+00 0.70713276232E+00 0.82614016688E+00 0.10125746470E+01
 0.12201213902E+01 0.14720337898E+01 0.17956839912E+01 0.21470324738E+01 0.24709125565E+01
 0.27679065484E+01 0.30330618982E+01 0.32013901638E+01 0.32272183571E+01 0.31492996297E+01
 0.30102884977E+01 0.27859627007E+01 0.24633529827E+01 0.21111307412E+01 0.17967684694E+01
 0.15573322073E+01 0.12843548137E+01 0.10329371047E+01 0.85081777650E+00 0.74586056386E+00
 0.68322068272E+00 0.66236100847E+00 0.72174937441E+00 0.86367883896E+00 0.10484402657E+01
 0.12655080216E+01 0.15374222385E+01 0.18519288879E+01 0.21621470119E+01 0.24517696710E+01
 0.27264392707E+01 0.29454059085E+01 0.30412403692E+01 0.30082602807E+01 0.28968441420E+01
 0.27240719090E+01 0.24689094350E+01 0.21526192963E+01 0.18401483181E+01 0.15697423814E+01
 0.13137280381E+01 0.10738169527E+01 0.87537023076E+00 0.74229718266E+00 0.66537227707E+00
 0.63074634390E+00 0.65176757283E+00 0.74229184622E+00 0.88774102007E+00 0.10716217198E+01
 0.12997735731E+01 0.15697487165E+01 0.18488229846E+01 0.21108962351E+01 0.23600819984E+01
 0.25876077498E+01 0.27429328871E+01 0.27834862322E+01 0.27211527968E+01 0.25876039777E+01
 0.23888056634E+01 0.21287245420E+01 0.18430348377E+01 0.15479756930E+01 0.13080982149E+01
 0.10863302548E+01 0.89403577053E+00 0.74504472814E+00 0.64576894466E+00 0.59554768088E+00
 0.59616437276E+00 0.65026184455E+00 0.75301538110E+00 0.89753836626E+00 0.10845699065E+01
 0.13122762794E+01 0.15600994430E+01 0.17992182823E+01 0.20167624475E+01 0.22123058579E+01
 0.23717465960E+01 0.24642566213E+01 0.24688132467E+01 0.23888287592E+01 0.22391704025E+01
 0.20349760467E+01 0.17963156884E+01 0.14900950367E+01 0.12754097954E+01 0.10715507890E+01
 0.89574284258E+00 0.75175357982E+00 0.63941590015E+00 0.56782538754E+00 0.54751994327E+00
 0.57638721030E+00 0.64477172442E+00 0.74965492278E+00 0.89400405961E+00 0.10758202431E+01
 0.12846509471E+01 0.15039715289E+01 0.17120416904E+01 0.18878959695E+01 0.20222324460E+01
 0.21149775328E+01 0.21585225178E+01 0.21351395571E+01 0.20380537062E+01 0.18839204881E+01
 0.16966266727E+01 0.13964394702E+01 0.12198350769E+01 0.10388945896E+01 0.87971429664E+00
 0.75209939660E+00 0.64650476668E+00 0.56420109916E+00 0.52262091590E+00 0.52772175405E+00
 0.56784452733E+00 0.63752504215E+00 0.74223438268E+00 0.87895069359E+00 0.10365440724E+01
 0.12128747451E+01 0.14048842684E+01 0.15854564287E+01 0.17195928378E+01 0.18016390220E+01
 0.18478856311E+01 0.18564118049E+01 0.18068215872E+01 0.16985284008E+01 0.15562600837E+01
 0.12756536078E+01 0.11424007156E+01 0.99458902449E+00 0.85413651765E+00 0.74230561670E+00
 0.65378899205E+00 0.57867173034E+00 0.52827059136E+00 0.51562320342E+00 0.53313267039E+00
 0.57218871145E+00 0.64113855302E+00 0.74229182599E+00 0.85719352348E+00 0.97643842815E+00
 0.11153354948E+01 0.12756222799E+01 0.14206857775E+01 0.15156691523E+01 0.15651964257E+01
 0.15854483103E+01 0.15677570539E+01 0.14994701889E+01 0.13949357643E+01 0.11416429492E+01
 0.10472862177E+01 0.93925769647E+00 0.82616013536E+00 0.73047370886E+00 0.65804956984E+00
 0.59795119401E+00 0.55171731399E+00 0.53258484253E+00 0.53821093164E+00 0.55586328812E+00
 0.59135535297E+00 0.65946123738E+00 0.74923559332E+00 0.83448349162E+00 0.91621439117E+00
 0.10173537236E+01 0.11351798954E+01 0.12360292708E+01 0.12993206516E+01 0.13315824833E+01
 0.13351966679E+01 0.12996162803E+01 0.12283734454E+01 0.10086809829E+01 0.94519989629E+00
 0.87499441406E+00 0.79709841388E+00 0.72521953914E+00 0.67019850210E+00 0.62636952128E+00
 0.58960785233E+00 0.56992797514E+00 0.57144777030E+00 0.58076763344E+00 0.59201337656E+00
 0.62200261133E+00 0.68150392018E+00 0.75201274397E+00 0.81182295913E+00 0.86634668031E+00
 0.93112235716E+00 0.10015037994E+01 0.10602097443E+01 0.10999060879E+01 0.11188273876E+01
 0.11088981798E+01 0.10675779889E+01 0.88834532218E+00 0.84946203728E+00 0.80969384808E+00
 0.76694410361E+00 0.72614814192E+00 0.69565815775E+00 0.67367372884E+00 0.65318145263E+00
 0.63765616488E+00 0.63578285490E+00 0.64289111494E+00 0.64570984373E+00 0.64586003869E+00
 0.66060257640E+00 0.69736090038E+00 0.74347598701E+00 0.78478309163E+00 0.82002926592E+00
 0.85326585627E+00 0.88477868521E+00 0.91294058610E+00 0.93419549631E+00 0.93969628782E+00
 0.92249462098E+00 0.78715167406E+00 0.76890198932E+00 0.75268795887E+00 0.73928659056E+00
 0.72971432327E+00 0.72795698103E+00 0.73396329112E+00 0.74048343005E+00 0.74230560394E+00
 0.74318632373E+00 0.74755507609E+00 0.75024540794E+00 0.74229714970E+00 0.72505125983E+00
 0.71150277970E+00 0.71317727244E+00 0.72972913970E+00 0.75138653661E+00 0.76853476022E+00
 0.77891821210E+00 0.78714126710E+00 0.79686212500E+00 0.80410575648E+00 0.80123265165E+00
 0.70706915552E+00 0.70563555921E+00 0.70871906965E+00 0.71929093509E+00 0.73754831804E+00
 0.76354074713E+00 0.79717029133E+00 0.83443159337E+00 0.86672221671E+00 0.88703283686E+00
 0.89581472101E+00 0.89749820757E+00 0.89133534381E+00 0.87003252179E+00 0.83034953078E+00
 0.78241093470E+00 0.74393358870E+00 0.72464952773E+00 0.71931768902E+00 0.71670493019E+00
 0.71201847887E+00 0.70816715594E+00 0.70769310997E+00 0.70829656381E+00 0.64935253272E+00
 0.65924562051E+00 0.67779466675E+00 0.70864719188E+00 0.75250043377E+00 0.80621860760E+00
 0.86643817302E+00 0.93091435406E+00 0.99440149515E+00 0.10461412451E+01 0.10759367915E+01
 0.10827959482E+01 0.10736294463E+01 0.10520800028E+01 0.10126768000E+01 0.94982025011E+00
 0.87062458086E+00 0.79414392670E+00 0.73673136188E+00 0.70064905952E+00 0.67773575949E+00
 0.66098219574E+00 0.64979155373E+00 0.64597519288E+00 0.61573830179E+00 0.63004117056E+00
 0.65862519665E+00 0.70494325911E+00 0.77118880224E+00 0.85355768131E+00 0.94457945791E+00
 0.10383224426E+01 0.11303635388E+01 0.12132088067E+01 0.12747893420E+01 0.13039434535E+01
 0.12983114491E+01 0.12658323500E+01 0.12161980887E+01 0.11507636617E+01 0.10643844203E+01
 0.95900259672E+00 0.85122083583E+00 0.76170009794E+00 0.69885546422E+00 0.65722677171E+00
 0.62973391821E+00 0.61544652386E+00 0.80966946757E+00 0.82990317716E+00 0.88788436394E+00
 0.98453340607E+00 0.11211933430E+01 0.12934782374E+01 0.14903412424E+01 0.16977740355E+01
 0.19008702350E+01 0.20843501937E+01 0.22332792374E+01 0.23319729403E+01 0.23642267980E+01
 0.23220921452E+01 0.22162937809E+01 0.20703648863E+01 0.19008376448E+01 0.17101821691E+01
 0.15027115143E+01 0.12980950651E+01 0.11212223475E+01 0.98451314473E+00 0.88753600478E+00
 0.82880657890E+00 0.82951441114E+00 0.83018905877E+00 0.88273308006E+00 0.98599914097E+00
 0.11389305465E+01 0.13375798902E+01 0.15737472197E+01 0.18347990920E+01 0.21018709724E+01
 0.23511141327E+01 0.25613821202E+01 0.27183969738E+01 0.28078049491E+01 0.28109205801E+01
 0.27179971866E+01 0.25443283027E+01 0.23232541697E+01 0.20820360900E+01 0.18319171374E+01
 0.15808883174E+01 0.13451099453E+01 0.11433704132E+01 0.98743182230E+00 0.88207156866E+00
 0.88804443412E+00 0.85474593519E+00 0.88743925486E+00 0.98665056626E+00 0.11478430329E+01
 0.13629639616E+01 0.16251419921E+01 0.19267894812E+01 0.22516012790E+01 0.25719885126E+01
 0.28572910600E+01 0.30837118167E+01 0.32351186366E+01 0.32967260486E+01 0.32537459372E+01
 0.31011996467E+01 0.28556630067E+01 0.25536177825E+01 0.22341967043E+01 0.19225942301E+01
 0.16301925658E+01 0.13669097252E+01 0.11475974231E+01 0.98597762017E+00 0.98664479243E+00
 0.90818213148E+00 0.90424088698E+00 0.98341234918E+00 0.11435103412E+01 0.13687206791E+01
 0.16475873930E+01 0.19774254193E+01 0.23469535216E+01 0.27284418336E+01 0.30892059126E+01
 0.33986065666E+01 0.36256522721E+01 0.37458334581E+01 0.37516807480E+01 0.36454560773E+01
 0.34273693000E+01 0.31081628973E+01 0.27279682070E+01 0.23407405854E+01 0.19788953685E+01
 0.16497202659E+01 0.13626160422E+01 0.11376225223E+01 0.11212223331E+01 0.99335860220E+00
 0.94094889352E+00 0.97939171360E+00 0.11212083585E+01 0.13476335651E+01 0.16344886565E+01
 0.19810884539E+01 0.23859795494E+01 0.28189283531E+01 0.32418583047E+01 0.36304795634E+01
 0.39521752816E+01 0.41554434397E+01 0.42109580390E+01 0.41356894533E+01 0.39521780651E+01
 0.36575016500E+01 0.32608872846E+01 0.28169031323E+01 0.23859948437E+01 0.19889394308E+01
 0.16296841502E+01 0.13322264025E+01 0.12831662753E+01 0.11036550902E+01 0.10028276621E+01
 0.98578994079E+00 0.10853729627E+01 0.12973311299E+01 0.15815488790E+01 0.19269146830E+01
 0.23495210100E+01 0.28279003574E+01 0.33053680164E+01 0.37526125043E+01 0.41603173210E+01
 0.44760718109E+01 0.46241691339E+01 0.45914752361E+01 0.44262455101E+01 0.41542343772E+01
 0.37677745096E+01 0.32967844647E+01 0.28141500548E+01 0.23621250748E+01 0.19396850560E+01
 0.15652517217E+01 0.14688849276E+01 0.12281187851E+01 0.10845757261E+01 0.10134139493E+01
 0.10508587619E+01 0.12259878680E+01 0.14981484921E+01 0.18268244147E+01 0.22344587945E+01
 0.27339120754E+01 0.32630481000E+01 0.37573117154E+01 0.42156379106E+01 0.46264762041E+01
 0.49031031097E+01 0.49698292861E+01 0.48501022581E+01 0.46016830977E+01 0.42325554438E+01
 0.37506837100E+01 0.32270606891E+01 0.27322618743E+01 0.22685317254E+01 0.18304629587E+01
 0.16787717864E+01 0.13632435745E+01 0.11735595009E+01 0.10609581606E+01 0.10325860090E+01
 0.11460958063E+01 0.13928771446E+01 0.17048307069E+01 0.20747364465E+01 0.25498012422E+01
 0.31059595715E+01 0.36484149887E+01 0.41371839975E+01 0.45915243609E+01 0.49690065839E+01
 0.51648391416E+01 0.51425814665E+01 0.49544246311E+01 0.46309314719E+01 0.41663919603E+01
 0.36139155658E+01 0.30746208447E+01 0.25828661399E+01 0.21098302664E+01 0.19008376525E+01
 0.15121008311E+01 0.12619233096E+01 0.11149544886E+01 0.10348097695E+01 0.10715894509E+01
 0.12663788064E+01 0.15619092870E+01 0.19008390210E+01 0.23202026877E+01 0.28532589190E+01
 0.34271418081E+01 0.39521897571E+01 0.44246416579E+01 0.48478597469E+01 0.51416140615E+01
 0.52277459360E+01 0.51267175172E+01 0.48839288474E+01 0.44884486468E+01 0.39521780983E+01
 0.33779633318E+01 0.28551545856E+01 0.23698206808E+01 0.21037129059E+01 0.16693985604E+01
 0.13520230660E+01 0.11633709815E+01 0.10495975293E+01 0.10174771121E+01 0.11321516358E+01
 0.13875183487E+01 0.17067702894E+01 0.20751790961E+01 0.25450961129E+01 0.31031817970E+01
 0.36561652200E+01 0.41530078411E+01 0.46000331080E+01 0.49542849241E+01 0.51276877410E+01
 0.51044047841E+01 0.49386432962E+01 0.46397520383E+01 0.41812131969E+01 0.36185637999E+01
 0.30700136877E+01 0.25769685060E+01 0.22546178050E+01 0.18133393828E+01 0.14466338584E+01
 0.12064631788E+01 0.10646781378E+01 0.98904458393E+00 0.10217921502E+01 0.12021499269E+01
 0.14850556207E+01 0.18167780712E+01 0.22184360458E+01 0.27153512531E+01 0.32540098206E+01
 0.37640111061E+01 0.42301384727E+01 0.46312191109E+01 0.48861837719E+01 0.49397582253E+01
 0.48309525247E+01 0.46070783502E+01 0.42492820645E+01 0.37559744401E+01 0.32159303800E+01
 0.27165430229E+01 0.23402517098E+01 0.19168830027E+01 0.15358323364E+01 0.12508710943E+01
 0.10742477230E+01 0.97353545401E+00 0.95140704163E+00 0.10487219021E+01 0.12646628424E+01
 0.15524347686E+01 0.18969344194E+01 0.23190828065E+01 0.28016165304E+01 0.32865428588E+01
 0.37436895486E+01 0.41638722950E+01 0.44900755584E+01 0.46410943008E+01 0.46061546652E+01
 0.44386594940E+01 0.41614273107E+01 0.37618613503E+01 0.32764044967E+01 0.27891448557E+01
 0.23642268398E+01 0.19650471943E+01 0.15985847246E+01 0.12948782140E+01 0.10825080975E+01
 0.95564402979E+00 0.90325812073E+00 0.94112982940E+00 0.10825039356E+01 0.13081151852E+01
 0.15963349883E+01 0.19502378637E+01 0.23642425054E+01 0.27983693364E+01 0.32156857959E+01
 0.36079048735E+01 0.39521897975E+01 0.41835067592E+01 0.42494645066E+01 0.41603337947E+01
 0.39521753551E+01 0.36384330127E+01 0.32346102198E+01 0.27921847940E+01 0.23303089751E+01
 0.19591327570E+01 0.16187049392E+01 0.13246272460E+01 0.10944961340E+01 0.93827819644E+00
 0.85839296965E+00 0.85890679802E+00 0.94282682349E+00 0.11029087592E+01 0.13283732784E+01
 0.16167616491E+01 0.19634862291E+01 0.23432304052E+01 0.27191772664E+01 0.30681697796E+01
 0.33782035088E+01 0.36229926906E+01 0.37611377503E+01 0.37658772940E+01 0.36409913260E+01
 0.34067263413E+01 0.30875378748E+01 0.27160251591E+01 0.22375813889E+01 0.19074491709E+01
 0.15962694389E+01 0.13264350674E+01 0.11049091339E+01 0.93412556627E+00 0.82597200245E+00
 0.79332956697E+00 0.83482822512E+00 0.93970131666E+00 0.11027484963E+01 0.13245472495E+01
 0.16006371426E+01 0.19172560169E+01 0.22524579399E+01 0.25762820985E+01 0.28575610732E+01
 0.30767112565E+01 0.32249194154E+01 0.32882772197E+01 0.32461604574E+01 0.30934996405E+01
 0.28534973948E+01 0.25599279390E+01 0.20897460712E+01 0.18164320515E+01 0.15422443975E+01
 0.12995344553E+01 0.11018658069E+01 0.94148457427E+00 0.82127474343E+00 0.76046740518E+00
 0.76580291813E+00 0.82511357592E+00 0.93214341727E+00 0.10915248214E+01 0.12985986946E+01
 0.15396711204E+01 0.18092202089E+01 0.20988072056E+01 0.23728728977E+01 0.25866075302E+01
 0.27263542310E+01 0.28032516961E+01 0.28121485312E+01 0.27317060685E+01 0.25644306504E+01
 0.23421020639E+01 0.19008702527E+01 0.16908652146E+01 0.14659930701E+01 0.12545380154E+01
 0.10824953055E+01 0.94654381667E+00 0.83724357767E+00 0.76638954716E+00 0.74718105500E+00
 0.77147583841E+00 0.83052609528E+00 0.93342203311E+00 0.10825039154E+01 0.12575720760E+01
 0.14467316159E+01 0.16623535104E+01 0.19008390312E+01 0.21172156252E+01 0.22682854011E+01
 0.23533810442E+01 0.23859795874E+01 0.23558906753E+01 0.22510928724E+01 0.20900943832E+01
 0.16912191306E+01 0.15396506572E+01 0.13719529856E+01 0.12022429925E+01 0.10580384756E+01
 0.94785049258E+00 0.86085005989E+00 0.79776344952E+00 0.77090340439E+00 0.77674225305E+00
 0.80204652683E+00 0.85401588543E+00 0.94948726020E+00 0.10777604080E+01 0.12108668666E+01
 0.13476154117E+01 0.15080800430E+01 0.16842993029E+01 0.18355413617E+01 0.19352885402E+01
 0.19867092624E+01 0.19904360833E+01 0.19355064527E+01 0.18275363532E+01 0.14812282802E+01
 0.13785674160E+01 0.12662651576E+01 0.11477002637E+01 0.10409729048E+01 0.95978711184E+00
 0.89871652928E+00 0.85213310319E+00 0.82813060104E+00 0.82883263169E+00 0.83938710077E+00
 0.85456694312E+00 0.89414516673E+00 0.97172862530E+00 0.10692291393E+01 0.11633376193E+01
 0.12572658454E+01 0.13636288052E+01 0.14734348887E+01 0.15644580656E+01 0.16253756819E+01
 0.16518810897E+01 0.16347634083E+01 0.15722930293E+01 0.12877158047E+01 0.12256773278E+01
 0.11607337023E+01 0.10940869203E+01 0.10339069540E+01 0.99085498764E+00 0.96338751490E+00
 0.94273393668E+00 0.92971259211E+00 0.93032626905E+00 0.93772595739E+00 0.93805254962E+00
 0.93496923382E+00 0.94961349939E+00 0.99264501074E+00 0.10522635107E+01 0.11131013524E+01
 0.11717437817E+01 0.12295883029E+01 0.12838407455E+01 0.13296954229E+01 0.13608265935E+01