    3    3    1    1
  0.9660406E+02  0.3190316E-09  0.3190316E-09  0.3287900E-08  0.5000000E-15
  1.000000000000000E-004
  CAR 
 unknown system                          
     18     10     14
 
  0.0000000E+00  0.0000000E+00  0.0000000E+00  0.1562500E-01
    1      -17.930776   1.000000
    2      -16.722436   1.000000
    3       -9.440586   1.000000
    4       -6.478492   1.000000
    5       -6.478243   1.000000
    6       -5.618707   1.000000
    7       -5.371407   1.000000
    8       -5.370942   1.000000
    9       -3.896519   1.000000
   10       -1.122368   0.000000
   11       -1.121588   0.000000
   12       -0.899396   0.000000
   13       -0.898730   0.000000
   14        1.511182   0.000000
 
  0.1250000E+00  0.0000000E+00  0.0000000E+00  0.9375000E-01
    1      -17.716730   1.000000
    2      -16.619985   1.000000
    3       -9.195918   1.000000
    4       -6.943112   1.000000
    5       -6.425882   1.000000
    6       -6.244361   1.000000
    7       -5.707684   1.000000
    8       -4.940388   1.000000
    9       -4.035245   1.000000
   10       -1.404849   0.000000
   11       -1.338522   0.000000
   12       -1.136823   0.000000
   13       -0.768173   0.000000
   14        1.892651   0.000000
 
  0.2500000E+00  0.0000000E+00  0.0000000E+00  0.9375000E-01
    1      -17.148163   1.000000
    2      -16.351044   1.000000
    3       -8.829782   1.000000
    4       -7.671244   1.000000
    5       -7.407520   1.000000
    6       -6.344248   1.000000
    7       -5.658533   1.000000
    8       -5.192379   1.000000
    9       -4.603741   1.000000
   10       -1.729291   0.000000
   11       -1.554036   0.000000
   12       -1.011069   0.000000
   13       -0.152867   0.000000
   14        2.700219   0.000000
 
  0.3750000E+00  0.0000000E+00  0.0000000E+00  0.9375000E-01
    1      -16.473223   1.000000
    2      -16.042464   1.000000
    3       -9.268938   1.000000
    4       -8.276336   1.000000
    5       -7.802348   1.000000
    6       -6.842593   1.000000
    7       -5.601190   1.000000
    8       -5.068465   1.000000
    9       -4.797775   1.000000
   10       -1.736466   0.000000
   11       -1.456711   0.000000
   12       -0.292011   0.000000
   13        0.239650   0.000000
   14        3.264362   0.000000
 
  0.5000000E+00  0.0000000E+00  0.0000000E+00  0.4687500E-01
    1      -16.144976   1.000000
    2      -15.899139   1.000000
    3       -9.602131   1.000000
    4       -8.642540   1.000000
    5       -7.928189   1.000000
    6       -7.023401   1.000000
    7       -5.739593   1.000000
    8       -4.841528   1.000000
    9       -4.516445   1.000000
   10       -1.714957   0.000000
   11       -1.200280   0.000000
   12        0.007569   0.000000
   13        0.355133   0.000000
   14        2.309541   0.000000
 
  0.1250000E+00  0.1250000E+00  0.0000000E+00  0.9375000E-01
    1      -17.324050   1.000000
    2      -16.432867   1.000000
    3       -8.848268   1.000000
    4       -7.508428   1.000000
    5       -6.988789   1.000000
    6       -6.522211   1.000000
    7       -5.905921   1.000000
    8       -4.805354   1.000000
    9       -4.407978   1.000000
   10       -1.804259   0.000000
   11       -1.427017   0.000000
   12       -1.414669   0.000000
   13       -0.173962   0.000000
   14        2.481650   0.000000
 
  0.2500000E+00  0.1250000E+00  0.0000000E+00  0.1875000E+00
    1      -16.690664   1.000000
    2      -16.134216   1.000000
    3       -8.912458   1.000000
    4       -7.934799   1.000000
    5       -7.671623   1.000000
    6       -7.027484   1.000000
    7       -5.806849   1.000000
    8       -5.168422   1.000000
    9       -4.691750   1.000000
   10       -1.888025   0.000000
   11       -1.441263   0.000000
   12       -0.944436   0.000000
   13        0.331441   0.000000
   14        3.453943   0.000000
 
  0.3750000E+00  0.1250000E+00  0.0000000E+00  0.1875000E+00
    1      -16.160243   1.000000
    2      -15.890261   1.000000
    3       -9.314361   1.000000
    4       -8.698482   1.000000
    5       -7.800499   1.000000
    6       -7.045014   1.000000
    7       -5.791706   1.000000
    8       -5.649568   1.000000
    9       -4.365025   1.000000
   10       -1.695937   0.000000
   11       -1.185817   0.000000
   12       -0.320646   0.000000
   13        0.365461   0.000000
   14        2.834825   0.000000
 
  0.2500000E+00  0.2500000E+00  0.0000000E+00  0.9375000E-01
    1      -16.175253   1.000000
    2      -15.881348   1.000000
    3       -8.953775   1.000000
    4       -8.748297   1.000000
    5       -7.474274   1.000000
    6       -7.093224   1.000000
    7       -6.774104   1.000000
    8       -5.516799   1.000000
    9       -4.394694   1.000000
   10       -1.746793   0.000000
   11       -1.135157   0.000000
   12       -0.818616   0.000000
   13        0.649595   0.000000
   14        3.665640   0.000000
 
  0.3750000E+00  0.2500000E+00  0.0000000E+00  0.9375000E-01
    1      -15.940298   1.000000
    2      -15.762297   1.000000
    3       -9.133115   1.000000
    4       -8.784509   1.000000
    5       -7.757453   1.000000
    6       -7.095545   1.000000
    7       -6.867309   1.000000
    8       -5.901863   1.000000
    9       -4.027456   1.000000
   10       -2.073080   0.000000
   11       -0.757711   0.000000
   12       -0.585711   0.000000
   13        0.792851   0.000000
   14        3.078863   0.000000
