unknown system                          
   1.00000000000000     
     3.190316    0.000000    0.000000
    -1.595158    2.762894    0.000000
     0.000000    0.000000   32.879004
   Mo   S 
     1     2
Direct
  0.333333  0.666667  0.113135
  0.666667  0.333333  0.065539
  0.666666  0.333333  0.160730
 
   12   12  128
 0.22269E-02 0.11683E-01 0.79146     0.51588E-03 0.98379     0.12691E-01 0.42629E-02 0.24691E-02 0.87887E-02 0.37228E-03
 0.13636E-01 0.63201E-02 0.32982E-02 0.14663E-02 0.13481E-02 0.22358E-02 0.16464E-01 0.75759E-02 0.35227E-01 0.42488E-02
 0.10889     0.27318E-02 0.20103E-02 0.31427E-02 0.61208E-03 0.25191E-02 0.21985E-02 0.15264E-02 0.23384E-01 0.94360E-02
 0.11433E-01 0.62192E-02 0.29386E-01 0.11151E-01 0.47800E-01 0.81433E-02 0.98964E-03 0.13915E-03 0.96048E-03 0.34037E-02
 0.35809E-02 0.19522E-02 0.52994E-02 0.58599E-02 0.10608E-01 0.88363     0.23425E-01 0.12328E-02 0.17560E-01 0.70340E-02
 0.14506E-02 0.54916E-03 0.30600E-01 0.10209E-01 0.27077E-01 0.11828E-01 0.64773E-01 0.21485E-01 0.27760E-01 0.35478E-01
 0.11307E-02 0.96619E-03 0.86217E-04 0.91665E-04 0.30177E-03 0.16003E-01 0.14568E-01 0.83238     0.24053E-01 0.36470E-02
 0.65042E-02 0.68675E-02 0.29265E-01 0.17893E-02 0.10401E-02 0.54378E-04 0.15248E-02 0.10737E-01 0.50383E-01 0.42213E-01
 0.21850E-01 0.54994E-02 0.17957E-01 0.19199E-01 0.80071E-02 0.20787     0.30280E-03 0.22170E-03 0.37243E-03 0.68096E-03
 0.14205     0.21225E-02 0.12045E-01 0.41334E-02 0.11378E-01 0.34049     0.84506E-02 0.55406     0.13545E-01 0.11921E-03
 0.59361E-02 0.13078E-02 0.31918E-03 0.75571E-03 0.33557     0.15275E-02 0.74949     0.76723     0.83362E-02 0.54527E-03
 0.70539E-01 0.18647     0.92481E-02 0.62355E-04 0.27540E-03 0.71056E-04 0.49700E-02 0.62103E-02 0.98263     0.12146E-02
 0.14611E-02 0.64896E-01 0.60510E-02 0.29870E-03 0.22019E-02 0.10592E-02 0.21307E-03 0.23275E-03 0.41092E-02 0.22766E-03
 0.15471E-01 0.53548     0.28395E-02 0.16750E-02 0.10491E-02 0.11480E-02 0.30690E-02 0.10182E-02 0.10887E-01 0.33459E-03
 0.23745E-01 0.40779E-03 0.55097E-03 0.22007E-02 0.35303E-02 0.79011E-02 0.26347E-01 0.37683E-02 0.19085     0.65101    
 0.29392E-01 0.57578E-01 0.27625E-01 0.27326E-02 0.15145     0.64942E-02 0.48257E-02 0.31801E-02 0.54909E-02 0.69067E-01
 0.63687E-01 0.52581E-01 0.98626     0.33780E-01 0.74526     0.63906E-01 0.11441E-01 0.88657E-02 0.25459E-02 0.31352    
 0.60332E-02 0.99179E-02 0.80287E-01 0.31279     0.67572E-01 0.23634     0.10394     0.69062E-01 0.11347     0.52947    
 0.21591E-01 0.69804E-03 0.62573E-01 0.12653E-01 0.95864E-01 0.19479E-01 0.18851     0.36638E-01 0.78961     0.36013    
 0.77147     0.10922E-01 0.99849     0.74765E-02 0.89869E-01 0.27698E-02 0.52429E-01 0.40719     0.10162     0.87406    
 0.34380     0.70519E-01 0.96568     0.10224     0.10040E-01 0.21335E-01 0.47598E-03 0.12214E-02 0.22416E-02 0.65248    
 0.76932E-01 0.35833     0.74167E-01 0.16229     0.44758E-01 0.20578     0.99346     0.11824E-01 0.36657E-01 0.30993E-03
 0.10550     0.32003E-01 0.11143     0.99766     0.88407     0.40847E-01 0.78158     0.94214E-01 0.44536E-01 0.10162    
 0.21250E-02 0.25495E-02 0.16312E-02 0.42907E-02 0.32907     0.16185E-01 0.61124E-01 0.10520     0.72239E-01 0.53119    
 0.35133E-01 0.10820     0.14927E-01 0.68066E-03 0.61841E-02 0.59764E-01 0.17331E-02 0.15873E-01 0.26107     0.12935E-01
 0.31104     0.33922     0.99208     0.28469E-02 0.10397E-01 0.16756E-01 0.81872E-01 0.38406E-03 0.55263E-02 0.40854E-03
 0.99380E-01 0.51625     0.14196     0.83337E-02 0.49310E-02 0.20755E-01 0.47736E-02 0.13042E-02 0.73899E-02 0.21590E-01
 0.13549E-02 0.44783E-02 0.31957E-02 0.99934E-03 0.13572E-01 0.49525E-01 0.44873E-02 0.30677E-02 0.29030E-02 0.50293E-01
 0.11677E-01 0.78911E-02 0.90911     0.24940E-02 0.78432E-01 0.10380E-01 0.15870E-02 0.39045E-02 0.40311E-02 0.80083E-02
 0.26951E-01 0.17861E-01 0.22342     0.67187     0.14322     0.86123     0.83459E-01 0.13503E-01 0.45725E-01 0.74890E-02
 0.65367E-02 0.53970E-02 0.16276E-01 0.93845     0.18755     0.24604     0.82571     0.21095     0.66076     0.90073    
 0.46164E-01 0.21135E-01 0.83122E-02 0.17907E-01 0.13960E-01 0.43752E-01 0.24375     0.98549     0.41200     0.94276    
 0.47372     0.31363     0.27634     0.47683     0.94878     0.27983E-02 0.58730E-01 0.35743E-01 0.99534     0.15010    
 0.91599     0.40335     0.98940     0.78217     0.89923     0.65082E-01 0.40978     0.15684E-01 0.14381E-01 0.97969E-02
 0.11798     0.94199     0.47201     0.99445     0.94342     0.56345     0.95847     0.30199     0.61402E-01 0.98536    
 0.20905E-02 0.57546E-01 0.11360E-01 0.75813     0.33236     0.78004     0.57666     0.79478     0.36062     0.99525    
 0.59433     0.46191E-01 0.10254     0.12532E-02 0.64359E-01 0.74689E-01 0.27716     0.83700     0.97123     0.34234    
 0.97362     0.37591     0.16609     0.12820     0.74882E-02 0.10954     0.27844E-02 0.11404E-01 0.20251     0.83690E-01
 0.24263     0.91524     0.33029     0.56393     0.10426     0.90700E-01 0.17175E-01 0.17736E-02 0.26197E-02 0.12719E-01
 0.58241E-02 0.81218     0.25352     0.73353E-01 0.38276     0.38249     0.18461     0.10184E-01 0.11283E-01 0.80196E-02
 0.73695E-02 0.12661E-02 0.64773E-01 0.18730E-02 0.37768E-01 0.27433     0.16568     0.38702E-01 0.12747E-01 0.15399E-01
 0.73457E-02 0.42392E-02 0.13193E-01 0.21765     0.50993E-02 0.73171     0.57361E-02 0.35221E-02 0.21034E-01 0.45173E-01
 0.63337E-02 0.54972E-02 0.68947E-02 0.17073     0.33837E-01 0.36278E-01 0.29538     0.12314E-01 0.40208E-01 0.20838    
 0.38307E-02 0.58959E-02 0.60095E-02 0.11408E-01 0.36910E-01 0.54997E-01 0.30827     0.57461     0.38753     0.80743    
 0.18900     0.44423E-01 0.47734E-01 0.11126E-01 0.10320E-01 0.93177E-02 0.33446E-01 0.41450     0.38345     0.53680    
 0.77820     0.54188     0.71166     0.79589     0.12202     0.37723E-01 0.19622E-01 0.19533E-01 0.26488E-01 0.12269    
 0.47294     0.83290     0.69895     0.91752     0.71251     0.61387     0.48586     0.34185     0.33169     0.85048E-02
 0.41125E-01 0.76354E-01 0.73851     0.48858     0.92287     0.71086     0.90130     0.80862     0.80469     0.23857    
 0.39715     0.31422E-01 0.20055E-01 0.26293E-01 0.22461     0.78257     0.71567     0.89746     0.85281     0.75942    
 0.85576     0.54836     0.23121     0.31920     0.71621E-02 0.24234     0.39876E-01 0.63381     0.61968     0.80661    
 0.76377     0.94616     0.68243     0.87100     0.60298     0.12668     0.62198E-01 0.46462E-02 0.54278E-01 0.15162    
 0.48546     0.78991     0.85808     0.67605     0.85484     0.64785     0.37419     0.19869     0.22199E-01 0.31870E-01
 0.75230E-02 0.28680E-01 0.24774     0.26720     0.51821     0.90477     0.62697     0.66495     0.22125     0.12346    
 0.30847E-01 0.56677E-02 0.60875E-02 0.16230E-01 0.16697E-01 0.35729     0.33398     0.25369     0.53234     0.50188    
 0.15760     0.26598E-01 0.20270E-01 0.14481E-01 0.12802E-01 0.45599E-02 0.32506E-01 0.66342E-02 0.47717E-01 0.19238    
 0.22652     0.11359     0.25817E-01 0.22983E-01 0.14624E-01 0.11856E-01 0.27382E-01 0.90240E-01 0.15636E-01 0.75873E-01
 0.12561E-01 0.97930E-02 0.33435E-01 0.54377E-01 0.10153E-01 0.10802E-01 0.15302E-01 0.84014E-01 0.76347E-01 0.11196    
 0.26577     0.41976E-01 0.53988E-01 0.57623E-01 0.86874E-02 0.96902E-02 0.10421E-01 0.17482E-01 0.55014E-01 0.12958    
 0.43433     0.63777     0.60292     0.72478     0.34751     0.11164     0.64731E-01 0.17373E-01 0.16575E-01 0.15672E-01
 0.58013E-01 0.39746     0.57255     0.73194     0.83737     0.76574     0.79017     0.72930     0.24014     0.61268E-01
 0.38165E-01 0.25843E-01 0.45935E-01 0.24813     0.64781     0.85495     0.86144     0.92605     0.86223     0.79399    
 0.65276     0.38433     0.29155     0.19073E-01 0.48942E-01 0.14630     0.71218     0.75116     0.92733     0.89943    
 0.94014     0.89975     0.84952     0.48104     0.48566     0.60544E-01 0.29261E-01 0.59672E-01 0.37624     0.80578    
 0.86482     0.93900     0.93815     0.90965     0.90113     0.72798     0.47081     0.28340     0.17766E-01 0.92653E-01
 0.10496     0.67575     0.79071     0.89888     0.91080     0.95018     0.86864     0.86655     0.68194     0.24236    
 0.69525E-01 0.11674E-01 0.67220E-01 0.25304     0.64319     0.84399     0.90032     0.86844     0.89874     0.80320    
 0.56521     0.28896     0.46516E-01 0.29335E-01 0.14972E-01 0.53295E-01 0.32132     0.49360     0.72092     0.87807    
 0.79944     0.76921     0.38100     0.18952     0.50761E-01 0.12677E-01 0.11661E-01 0.21822E-01 0.36354E-01 0.29337    
 0.45282     0.49309     0.67070     0.62610     0.21050     0.58568E-01 0.33535E-01 0.22730E-01 0.19645E-01 0.11227E-01
 0.33229E-01 0.16936E-01 0.75824E-01 0.23879     0.31863     0.23748     0.46067E-01 0.34764E-01 0.24763E-01 0.25200E-01
 0.48386E-01 0.85888E-01 0.35709E-01 0.63979E-01 0.22526E-01 0.20780E-01 0.52958E-01 0.73733E-01 0.16412E-01 0.18374E-01
 0.28133E-01 0.10159     0.15052     0.23145     0.31977     0.10819     0.87884E-01 0.56173E-01 0.15840E-01 0.15918E-01
 0.15863E-01 0.25277E-01 0.84573E-01 0.24188     0.56120     0.71789     0.72728     0.75868     0.50599     0.21703    
 0.95458E-01 0.25269E-01 0.24512E-01 0.23720E-01 0.95899E-01 0.46130     0.68950     0.81965     0.87649     0.85309    
 0.84110     0.75653     0.36660     0.98734E-01 0.66424E-01 0.32855E-01 0.75516E-01 0.38159     0.73773     0.88073    
 0.90855     0.93412     0.90744     0.86148     0.74011     0.46562     0.37021     0.34449E-01 0.66153E-01 0.24512    
 0.75341     0.84637     0.93381     0.93540     0.94732     0.92485     0.88078     0.64035     0.59540     0.11212    
 0.41817E-01 0.11870     0.52478     0.84440     0.90896     0.94676     0.95016     0.93826     0.92091     0.81399    
 0.63917     0.37808     0.36320E-01 0.99800E-01 0.21514     0.74528     0.86020     0.92587     0.93847     0.95015    
 0.91641     0.88897     0.75601     0.38803     0.11300     0.25143E-01 0.11326     0.38799     0.74283     0.88051    
 0.92011     0.91626     0.91930     0.86654     0.69234     0.41648     0.10233     0.48056E-01 0.33102E-01 0.10982    
 0.44358     0.65025     0.81405     0.88942     0.86359     0.83023     0.53305     0.30100     0.95064E-01 0.29539E-01
 0.26480E-01 0.40743E-01 0.77383E-01 0.37940     0.57502     0.64904     0.74881     0.71205     0.30509     0.11475    
 0.55669E-01 0.37993E-01 0.38579E-01 0.27386E-01 0.47106E-01 0.35708E-01 0.12870     0.33500     0.41860     0.37078    
 0.76801E-01 0.51428E-01 0.37912E-01 0.47612E-01 0.92783E-01 0.14020     0.78067E-01 0.82455E-01 0.35687E-01 0.36738E-01
 0.83880E-01 0.10945     0.24397E-01 0.26342E-01 0.45817E-01 0.15295     0.26959     0.38271     0.43478     0.22091    
 0.14812     0.69446E-01 0.23674E-01 0.23803E-01 0.21016E-01 0.35042E-01 0.12564     0.35726     0.65488     0.77708    
 0.79673     0.80197     0.61119     0.32871     0.14114     0.35097E-01 0.33992E-01 0.33743E-01 0.14523     0.53062    
 0.74964     0.85369     0.88994     0.88051     0.86510     0.78572     0.46184     0.14982     0.10501     0.42949E-01
 0.11704     0.48151     0.77994     0.88382     0.91097     0.92515     0.90902     0.87636     0.78145     0.53930    
 0.48031     0.54094E-01 0.98671E-01 0.34100     0.78894     0.86858     0.92198     0.92473     0.93162     0.91676    
 0.88687     0.71384     0.67062     0.19174     0.59600E-01 0.21010     0.61836     0.86697     0.90963     0.93131    
 0.93095     0.92698     0.91555     0.85100     0.73109     0.49741     0.64815E-01 0.13790     0.33964     0.79783    
 0.88303     0.92096     0.92681     0.93253     0.91638     0.89852     0.81012     0.51097     0.18499     0.46334E-01
 0.18891     0.50235     0.80577     0.89356     0.91559     0.91316     0.91580     0.88591     0.76789     0.53292    
 0.18670     0.77279E-01 0.62932E-01 0.19372     0.55630     0.73597     0.85103     0.88960     0.87702     0.85654    
 0.63921     0.42049     0.16096     0.58149E-01 0.48954E-01 0.70263E-01 0.14061     0.49829     0.66108     0.72438    
 0.78585     0.76171     0.40449     0.19082     0.91282E-01 0.62646E-01 0.68740E-01 0.55465E-01 0.71620E-01 0.64248E-01
 0.20665     0.44149     0.50000     0.47395     0.11809     0.76898E-01 0.58894E-01 0.83063E-01 0.15855     0.22028    
 0.14451     0.12364     0.54775E-01 0.58824E-01 0.12771     0.15947     0.34319E-01 0.36548E-01 0.71498E-01 0.22546    
 0.39728     0.51613     0.54329     0.34443     0.23663     0.96365E-01 0.33298E-01 0.33324E-01 0.27607E-01 0.48028E-01
 0.16971     0.43717     0.70185     0.80197     0.82566     0.81675     0.65539     0.42297     0.19444     0.47625E-01
 0.45888E-01 0.47413E-01 0.19391     0.57894     0.76601     0.84860     0.87226     0.86892     0.85832     0.78617    
 0.51349     0.20664     0.15361     0.55219E-01 0.16908     0.53097     0.78809     0.85309     0.86473     0.86640    
 0.86106     0.85046     0.79104     0.57250     0.55757     0.78852E-01 0.13711     0.41982     0.79177     0.84560    
 0.85423     0.81741     0.82564     0.84933     0.85807     0.73644     0.68976     0.29813     0.80646E-01 0.32014    
 0.65444     0.86067     0.86115     0.82550     0.78011     0.82157     0.86503     0.85119     0.77322     0.57028    
 0.11142     0.18355     0.45839     0.81136     0.87020     0.86252     0.82120     0.82492     0.85974     0.88000    
 0.83373     0.58886     0.28374     0.81569E-01 0.28802     0.57835     0.83433     0.87646     0.86584     0.84698    
 0.86831     0.86978     0.79759     0.61731     0.28458     0.13480     0.11453     0.30050     0.62056     0.77275    
 0.84964     0.85957     0.84923     0.84954     0.69110     0.51012     0.24307     0.11026     0.93855E-01 0.12342    
 0.22984     0.58724     0.68901     0.74850     0.79045     0.77475     0.47439     0.26486     0.14337     0.10757    
 0.12387     0.10752     0.11309     0.10561     0.30520     0.50994     0.54602     0.53650     0.16145     0.11013    
 0.91379E-01 0.13416     0.24067     0.31440     0.23620     0.18142     0.78538E-01 0.88653E-01 0.17919     0.21041    
 0.47471E-01 0.51029E-01 0.10422     0.29639     0.49265     0.60762     0.61311     0.44903     0.33757     0.12658    
 0.45574E-01 0.46171E-01 0.37598E-01 0.64243E-01 0.20505     0.47815     0.72328     0.81661     0.84259     0.81960    
 0.67767     0.49959     0.23195     0.61943E-01 0.60918E-01 0.63785E-01 0.22925     0.59703     0.76287     0.83256    
 0.84841     0.84968     0.84259     0.76759     0.53700     0.25118     0.20561     0.68469E-01 0.21875     0.54142    
 0.77847     0.80867     0.78439     0.75683     0.77857     0.80949     0.78323     0.56567     0.56923     0.11523    
 0.16121     0.48912     0.77418     0.80652     0.72212     0.54006     0.54798     0.71815     0.81352     0.74374    
 0.68859     0.40320     0.10863     0.40140     0.67517     0.84516     0.77854     0.54794     0.34749     0.54592    
 0.78028     0.84044     0.80258     0.59361     0.18687     0.22012     0.56896     0.81048     0.85025     0.75339    
 0.54568     0.54432     0.75305     0.85452     0.84751     0.64715     0.37578     0.13430     0.37128     0.64486    
 0.85092     0.85244     0.78141     0.71739     0.78694     0.84660     0.81144     0.68070     0.37052     0.21137    
 0.17711     0.40154     0.65638     0.79918     0.83802     0.81506     0.80530     0.83465     0.71491     0.57309    
 0.32731     0.17674     0.15391     0.19194     0.33453     0.62531     0.69071     0.75467     0.77853     0.76897    
 0.51149     0.32534     0.20710     0.16983     0.19393     0.17369     0.16481     0.16792     0.40605     0.52116    
 0.56059     0.56264     0.19584     0.14663     0.13432     0.19609     0.32383     0.40465     0.33589     0.23287    
 0.10743     0.13172     0.22202     0.24347     0.63640E-01 0.69629E-01 0.13954     0.35630     0.55939     0.66858    
 0.66215     0.54304     0.41563     0.14665     0.61687E-01 0.63272E-01 0.52204E-01 0.82863E-01 0.22680     0.48851    
 0.73165     0.82874     0.85458     0.81976     0.69707     0.54413     0.23991     0.78119E-01 0.79516E-01 0.80612E-01
 0.24493     0.58937     0.75977     0.83230     0.85131     0.85612     0.84217     0.75050     0.54611     0.26571    
 0.24116     0.85910E-01 0.24684     0.52944     0.76889     0.79643     0.76714     0.73042     0.76068     0.79962    
 0.77294     0.54162     0.53454     0.16173     0.17000     0.53818     0.75745     0.79740     0.67966     0.45685    
 0.46114     0.67809     0.79866     0.75508     0.69140     0.44011     0.14113     0.40901     0.69694     0.84489    
 0.76083     0.46093     0.23600     0.46157     0.76022     0.84327     0.82609     0.57370     0.24789     0.23091    
 0.61913     0.80836     0.85591     0.72913     0.46164     0.45569     0.73165     0.85430     0.85685     0.67041    
 0.38476     0.17551     0.37416     0.67944     0.86092     0.85363     0.76107     0.67990     0.76765     0.85018    
 0.82014     0.69796     0.38985     0.24515     0.20898     0.41871     0.65952     0.82360     0.84085     0.80000    
 0.79250     0.83738     0.72448     0.59114     0.35585     0.20991     0.19129     0.22770     0.37315     0.60304    
 0.69177     0.76354     0.76663     0.76330     0.52328     0.35591     0.24240     0.20370     0.22702     0.20548    
 0.19330     0.22357     0.44851     0.49440     0.55826     0.55862     0.21664     0.17841     0.16823     0.23044    
 0.35068     0.42714     0.36706     0.24208     0.13732     0.18285     0.23837     0.25327     0.81654E-01 0.91112E-01
 0.16943     0.38892     0.57992     0.68002     0.67506     0.59314     0.42886     0.15827     0.84591E-01 0.83325E-01
 0.75178E-01 0.10576     0.23195     0.44764     0.69070     0.80366     0.83019     0.78389     0.67159     0.51266    
 0.22843     0.99818E-01 0.10303     0.10035     0.24244     0.55428     0.73709     0.82689     0.86009     0.86687    
 0.83664     0.72100     0.52588     0.25517     0.24301     0.10825     0.24595     0.48940     0.74835     0.80766    
 0.81049     0.79397     0.80582     0.81066     0.74810     0.50405     0.46547     0.18188     0.16330     0.52236    
 0.72662     0.80708     0.75151     0.64682     0.64635     0.75207     0.80542     0.74567     0.66014     0.36000    
 0.14512     0.32580     0.67397     0.84121     0.80594     0.64570     0.50217     0.64949     0.80345     0.83953    
 0.80555     0.47855     0.21421     0.19521     0.53221     0.77149     0.86584     0.79555     0.64973     0.63997    
 0.79965     0.85949     0.83090     0.60091     0.30579     0.17479     0.30029     0.61537     0.83409     0.85935    
 0.80416     0.75592     0.80948     0.85918     0.78905     0.61578     0.33475     0.23994     0.21575     0.34812    
 0.58318     0.80777     0.83638     0.80653     0.80145     0.83688     0.68317     0.50710     0.29946     0.21490    
 0.21909     0.23110     0.30613     0.49276     0.65857     0.75203     0.74227     0.74013     0.48847     0.31157    
 0.20426     0.18888     0.22791     0.21099     0.18389     0.20314     0.37121     0.43555     0.53405     0.51739    
 0.22033     0.18391     0.15587     0.19463     0.29446     0.36275     0.30111     0.19451     0.13957     0.19941    
 0.22834     0.24935     0.10340     0.11188     0.17329     0.34467     0.49801     0.59431     0.59892     0.52227    
 0.34683     0.15810     0.11157     0.10605     0.11927     0.14387     0.22212     0.33472     0.53876     0.67585    
 0.70792     0.64762     0.52953     0.38527     0.21267     0.13654     0.13994     0.13366     0.23641     0.48790    
 0.64109     0.75343     0.81593     0.82337     0.76684     0.63065     0.45521     0.24479     0.22359     0.13330    
 0.22824     0.40778     0.67919     0.78063     0.80842     0.80736     0.80725     0.77831     0.67101     0.43675    
 0.35241     0.15274     0.13846     0.41158     0.62979     0.76882     0.77860     0.75577     0.74988     0.77969    
 0.77038     0.65903     0.52142     0.22353     0.11247     0.20335     0.53478     0.77901     0.80571     0.74869    
 0.69809     0.75546     0.80298     0.77053     0.67301     0.33315     0.15326     0.14979     0.35546     0.63332    
 0.82248     0.81238     0.75568     0.74415     0.81734     0.81053     0.70980     0.46306     0.24121     0.15888    
 0.24106     0.47501     0.71001     0.80938     0.80461     0.78447     0.80785     0.81328     0.65137     0.46889    
 0.28516     0.22240     0.20659     0.29061     0.45097     0.68305     0.76255     0.77408     0.76565     0.77498    
 0.53021     0.34893     0.24169     0.20526     0.21763     0.21744     0.24039     0.33646     0.52134     0.66287    
 0.66671     0.64773     0.38064     0.20530     0.15036     0.16751     0.21404     0.20318     0.16683     0.15008    
 0.23008     0.33111     0.47052     0.43312     0.20869     0.15540     0.11315     0.14362     0.23832     0.30367    
 0.23772     0.14484     0.10914     0.16309     0.20888     0.24728     0.13897     0.13126     0.14475     0.23099    
 0.34269     0.44968     0.46155     0.35902     0.21739     0.13849     0.13565     0.14186     0.20840     0.22327    
 0.22247     0.21843     0.33188     0.44359     0.47395     0.41938     0.32218     0.25242     0.21672     0.20892    
 0.21300     0.19966     0.26054     0.41674     0.44703     0.53480     0.62421     0.62606     0.55514     0.45662    
 0.36624     0.26508     0.22170     0.17597     0.22427     0.31383     0.55289     0.65289     0.67839     0.69065    
 0.68663     0.63645     0.52731     0.35653     0.24082     0.13311     0.12944     0.28254     0.43917     0.61456    
 0.69024     0.69840     0.68555     0.68631     0.62817     0.47448     0.31880     0.15327     0.10231     0.14044    
 0.33342     0.57906     0.67622     0.68388     0.66944     0.69459     0.68021     0.55828     0.43477     0.21679    
 0.11006     0.11120     0.22060     0.40589     0.63222     0.69988     0.69504     0.67934     0.70734     0.60995    
 0.47916     0.30236     0.13377     0.79449E-01 0.13566     0.30890     0.47429     0.60777     0.68424     0.69132    
 0.68423     0.61518     0.41681     0.30424     0.14959     0.84570E-01 0.78440E-01 0.15177     0.29640     0.44772    
 0.54020     0.64326     0.61451     0.57431     0.32438     0.22259     0.13486     0.78069E-01 0.73085E-01 0.82148E-01
 0.13310     0.21740     0.32262     0.47032     0.53046     0.45984     0.26036     0.14335     0.10985     0.83445E-01
 0.80632E-01 0.78027E-01 0.83874E-01 0.10786     0.15654     0.22557     0.39055     0.34058     0.20673     0.14238    
 0.10113     0.10501     0.13431     0.15803     0.13077     0.10773     0.10075     0.14205     0.20650     0.27723    
 0.21131     0.16466     0.13122     0.16272     0.21776     0.29140     0.30346     0.22719     0.14972     0.12965    
 0.17222     0.21497     0.34149     0.35571     0.25985     0.18577     0.22753     0.24927     0.25040     0.23836    
 0.21315     0.21380     0.26919     0.32568     0.33041     0.30406     0.35872     0.39547     0.27173     0.28543    
 0.32532     0.31672     0.29870     0.30163     0.33153     0.34179     0.27112     0.25744     0.25840     0.27726    
 0.44248     0.42518     0.38559     0.39706     0.40678     0.40502     0.38321     0.32663     0.20969     0.16910    
 0.17681     0.24105     0.26669     0.38461     0.46293     0.45237     0.43931     0.44370     0.40033     0.30888    
 0.21178     0.15795     0.13276     0.14646     0.23058     0.31374     0.38400     0.44027     0.44381     0.44831    
 0.40174     0.30005     0.24357     0.14276     0.80802E-01 0.81685E-01 0.14072     0.23165     0.33147     0.39993    
 0.45014     0.43397     0.41039     0.30915     0.25545     0.14324     0.41036E-01 0.17821E-01 0.42359E-01 0.14468    
 0.24917     0.31124     0.40344     0.44958     0.40028     0.31479     0.23384     0.14302     0.31873E-01 0.59484E-02
 0.53346E-02 0.32344E-01 0.14101     0.25186     0.28255     0.42657     0.37839     0.31630     0.22089     0.14427    
 0.41596E-01 0.53361E-02 0.26369E-02 0.55710E-02 0.41348E-01 0.14208     0.21942     0.29229     0.40767     0.28648    
 0.22099     0.14953     0.80938E-01 0.18733E-01 0.54136E-02 0.54835E-02 0.18863E-01 0.78724E-01 0.15954     0.19846    
 0.35542     0.31023     0.24604     0.18967     0.13003     0.77618E-01 0.42252E-01 0.33301E-01 0.39879E-01 0.80298E-01
 0.13241     0.18327     0.24677     0.37517     0.33315     0.22756     0.17716     0.16683     0.14006     0.13828    
 0.14476     0.14662     0.15474     0.17048     0.24644     0.32901     0.44254     0.46010     0.30148     0.21964    
 0.21605     0.16497     0.14583     0.16375     0.19449     0.24118     0.34008     0.42480     0.42372     0.39678    
 0.50350     0.40760     0.20267     0.17841     0.16608     0.15696     0.17967     0.24562     0.35893     0.43510    
 0.34269     0.33120     0.29986     0.32115     0.40863     0.24688     0.17915     0.17604     0.19480     0.24638    
 0.31472     0.35708     0.23925     0.23088     0.25419     0.25595     0.20073     0.24778     0.24780     0.20198    
 0.20144     0.22745     0.24559     0.24733     0.19414     0.19557     0.17849     0.18784     0.21779     0.17913    
 0.17885     0.20539     0.20031     0.20379     0.19322     0.18035     0.16419     0.12069     0.78981E-01 0.78359E-01
 0.11618     0.16305     0.16844     0.17063     0.20554     0.19951     0.17761     0.15618     0.14896     0.77957E-01
 0.17036E-01 0.59347E-02 0.18152E-01 0.77296E-01 0.14426     0.16133     0.18968     0.23472     0.18803     0.16053    
 0.16027     0.77128E-01 0.75376E-02 0.19260E-03 0.14775E-03 0.76266E-02 0.77186E-01 0.16772     0.17049     0.26314    
 0.23150     0.18754     0.20753     0.11984     0.17560E-01 0.15127E-03 0.60736E-05 0.15410E-03 0.17607E-01 0.11899    
 0.20659     0.22069     0.36434     0.21855     0.23663     0.19129     0.78494E-01 0.61898E-02 0.14543E-03 0.18114E-03
 0.61943E-02 0.76772E-01 0.19383     0.23679     0.36126     0.36175     0.30994     0.25868     0.17439     0.76442E-01
 0.18168E-01 0.76064E-02 0.16754E-01 0.78503E-01 0.18087     0.24968     0.30866     0.48589     0.44024     0.28769    
 0.25734     0.20053     0.11619     0.76294E-01 0.78915E-01 0.12164     0.19345     0.23312     0.32300     0.41326    
 0.44152     0.44333     0.28530     0.24046     0.21669     0.16071     0.14832     0.16688     0.19390     0.23919    
 0.33709     0.42726     0.41806     0.41013     0.52644     0.35062     0.20356     0.19230     0.16728     0.15732    
 0.18204     0.24825     0.35690     0.43155     0.34138     0.32091     0.28697     0.37093     0.40394     0.22906    
 0.18552     0.18385     0.19761     0.24831     0.31552     0.35820     0.23874     0.23187     0.25791     0.23070    
 0.20568     0.27332     0.24826     0.20067     0.20747     0.23177     0.24976     0.24614     0.19450     0.19273    
 0.17562     0.19538     0.21517     0.17005     0.18620     0.21394     0.20380     0.20644     0.19752     0.18262    
 0.16442     0.12209     0.79264E-01 0.76428E-01 0.11626     0.17116     0.16742     0.17293     0.20810     0.20724    
 0.17947     0.15977     0.15039     0.78994E-01 0.17021E-01 0.62355E-02 0.18489E-01 0.76844E-01 0.14636     0.16818    
 0.19005     0.24099     0.18973     0.16447     0.16462     0.77519E-01 0.79551E-02 0.19706E-03 0.16068E-03 0.79579E-02
 0.78806E-01 0.16405     0.17928     0.25431     0.24662     0.18245     0.20717     0.11931     0.17851E-01 0.16847E-03
 0.68569E-05 0.16674E-03 0.17879E-01 0.11989     0.20820     0.21747     0.36897     0.21989     0.22155     0.19733    
 0.77633E-01 0.62408E-02 0.16223E-03 0.21004E-03 0.61696E-02 0.77399E-01 0.18753     0.25186     0.32793     0.39431    
 0.32385     0.24590     0.17295     0.77844E-01 0.18393E-01 0.76159E-02 0.17327E-01 0.78247E-01 0.18080     0.24240    
 0.31857     0.46283     0.44107     0.29116     0.26500     0.18975     0.11684     0.78914E-01 0.79570E-01 0.12076    
 0.19325     0.23140     0.32462     0.40294     0.33918     0.32412     0.23111     0.23020     0.22961     0.23452    
 0.25966     0.25079     0.21345     0.20930     0.26668     0.32859     0.31945     0.32797     0.39610     0.29222    
 0.27889     0.33318     0.32844     0.31504     0.30805     0.31316     0.32782     0.33577     0.26734     0.24052    
 0.23213     0.37735     0.43221     0.37353     0.40656     0.42824     0.41292     0.40830     0.38656     0.33283    
 0.21231     0.16987     0.18607     0.19035     0.28391     0.45144     0.46584     0.44177     0.46055     0.45561    
 0.41320     0.30561     0.21495     0.15336     0.12817     0.16268     0.22690     0.28225     0.40867     0.46915    
 0.45498     0.45253     0.41684     0.30765     0.24366     0.14844     0.81845E-01 0.78129E-01 0.14190     0.26133    
 0.32545     0.40622     0.45465     0.46349     0.41160     0.32461     0.26035     0.14744     0.41787E-01 0.20044E-01
 0.44217E-01 0.14212     0.25677     0.33875     0.40387     0.46299     0.40526     0.32981     0.24948     0.14435    
 0.35609E-01 0.62580E-02 0.62026E-02 0.35368E-01 0.14834     0.23817     0.31379     0.40508     0.42116     0.29976    
 0.22328     0.14400     0.43258E-01 0.63513E-02 0.31601E-02 0.60967E-02 0.43545E-01 0.14607     0.22496     0.28363    
 0.42166     0.28967     0.19233     0.16233     0.79944E-01 0.19486E-01 0.60975E-02 0.67871E-02 0.19236E-01 0.80754E-01
 0.14825     0.23184     0.29293     0.37093     0.27086     0.16906     0.12778     0.81905E-01 0.44356E-01 0.33494E-01
 0.43014E-01 0.81213E-01 0.13274     0.16907     0.26716     0.33833     0.33292     0.23444     0.18990     0.14667    
 0.14271     0.15010     0.14778     0.14441     0.15541     0.17003     0.24690     0.31015     0.20639     0.20204    