 vasp.5.4.4.18Apr17-6-g9f103f2a35 (build Jun 30 2017 11:15:00) complex          
  
 executed on    STALLO_VASP_5.4.4 date 2019.11.08  11:46:58
 running on    4 total cores
 distrk:  each k-point on    4 cores,    1 groups
 distr:  one band on NCORES_PER_BAND=   2 cores,    2 groups


--------------------------------------------------------------------------------------------------------


 INCAR:
 POTCAR:   PAW_PBE Mo 08Apr2002                   
 POTCAR:    PAW_PBE S 17Jan2003                   
 POTCAR:   PAW_PBE Mo 08Apr2002                   
   VRHFIN =Mo: 4p5s4d                                                           
   LEXCH  = PE                                                                  
   EATOM  =   217.5180 eV,   15.9871 Ry                                         
                                                                                
   TITEL  = PAW_PBE Mo 08Apr2002                                                
   LULTRA =        F    use ultrasoft PP ?                                      
   IUNSCR =        1    unscreen: 0-lin 1-nonlin 2-no                           
   RPACOR =    2.200    partial core radius                                     
   POMASS =   95.940; ZVAL   =    6.000    mass and valenz                      
   RCORE  =    2.750    outmost cutoff radius                                   
   RWIGS  =    2.750; RWIGS  =    1.455    wigner-seitz radius (au A)           
   ENMAX  =  224.584; ENMIN  =  168.438 eV                                      
   RCLOC  =    2.111    cutoff for local pot                                    
   LCOR   =        T    correct aug charges                                     
   LPAW   =        T    paw PP                                                  
   EAUG   =  345.278                                                            
   DEXC   =    -.088                                                            
   RMAX   =    3.077    core radius for proj-oper                               
   RAUG   =    1.300    factor for augmentation sphere                          
   RDEP   =    2.815    radius for radial grids                                 
   QCUT   =   -4.063; QGAM   =    8.126    optimization parameters              
                                                                                
   Description                                                                  
     l     E      TYP  RCUT    TYP  RCUT                                        
     2   .000     23  2.500                                                     
     2   .000     23  2.500                                                     
     0   .000     23  2.600                                                     
     0  1.000     23  2.600                                                     
     1   .400     23  2.750                                                     
     1  2.000     23  2.750                                                     
     3   .000      7   .000                                                     
  local pseudopotential read in
  partial core-charges read in
  atomic valenz-charges read in
  non local Contribution for L=           2  read in
    real space projection operators read in
  non local Contribution for L=           2  read in
    real space projection operators read in
  non local Contribution for L=           0  read in
    real space projection operators read in
  non local Contribution for L=           0  read in
    real space projection operators read in
  non local Contribution for L=           1  read in
    real space projection operators read in
  non local Contribution for L=           1  read in
    real space projection operators read in
    PAW grid and wavefunctions read in
 
   number of l-projection  operators is LMAX  =           6
   number of lm-projection operators is LMMAX =          18
 
 POTCAR:    PAW_PBE S 17Jan2003                   
   VRHFIN =S : s2p4                                                             
   LEXCH  = PE                                                                  
   EATOM  =   276.8230 eV,   20.3459 Ry                                         
                                                                                
   TITEL  = PAW_PBE S 17Jan2003                                                 
   LULTRA =        F    use ultrasoft PP ?                                      
   IUNSCR =        1    unscreen: 0-lin 1-nonlin 2-no                           
   RPACOR =    1.500    partial core radius                                     
   POMASS =   32.066; ZVAL   =    6.000    mass and valenz                      
   RCORE  =    1.900    outmost cutoff radius                                   
   RWIGS  =    2.200; RWIGS  =    1.164    wigner-seitz radius (au A)           
   ENMAX  =  280.000; ENMIN  =  194.016 eV                                      
   ICORE  =        2    local potential                                         
   LCOR   =        T    correct aug charges                                     
   LPAW   =        T    paw PP                                                  
   EAUG   =  335.092                                                            
   DEXC   =     .000                                                            
   RMAX   =    2.867    core radius for proj-oper                               
   RAUG   =    1.300    factor for augmentation sphere                          
   RDEP   =    1.954    radius for radial grids                                 
   QCUT   =   -4.360; QGAM   =    8.721    optimization parameters              
                                                                                
   Description                                                                  
     l     E      TYP  RCUT    TYP  RCUT                                        
     0   .000     23  1.900                                                     
     0   .000     23  1.900                                                     
     1   .000     23  1.900                                                     
     1   .000     23  1.900                                                     
     2   .000     23  1.900                                                     
  local pseudopotential read in
  partial core-charges read in
  atomic valenz-charges read in
  non local Contribution for L=           0  read in
    real space projection operators read in
  non local Contribution for L=           0  read in
    real space projection operators read in
  non local Contribution for L=           1  read in
    real space projection operators read in
  non local Contribution for L=           1  read in
    real space projection operators read in
    PAW grid and wavefunctions read in
 
   number of l-projection  operators is LMAX  =           4
   number of lm-projection operators is LMMAX =           8
 

 ----------------------------------------------------------------------------- 
|                                                                             |
|  ADVICE TO THIS USER RUNNING 'VASP/VAMP'   (HEAR YOUR MASTER'S VOICE ...):  |
|                                                                             |
|      You have a (more or less) 'small supercell' and for smaller cells      |
|      it is recommended  to use the reciprocal-space projection scheme!      |
|      The real space optimization is not  efficient for small cells and it   |
|      is also less accurate ...                                              |
|      Therefore set LREAL=.FALSE. in the  INCAR file                         |
|                                                                             |
 ----------------------------------------------------------------------------- 

 Optimization of the real space projectors (new method)

 maximal supplied QI-value         = 13.61
 optimisation between [QCUT,QGAM] = [  8.03, 16.19] = [ 18.05, 73.41] Ry 
 Optimized for a Real-space Cutoff    1.97 Angstroem

   l    n(q)    QCUT    max X(q) W(low)/X(q) W(high)/X(q)  e(spline) 
   2      9     8.028     3.671    0.48E-05    0.25E-04    0.70E-07
   2      9     8.028    25.193    0.26E-03    0.70E-03    0.27E-06
   0     10     8.028    26.379    0.19E-04    0.25E-05    0.73E-08
   0     10     8.028    49.709    0.28E-04    0.49E-04    0.74E-07
   1      9     8.028     7.852    0.15E-04    0.15E-05    0.29E-07
   1      9     8.028    10.693    0.92E-04    0.27E-04    0.86E-07
 Optimization of the real space projectors (new method)

 maximal supplied QI-value         = 19.84
 optimisation between [QCUT,QGAM] = [  7.94, 16.07] = [ 17.64, 72.34] Ry 
 Optimized for a Real-space Cutoff    1.55 Angstroem

   l    n(q)    QCUT    max X(q) W(low)/X(q) W(high)/X(q)  e(spline) 
   0      7     7.937     5.487    0.27E-04    0.20E-04    0.12E-07
   0      7     7.937    85.627    0.10E-03    0.36E-03    0.16E-06
   1      7     7.937     3.530    0.15E-04    0.55E-04    0.56E-07
   1      7     7.937    42.714    0.49E-03    0.85E-03    0.12E-06
 PAW_PBE Mo 08Apr2002                   :
 energy of atom  1       EATOM= -217.5180
 kinetic energy error for atom=    0.0235 (will be added to EATOM!!)
  PAW_PBE S 17Jan2003                   :
 energy of atom  2       EATOM= -276.8230
 kinetic energy error for atom=    0.0359 (will be added to EATOM!!)
 
 
 POSCAR: MoS2_mp-2815_computed                   
  positions in cartesian coordinates
  velocities in cartesian coordinates
  No initial velocities read in
 exchange correlation table for  LEXCH =        8
   RHO(1)=    0.500       N(1)  =     2000
   RHO(2)=  100.500       N(2)  =     4000
 


--------------------------------------------------------------------------------------------------------


 ion  position               nearest neighbor table
   1  0.333  0.667  0.113-   3 2.42   2 2.42   2 2.42   3 2.42   3 2.42   2 2.42
   2  0.667  0.333  0.066-   1 2.42   1 2.42   1 2.42
   3  0.667  0.333  0.161-   1 2.42   1 2.42   1 2.42
 
  LATTYP: Found a hexagonal cell.
 ALAT       =     3.1903157300
 C/A-ratio  =    10.3058778762
  
  Lattice vectors:
  
 A1 = (   3.1903157300,   0.0000000000,   0.0000000000)
 A2 = (  -1.5951578650,   2.7628944683,   0.0000000000)
 A3 = (   0.0000000000,   0.0000000000,  32.8790043000)


Analysis of symmetry for initial positions (statically):
=====================================================================
 Subroutine PRICEL returns:
 Original cell was already a primitive cell.
 

 Routine SETGRP: Setting up the symmetry group for a 
 hexagonal supercell.


 Subroutine GETGRP returns: Found 12 space group operations
 (whereof  6 operations were pure point group operations)
 out of a pool of 24 trial point group operations.


The static configuration has the point symmetry C_3v.
 The point group associated with its full space group is D_3h.


Analysis of symmetry for dynamics (positions and initial velocities):
=====================================================================
 Subroutine PRICEL returns:
 Original cell was already a primitive cell.
 

 Routine SETGRP: Setting up the symmetry group for a 
 hexagonal supercell.


 Subroutine GETGRP returns: Found 12 space group operations
 (whereof  6 operations were pure point group operations)
 out of a pool of 24 trial point group operations.


The dynamic configuration has the point symmetry C_3v.
 The point group associated with its full space group is D_3h.


 Subroutine INISYM returns: Found 12 space group operations
 (whereof  6 operations are pure point group operations),
 and found     1 'primitive' translations

 
 
 KPOINTS: k-density: 4.0                          

Automatic generation of k-mesh.
Space group operators:
 irot       det(A)        alpha          n_x          n_y          n_z        tau_x        tau_y        tau_z
    1     1.000000     0.000000     1.000000     0.000000     0.000000     0.000000     0.000000     0.000000
    2     1.000000   120.000000     0.000000     0.000000    -1.000000     0.000000     0.000000     0.000000
    3     1.000000   120.000000     0.000000     0.000000     1.000000     0.000000     0.000000     0.000000
    4    -1.000000   180.000000     1.000000    -0.000000     0.000000     0.000000     0.000000     0.000000
    5    -1.000000   179.999999     0.500000    -0.866025     0.000000     0.000000     0.000000     0.000000
    6    -1.000000   180.000000    -0.500000    -0.866025     0.000000     0.000000     0.000000     0.000000
    7    -1.000000    60.000000     0.000000     0.000000    -1.000000    -0.000000     0.000000     0.226269
    8    -1.000000   180.000000     0.000000     0.000000     1.000000     0.000000     0.000000     0.226269
    9    -1.000000    60.000000     0.000000     0.000000     1.000000     0.000000     0.000001     0.226269
   10     1.000000   180.000000     0.866025    -0.500000     0.000000     0.000000     0.000000     0.226269
   11     1.000000   179.999999     0.000000     1.000000     0.000000     0.000000     0.000000     0.226269
   12     1.000000   180.000000     0.866025     0.500000     0.000000    -0.000000     0.000001     0.226269
 
 Subroutine IBZKPT returns following result:
 ===========================================
 
 Found     10 irreducible k-points:
 
 Following reciprocal coordinates:
            Coordinates               Weight
  0.000000  0.000000  0.000000      1.000000
  0.125000  0.000000  0.000000      6.000000
  0.250000  0.000000  0.000000      6.000000
  0.375000  0.000000  0.000000      6.000000
  0.500000  0.000000  0.000000      3.000000
  0.125000  0.125000  0.000000      6.000000
  0.250000  0.125000  0.000000     12.000000
  0.375000  0.125000  0.000000     12.000000
  0.250000  0.250000  0.000000      6.000000
  0.375000  0.250000  0.000000      6.000000
 
 Following cartesian coordinates:
            Coordinates               Weight
  0.000000  0.000000  0.000000      1.000000
  0.039181  0.022621  0.000000      6.000000
  0.078362  0.045242  0.000000      6.000000
  0.117543  0.067864  0.000000      6.000000
  0.156724  0.090485  0.000000      3.000000
  0.039181  0.067864  0.000000      6.000000
  0.078362  0.090485  0.000000     12.000000
  0.117543  0.113106  0.000000     12.000000
  0.078362  0.135727  0.000000      6.000000
  0.117543  0.158348  0.000000      6.000000
 


--------------------------------------------------------------------------------------------------------




 Dimension of arrays:
   k-points           NKPTS =     10   k-points in BZ     NKDIM =     10   number of bands    NBANDS=     14
   number of dos      NEDOS =   2401   number of ions     NIONS =      3
   non local maximal  LDIM  =      6   non local SUM 2l+1 LMDIM =     18
   total plane-waves  NPLWV =  18432
   max r-space proj   IRMAX =   2072   max aug-charges    IRDMAX=   4282
   dimension x,y,z NGX =    12 NGY =   12 NGZ =  128
   dimension x,y,z NGXF=    24 NGYF=   24 NGZF=  256
   support grid    NGXF=    24 NGYF=   24 NGZF=  256
   ions per type =               1   2
   NGX,Y,Z   is equivalent  to a cutoff of   6.25,  6.25,  6.47 a.u.
   NGXF,Y,Z  is equivalent  to a cutoff of  12.51, 12.51, 12.94 a.u.

 SYSTEM =  unknown system                          
 POSCAR =  MoS2_mp-2815_computed                   

 Startparameter for this run:
   NWRITE =      2    write-flag & timer
   PREC   = normal    normal or accurate (medium, high low for compatibility)
   ISTART =      0    job   : 0-new  1-cont  2-samecut
   ICHARG =      2    charge: 1-file 2-atom 10-const
   ISPIN  =      1    spin polarized calculation?
   LNONCOLLINEAR =      F non collinear calculations
   LSORBIT =      F    spin-orbit coupling
   INIWAV =      1    electr: 0-lowe 1-rand  2-diag
   LASPH  =      F    aspherical Exc in radial PAW
   METAGGA=      F    non-selfconsistent MetaGGA calc.

 Electronic Relaxation 1
   ENCUT  =  250.0 eV  18.37 Ry    4.29 a.u.   4.11  4.11 42.39*2*pi/ulx,y,z
   ENINI  =  250.0     initial cutoff
   ENAUG  =  345.3 eV  augmentation charge cutoff
   NELM   =     60;   NELMIN=  4; NELMDL= -5     # of ELM steps 
   EDIFF  = 0.1E-05   stopping-criterion for ELM
   LREAL  =      T    real-space projection
   NLSPLINE    = F    spline interpolate recip. space projectors
   LCOMPAT=      F    compatible to vasp.4.4
   GGA_COMPAT  = T    GGA compatible to vasp.4.4-vasp.4.6
   LMAXPAW     = -100 max onsite density
   LMAXMIX     =    2 max onsite mixed and CHGCAR
   VOSKOWN=      0    Vosko Wilk Nusair interpolation
   ROPT   =   -0.00050  -0.00050
 Ionic relaxation
   EDIFFG = 0.1E-04   stopping-criterion for IOM
   NSW    =      0    number of steps for IOM
   NBLOCK =      1;   KBLOCK =      1    inner block; outer block 
   IBRION =     -1    ionic relax: 0-MD 1-quasi-New 2-CG
   NFREE  =      0    steps in history (QN), initial steepest desc. (CG)
   ISIF   =      2    stress and relaxation
   IWAVPR =     10    prediction:  0-non 1-charg 2-wave 3-comb
   ISYM   =      2    0-nonsym 1-usesym 2-fastsym
   LCORR  =      T    Harris-Foulkes like correction to forces

   POTIM  = 0.5000    time-step for ionic-motion
   TEIN   =    0.0    initial temperature
   TEBEG  =    0.0;   TEEND  =   0.0 temperature during run
   SMASS  =  -3.00    Nose mass-parameter (am)
   estimated Nose-frequenzy (Omega)   =  0.10E-29 period in steps =****** mass=  -0.233E-27a.u.
   SCALEE = 1.0000    scale energy and forces
   NPACO  =    256;   APACO  = 16.0  distance and # of slots for P.C.
   PSTRESS=    0.0 pullay stress

  Mass of Ions in am
   POMASS =  95.94 32.07
  Ionic Valenz
   ZVAL   =   6.00  6.00
  Atomic Wigner-Seitz radii
   RWIGS  =  -1.00 -1.00
  virtual crystal weights 
   VCA    =   1.00  1.00
   NELECT =      18.0000    total number of electrons
   NUPDOWN=      -1.0000    fix difference up-down

 DOS related values:
   EMIN   = -12.00;   EMAX   = 12.00  energy-range for DOS
   EFERMI =   0.00
   ISMEAR =     0;   SIGMA  =   0.20  broadening in eV -4-tet -1-fermi 0-gaus

 Electronic relaxation 2 (details)
   IALGO  =     68    algorithm
   LDIAG  =      T    sub-space diagonalisation (order eigenvalues)
   LSUBROT=      F    optimize rotation matrix (better conditioning)
   TURBO    =      0    0=normal 1=particle mesh
   IRESTART =      0    0=no restart 2=restart with 2 vectors
   NREBOOT  =      0    no. of reboots
   NMIN     =      0    reboot dimension
   EREF     =   0.00    reference energy to select bands
   IMIX   =      4    mixing-type and parameters
     AMIX     =   0.40;   BMIX     =  1.00
     AMIX_MAG =   1.60;   BMIX_MAG =  1.00
     AMIN     =   0.10
     WC   =   100.;   INIMIX=   1;  MIXPRE=   1;  MAXMIX= -45

 Intra band minimization:
   WEIMIN = 0.0000     energy-eigenvalue tresh-hold
   EBREAK =  0.18E-07  absolut break condition
   DEPER  =   0.30     relativ break condition  

   TIME   =   0.40     timestep for ELM

  volume/ion in A,a.u.               =      96.60       651.92
  Fermi-wavevector in a.u.,A,eV,Ry     =   0.648326  1.225159  5.718891  0.420327
  Thomas-Fermi vector in A             =   1.716922
 
 Write flags
   LWAVE        =      F    write WAVECAR
   LDOWNSAMPLE  =      F    k-point downsampling of WAVECAR
   LCHARG       =      T    write CHGCAR
   LVTOT        =      F    write LOCPOT, total local potential
   LVHAR        =      F    write LOCPOT, Hartree potential only
   LELF         =      T    write electronic localiz. function (ELF)
   LORBIT       =     11    0 simple, 1 ext, 2 COOP (PROOUT), +10 PAW based schemes


 Dipole corrections
   LMONO  =      F    monopole corrections only (constant potential shift)
   LDIPOL =      F    correct potential (dipole corrections)
   IDIPOL =      0    1-x, 2-y, 3-z, 4-all directions 
   EPSILON=  1.0000000 bulk dielectric constant

 Exchange correlation treatment:
   GGA     =    --    GGA type
   LEXCH   =     8    internal setting for exchange type
   VOSKOWN=      0    Vosko Wilk Nusair interpolation
   LHFCALC =     F    Hartree Fock is set to
   LHFONE  =     F    Hartree Fock one center treatment
   AEXX    =    0.0000 exact exchange contribution

 Linear response parameters
   LEPSILON=     F    determine dielectric tensor
   LRPA    =     F    only Hartree local field effects (RPA)
   LNABLA  =     F    use nabla operator in PAW spheres
   LVEL    =     F    velocity operator in full k-point grid
   LINTERFAST=   F  fast interpolation
   KINTER  =     0    interpolate to denser k-point grid
   CSHIFT  =0.1000    complex shift for real part using Kramers Kronig
   OMEGAMAX=  -1.0    maximum frequency
   DEG_THRESHOLD= 0.2000000E-02 threshold for treating states as degnerate
   RTIME   =   -0.100 relaxation time in fs
  (WPLASMAI=    0.000 imaginary part of plasma frequency in eV, 0.658/RTIME)
   DFIELD  = 0.0000000 0.0000000 0.0000000 field for delta impulse in time
 
 Orbital magnetization related:
   ORBITALMAG=     F  switch on orbital magnetization
   LCHIMAG   =     F  perturbation theory with respect to B field
   DQ        =  0.001000  dq finite difference perturbation B field
   LLRAUG    =     F  two centre corrections for induced B field



--------------------------------------------------------------------------------------------------------


 Static calculation
 charge density and potential will be updated during run
 non-spin polarized calculation
 RMM-DIIS sequential band-by-band and
  variant of blocked Davidson during initial phase
 perform sub-space diagonalisation
    before iterative eigenvector-optimisation
 modified Broyden-mixing scheme, WC =      100.0
 initial mixing is a Kerker type mixing with AMIX =  0.4000 and BMIX =      1.0000
 Hartree-type preconditioning will be used
 using additional bands            5
 real space projection scheme for non local part
 use partial core corrections
 calculate Harris-corrections to forces 
   (improved forces if not selfconsistent)
 use gradient corrections 
 use of overlap-Matrix (Vanderbilt PP)
 Gauss-broadening in eV      SIGMA  =   0.20


--------------------------------------------------------------------------------------------------------


  energy-cutoff  :      250.00
  volume of cell :      289.81
      direct lattice vectors                 reciprocal lattice vectors
     3.190315730  0.000000000  0.000000000     0.313448600  0.180969634  0.000000000
    -1.595157865  2.762894468  0.000000000     0.000000000  0.361939267  0.000000000
     0.000000000  0.000000000 32.879004300     0.000000000  0.000000000  0.030414546

  length of vectors
     3.190315730  3.190315730 32.879004300     0.361939267  0.361939267  0.030414546


 
 k-points in units of 2pi/SCALE and weight: k-density: 4.0                          
   0.00000000  0.00000000  0.00000000       0.016
   0.03918108  0.02262120  0.00000000       0.094
   0.07836215  0.04524241  0.00000000       0.094
   0.11754323  0.06786361  0.00000000       0.094
   0.15672430  0.09048482  0.00000000       0.047
   0.03918108  0.06786361  0.00000000       0.094
   0.07836215  0.09048482  0.00000000       0.188
   0.11754323  0.11310602  0.00000000       0.188
   0.07836215  0.13572723  0.00000000       0.094
   0.11754323  0.15834843  0.00000000       0.094
 
 k-points in reciprocal lattice and weights: k-density: 4.0                          
   0.00000000  0.00000000  0.00000000       0.016
   0.12500000  0.00000000  0.00000000       0.094
   0.25000000  0.00000000  0.00000000       0.094
   0.37500000  0.00000000  0.00000000       0.094
   0.50000000  0.00000000  0.00000000       0.047
   0.12500000  0.12500000  0.00000000       0.094
   0.25000000  0.12500000  0.00000000       0.188
   0.37500000  0.12500000  0.00000000       0.188
   0.25000000  0.25000000  0.00000000       0.094
   0.37500000  0.25000000  0.00000000       0.094
 
 position of ions in fractional coordinates (direct lattice) 
   0.33333300  0.66666700  0.11313454
   0.66666700  0.33333300  0.06553929
   0.66666600  0.33333300  0.16072979
 
 position of ions in cartesian coordinates  (Angst):
  -0.00000160  1.84193057  3.71975108
   1.59515946  0.92096390  2.15486668
   1.59515627  0.92096390  5.28463547
 


--------------------------------------------------------------------------------------------------------


 k-point  1 :   0.0000 0.0000 0.0000  plane waves:    2515
 k-point  2 :   0.1250 0.0000 0.0000  plane waves:    2549
 k-point  3 :   0.2500 0.0000 0.0000  plane waves:    2597
 k-point  4 :   0.3750 0.0000 0.0000  plane waves:    2617
 k-point  5 :   0.5000 0.0000 0.0000  plane waves:    2636
 k-point  6 :   0.1250 0.1250 0.0000  plane waves:    2570
 k-point  7 :   0.2500 0.1250 0.0000  plane waves:    2603
 k-point  8 :   0.3750 0.1250 0.0000  plane waves:    2611
 k-point  9 :   0.2500 0.2500 0.0000  plane waves:    2614
 k-point 10 :   0.3750 0.2500 0.0000  plane waves:    2612

 maximum and minimum number of plane-waves per node :      1334     1243

 maximum number of plane-waves:      2636
 maximum index in each direction: 
   IXMAX=    4   IYMAX=    4   IZMAX=   42
   IXMIN=   -4   IYMIN=   -4   IZMIN=  -42


 real space projection operators:
  total allocation   :        397.22 KBytes
  max/ min on nodes  :        200.31        196.91


 parallel 3D FFT for wavefunctions:
    minimum data exchange during FFTs selected (reduces bandwidth)
 parallel 3D FFT for charge:
    minimum data exchange during FFTs selected (reduces bandwidth)


 total amount of memory used by VASP MPI-rank0    35831. kBytes
=======================================================================

   base      :      30000. kBytes
   nonlr-proj:        343. kBytes
   fftplans  :       1521. kBytes
   grid      :       2445. kBytes
   one-center:         31. kBytes
   wavefun   :       1491. kBytes
 
     INWAV:  cpu time    0.0000: real time    0.0003
 Broyden mixing: mesh for mixing (old mesh)
   NGX =  9   NGY =  9   NGZ = 85
  (NGX  = 24   NGY  = 24   NGZ  =256)
  gives a total of   6885 points

 initial charge density was supplied:
 charge density of overlapping atoms calculated
 number of electron      18.0000000 magnetization 
 keeping initial charge density in first step


--------------------------------------------------------------------------------------------------------


 Maximum index for non-local projection operator          962
 Maximum index for augmentation-charges         1013 (set IRDMAX)


--------------------------------------------------------------------------------------------------------


 First call to EWALD:  gamma=   0.268
 Maximum number of real-space cells 6x 6x 1
 Maximum number of reciprocal cells 2x 2x12

    FEWALD:  cpu time    0.0010: real time    0.0015


--------------------------------------- Iteration      1(   1)  ---------------------------------------


    POTLOK:  cpu time    0.0200: real time    0.0653
    SETDIJ:  cpu time    0.0030: real time    0.0025
     EDDAV:  cpu time    0.1170: real time    0.1206
       DOS:  cpu time    0.0020: real time    0.0019
    --------------------------------------------
      LOOP:  cpu time    0.1420: real time    0.1903

 eigenvalue-minimisations  :   304
 total energy-change (2. order) : 0.9900491E+02  (-0.4358902E+03)
 number of electron      18.0000000 magnetization 
 augmentation part       18.0000000 magnetization 

 Free energy of the ion-electron system (eV)
  ---------------------------------------------------
  alpha Z        PSCENC =        10.23027870
  Ewald energy   TEWEN  =      5912.24426521
  -Hartree energ DENC   =     -6582.56384198
  -exchange      EXHF   =         0.00000000
  -V(xc)+E(xc)   XCENC  =       -36.31054208
  PAW double counting   =       406.88651198     -329.34073203
  entropy T*S    EENTRO =        -0.06335972
  eigenvalues    EBANDS =       -53.14624398
  atomic energy  EATOM  =       771.06857575
  Solvation  Ediel_sol  =         0.00000000
  ---------------------------------------------------
  free energy    TOTEN  =        99.00491184 eV

  energy without entropy =       99.06827156  energy(sigma->0) =       99.03659170


--------------------------------------------------------------------------------------------------------




--------------------------------------- Iteration      1(   2)  ---------------------------------------


     EDDAV:  cpu time    0.1670: real time    0.1679
       DOS:  cpu time    0.0010: real time    0.0017
    --------------------------------------------
      LOOP:  cpu time    0.1680: real time    0.1696

 eigenvalue-minimisations  :   476
 total energy-change (2. order) :-0.1100301E+03  (-0.1037776E+03)
 number of electron      18.0000000 magnetization 
 augmentation part       18.0000000 magnetization 

 Free energy of the ion-electron system (eV)
  ---------------------------------------------------
  alpha Z        PSCENC =        10.23027870
  Ewald energy   TEWEN  =      5912.24426521
  -Hartree energ DENC   =     -6582.56384198
  -exchange      EXHF   =         0.00000000
  -V(xc)+E(xc)   XCENC  =       -36.31054208
  PAW double counting   =       406.88651198     -329.34073203
  entropy T*S    EENTRO =        -0.00000000
  eigenvalues    EBANDS =      -163.23972133
  atomic energy  EATOM  =       771.06857575
  Solvation  Ediel_sol  =         0.00000000
  ---------------------------------------------------
  free energy    TOTEN  =       -11.02520579 eV

  energy without entropy =      -11.02520579  energy(sigma->0) =      -11.02520579


--------------------------------------------------------------------------------------------------------




--------------------------------------- Iteration      1(   3)  ---------------------------------------


     EDDAV:  cpu time    0.1410: real time    0.1413
       DOS:  cpu time    0.0020: real time    0.0017
    --------------------------------------------
      LOOP:  cpu time    0.1430: real time    0.1429

 eigenvalue-minimisations  :   394
 total energy-change (2. order) :-0.1213455E+02  (-0.1202772E+02)
 number of electron      18.0000000 magnetization 
 augmentation part       18.0000000 magnetization 

 Free energy of the ion-electron system (eV)
  ---------------------------------------------------
  alpha Z        PSCENC =        10.23027870
  Ewald energy   TEWEN  =      5912.24426521
  -Hartree energ DENC   =     -6582.56384198
  -exchange      EXHF   =         0.00000000
  -V(xc)+E(xc)   XCENC  =       -36.31054208
  PAW double counting   =       406.88651198     -329.34073203
  entropy T*S    EENTRO =        -0.00000000
  eigenvalues    EBANDS =      -175.37427549
  atomic energy  EATOM  =       771.06857575
  Solvation  Ediel_sol  =         0.00000000
  ---------------------------------------------------
  free energy    TOTEN  =       -23.15975995 eV

  energy without entropy =      -23.15975995  energy(sigma->0) =      -23.15975995


--------------------------------------------------------------------------------------------------------




--------------------------------------- Iteration      1(   4)  ---------------------------------------


     EDDAV:  cpu time    0.1290: real time    0.1289
       DOS:  cpu time    0.0010: real time    0.0017
    --------------------------------------------
      LOOP:  cpu time    0.1300: real time    0.1306

 eigenvalue-minimisations  :   356
 total energy-change (2. order) :-0.2058601E+00  (-0.2048134E+00)
 number of electron      18.0000000 magnetization 
 augmentation part       18.0000000 magnetization 

 Free energy of the ion-electron system (eV)
  ---------------------------------------------------
  alpha Z        PSCENC =        10.23027870
  Ewald energy   TEWEN  =      5912.24426521
  -Hartree energ DENC   =     -6582.56384198
  -exchange      EXHF   =         0.00000000
  -V(xc)+E(xc)   XCENC  =       -36.31054208
  PAW double counting   =       406.88651198     -329.34073203
  entropy T*S    EENTRO =        -0.00000000
  eigenvalues    EBANDS =      -175.58013560
  atomic energy  EATOM  =       771.06857575
  Solvation  Ediel_sol  =         0.00000000
  ---------------------------------------------------
  free energy    TOTEN  =       -23.36562006 eV

  energy without entropy =      -23.36562006  energy(sigma->0) =      -23.36562006


--------------------------------------------------------------------------------------------------------




--------------------------------------- Iteration      1(   5)  ---------------------------------------


     EDDAV:  cpu time    0.1350: real time    0.1343
       DOS:  cpu time    0.0010: real time    0.0017
    CHARGE:  cpu time    0.0090: real time    0.0090
    MIXING:  cpu time    0.0010: real time    0.0009
    --------------------------------------------
      LOOP:  cpu time    0.1460: real time    0.1459

 eigenvalue-minimisations  :   372
 total energy-change (2. order) :-0.5088813E-02  (-0.5083830E-02)
 number of electron      17.9999941 magnetization 
 augmentation part       -0.9517589 magnetization 

 Broyden mixing:
  rms(total) = 0.69123E+00    rms(broyden)= 0.69106E+00
  rms(prec ) = 0.72964E+00
  weight for this iteration     100.00

 Free energy of the ion-electron system (eV)
  ---------------------------------------------------
  alpha Z        PSCENC =        10.23027870
  Ewald energy   TEWEN  =      5912.24426521
  -Hartree energ DENC   =     -6582.56384198
  -exchange      EXHF   =         0.00000000
  -V(xc)+E(xc)   XCENC  =       -36.31054208
  PAW double counting   =       406.88651198     -329.34073203
  entropy T*S    EENTRO =        -0.00000000
  eigenvalues    EBANDS =      -175.58522441
  atomic energy  EATOM  =       771.06857575
  Solvation  Ediel_sol  =         0.00000000
  ---------------------------------------------------
  free energy    TOTEN  =       -23.37070887 eV

  energy without entropy =      -23.37070887  energy(sigma->0) =      -23.37070887


--------------------------------------------------------------------------------------------------------




--------------------------------------- Iteration      1(   6)  ---------------------------------------


    POTLOK:  cpu time    0.0170: real time    0.0167
    SETDIJ:  cpu time    0.0020: real time    0.0019
    EDDIAG:  cpu time    0.0200: real time    0.0210
  RMM-DIIS:  cpu time    0.0710: real time    0.0702
    ORTHCH:  cpu time    0.0010: real time    0.0025
       DOS:  cpu time    0.0020: real time    0.0017
    CHARGE:  cpu time    0.0090: real time    0.0088
    MIXING:  cpu time    0.0010: real time    0.0010
    --------------------------------------------
      LOOP:  cpu time    0.1230: real time    0.1237

 eigenvalue-minimisations  :   292
 total energy-change (2. order) : 0.1160478E+01  (-0.5411363E+00)
 number of electron      17.9999944 magnetization 
 augmentation part       -0.4085845 magnetization 

 Broyden mixing:
  rms(total) = 0.26265E+00    rms(broyden)= 0.26246E+00
  rms(prec ) = 0.29364E+00
  weight for this iteration     100.00

 eigenvalues of (default mixing * dielectric matrix)
  average eigenvalue GAMMA=   0.8358
  0.8358

 Free energy of the ion-electron system (eV)
  ---------------------------------------------------
  alpha Z        PSCENC =        10.23027870
  Ewald energy   TEWEN  =      5912.24426521
  -Hartree energ DENC   =     -6580.78512351
  -exchange      EXHF   =         0.00000000
  -V(xc)+E(xc)   XCENC  =       -35.41134948
  PAW double counting   =       426.18423714     -349.52919117
  entropy T*S    EENTRO =        -0.00000003
  eigenvalues    EBANDS =      -176.21192304
  atomic energy  EATOM  =       771.06857575
  Solvation  Ediel_sol  =         0.00000000
  ---------------------------------------------------
  free energy    TOTEN  =       -22.21023043 eV

  energy without entropy =      -22.21023040  energy(sigma->0) =      -22.21023041


--------------------------------------------------------------------------------------------------------




--------------------------------------- Iteration      1(   7)  ---------------------------------------


    POTLOK:  cpu time    0.0160: real time    0.0161
    SETDIJ:  cpu time    0.0020: real time    0.0019
    EDDIAG:  cpu time    0.0200: real time    0.0207
  RMM-DIIS:  cpu time    0.0690: real time    0.0686
    ORTHCH:  cpu time    0.0030: real time    0.0025
       DOS:  cpu time    0.0010: real time    0.0017
    CHARGE:  cpu time    0.0090: real time    0.0088
    MIXING:  cpu time    0.0010: real time    0.0008
    --------------------------------------------
      LOOP:  cpu time    0.1210: real time    0.1210

 eigenvalue-minimisations  :   292
 total energy-change (2. order) : 0.3814581E+00  (-0.5686786E-01)
 number of electron      17.9999943 magnetization 
 augmentation part       -0.6119146 magnetization 

 Broyden mixing:
  rms(total) = 0.15400E+00    rms(broyden)= 0.15398E+00
  rms(prec ) = 0.15972E+00
  weight for this iteration     100.00

 eigenvalues of (default mixing * dielectric matrix)
  average eigenvalue GAMMA=   1.3737
  0.6646  2.0827

 Free energy of the ion-electron system (eV)
  ---------------------------------------------------
  alpha Z        PSCENC =        10.23027870
  Ewald energy   TEWEN  =      5912.24426521
  -Hartree energ DENC   =     -6586.36663104
  -exchange      EXHF   =         0.00000000
  -V(xc)+E(xc)   XCENC  =       -35.55512058
  PAW double counting   =       445.24096692     -368.81931188
  entropy T*S    EENTRO =        -0.00000000
  eigenvalues    EBANDS =      -169.87179541
  atomic energy  EATOM  =       771.06857575
  Solvation  Ediel_sol  =         0.00000000
  ---------------------------------------------------
  free energy    TOTEN  =       -21.82877233 eV

  energy without entropy =      -21.82877233  energy(sigma->0) =      -21.82877233


--------------------------------------------------------------------------------------------------------




--------------------------------------- Iteration      1(   8)  ---------------------------------------


    POTLOK:  cpu time    0.0160: real time    0.0189
    SETDIJ:  cpu time    0.0020: real time    0.0019
    EDDIAG:  cpu time    0.0200: real time    0.0206
  RMM-DIIS:  cpu time    0.0730: real time    0.0722
    ORTHCH:  cpu time    0.0020: real time    0.0025
       DOS:  cpu time    0.0020: real time    0.0017
    CHARGE:  cpu time    0.0080: real time    0.0088
    MIXING:  cpu time    0.0010: real time    0.0014
    --------------------------------------------
      LOOP:  cpu time    0.1240: real time    0.1280

 eigenvalue-minimisations  :   306
 total energy-change (2. order) : 0.6073956E-01  (-0.2335517E-01)
 number of electron      17.9999943 magnetization 
 augmentation part       -0.5609897 magnetization 

 Broyden mixing:
  rms(total) = 0.34724E-01    rms(broyden)= 0.34697E-01
  rms(prec ) = 0.36311E-01
  weight for this iteration     100.00

 eigenvalues of (default mixing * dielectric matrix)
  average eigenvalue GAMMA=   1.4988
  1.9168  1.9168  0.6626

 Free energy of the ion-electron system (eV)
  ---------------------------------------------------
  alpha Z        PSCENC =        10.23027870
  Ewald energy   TEWEN  =      5912.24426521
  -Hartree energ DENC   =     -6590.38950524
  -exchange      EXHF   =         0.00000000
  -V(xc)+E(xc)   XCENC  =       -35.26877746
  PAW double counting   =       471.34880882     -395.44790404
  entropy T*S    EENTRO =        -0.00000000
  eigenvalues    EBANDS =      -165.55377451
  atomic energy  EATOM  =       771.06857575
  Solvation  Ediel_sol  =         0.00000000
  ---------------------------------------------------
  free energy    TOTEN  =       -21.76803277 eV

  energy without entropy =      -21.76803277  energy(sigma->0) =      -21.76803277


--------------------------------------------------------------------------------------------------------




--------------------------------------- Iteration      1(   9)  ---------------------------------------


    POTLOK:  cpu time    0.0160: real time    0.0160
    SETDIJ:  cpu time    0.0020: real time    0.0019
    EDDIAG:  cpu time    0.0200: real time    0.0207
  RMM-DIIS:  cpu time    0.0810: real time    0.0800
    ORTHCH:  cpu time    0.0020: real time    0.0025
       DOS:  cpu time    0.0010: real time    0.0017
    CHARGE:  cpu time    0.0090: real time    0.0088
    MIXING:  cpu time    0.0010: real time    0.0009
    --------------------------------------------
      LOOP:  cpu time    0.1320: real time    0.1324

 eigenvalue-minimisations  :   333
 total energy-change (2. order) : 0.4697228E-02  (-0.8213299E-03)
 number of electron      17.9999943 magnetization 
 augmentation part       -0.5583156 magnetization 

 Broyden mixing:
  rms(total) = 0.92793E-02    rms(broyden)= 0.92734E-02
  rms(prec ) = 0.10837E-01
  weight for this iteration     100.00

 eigenvalues of (default mixing * dielectric matrix)
  average eigenvalue GAMMA=   1.5066
  0.6641  1.0485  2.4448  1.8690

 Free energy of the ion-electron system (eV)
  ---------------------------------------------------
  alpha Z        PSCENC =        10.23027870
  Ewald energy   TEWEN  =      5912.24426521
  -Hartree energ DENC   =     -6591.70023379
  -exchange      EXHF   =         0.00000000
  -V(xc)+E(xc)   XCENC  =       -35.21940233
  PAW double counting   =       476.72686376     -400.89607543
  entropy T*S    EENTRO =        -0.00000000
  eigenvalues    EBANDS =      -164.21760741
  atomic energy  EATOM  =       771.06857575
  Solvation  Ediel_sol  =         0.00000000
  ---------------------------------------------------
  free energy    TOTEN  =       -21.76333555 eV

  energy without entropy =      -21.76333555  energy(sigma->0) =      -21.76333555


--------------------------------------------------------------------------------------------------------




--------------------------------------- Iteration      1(  10)  ---------------------------------------


    POTLOK:  cpu time    0.0160: real time    0.0161
    SETDIJ:  cpu time    0.0020: real time    0.0019
    EDDIAG:  cpu time    0.0210: real time    0.0206
  RMM-DIIS:  cpu time    0.0820: real time    0.0821
    ORTHCH:  cpu time    0.0020: real time    0.0025
       DOS:  cpu time    0.0020: real time    0.0017
    CHARGE:  cpu time    0.0090: real time    0.0088
    MIXING:  cpu time    0.0010: real time    0.0009
    --------------------------------------------
      LOOP:  cpu time    0.1350: real time    0.1346

 eigenvalue-minimisations  :   342
 total energy-change (2. order) : 0.7204085E-03  (-0.1606945E-03)
 number of electron      17.9999943 magnetization 
 augmentation part       -0.5614635 magnetization 

 Broyden mixing:
  rms(total) = 0.43851E-02    rms(broyden)= 0.43802E-02
  rms(prec ) = 0.56864E-02
  weight for this iteration     100.00

 eigenvalues of (default mixing * dielectric matrix)
  average eigenvalue GAMMA=   1.6726
  0.6646  1.0334  2.1716  2.2467  2.2467

 Free energy of the ion-electron system (eV)
  ---------------------------------------------------
  alpha Z        PSCENC =        10.23027870
  Ewald energy   TEWEN  =      5912.24426521
  -Hartree energ DENC   =     -6592.86912286
  -exchange      EXHF   =         0.00000000
  -V(xc)+E(xc)   XCENC  =       -35.19484876
  PAW double counting   =       479.25020304     -403.45173929
  entropy T*S    EENTRO =        -0.00000000
  eigenvalues    EBANDS =      -163.04022691
  atomic energy  EATOM  =       771.06857575
  Solvation  Ediel_sol  =         0.00000000
  ---------------------------------------------------
  free energy    TOTEN  =       -21.76261514 eV

  energy without entropy =      -21.76261514  energy(sigma->0) =      -21.76261514


--------------------------------------------------------------------------------------------------------




--------------------------------------- Iteration      1(  11)  ---------------------------------------


    POTLOK:  cpu time    0.0150: real time    0.0163
    SETDIJ:  cpu time    0.0030: real time    0.0019
    EDDIAG:  cpu time    0.0200: real time    0.0205
  RMM-DIIS:  cpu time    0.0770: real time    0.0766
    ORTHCH:  cpu time    0.0010: real time    0.0025
       DOS:  cpu time    0.0020: real time    0.0017
    CHARGE:  cpu time    0.0090: real time    0.0088
    MIXING:  cpu time    0.0010: real time    0.0010
    --------------------------------------------
      LOOP:  cpu time    0.1280: real time    0.1291

 eigenvalue-minimisations  :   318
 total energy-change (2. order) : 0.6432240E-04  (-0.1744423E-03)
 number of electron      17.9999943 magnetization 
 augmentation part       -0.5586730 magnetization 

 Broyden mixing:
  rms(total) = 0.52999E-02    rms(broyden)= 0.52960E-02
  rms(prec ) = 0.59149E-02
  weight for this iteration     100.00

 eigenvalues of (default mixing * dielectric matrix)
  average eigenvalue GAMMA=   1.6674
  2.8425  2.7806  0.6650  1.4029  1.4029  0.9103

 Free energy of the ion-electron system (eV)
  ---------------------------------------------------
  alpha Z        PSCENC =        10.23027870
  Ewald energy   TEWEN  =      5912.24426521
  -Hartree energ DENC   =     -6594.06826392
  -exchange      EXHF   =         0.00000000
  -V(xc)+E(xc)   XCENC  =       -35.18241376
  PAW double counting   =       478.66764500     -402.85968340
  entropy T*S    EENTRO =        -0.00000000
  eigenvalues    EBANDS =      -161.86295439
  atomic energy  EATOM  =       771.06857575
  Solvation  Ediel_sol  =         0.00000000
  ---------------------------------------------------
  free energy    TOTEN  =       -21.76255081 eV

  energy without entropy =      -21.76255081  energy(sigma->0) =      -21.76255081


--------------------------------------------------------------------------------------------------------




--------------------------------------- Iteration      1(  12)  ---------------------------------------


    POTLOK:  cpu time    0.0160: real time    0.0162
    SETDIJ:  cpu time    0.0030: real time    0.0019
    EDDIAG:  cpu time    0.0200: real time    0.0205
  RMM-DIIS:  cpu time    0.0750: real time    0.0744
    ORTHCH:  cpu time    0.0010: real time    0.0025
       DOS:  cpu time    0.0020: real time    0.0017
    CHARGE:  cpu time    0.0090: real time    0.0088
    MIXING:  cpu time    0.0010: real time    0.0010
    --------------------------------------------
      LOOP:  cpu time    0.1270: real time    0.1269

 eigenvalue-minimisations  :   307
 total energy-change (2. order) : 0.1016539E-03  (-0.5212651E-04)
 number of electron      17.9999943 magnetization 
 augmentation part       -0.5605132 magnetization 

 Broyden mixing:
  rms(total) = 0.15521E-02    rms(broyden)= 0.15422E-02
  rms(prec ) = 0.20683E-02
  weight for this iteration     100.00

 eigenvalues of (default mixing * dielectric matrix)
  average eigenvalue GAMMA=   1.9682
  3.8517  2.8089  2.8089  0.6649  0.9683  1.3373  1.3373

 Free energy of the ion-electron system (eV)
  ---------------------------------------------------
  alpha Z        PSCENC =        10.23027870
  Ewald energy   TEWEN  =      5912.24426521
  -Hartree energ DENC   =     -6594.79944603
  -exchange      EXHF   =         0.00000000
  -V(xc)+E(xc)   XCENC  =       -35.17723479
  PAW double counting   =       478.85250271     -403.04248288
  entropy T*S    EENTRO =        -0.00000000
  eigenvalues    EBANDS =      -161.13890783
  atomic energy  EATOM  =       771.06857575
  Solvation  Ediel_sol  =         0.00000000
  ---------------------------------------------------
  free energy    TOTEN  =       -21.76244916 eV

  energy without entropy =      -21.76244916  energy(sigma->0) =      -21.76244916


--------------------------------------------------------------------------------------------------------




--------------------------------------- Iteration      1(  13)  ---------------------------------------


    POTLOK:  cpu time    0.0160: real time    0.0163
    SETDIJ:  cpu time    0.0030: real time    0.0019
    EDDIAG:  cpu time    0.0200: real time    0.0204
  RMM-DIIS:  cpu time    0.0740: real time    0.0736
    ORTHCH:  cpu time    0.0010: real time    0.0025
       DOS:  cpu time    0.0020: real time    0.0017
    CHARGE:  cpu time    0.0090: real time    0.0088
    MIXING:  cpu time    0.0010: real time    0.0011
    --------------------------------------------
      LOOP:  cpu time    0.1260: real time    0.1263

 eigenvalue-minimisations  :   308
 total energy-change (2. order) :-0.4847955E-03  (-0.1547647E-04)
 number of electron      17.9999943 magnetization 
 augmentation part       -0.5593943 magnetization 

 Broyden mixing:
  rms(total) = 0.18793E-02    rms(broyden)= 0.18714E-02
  rms(prec ) = 0.20344E-02
  weight for this iteration     100.00

 eigenvalues of (default mixing * dielectric matrix)
  average eigenvalue GAMMA=   1.9165
  4.8619  2.6985  2.3603  1.4161  1.4161  0.6650  0.9572  0.9572

 Free energy of the ion-electron system (eV)
  ---------------------------------------------------
  alpha Z        PSCENC =        10.23027870
  Ewald energy   TEWEN  =      5912.24426521
  -Hartree energ DENC   =     -6595.60536226
  -exchange      EXHF   =         0.00000000
  -V(xc)+E(xc)   XCENC  =       -35.17047273
  PAW double counting   =       478.84260570     -403.03781107
  entropy T*S    EENTRO =        -0.00000000
  eigenvalues    EBANDS =      -160.33501325
  atomic energy  EATOM  =       771.06857575
  Solvation  Ediel_sol  =         0.00000000
  ---------------------------------------------------
  free energy    TOTEN  =       -21.76293396 eV

  energy without entropy =      -21.76293396  energy(sigma->0) =      -21.76293396


--------------------------------------------------------------------------------------------------------




--------------------------------------- Iteration      1(  14)  ---------------------------------------


    POTLOK:  cpu time    0.0170: real time    0.0166
    SETDIJ:  cpu time    0.0020: real time    0.0019
    EDDIAG:  cpu time    0.0200: real time    0.0205
  RMM-DIIS:  cpu time    0.0790: real time    0.0785
    ORTHCH:  cpu time    0.0020: real time    0.0025
       DOS:  cpu time    0.0020: real time    0.0017
    CHARGE:  cpu time    0.0080: real time    0.0087
    MIXING:  cpu time    0.0020: real time    0.0012
    --------------------------------------------
      LOOP:  cpu time    0.1320: real time    0.1316

 eigenvalue-minimisations  :   329
 total energy-change (2. order) :-0.9033383E-04  (-0.2853529E-05)
 number of electron      17.9999943 magnetization 
 augmentation part       -0.5604792 magnetization 

 Broyden mixing:
  rms(total) = 0.55894E-03    rms(broyden)= 0.53173E-03
  rms(prec ) = 0.67055E-03
  weight for this iteration     100.00

 eigenvalues of (default mixing * dielectric matrix)
  average eigenvalue GAMMA=   2.2291
  6.9578  3.0558  2.3657  2.3657  0.6650  1.5043  0.9774  0.9774  1.1926

 Free energy of the ion-electron system (eV)
  ---------------------------------------------------
  alpha Z        PSCENC =        10.23027870
  Ewald energy   TEWEN  =      5912.24426521
  -Hartree energ DENC   =     -6595.77848730
  -exchange      EXHF   =         0.00000000
  -V(xc)+E(xc)   XCENC  =       -35.17263536
  PAW double counting   =       478.62595589     -402.81613536
  entropy T*S    EENTRO =        -0.00000000
  eigenvalues    EBANDS =      -160.16484181
  atomic energy  EATOM  =       771.06857575
  Solvation  Ediel_sol  =         0.00000000
  ---------------------------------------------------
  free energy    TOTEN  =       -21.76302429 eV

  energy without entropy =      -21.76302429  energy(sigma->0) =      -21.76302429


--------------------------------------------------------------------------------------------------------




--------------------------------------- Iteration      1(  15)  ---------------------------------------


    POTLOK:  cpu time    0.0160: real time    0.0163
    SETDIJ:  cpu time    0.0020: real time    0.0019
    EDDIAG:  cpu time    0.0200: real time    0.0204
  RMM-DIIS:  cpu time    0.0680: real time    0.0675
    ORTHCH:  cpu time    0.0020: real time    0.0025
       DOS:  cpu time    0.0020: real time    0.0017
    CHARGE:  cpu time    0.0090: real time    0.0088
    MIXING:  cpu time    0.0010: real time    0.0013
    --------------------------------------------
      LOOP:  cpu time    0.1200: real time    0.1203

 eigenvalue-minimisations  :   286
 total energy-change (2. order) :-0.1882212E-03  (-0.1690141E-05)
 number of electron      17.9999943 magnetization 
 augmentation part       -0.5600017 magnetization 

 Broyden mixing:
  rms(total) = 0.40219E-03    rms(broyden)= 0.36375E-03
  rms(prec ) = 0.42261E-03
  weight for this iteration     100.00

 eigenvalues of (default mixing * dielectric matrix)
  average eigenvalue GAMMA=   2.1892
  6.9050  3.5152  2.6112  1.8295  1.6652  1.6652  0.6650  1.0400  1.0400  0.9554

 Free energy of the ion-electron system (eV)
  ---------------------------------------------------
  alpha Z        PSCENC =        10.23027870
  Ewald energy   TEWEN  =      5912.24426521
  -Hartree energ DENC   =     -6595.97535529
  -exchange      EXHF   =         0.00000000
  -V(xc)+E(xc)   XCENC  =       -35.17182132
  PAW double counting   =       478.66471609     -402.85582207
  entropy T*S    EENTRO =        -0.00000000
  eigenvalues    EBANDS =      -159.96804958
  atomic energy  EATOM  =       771.06857575
  Solvation  Ediel_sol  =         0.00000000
  ---------------------------------------------------
  free energy    TOTEN  =       -21.76321251 eV

  energy without entropy =      -21.76321251  energy(sigma->0) =      -21.76321251


--------------------------------------------------------------------------------------------------------




--------------------------------------- Iteration      1(  16)  ---------------------------------------


    POTLOK:  cpu time    0.0160: real time    0.0192
    SETDIJ:  cpu time    0.0030: real time    0.0019
    EDDIAG:  cpu time    0.0200: real time    0.0210
  RMM-DIIS:  cpu time    0.0630: real time    0.0626
    ORTHCH:  cpu time    0.0020: real time    0.0025
       DOS:  cpu time    0.0020: real time    0.0017
    CHARGE:  cpu time    0.0090: real time    0.0088
    MIXING:  cpu time    0.0010: real time    0.0014
    --------------------------------------------
      LOOP:  cpu time    0.1160: real time    0.1191

 eigenvalue-minimisations  :   246
 total energy-change (2. order) :-0.5187944E-04  (-0.3181186E-06)
 number of electron      17.9999943 magnetization 
 augmentation part       -0.5603279 magnetization 

 Broyden mixing:
  rms(total) = 0.25553E-03    rms(broyden)= 0.18945E-03
  rms(prec ) = 0.21665E-03
  weight for this iteration     100.00
  WARNING: grid for Broyden might be to small

 eigenvalues of (default mixing * dielectric matrix)
  average eigenvalue GAMMA=   2.4036
  7.8298  4.6321  2.9635  2.5841  2.1255  1.5055  0.6651  1.2083  0.9996  0.9996
  0.9258

 Free energy of the ion-electron system (eV)
  ---------------------------------------------------
  alpha Z        PSCENC =        10.23027870
  Ewald energy   TEWEN  =      5912.24426521
  -Hartree energ DENC   =     -6596.02133712
  -exchange      EXHF   =         0.00000000
  -V(xc)+E(xc)   XCENC  =       -35.17208295
  PAW double counting   =       478.70385477     -402.89534414
  entropy T*S    EENTRO =        -0.00000000
  eigenvalues    EBANDS =      -159.92147461
  atomic energy  EATOM  =       771.06857575
  Solvation  Ediel_sol  =         0.00000000
  ---------------------------------------------------
  free energy    TOTEN  =       -21.76326439 eV

  energy without entropy =      -21.76326439  energy(sigma->0) =      -21.76326439


--------------------------------------------------------------------------------------------------------




--------------------------------------- Iteration      1(  17)  ---------------------------------------


    POTLOK:  cpu time    0.0170: real time    0.0163
    SETDIJ:  cpu time    0.0020: real time    0.0019
    EDDIAG:  cpu time    0.0200: real time    0.0210
  RMM-DIIS:  cpu time    0.0550: real time    0.0544
    ORTHCH:  cpu time    0.0020: real time    0.0025
       DOS:  cpu time    0.0020: real time    0.0017
    CHARGE:  cpu time    0.0080: real time    0.0088
    MIXING:  cpu time    0.0020: real time    0.0014
    --------------------------------------------
      LOOP:  cpu time    0.1080: real time    0.1080

 eigenvalue-minimisations  :   204
 total energy-change (2. order) :-0.4401449E-04  (-0.2173019E-06)
 number of electron      17.9999943 magnetization 
 augmentation part       -0.5602383 magnetization 

 Broyden mixing:
  rms(total) = 0.21330E-03    rms(broyden)= 0.12694E-03
  rms(prec ) = 0.13621E-03
  weight for this iteration     100.00
  WARNING: grid for Broyden might be to small

 eigenvalues of (default mixing * dielectric matrix)
  average eigenvalue GAMMA=   2.3042
  8.0390  4.7734  2.9547  2.4985  2.1190  1.4885  0.6651  1.3320  1.0036  1.0036
  0.9309  0.8422

 Free energy of the ion-electron system (eV)
  ---------------------------------------------------
  alpha Z        PSCENC =        10.23027870
  Ewald energy   TEWEN  =      5912.24426521
  -Hartree energ DENC   =     -6596.04225924
  -exchange      EXHF   =         0.00000000
  -V(xc)+E(xc)   XCENC  =       -35.17214654
  PAW double counting   =       478.66903616     -402.85976971
  entropy T*S    EENTRO =        -0.00000000
  eigenvalues    EBANDS =      -159.90128873
  atomic energy  EATOM  =       771.06857575
  Solvation  Ediel_sol  =         0.00000000
  ---------------------------------------------------
  free energy    TOTEN  =       -21.76330840 eV

  energy without entropy =      -21.76330840  energy(sigma->0) =      -21.76330840


--------------------------------------------------------------------------------------------------------




--------------------------------------- Iteration      1(  18)  ---------------------------------------


    POTLOK:  cpu time    0.0160: real time    0.0164
    SETDIJ:  cpu time    0.0020: real time    0.0019
    EDDIAG:  cpu time    0.0210: real time    0.0210
  RMM-DIIS:  cpu time    0.0510: real time    0.0507
    ORTHCH:  cpu time    0.0020: real time    0.0025
       DOS:  cpu time    0.0020: real time    0.0017
    CHARGE:  cpu time    0.0090: real time    0.0088
    MIXING:  cpu time    0.0010: real time    0.0015
    --------------------------------------------
      LOOP:  cpu time    0.1040: real time    0.1045

 eigenvalue-minimisations  :   155
 total energy-change (2. order) :-0.2599810E-05  (-0.1849555E-07)
 number of electron      17.9999943 magnetization 
 augmentation part       -0.5602224 magnetization 

 Broyden mixing:
  rms(total) = 0.18312E-03    rms(broyden)= 0.64445E-04
  rms(prec ) = 0.69891E-04
  weight for this iteration     100.00
  WARNING: grid for Broyden might be to small

 eigenvalues of (default mixing * dielectric matrix)
  average eigenvalue GAMMA=   2.3907
  8.0765  5.5881  2.8179  2.8179  2.2748  2.1076  1.6001  0.6651  1.1230  1.1230
  1.0398  0.9510  0.8945

 Free energy of the ion-electron system (eV)
  ---------------------------------------------------
  alpha Z        PSCENC =        10.23027870
  Ewald energy   TEWEN  =      5912.24426521
  -Hartree energ DENC   =     -6596.04215987
  -exchange      EXHF   =         0.00000000
  -V(xc)+E(xc)   XCENC  =       -35.17211395
  PAW double counting   =       478.67635804     -402.86725306
  entropy T*S    EENTRO =        -0.00000000
  eigenvalues    EBANDS =      -159.90126182
  atomic energy  EATOM  =       771.06857575
  Solvation  Ediel_sol  =         0.00000000
  ---------------------------------------------------
  free energy    TOTEN  =       -21.76331100 eV

  energy without entropy =      -21.76331100  energy(sigma->0) =      -21.76331100


--------------------------------------------------------------------------------------------------------




--------------------------------------- Iteration      1(  19)  ---------------------------------------


    POTLOK:  cpu time    0.0160: real time    0.0164
    SETDIJ:  cpu time    0.0030: real time    0.0019
    EDDIAG:  cpu time    0.0200: real time    0.0210
  RMM-DIIS:  cpu time    0.0520: real time    0.0516
    ORTHCH:  cpu time    0.0030: real time    0.0025
       DOS:  cpu time    0.0000: real time    0.0017
    CHARGE:  cpu time    0.0090: real time    0.0088
    MIXING:  cpu time    0.0020: real time    0.0016
    --------------------------------------------
      LOOP:  cpu time    0.1050: real time    0.1055

 eigenvalue-minimisations  :   178
 total energy-change (2. order) :-0.4342908E-05  (-0.4225911E-07)
 number of electron      17.9999943 magnetization 
 augmentation part       -0.5602407 magnetization 

 Broyden mixing:
  rms(total) = 0.17656E-03    rms(broyden)= 0.42366E-04
  rms(prec ) = 0.45070E-04
  weight for this iteration     100.00
  WARNING: grid for Broyden might be to small

 eigenvalues of (default mixing * dielectric matrix)
  average eigenvalue GAMMA=   2.3894
  8.2212  5.6919  3.4744  2.7629  2.3441  1.8653  1.8653  1.5003  0.6651  1.1152
  1.1152  0.9473  0.9473  0.9364

 Free energy of the ion-electron system (eV)
  ---------------------------------------------------
  alpha Z        PSCENC =        10.23027870
  Ewald energy   TEWEN  =      5912.24426521
  -Hartree energ DENC   =     -6596.04059035
  -exchange      EXHF   =         0.00000000
  -V(xc)+E(xc)   XCENC  =       -35.17216192
  PAW double counting   =       478.68049814     -402.87151443
  entropy T*S    EENTRO =        -0.00000000
  eigenvalues    EBANDS =      -159.90266643
  atomic energy  EATOM  =       771.06857575
  Solvation  Ediel_sol  =         0.00000000
  ---------------------------------------------------
  free energy    TOTEN  =       -21.76331535 eV

  energy without entropy =      -21.76331535  energy(sigma->0) =      -21.76331535


--------------------------------------------------------------------------------------------------------




--------------------------------------- Iteration      1(  20)  ---------------------------------------


    POTLOK:  cpu time    0.0170: real time    0.0166
    SETDIJ:  cpu time    0.0020: real time    0.0019
    EDDIAG:  cpu time    0.0210: real time    0.0210
  RMM-DIIS:  cpu time    0.0450: real time    0.0447
    ORTHCH:  cpu time    0.0020: real time    0.0026
       DOS:  cpu time    0.0010: real time    0.0017
    --------------------------------------------
      LOOP:  cpu time    0.0880: real time    0.0884

 eigenvalue-minimisations  :   116
 total energy-change (2. order) :-0.3613983E-06  (-0.5428297E-08)
 number of electron      17.9999943 magnetization 
 augmentation part       -0.5602407 magnetization 

 Free energy of the ion-electron system (eV)
  ---------------------------------------------------
  alpha Z        PSCENC =        10.23027870
  Ewald energy   TEWEN  =      5912.24426521
  -Hartree energ DENC   =     -6596.04420233
  -exchange      EXHF   =         0.00000000
  -V(xc)+E(xc)   XCENC  =       -35.17212249
  PAW double counting   =       478.67869445     -402.86969088
  entropy T*S    EENTRO =        -0.00000000
  eigenvalues    EBANDS =      -159.89911410
  atomic energy  EATOM  =       771.06857575
  Solvation  Ediel_sol  =         0.00000000
  ---------------------------------------------------
  free energy    TOTEN  =       -21.76331571 eV

  energy without entropy =      -21.76331571  energy(sigma->0) =      -21.76331571


--------------------------------------------------------------------------------------------------------




 average (electrostatic) potential at core
  the test charge radii are     1.2296  0.9698
  (the norm of the test charge is              1.0000)
       1 -47.3486       2 -95.2010       3 -95.2011
 
 
 
 E-fermi :  -3.0700     XC(G=0):  -2.4042     alpha+bet : -2.1805


 k-point     1 :       0.0000    0.0000    0.0000
  band No.  band energies     occupation 
      1     -17.9308      2.00000
      2     -16.7224      2.00000
      3      -9.4406      2.00000
      4      -6.4785      2.00000
      5      -6.4782      2.00000
      6      -5.6187      2.00000
      7      -5.3714      2.00000
      8      -5.3709      2.00000
      9      -3.8965      2.00000
     10      -1.1224      0.00000
     11      -1.1216      0.00000
     12      -0.8994      0.00000
     13      -0.8987      0.00000
     14       1.5112      0.00000

 k-point     2 :       0.1250    0.0000    0.0000
  band No.  band energies     occupation 
      1     -17.7167      2.00000
      2     -16.6200      2.00000
      3      -9.1959      2.00000
      4      -6.9431      2.00000
      5      -6.4259      2.00000
      6      -6.2444      2.00000
      7      -5.7077      2.00000
      8      -4.9404      2.00000
      9      -4.0352      2.00000
     10      -1.4048      0.00000
     11      -1.3385      0.00000
     12      -1.1368      0.00000
     13      -0.7682      0.00000
     14       1.8927      0.00000

 k-point     3 :       0.2500    0.0000    0.0000
  band No.  band energies     occupation 
      1     -17.1482      2.00000
      2     -16.3510      2.00000
      3      -8.8298      2.00000
      4      -7.6712      2.00000
      5      -7.4075      2.00000
      6      -6.3442      2.00000
      7      -5.6585      2.00000
      8      -5.1924      2.00000
      9      -4.6037      2.00000
     10      -1.7293      0.00000
     11      -1.5540      0.00000
     12      -1.0111      0.00000
     13      -0.1529      0.00000
     14       2.7002      0.00000

 k-point     4 :       0.3750    0.0000    0.0000
  band No.  band energies     occupation 
      1     -16.4732      2.00000
      2     -16.0425      2.00000
      3      -9.2689      2.00000
      4      -8.2763      2.00000
      5      -7.8023      2.00000
      6      -6.8426      2.00000
      7      -5.6012      2.00000
      8      -5.0685      2.00000
      9      -4.7978      2.00000
     10      -1.7365      0.00000
     11      -1.4567      0.00000
     12      -0.2920      0.00000
     13       0.2396      0.00000
     14       3.2644      0.00000

 k-point     5 :       0.5000    0.0000    0.0000
  band No.  band energies     occupation 
      1     -16.1450      2.00000
      2     -15.8991      2.00000
      3      -9.6021      2.00000
      4      -8.6425      2.00000
      5      -7.9282      2.00000
      6      -7.0234      2.00000
      7      -5.7396      2.00000
      8      -4.8415      2.00000
      9      -4.5164      2.00000
     10      -1.7150      0.00000
     11      -1.2003      0.00000
     12       0.0076      0.00000
     13       0.3551      0.00000
     14       2.3095      0.00000

 k-point     6 :       0.1250    0.1250    0.0000
  band No.  band energies     occupation 
      1     -17.3240      2.00000
      2     -16.4329      2.00000
      3      -8.8483      2.00000
      4      -7.5084      2.00000
      5      -6.9888      2.00000
      6      -6.5222      2.00000
      7      -5.9059      2.00000
      8      -4.8054      2.00000
      9      -4.4080      2.00000
     10      -1.8043      0.00000
     11      -1.4270      0.00000
     12      -1.4147      0.00000
     13      -0.1740      0.00000
     14       2.4817      0.00000

 k-point     7 :       0.2500    0.1250    0.0000
  band No.  band energies     occupation 
      1     -16.6907      2.00000
      2     -16.1342      2.00000
      3      -8.9125      2.00000
      4      -7.9348      2.00000
      5      -7.6716      2.00000
      6      -7.0275      2.00000
      7      -5.8068      2.00000
      8      -5.1684      2.00000
      9      -4.6917      2.00000
     10      -1.8880      0.00000
     11      -1.4413      0.00000
     12      -0.9444      0.00000
     13       0.3314      0.00000
     14       3.4539      0.00000

 k-point     8 :       0.3750    0.1250    0.0000
  band No.  band energies     occupation 
      1     -16.1602      2.00000
      2     -15.8903      2.00000
      3      -9.3144      2.00000
      4      -8.6985      2.00000
      5      -7.8005      2.00000
      6      -7.0450      2.00000
      7      -5.7917      2.00000
      8      -5.6496      2.00000
      9      -4.3650      2.00000
     10      -1.6959      0.00000
     11      -1.1858      0.00000
     12      -0.3206      0.00000
     13       0.3655      0.00000
     14       2.8348      0.00000

 k-point     9 :       0.2500    0.2500    0.0000
  band No.  band energies     occupation 
      1     -16.1753      2.00000
      2     -15.8813      2.00000
      3      -8.9538      2.00000
      4      -8.7483      2.00000
      5      -7.4743      2.00000
      6      -7.0932      2.00000
      7      -6.7741      2.00000
      8      -5.5168      2.00000
      9      -4.3947      2.00000
     10      -1.7468      0.00000
     11      -1.1352      0.00000
     12      -0.8186      0.00000
     13       0.6496      0.00000
     14       3.6656      0.00000

 k-point    10 :       0.3750    0.2500    0.0000
  band No.  band energies     occupation 
      1     -15.9403      2.00000
      2     -15.7623      2.00000
      3      -9.1331      2.00000
      4      -8.7845      2.00000
      5      -7.7575      2.00000
      6      -7.0955      2.00000
      7      -6.8673      2.00000
      8      -5.9019      2.00000
      9      -4.0275      2.00000
     10      -2.0731      0.00000
     11      -0.7577      0.00000
     12      -0.5857      0.00000
     13       0.7929      0.00000
     14       3.0789      0.00000


--------------------------------------------------------------------------------------------------------


 soft charge-density along one line, spin component           1
         0         1         2         3         4         5         6         7         8         9
 total charge-density along one line
 
 pseudopotential strength for first ion, spin component:           1
-10.112  -0.000  -0.000   0.000  -0.000   0.115   0.000   0.000
 -0.000 -10.112  -0.000  -0.000  -0.000   0.000   0.115   0.000
 -0.000  -0.000 -10.091  -0.000   0.000   0.000   0.000   0.113
  0.000  -0.000  -0.000 -10.112   0.000  -0.000   0.000   0.000
 -0.000  -0.000   0.000   0.000 -10.112   0.000   0.000  -0.000
  0.115   0.000   0.000  -0.000   0.000   0.097  -0.000  -0.000
  0.000   0.115   0.000   0.000   0.000  -0.000   0.097  -0.000
  0.000   0.000   0.113   0.000  -0.000  -0.000  -0.000   0.097
 -0.000   0.000   0.000   0.115  -0.000   0.000   0.000  -0.000
  0.000   0.000  -0.000  -0.000   0.115  -0.000  -0.000   0.000
 -0.000  -0.000  -0.005  -0.000   0.000   0.000   0.000   0.000
  0.000   0.000   0.001   0.000  -0.000  -0.000  -0.000  -0.000
 -0.000   0.000  -0.000  -0.000  -0.007   0.000  -0.000   0.000
 -0.000   0.000   0.000  -0.000  -0.000  -0.000  -0.000  -0.000
 -0.007  -0.000   0.000   0.000  -0.000  -0.000  -0.000  -0.000
  0.000  -0.000   0.000   0.000   0.004  -0.000   0.000  -0.000
  0.000  -0.000  -0.000   0.000   0.000  -0.000   0.000   0.000
  0.004   0.000  -0.000   0.000   0.000   0.000  -0.000   0.000
 total augmentation occupancy for first ion, spin component:           1
  0.970  -0.000  -0.000   0.000  -0.000   0.662   0.000  -0.000   0.000  -0.000  -0.000   0.000   0.000   0.000  -0.066  -0.000
  0.000   0.911  -0.000   0.000   0.000   0.000   0.897   0.000   0.000  -0.000   0.000   0.000   0.000  -0.000   0.000  -0.000
 -0.000   0.000   1.035   0.000   0.000  -0.000   0.000   0.566   0.000   0.000   0.111  -0.019  -0.000   0.000   0.000   0.000
  0.000   0.000   0.000   0.911   0.000   0.000   0.000  -0.000   0.897   0.000   0.000   0.000  -0.000   0.000   0.000   0.000
 -0.000   0.000   0.000   0.000   0.970  -0.000  -0.000   0.000  -0.000   0.662   0.000  -0.000  -0.066  -0.000  -0.000   0.007
  0.662   0.000  -0.000   0.000  -0.000   0.769   0.000  -0.000  -0.000  -0.000  -0.000   0.000   0.000   0.000  -0.143  -0.000
  0.000   0.897   0.000   0.000   0.000  -0.000   1.205  -0.000   0.000   0.000   0.000   0.000   0.000   0.000   0.000   0.000
 -0.000   0.000   0.566   0.000   0.000  -0.000  -0.000   0.550  -0.000   0.000   0.066  -0.023  -0.000  -0.000   0.000   0.000
  0.000   0.000   0.000   0.897   0.000  -0.000   0.000   0.000   1.205   0.000   0.000   0.000   0.000  -0.000  -0.000   0.000
 -0.000   0.000   0.000   0.000   0.662  -0.000   0.000   0.000  -0.000   0.769   0.000  -0.000  -0.143   0.000  -0.000   0.024
 -0.000   0.000   0.111   0.000   0.000  -0.000   0.000   0.066   0.000   0.000   1.210  -0.183   0.000  -0.000   0.000   0.000
  0.000  -0.000  -0.019   0.000  -0.000   0.000   0.000  -0.023   0.000  -0.000  -0.183   0.041   0.000  -0.000  -0.000   0.000
  0.000  -0.000  -0.000   0.000  -0.066   0.000   0.000  -0.000   0.000  -0.143   0.000   0.000   0.217   0.000   0.000  -0.033
  0.000  -0.000  -0.000   0.000   0.000   0.000   0.000   0.000   0.000   0.000   0.000  -0.000  -0.000   0.265   0.000   0.000
 -0.066   0.000   0.000   0.000  -0.000  -0.143  -0.000   0.000  -0.000  -0.000  -0.000  -0.000   0.000   0.000   0.217  -0.000
 -0.000  -0.000   0.000   0.000   0.007  -0.000  -0.000   0.000  -0.000   0.024   0.000   0.000  -0.033   0.000  -0.000   0.005
  0.000  -0.000   0.000  -0.000   0.000   0.000   0.000  -0.000   0.000   0.000  -0.000   0.000  -0.000  -0.039   0.000  -0.000
  0.007   0.000  -0.000   0.000   0.000   0.024   0.000  -0.000  -0.000   0.000   0.000   0.000  -0.000   0.000  -0.033   0.000


------------------------ aborting loop because EDIFF is reached ----------------------------------------


 


 total charge     
 
# of ion       s       p       d       tot
------------------------------------------
    1        0.414   0.593   4.443   5.450
    2        1.366   2.356   0.000   3.722
    3        1.366   2.356   0.000   3.722
--------------------------------------------------
tot          3.145   5.305   4.443  12.894
 
    CHARGE:  cpu time    0.0080: real time    0.0088
    FORLOC:  cpu time    0.0010: real time    0.0017
    FORNL :  cpu time    0.0350: real time    0.0342
    STRESS:  cpu time    0.1050: real time    0.1056
    FORCOR:  cpu time    0.0190: real time    0.0183
    FORHAR:  cpu time    0.0040: real time    0.0042
    MIXING:  cpu time    0.0010: real time    0.0017
    OFIELD:  cpu time    0.0000: real time    0.0000

  DFT-D2 method for vdW energy calculation
  -------------------------------------------------------------------

  Parameters of vdW forcefield:
         C6(Jnm^6/mol)     R0(A)
   -----------------------------
   Mo      24.670          1.639
   S        5.570          1.683

  IVDW =   1
  VDW_RADIUS =    50.000 A
  VDW_S6 =     0.750
  VDW_SR =     1.000
  VDW_D =    20.000
  LVDW_EWALD = F

  Number of pair interactions contributing to vdW energy:   11433
  Edisp (eV):   -0.59077
    FORVDW:  cpu time    0.0150: real time    0.0183

  FORCE on cell =-STRESS in cart. coord.  units (eV):
  Direction    XX          YY          ZZ          XY          YZ          ZX
  --------------------------------------------------------------------------------------
  Alpha Z    10.23028    10.23028    10.23028
  Ewald    6479.11051  6479.11095 -7045.97742     0.00019     0.00000     0.00012
  Hartree  6557.80630  6557.80630 -6519.56506     0.00002     0.00000    -0.00000
  E(xc)     -70.33539   -70.33536   -70.93956     0.00003    -0.00003    -0.00002
  Local  -13316.06862-13316.07020 13280.38652    -0.00129    -0.00029    -0.00022
  n-local   127.31368   125.93055   131.86037    -0.26408    -0.00001     0.00000
  augment   -25.66874   -25.66830   -26.77264     0.00038    -0.00002    -0.00001
  Kinetic   236.13707   238.93184   240.02639    -7.43192     0.00007     0.00007
  Fock        0.00000     0.00000     0.00000     0.00000     0.00000     0.00000
  vdW         0.16055     0.16055    -0.13367     0.00000     0.00000    -0.00000
  -------------------------------------------------------------------------------------
  Total      -0.60888    -0.60888    -0.88477     0.00000     0.00000     0.00000
  in kB      -3.36607    -3.36607    -4.89132     0.00000     0.00000     0.00000
  external pressure =       -3.87 kB  Pullay stress =        0.00 kB


 VOLUME and BASIS-vectors are now :
 -----------------------------------------------------------------------------
  energy-cutoff  :      250.00
  volume of cell :      289.81
      direct lattice vectors                 reciprocal lattice vectors
     3.190315730  0.000000000  0.000000000     0.313448600  0.180969634  0.000000000
    -1.595157865  2.762894468  0.000000000     0.000000000  0.361939267  0.000000000
     0.000000000  0.000000000 32.879004300     0.000000000  0.000000000  0.030414546

  length of vectors
     3.190315730  3.190315730 32.879004300     0.361939267  0.361939267  0.030414546


 FORCES acting on ions
    electron-ion (+dipol)            ewald-force                    non-local-force                 convergence-correction
 -----------------------------------------------------------------------------------------------
   -.119E-04 -.891E-07 -.253E-04   0.931E-04 -.108E-03 0.358E-06   0.243E-16 0.000E+00 0.813E-19   0.123E-08 -.194E-08 0.193E-06
   -.122E-02 -.172E-04 0.603E+03   -.864E-04 0.538E-04 -.607E+03   0.347E-17 -.486E-16 0.495E+01   -.397E-08 0.256E-08 -.554E-03
   0.112E-02 0.107E-02 -.603E+03   -.674E-05 0.538E-04 0.607E+03   0.226E-16 -.382E-16 -.495E+01   0.295E-08 0.286E-08 0.555E-03
 -----------------------------------------------------------------------------------------------
   -.106E-03 0.105E-02 -.838E-04   0.102E-13 0.261E-13 0.000E+00   0.503E-16 -.867E-16 0.888E-15   0.210E-09 0.348E-08 0.509E-06
 
 
 POSITION                                       TOTAL-FORCE (eV/Angst)
 -----------------------------------------------------------------------------------
     -0.00000      1.84193      3.71975         0.000000      0.000000     -0.000000
      1.59516      0.92096      2.15487        -0.000000      0.000000      0.100486
      1.59516      0.92096      5.28464        -0.000000     -0.000000     -0.100486
 -----------------------------------------------------------------------------------
    total drift:                               -0.000106      0.001048     -0.000083


--------------------------------------------------------------------------------------------------------



  FREE ENERGIE OF THE ION-ELECTRON SYSTEM (eV)
  ---------------------------------------------------
  free  energy   TOTEN  =       -22.35408103 eV

  energy  without entropy=      -22.35408103  energy(sigma->0) =      -22.35408103
 


--------------------------------------------------------------------------------------------------------


    POTLOK:  cpu time    0.0190: real time    0.0185


--------------------------------------------------------------------------------------------------------


     LOOP+:  cpu time    2.8756: real time    3.2021
    4ORBIT:  cpu time    0.0000: real time    0.0000
 


 total charge     
 
# of ion       s       p       d       tot
------------------------------------------
    1        0.414   0.593   4.443   5.450
    2        1.366   2.356   0.000   3.722
    3        1.366   2.356   0.000   3.722
--------------------------------------------------
tot          3.145   5.305   4.443  12.894
 

 total amount of memory used by VASP MPI-rank0    35831. kBytes
=======================================================================

   base      :      30000. kBytes
   nonlr-proj:        343. kBytes
   fftplans  :       1521. kBytes
   grid      :       2445. kBytes
   one-center:         31. kBytes
   wavefun   :       1491. kBytes
 
  
  
 General timing and accounting informations for this job:
 ========================================================
  
                  Total CPU time used (sec):        3.964
                            User time (sec):        3.884
                          System time (sec):        0.080
                         Elapsed time (sec):        6.081
  
                   Maximum memory used (kb):       29732.
                   Average memory used (kb):           0.
  
                          Minor page faults:         7546
                          Major page faults:          138
                 Voluntary context switches:         2167
