perl: warning: Setting locale failed.
perl: warning: Please check that your locale settings:
	LANGUAGE = (unset),
	LC_ALL = (unset),
	LC_CTYPE = "UTF-8",
	LANG = "en_US.iso885915"
    are supported and installed on your system.
perl: warning: Falling back to the standard locale ("C").
Starting job 28532612 ("jobname") on c15-26 at Fri Nov 8 11:46:57 CET 2019
 running on    4 total cores
 distrk:  each k-point on    4 cores,    1 groups
 distr:  one band on    2 cores,    2 groups
 using from now: INCAR     
 vasp.5.4.4.18Apr17-6-g9f103f2a35 (build Jun 30 2017 11:15:00) complex          
  
 POSCAR found type information on POSCAR  Mo S 
 POSCAR found :  2 types and       3 ions
 scaLAPACK will be used

 ----------------------------------------------------------------------------- 
|                                                                             |
|  ADVICE TO THIS USER RUNNING 'VASP/VAMP'   (HEAR YOUR MASTER'S VOICE ...):  |
|                                                                             |
|      You have a (more or less) 'small supercell' and for smaller cells      |
|      it is recommended  to use the reciprocal-space projection scheme!      |
|      The real space optimization is not  efficient for small cells and it   |
|      is also less accurate ...                                              |
|      Therefore set LREAL=.FALSE. in the  INCAR file                         |
|                                                                             |
 ----------------------------------------------------------------------------- 

 LDA part: xc-table for Pade appr. of Perdew
 POSCAR, INCAR and KPOINTS ok, starting setup
 FFT: planning ...
 WAVECAR not read
 entering main loop
       N       E                     dE             d eps       ncg     rms          rms(c)
DAV:   1     0.990049118399E+02    0.99005E+02   -0.43589E+03   304   0.508E+02
DAV:   2    -0.110252057924E+02   -0.11003E+03   -0.10378E+03   476   0.138E+02
DAV:   3    -0.231597599485E+02   -0.12135E+02   -0.12028E+02   394   0.601E+01
DAV:   4    -0.233656200553E+02   -0.20586E+00   -0.20481E+00   356   0.941E+00
DAV:   5    -0.233707088684E+02   -0.50888E-02   -0.50838E-02   372   0.136E+00    0.691E+00
RMM:   6    -0.222102304309E+02    0.11605E+01   -0.54114E+00   292   0.116E+01    0.263E+00
RMM:   7    -0.218287723334E+02    0.38146E+00   -0.56868E-01   292   0.331E+00    0.154E+00
RMM:   8    -0.217680327736E+02    0.60740E-01   -0.23355E-01   306   0.245E+00    0.347E-01
RMM:   9    -0.217633355452E+02    0.46972E-02   -0.82133E-03   333   0.550E-01    0.928E-02
RMM:  10    -0.217626151367E+02    0.72041E-03   -0.16069E-03   342   0.208E-01    0.439E-02
RMM:  11    -0.217625508143E+02    0.64322E-04   -0.17444E-03   318   0.183E-01    0.530E-02
RMM:  12    -0.217624491603E+02    0.10165E-03   -0.52127E-04   307   0.122E-01    0.155E-02
RMM:  13    -0.217629339559E+02   -0.48480E-03   -0.15476E-04   308   0.626E-02    0.188E-02
RMM:  14    -0.217630242897E+02   -0.90334E-04   -0.28535E-05   329   0.267E-02    0.559E-03
RMM:  15    -0.217632125109E+02   -0.18822E-03   -0.16901E-05   286   0.154E-02    0.402E-03
RMM:  16    -0.217632643904E+02   -0.51879E-04   -0.31812E-06   246   0.718E-03    0.256E-03
RMM:  17    -0.217633084048E+02   -0.44014E-04   -0.21730E-06   204   0.692E-03    0.213E-03
RMM:  18    -0.217633110047E+02   -0.25998E-05   -0.18496E-07   155   0.268E-03    0.183E-03
RMM:  19    -0.217633153476E+02   -0.43429E-05   -0.42259E-07   178   0.313E-03    0.177E-03
RMM:  20    -0.217633157090E+02   -0.36140E-06   -0.54283E-08   116   0.159E-03
   1 F= -.22354081E+02 E0= -.22354081E+02  d E =-.696500E-10

Currently Loaded Modulefiles:
  1) Anaconda3/5.1.0       3) vesta/3.3.8           5) intel/2016.1
  2) gnuplot/5.0.4         4) imagemagick/6.7.9-0   6) vasp/5.4.1.Feb16

Job script resource usage:
       JobID  MaxVMSize     MaxRSS 
------------ ---------- ---------- 
28532612.ba+    216888K      2675K 

Job step resource usage:
       JobID    JobName  AllocCPUS  MaxVMSize     MaxRSS    Elapsed ExitCode 
------------ ---------- ---------- ---------- ---------- ---------- -------- 
28532612        jobname          4                         00:00:09      0:0 
28532612.0    pmi_proxy          1                         00:00:07      0:0 

Job 28532612 ("jobname") completed on c15-26 at Fri Nov 8 11:47:04 CET 2019
