<?xml version="1.0" encoding="ISO-8859-1"?>
<modeling>
 <generator>
  <i name="program" type="string">vasp </i>
  <i name="version" type="string">5.4.4.18Apr17-6-g9f103f2a35  </i>
  <i name="subversion" type="string">(build Jun 30 2017 11:15:00) complex            parallel </i>
  <i name="platform" type="string">STALLO_VASP_5.4.4 </i>
  <i name="date" type="string">2019 11 08 </i>
  <i name="time" type="string">11:46:58 </i>
 </generator>
 <incar>
  <i type="string" name="PREC">normal    ! low/normal/accurate</i>
  <i type="string" name="ALGO"> Fast      ! Algorithm for electronic re</i>
  <i type="int" name="ISPIN">     1</i>
  <i type="int" name="NELMIN">     4</i>
  <i name="EDIFF">      0.00000100</i>
  <i type="int" name="NSW">     0</i>
  <i name="ENCUT">    250.00000000</i>
  <i type="int" name="NEDOS">  2401</i>
  <i type="string" name="LREAL"> Auto      ! Projection in reciprocal sp</i>
  <i name="EMIN">    -12.00000000</i>
  <i name="EMAX">     12.00000000</i>
  <i type="int" name="ISMEAR">     0</i>
  <i name="SIGMA">      0.20000000</i>
  <i type="logical" name="LWAVE"> F  </i>
  <i type="int" name="LORBIT">    11</i>
  <i type="logical" name="LELF"> T  </i>
  <v type="int" name="KPOINT_BSE">    -1     0     0     0</v>
 </incar>
 <structure name="primitive_cell" >
  <crystal>
   <varray name="basis" >
    <v>       3.19031573       0.00000000       0.00000000 </v>
    <v>      -1.59515786       2.76289447       0.00000000 </v>
    <v>       0.00000000       0.00000000      32.87900430 </v>
   </varray>
   <i name="volume">    289.81217024 </i>
   <varray name="rec_basis" >
    <v>       0.31344860       0.18096963       0.00000000 </v>
    <v>       0.00000000       0.36193927       0.00000000 </v>
    <v>       0.00000000       0.00000000       0.03041455 </v>
   </varray>
  </crystal>
  <varray name="positions" >
   <v>       0.33333300      -0.33333300       0.11313454 </v>
   <v>      -0.33333400       0.33333300       0.16072979 </v>
   <v>      -0.33333300       0.33333300       0.06553929 </v>
  </varray>
 </structure>
 <varray name="primitive_index" >
  <v type="int" >        1 </v>
  <v type="int" >        3 </v>
  <v type="int" >        2 </v>
 </varray>
 <kpoints>
  <generation param="Gamma">
   <v type="int" name="divisions">       8        8        1 </v>
   <v name="usershift">      0.00000000       0.00000000       0.00000000 </v>
   <v name="genvec1">      0.12500000      -0.00000000       0.00000000 </v>
   <v name="genvec2">      0.00000000       0.12500000       0.00000000 </v>
   <v name="genvec3">      0.00000000       0.00000000       1.00000000 </v>
   <v name="shift">      0.00000000       0.00000000       0.00000000 </v>
  </generation>
  <varray name="kpointlist" >
   <v>       0.00000000       0.00000000       0.00000000 </v>
   <v>       0.12500000       0.00000000       0.00000000 </v>
   <v>       0.25000000       0.00000000       0.00000000 </v>
   <v>       0.37500000       0.00000000       0.00000000 </v>
   <v>       0.50000000       0.00000000       0.00000000 </v>
   <v>       0.12500000       0.12500000       0.00000000 </v>
   <v>       0.25000000       0.12500000       0.00000000 </v>
   <v>       0.37500000       0.12500000       0.00000000 </v>
   <v>       0.25000000       0.25000000       0.00000000 </v>
   <v>       0.37500000       0.25000000       0.00000000 </v>
  </varray>
  <varray name="weights" >
   <v>       0.01562500 </v>
   <v>       0.09375000 </v>
   <v>       0.09375000 </v>
   <v>       0.09375000 </v>
   <v>       0.04687500 </v>
   <v>       0.09375000 </v>
   <v>       0.18750000 </v>
   <v>       0.18750000 </v>
   <v>       0.09375000 </v>
   <v>       0.09375000 </v>
  </varray>
 </kpoints>
 <parameters>
  <separator name="general" >
   <i type="string" name="SYSTEM">unknown system</i>
   <i type="logical" name="LCOMPAT"> F  </i>
  </separator>
  <separator name="electronic" >
   <i type="string" name="PREC">normal</i>
   <i name="ENMAX">    250.00000000</i>
   <i name="ENAUG">    345.27800000</i>
   <i name="EDIFF">      0.00000100</i>
   <i type="int" name="IALGO">    68</i>
   <i type="int" name="IWAVPR">    10</i>
   <i type="int" name="NBANDS">    14</i>
   <i name="NELECT">     18.00000000</i>
   <i type="int" name="TURBO">     0</i>
   <i type="int" name="IRESTART">     0</i>
   <i type="int" name="NREBOOT">     0</i>
   <i type="int" name="NMIN">     0</i>
   <i name="EREF">      0.00000000</i>
   <separator name="electronic smearing" >
    <i type="int" name="ISMEAR">     0</i>
    <i name="SIGMA">      0.20000000</i>
    <i name="KSPACING">      0.50000000</i>
    <i type="logical" name="KGAMMA"> T  </i>
   </separator>
   <separator name="electronic projectors" >
    <i type="logical" name="LREAL"> T  </i>
    <v name="ROPT">     -0.00050000     -0.00050000</v>
    <i type="int" name="LMAXPAW">  -100</i>
    <i type="int" name="LMAXMIX">     2</i>
    <i type="logical" name="NLSPLINE"> F  </i>
   </separator>
   <separator name="electronic startup" >
    <i type="int" name="ISTART">     0</i>
    <i type="int" name="ICHARG">     2</i>
    <i type="int" name="INIWAV">     1</i>
   </separator>
   <separator name="electronic spin" >
    <i type="int" name="ISPIN">     1</i>
    <i type="logical" name="LNONCOLLINEAR"> F  </i>
    <v name="MAGMOM">      1.00000000      1.00000000      1.00000000</v>
    <i name="NUPDOWN">     -1.00000000</i>
    <i type="logical" name="LSORBIT"> F  </i>
    <v name="SAXIS">      0.00000000      0.00000000      1.00000000</v>
    <i type="logical" name="LSPIRAL"> F  </i>
    <v name="QSPIRAL">      0.00000000      0.00000000      0.00000000</v>
    <i type="logical" name="LZEROZ"> F  </i>
   </separator>
   <separator name="electronic exchange-correlation" >
    <i type="logical" name="LASPH"> F  </i>
    <i type="logical" name="LMETAGGA"> F  </i>
   </separator>
   <separator name="electronic convergence" >
    <i type="int" name="NELM">    60</i>
    <i type="int" name="NELMDL">    -5</i>
    <i type="int" name="NELMIN">     4</i>
    <i name="ENINI">    250.00000000</i>
    <separator name="electronic convergence detail" >
     <i type="logical" name="LDIAG"> T  </i>
     <i type="logical" name="LSUBROT"> F  </i>
     <i name="WEIMIN">      0.00000000</i>
     <i name="EBREAK">      0.00000002</i>
     <i name="DEPER">      0.30000000</i>
     <i type="int" name="NRMM">     4</i>
     <i name="TIME">      0.40000000</i>
    </separator>
   </separator>
   <separator name="electronic mixer" >
    <i name="AMIX">      0.40000000</i>
    <i name="BMIX">      1.00000000</i>
    <i name="AMIN">      0.10000000</i>
    <i name="AMIX_MAG">      1.60000000</i>
    <i name="BMIX_MAG">      1.00000000</i>
    <separator name="electronic mixer details" >
     <i type="int" name="IMIX">     4</i>
     <i type="logical" name="MIXFIRST"> F  </i>
     <i type="int" name="MAXMIX">   -45</i>
     <i name="WC">    100.00000000</i>
     <i type="int" name="INIMIX">     1</i>
     <i type="int" name="MIXPRE">     1</i>
     <i type="int" name="MREMOVE">     5</i>
    </separator>
   </separator>
   <separator name="electronic dipolcorrection" >
    <i type="logical" name="LDIPOL"> F  </i>
    <i type="logical" name="LMONO"> F  </i>
    <i type="int" name="IDIPOL">     0</i>
    <i name="EPSILON">      1.00000000</i>
    <v name="DIPOL">   -100.00000000   -100.00000000   -100.00000000</v>
    <i name="EFIELD">      0.00000000</i>
   </separator>
  </separator>
  <separator name="grids" >
   <i type="int" name="NGX">    12</i>
   <i type="int" name="NGY">    12</i>
   <i type="int" name="NGZ">   128</i>
   <i type="int" name="NGXF">    24</i>
   <i type="int" name="NGYF">    24</i>
   <i type="int" name="NGZF">   256</i>
   <i type="logical" name="ADDGRID"> F  </i>
  </separator>
  <separator name="ionic" >
   <i type="int" name="NSW">     0</i>
   <i type="int" name="IBRION">    -1</i>
   <i type="int" name="MDALGO">     0</i>
   <i type="int" name="ISIF">     2</i>
   <i name="PSTRESS">      0.00000000</i>
   <i name="EDIFFG">      0.00001000</i>
   <i type="int" name="NFREE">     0</i>
   <i name="POTIM">      0.50000000</i>
   <i name="SMASS">     -3.00000000</i>
   <i name="SCALEE">      1.00000000</i>
  </separator>
  <separator name="ionic md" >
   <i name="TEBEG">      0.00010000</i>
   <i name="TEEND">      0.00010000</i>
   <i type="int" name="NBLOCK">     1</i>
   <i type="int" name="KBLOCK">     1</i>
   <i type="int" name="NPACO">   256</i>
   <i name="APACO">     16.00000000</i>
  </separator>
  <separator name="symmetry" >
   <i type="int" name="ISYM">     2</i>
   <i name="SYMPREC">      0.00001000</i>
  </separator>
  <separator name="dos" >
   <i type="int" name="LORBIT">    11</i>
   <v name="RWIGS">     -1.00000000     -1.00000000</v>
   <i type="int" name="NEDOS">  2401</i>
   <i name="EMIN">    -12.00000000</i>
   <i name="EMAX">     12.00000000</i>
   <i name="EFERMI">      0.00000000</i>
  </separator>
  <separator name="writing" >
   <i type="int" name="NWRITE">     2</i>
   <i type="logical" name="LWAVE"> F  </i>
   <i type="logical" name="LDOWNSAMPLE"> F  </i>
   <i type="logical" name="LCHARG"> T  </i>
   <i type="logical" name="LPARD"> F  </i>
   <i type="logical" name="LVTOT"> F  </i>
   <i type="logical" name="LVHAR"> F  </i>
   <i type="logical" name="LELF"> T  </i>
   <i type="logical" name="LOPTICS"> F  </i>
   <v name="STM">      0.00000000      0.00000000      0.00000000      0.00000000      0.00000000      0.00000000      0.00000000</v>
  </separator>
  <separator name="performance" >
   <i type="int" name="NPAR">     2</i>
   <i type="int" name="NSIM">     4</i>
   <i type="int" name="NBLK">    -1</i>
   <i type="logical" name="LPLANE"> T  </i>
   <i type="logical" name="LSCALAPACK"> T  </i>
   <i type="logical" name="LSCAAWARE"> F  </i>
   <i type="logical" name="LSCALU"> F  </i>
   <i type="logical" name="LASYNC"> F  </i>
   <i type="logical" name="LORBITALREAL"> F  </i>
  </separator>
  <separator name="miscellaneous" >
   <i type="int" name="IDIOT">     3</i>
   <i type="int" name="ISPECIAL">     0</i>
   <i type="logical" name="LMUSIC"> F  </i>
   <v name="POMASS">     95.94000000     32.06600000</v>
   <v name="DARWINR">      0.00000000      0.00000000</v>
   <v name="DARWINV">      1.00000000      1.00000000</v>
   <i type="logical" name="LCORR"> T  </i>
  </separator>
  <i type="logical" name="GGA_COMPAT"> T  </i>
  <i type="logical" name="LBERRY"> F  </i>
  <i type="int" name="ICORELEVEL">     0</i>
  <i type="logical" name="LDAU"> F  </i>
  <i type="int" name="I_CONSTRAINED_M">     0</i>
  <separator name="electronic exchange-correlation" >
   <i type="string" name="GGA">--</i>
   <i type="int" name="VOSKOWN">     0</i>
   <i type="logical" name="LHFCALC"> F  </i>
   <i type="string" name="PRECFOCK"></i>
   <i type="logical" name="LSYMGRAD"> F  </i>
   <i type="logical" name="LHFONE"> F  </i>
   <i type="logical" name="LRHFCALC"> F  </i>
   <i type="logical" name="LTHOMAS"> F  </i>
   <i type="logical" name="LMODELHF"> F  </i>
   <i name="ENCUT4O">     -1.00000000</i>
   <i type="int" name="EXXOEP">     0</i>
   <i type="int" name="FOURORBIT">     0</i>
   <i name="AEXX">      0.00000000</i>
   <i name="HFALPHA">      0.00000000</i>
   <i name="MCALPHA">      0.00000000</i>
   <i name="ALDAX">      1.00000000</i>
   <i name="AGGAX">      1.00000000</i>
   <i name="ALDAC">      1.00000000</i>
   <i name="AGGAC">      1.00000000</i>
   <i type="int" name="NKREDX">     1</i>
   <i type="int" name="NKREDY">     1</i>
   <i type="int" name="NKREDZ">     1</i>
   <i type="logical" name="SHIFTRED"> F  </i>
   <i type="logical" name="ODDONLY"> F  </i>
   <i type="logical" name="EVENONLY"> F  </i>
   <i type="int" name="LMAXFOCK">     0</i>
   <i type="int" name="NMAXFOCKAE">     0</i>
   <i type="logical" name="LFOCKAEDFT"> F  </i>
   <i name="HFSCREEN">      0.00000000</i>
   <i name="HFSCREENC">      0.00000000</i>
   <i type="int" name="NBANDSGWLOW">     0</i>
  </separator>
  <separator name="vdW DFT" >
   <i type="logical" name="LUSE_VDW"> F  </i>
   <i name="Zab_VDW">     -0.84910000</i>
   <i name="PARAM1">      0.12340000</i>
   <i name="PARAM2">      1.00000000</i>
   <i name="PARAM3">      0.00000000</i>
  </separator>
  <separator name="model GW" >
   <i type="int" name="MODEL_GW">     0</i>
   <i name="MODEL_EPS0">     57.96243405</i>
   <i name="MODEL_ALPHA">      1.00000000</i>
  </separator>
  <separator name="linear response parameters" >
   <i type="logical" name="LEPSILON"> F  </i>
   <i type="logical" name="LRPA"> F  </i>
   <i type="logical" name="LNABLA"> F  </i>
   <i type="logical" name="LVEL"> F  </i>
   <i type="int" name="KINTER">     0</i>
   <i name="CSHIFT">      0.10000000</i>
   <i name="OMEGAMAX">     -1.00000000</i>
   <i name="DEG_THRESHOLD">      0.00200000</i>
   <i name="RTIME">     -0.10000000</i>
   <i name="WPLASMAI">      0.00000000</i>
   <v name="DFIELD">      0.00000000      0.00000000      0.00000000</v>
   <v name="WPLASMA">      0.00000000      0.00000000      0.00000000      0.00000000      0.00000000      0.00000000      0.00000000      0.00000000      0.00000000</v>
  </separator>
  <separator name="orbital magnetization" >
   <i type="logical" name="NUCIND"> F  </i>
   <v name="MAGPOS">      0.00000000      0.00000000      0.00000000</v>
   <i type="logical" name="LNICSALL"> T  </i>
   <i type="logical" name="ORBITALMAG"> F  </i>
   <i type="logical" name="LMAGBLOCH"> F  </i>
   <i type="logical" name="LCHIMAG"> F  </i>
   <i type="logical" name="LGAUGE"> T  </i>
   <i type="int" name="MAGATOM">     0</i>
   <v name="MAGDIPOL">      0.00000000      0.00000000      0.00000000</v>
   <v name="AVECCONST">      0.00000000      0.00000000      0.00000000</v>
  </separator>
  <separator name="response functions" >
   <i type="logical" name="LADDER"> F  </i>
   <i type="logical" name="LRPAFORCE"> F  </i>
   <i type="logical" name="LFXC"> F  </i>
   <i type="logical" name="LHARTREE"> T  </i>
   <i type="int" name="IBSE">     0</i>
   <v type="int" name="KPOINT">    -1     0     0     0</v>
   <i type="logical" name="LTCTE"> F  </i>
   <i type="logical" name="LTETE"> F  </i>
   <i type="logical" name="LTRIPLET"> F  </i>
   <i type="logical" name="LFXCEPS"> F  </i>
   <i type="logical" name="LFXHEG"> F  </i>
   <i type="int" name="NATURALO">     2</i>
   <i type="logical" name="L2ORDER"> F  </i>
   <i type="logical" name="LMP2LT"> F  </i>
   <i type="logical" name="LUSEW"> F  </i>
   <i name="ENCUTGW">     -2.00000000</i>
   <i name="ENCUTGWSOFT">     -2.00000000</i>
   <i name="ENCUTLF">     -1.00000000</i>
   <i type="int" name="LMAXMP2">    -1</i>
   <i name="SCISSOR">      0.00000000</i>
   <i type="int" name="NOMEGA">     0</i>
   <i type="int" name="NOMEGAR">     0</i>
   <i type="int" name="NBANDSGW">    -1</i>
   <i type="int" name="NBANDSO">    -1</i>
   <i type="int" name="NBANDSV">    -1</i>
   <i type="int" name="NELM">     1</i>
   <i type="int" name="NELMHF">     1</i>
   <i type="int" name="DIM">     3</i>
   <i type="int" name="ANTIRES">     0</i>
   <i name="OMEGAMAX">    -30.00000000</i>
   <i name="OMEGAMIN">    -30.00000000</i>
   <i name="OMEGATL">   -200.00000000</i>
   <i type="int" name="OMEGAGRID">   140</i>
   <i name="CSHIFT">     -0.10000000</i>
   <i type="logical" name="SELFENERGY"> F  </i>
   <i type="logical" name="LSPECTRAL"> F  </i>
   <i type="logical" name="LSPECTRALGW"> F  </i>
   <i type="logical" name="LSINGLES"> F  </i>
   <i type="logical" name="LFERMIGW"> F  </i>
   <i type="logical" name="ODDONLYGW"> F  </i>
   <i type="logical" name="EVENONLYGW"> F  </i>
   <i type="int" name="NKREDLFX">     1</i>
   <i type="int" name="NKREDLFY">     1</i>
   <i type="int" name="NKREDLFZ">     1</i>
   <i type="int" name="MAXMEM">  2800</i>
   <i type="int" name="TELESCOPE">     0</i>
   <i type="int" name="TAUPAR">     1</i>
   <i type="int" name="OMEGAPAR">    -1</i>
   <i name="LAMBDA">      1.00000000</i>
  </separator>
  <separator name="External order field" >
   <i name="OFIELD_KAPPA">      0.00000000</i>
   <v name="OFIELD_K">      0.00000000      0.00000000      0.00000000</v>
   <i name="OFIELD_Q6_NEAR">      0.00000000</i>
   <i name="OFIELD_Q6_FAR">      0.00000000</i>
   <i name="OFIELD_A">      0.00000000</i>
  </separator>
 </parameters>
 <atominfo>
  <atoms>       3 </atoms>
  <types>       2 </types>
  <array name="atoms" >
   <dimension dim="1">ion</dimension>
   <field type="string">element</field>
   <field type="int">atomtype</field>
   <set>
    <rc><c>Mo</c><c>   1</c></rc>
    <rc><c>S </c><c>   2</c></rc>
    <rc><c>S </c><c>   2</c></rc>
   </set>
  </array>
  <array name="atomtypes" >
   <dimension dim="1">type</dimension>
   <field type="int">atomspertype</field>
   <field type="string">element</field>
   <field>mass</field>
   <field>valence</field>
   <field type="string">pseudopotential</field>
   <set>
    <rc><c>   1</c><c>Mo</c><c>     95.94000000</c><c>      6.00000000</c><c> PAW_PBE Mo 08Apr2002                   </c></rc>
    <rc><c>   2</c><c>S </c><c>     32.06600000</c><c>      6.00000000</c><c>  PAW_PBE S 17Jan2003                   </c></rc>
   </set>
  </array>
 </atominfo>
 <structure name="initialpos" >
  <crystal>
   <varray name="basis" >
    <v>       3.19031573       0.00000000       0.00000000 </v>
    <v>      -1.59515786       2.76289447       0.00000000 </v>
    <v>       0.00000000       0.00000000      32.87900430 </v>
   </varray>
   <i name="volume">    289.81217024 </i>
   <varray name="rec_basis" >
    <v>       0.31344860       0.18096963       0.00000000 </v>
    <v>       0.00000000       0.36193927       0.00000000 </v>
    <v>       0.00000000       0.00000000       0.03041455 </v>
   </varray>
  </crystal>
  <varray name="positions" >
   <v>       0.33333300       0.66666700       0.11313454 </v>
   <v>       0.66666700       0.33333300       0.06553929 </v>
   <v>       0.66666600       0.33333300       0.16072979 </v>
  </varray>
 </structure>
 <calculation>
  <scstep>
   <time name="dav">    0.12    0.12</time>
   <time name="total">    0.14    0.19</time>
   <energy>
    <i name="alphaZ">     10.23027870 </i>
    <i name="ewald">   5912.24426521 </i>
    <i name="hartreedc">  -6582.56384198 </i>
    <i name="XCdc">    -36.31054208 </i>
    <i name="pawpsdc">    406.88651198 </i>
    <i name="pawaedc">   -329.34073203 </i>
    <i name="eentropy">     -0.06335972 </i>
    <i name="bandstr">    -53.14624398 </i>
    <i name="atom">    771.06857575 </i>
    <i name="e_fr_energy">     99.00491184 </i>
    <i name="e_wo_entrp">     99.06827156 </i>
    <i name="e_0_energy">     99.03659170 </i>
   </energy>
  </scstep>
  <scstep>
   <time name="dav">    0.17    0.17</time>
   <time name="total">    0.17    0.17</time>
   <energy>
    <i name="e_fr_energy">    -11.02520579 </i>
    <i name="e_wo_entrp">    -11.02520579 </i>
    <i name="e_0_energy">    -11.02520579 </i>
   </energy>
  </scstep>
  <scstep>
   <time name="dav">    0.14    0.14</time>
   <time name="total">    0.14    0.14</time>
   <energy>
    <i name="e_fr_energy">    -23.15975995 </i>
    <i name="e_wo_entrp">    -23.15975995 </i>
    <i name="e_0_energy">    -23.15975995 </i>
   </energy>
  </scstep>
  <scstep>
   <time name="dav">    0.13    0.13</time>
   <time name="total">    0.13    0.13</time>
   <energy>
    <i name="e_fr_energy">    -23.36562006 </i>
    <i name="e_wo_entrp">    -23.36562006 </i>
    <i name="e_0_energy">    -23.36562006 </i>
   </energy>
  </scstep>
  <scstep>
   <time name="dav">    0.13    0.13</time>
   <time name="total">    0.15    0.15</time>
   <energy>
    <i name="e_fr_energy">    -23.37070887 </i>
    <i name="e_wo_entrp">    -23.37070887 </i>
    <i name="e_0_energy">    -23.37070887 </i>
   </energy>
  </scstep>
  <scstep>
   <time name="diag">    0.02    0.02</time>
   <time name="diis">    0.07    0.07</time>
   <time name="orth">    0.00    0.00</time>
   <time name="total">    0.12    0.12</time>
   <energy>
    <i name="e_fr_energy">    -22.21023043 </i>
    <i name="e_wo_entrp">    -22.21023040 </i>
    <i name="e_0_energy">    -22.21023041 </i>
   </energy>
  </scstep>
  <scstep>
   <time name="diag">    0.02    0.02</time>
   <time name="diis">    0.07    0.07</time>
   <time name="orth">    0.00    0.00</time>
   <time name="total">    0.12    0.12</time>
   <energy>
    <i name="e_fr_energy">    -21.82877233 </i>
    <i name="e_wo_entrp">    -21.82877233 </i>
    <i name="e_0_energy">    -21.82877233 </i>
   </energy>
  </scstep>
  <scstep>
   <time name="diag">    0.02    0.02</time>
   <time name="diis">    0.07    0.07</time>
   <time name="orth">    0.00    0.00</time>
   <time name="total">    0.12    0.13</time>
   <energy>
    <i name="e_fr_energy">    -21.76803277 </i>
    <i name="e_wo_entrp">    -21.76803277 </i>
    <i name="e_0_energy">    -21.76803277 </i>
   </energy>
  </scstep>
  <scstep>
   <time name="diag">    0.02    0.02</time>
   <time name="diis">    0.08    0.08</time>
   <time name="orth">    0.00    0.00</time>
   <time name="total">    0.13    0.13</time>
   <energy>
    <i name="e_fr_energy">    -21.76333555 </i>
    <i name="e_wo_entrp">    -21.76333555 </i>
    <i name="e_0_energy">    -21.76333555 </i>
   </energy>
  </scstep>
  <scstep>
   <time name="diag">    0.02    0.02</time>
   <time name="diis">    0.08    0.08</time>
   <time name="orth">    0.00    0.00</time>
   <time name="total">    0.13    0.13</time>
   <energy>
    <i name="e_fr_energy">    -21.76261514 </i>
    <i name="e_wo_entrp">    -21.76261514 </i>
    <i name="e_0_energy">    -21.76261514 </i>
   </energy>
  </scstep>
  <scstep>
   <time name="diag">    0.02    0.02</time>
   <time name="diis">    0.08    0.08</time>
   <time name="orth">    0.00    0.00</time>
   <time name="total">    0.13    0.13</time>
   <energy>
    <i name="e_fr_energy">    -21.76255081 </i>
    <i name="e_wo_entrp">    -21.76255081 </i>
    <i name="e_0_energy">    -21.76255081 </i>
   </energy>
  </scstep>
  <scstep>
   <time name="diag">    0.02    0.02</time>
   <time name="diis">    0.07    0.07</time>
   <time name="orth">    0.00    0.00</time>
   <time name="total">    0.13    0.13</time>
   <energy>
    <i name="e_fr_energy">    -21.76244916 </i>
    <i name="e_wo_entrp">    -21.76244916 </i>
    <i name="e_0_energy">    -21.76244916 </i>
   </energy>
  </scstep>
  <scstep>
   <time name="diag">    0.02    0.02</time>
   <time name="diis">    0.07    0.07</time>
   <time name="orth">    0.00    0.00</time>
   <time name="total">    0.13    0.13</time>
   <energy>
    <i name="e_fr_energy">    -21.76293396 </i>
    <i name="e_wo_entrp">    -21.76293396 </i>
    <i name="e_0_energy">    -21.76293396 </i>
   </energy>
  </scstep>
  <scstep>
   <time name="diag">    0.02    0.02</time>
   <time name="diis">    0.08    0.08</time>
   <time name="orth">    0.00    0.00</time>
   <time name="total">    0.13    0.13</time>
   <energy>
    <i name="e_fr_energy">    -21.76302429 </i>
    <i name="e_wo_entrp">    -21.76302429 </i>
    <i name="e_0_energy">    -21.76302429 </i>
   </energy>
  </scstep>
  <scstep>
   <time name="diag">    0.02    0.02</time>
   <time name="diis">    0.07    0.07</time>
   <time name="orth">    0.00    0.00</time>
   <time name="total">    0.12    0.12</time>
   <energy>
    <i name="e_fr_energy">    -21.76321251 </i>
    <i name="e_wo_entrp">    -21.76321251 </i>
    <i name="e_0_energy">    -21.76321251 </i>
   </energy>
  </scstep>
  <scstep>
   <time name="diag">    0.02    0.02</time>
   <time name="diis">    0.06    0.06</time>
   <time name="orth">    0.00    0.00</time>
   <time name="total">    0.12    0.12</time>
   <energy>
    <i name="e_fr_energy">    -21.76326439 </i>
    <i name="e_wo_entrp">    -21.76326439 </i>
    <i name="e_0_energy">    -21.76326439 </i>
   </energy>
  </scstep>
  <scstep>
   <time name="diag">    0.02    0.02</time>
   <time name="diis">    0.05    0.05</time>
   <time name="orth">    0.00    0.00</time>
   <time name="total">    0.11    0.11</time>
   <energy>
    <i name="e_fr_energy">    -21.76330840 </i>
    <i name="e_wo_entrp">    -21.76330840 </i>
    <i name="e_0_energy">    -21.76330840 </i>
   </energy>
  </scstep>
  <scstep>
   <time name="diag">    0.02    0.02</time>
   <time name="diis">    0.05    0.05</time>
   <time name="orth">    0.00    0.00</time>
   <time name="total">    0.10    0.10</time>
   <energy>
    <i name="e_fr_energy">    -21.76331100 </i>
    <i name="e_wo_entrp">    -21.76331100 </i>
    <i name="e_0_energy">    -21.76331100 </i>
   </energy>
  </scstep>
  <scstep>
   <time name="diag">    0.02    0.02</time>
   <time name="diis">    0.05    0.05</time>
   <time name="orth">    0.00    0.00</time>
   <time name="total">    0.10    0.11</time>
   <energy>
    <i name="e_fr_energy">    -21.76331535 </i>
    <i name="e_wo_entrp">    -21.76331535 </i>
    <i name="e_0_energy">    -21.76331535 </i>
   </energy>
  </scstep>
  <scstep>
   <time name="diag">    0.02    0.02</time>
   <time name="diis">    0.04    0.04</time>
   <time name="orth">    0.00    0.00</time>
   <time name="total">    0.09    0.09</time>
   <energy>
    <i name="alphaZ">     10.23027870 </i>
    <i name="ewald">   5912.24426521 </i>
    <i name="hartreedc">  -6596.04420233 </i>
    <i name="XCdc">    -35.17212249 </i>
    <i name="pawpsdc">    478.67869445 </i>
    <i name="pawaedc">   -402.86969088 </i>
    <i name="eentropy">     -0.00000000 </i>
    <i name="bandstr">   -159.89911410 </i>
    <i name="atom">    771.06857575 </i>
    <i name="e_fr_energy">    -21.76331571 </i>
    <i name="e_wo_entrp">    -21.76331571 </i>
    <i name="e_0_energy">    -21.76331571 </i>
   </energy>
  </scstep>
  <structure>
   <crystal>
    <varray name="basis" >
     <v>       3.19031573       0.00000000       0.00000000 </v>
     <v>      -1.59515786       2.76289447       0.00000000 </v>
     <v>       0.00000000       0.00000000      32.87900430 </v>
    </varray>
    <i name="volume">    289.81217024 </i>
    <varray name="rec_basis" >
     <v>       0.31344860       0.18096963       0.00000000 </v>
     <v>       0.00000000       0.36193927       0.00000000 </v>
     <v>       0.00000000       0.00000000       0.03041455 </v>
    </varray>
   </crystal>
   <varray name="positions" >
    <v>       0.33333300       0.66666700       0.11313454 </v>
    <v>       0.66666700       0.33333300       0.06553929 </v>
    <v>       0.66666600       0.33333300       0.16072979 </v>
   </varray>
  </structure>
  <varray name="forces" >
   <v>       0.00000000       0.00000000      -0.00000000 </v>
   <v>      -0.00000000       0.00000000       0.10048573 </v>
   <v>      -0.00000000      -0.00000000      -0.10048573 </v>
  </varray>
  <varray name="stress" >
   <v>      -3.36606637      -0.00000000       0.00000000 </v>
   <v>       0.00000000      -3.36606637       0.00000000 </v>
   <v>       0.00000000       0.00000000      -4.89131853 </v>
  </varray>
  <energy>
   <i name="e_fr_energy">    -22.35408103 </i>
   <i name="e_wo_entrp">    -22.35408103 </i>
   <i name="e_0_energy">     -0.00000000 </i>
  </energy>
  <time name="totalsc">    2.88    3.20</time>
  <eigenvalues>
   <array>
    <dimension dim="1">band</dimension>
    <dimension dim="2">kpoint</dimension>
    <dimension dim="3">spin</dimension>
    <field>eigene</field>
    <field>occ</field>
    <set>
     <set comment="spin 1">
      <set comment="kpoint 1">
       <r>  -17.9308    1.0000 </r>
       <r>  -16.7224    1.0000 </r>
       <r>   -9.4406    1.0000 </r>
       <r>   -6.4785    1.0000 </r>
       <r>   -6.4782    1.0000 </r>
       <r>   -5.6187    1.0000 </r>
       <r>   -5.3714    1.0000 </r>
       <r>   -5.3709    1.0000 </r>
       <r>   -3.8965    1.0000 </r>
       <r>   -1.1224    0.0000 </r>
       <r>   -1.1216    0.0000 </r>
       <r>   -0.8994    0.0000 </r>
       <r>   -0.8987    0.0000 </r>
       <r>    1.5112    0.0000 </r>
      </set>
      <set comment="kpoint 2">
       <r>  -17.7167    1.0000 </r>
       <r>  -16.6200    1.0000 </r>
       <r>   -9.1959    1.0000 </r>
       <r>   -6.9431    1.0000 </r>
       <r>   -6.4259    1.0000 </r>
       <r>   -6.2444    1.0000 </r>
       <r>   -5.7077    1.0000 </r>
       <r>   -4.9404    1.0000 </r>
       <r>   -4.0352    1.0000 </r>
       <r>   -1.4048    0.0000 </r>
       <r>   -1.3385    0.0000 </r>
       <r>   -1.1368    0.0000 </r>
       <r>   -0.7682    0.0000 </r>
       <r>    1.8927    0.0000 </r>
      </set>
      <set comment="kpoint 3">
       <r>  -17.1482    1.0000 </r>
       <r>  -16.3510    1.0000 </r>
       <r>   -8.8298    1.0000 </r>
       <r>   -7.6712    1.0000 </r>
       <r>   -7.4075    1.0000 </r>
       <r>   -6.3442    1.0000 </r>
       <r>   -5.6585    1.0000 </r>
       <r>   -5.1924    1.0000 </r>
       <r>   -4.6037    1.0000 </r>
       <r>   -1.7293    0.0000 </r>
       <r>   -1.5540    0.0000 </r>
       <r>   -1.0111    0.0000 </r>
       <r>   -0.1529    0.0000 </r>
       <r>    2.7002    0.0000 </r>
      </set>
      <set comment="kpoint 4">
       <r>  -16.4732    1.0000 </r>
       <r>  -16.0425    1.0000 </r>
       <r>   -9.2689    1.0000 </r>
       <r>   -8.2763    1.0000 </r>
       <r>   -7.8023    1.0000 </r>
       <r>   -6.8426    1.0000 </r>
       <r>   -5.6012    1.0000 </r>
       <r>   -5.0685    1.0000 </r>
       <r>   -4.7978    1.0000 </r>
       <r>   -1.7365    0.0000 </r>
       <r>   -1.4567    0.0000 </r>
       <r>   -0.2920    0.0000 </r>
       <r>    0.2396    0.0000 </r>
       <r>    3.2644    0.0000 </r>
      </set>
      <set comment="kpoint 5">
       <r>  -16.1450    1.0000 </r>
       <r>  -15.8991    1.0000 </r>
       <r>   -9.6021    1.0000 </r>
       <r>   -8.6425    1.0000 </r>
       <r>   -7.9282    1.0000 </r>
       <r>   -7.0234    1.0000 </r>
       <r>   -5.7396    1.0000 </r>
       <r>   -4.8415    1.0000 </r>
       <r>   -4.5164    1.0000 </r>
       <r>   -1.7150    0.0000 </r>
       <r>   -1.2003    0.0000 </r>
       <r>    0.0076    0.0000 </r>
       <r>    0.3551    0.0000 </r>
       <r>    2.3095    0.0000 </r>
      </set>
      <set comment="kpoint 6">
       <r>  -17.3240    1.0000 </r>
       <r>  -16.4329    1.0000 </r>
       <r>   -8.8483    1.0000 </r>
       <r>   -7.5084    1.0000 </r>
       <r>   -6.9888    1.0000 </r>
       <r>   -6.5222    1.0000 </r>
       <r>   -5.9059    1.0000 </r>
       <r>   -4.8054    1.0000 </r>
       <r>   -4.4080    1.0000 </r>
       <r>   -1.8043    0.0000 </r>
       <r>   -1.4270    0.0000 </r>
       <r>   -1.4147    0.0000 </r>
       <r>   -0.1740    0.0000 </r>
       <r>    2.4817    0.0000 </r>
      </set>
      <set comment="kpoint 7">
       <r>  -16.6907    1.0000 </r>
       <r>  -16.1342    1.0000 </r>
       <r>   -8.9125    1.0000 </r>
       <r>   -7.9348    1.0000 </r>
       <r>   -7.6716    1.0000 </r>
       <r>   -7.0275    1.0000 </r>
       <r>   -5.8068    1.0000 </r>
       <r>   -5.1684    1.0000 </r>
       <r>   -4.6917    1.0000 </r>
       <r>   -1.8880    0.0000 </r>
       <r>   -1.4413    0.0000 </r>
       <r>   -0.9444    0.0000 </r>
       <r>    0.3314    0.0000 </r>
       <r>    3.4539    0.0000 </r>
      </set>
      <set comment="kpoint 8">
       <r>  -16.1602    1.0000 </r>
       <r>  -15.8903    1.0000 </r>
       <r>   -9.3144    1.0000 </r>
       <r>   -8.6985    1.0000 </r>
       <r>   -7.8005    1.0000 </r>
       <r>   -7.0450    1.0000 </r>
       <r>   -5.7917    1.0000 </r>
       <r>   -5.6496    1.0000 </r>
       <r>   -4.3650    1.0000 </r>
       <r>   -1.6959    0.0000 </r>
       <r>   -1.1858    0.0000 </r>
       <r>   -0.3206    0.0000 </r>
       <r>    0.3655    0.0000 </r>
       <r>    2.8348    0.0000 </r>
      </set>
      <set comment="kpoint 9">
       <r>  -16.1753    1.0000 </r>
       <r>  -15.8813    1.0000 </r>
       <r>   -8.9538    1.0000 </r>
       <r>   -8.7483    1.0000 </r>
       <r>   -7.4743    1.0000 </r>
       <r>   -7.0932    1.0000 </r>
       <r>   -6.7741    1.0000 </r>
       <r>   -5.5168    1.0000 </r>
       <r>   -4.3947    1.0000 </r>
       <r>   -1.7468    0.0000 </r>
       <r>   -1.1352    0.0000 </r>
       <r>   -0.8186    0.0000 </r>
       <r>    0.6496    0.0000 </r>
       <r>    3.6656    0.0000 </r>
      </set>
      <set comment="kpoint 10">
       <r>  -15.9403    1.0000 </r>
       <r>  -15.7623    1.0000 </r>
       <r>   -9.1331    1.0000 </r>
       <r>   -8.7845    1.0000 </r>
       <r>   -7.7575    1.0000 </r>
       <r>   -7.0955    1.0000 </r>
       <r>   -6.8673    1.0000 </r>
       <r>   -5.9019    1.0000 </r>
       <r>   -4.0275    1.0000 </r>
       <r>   -2.0731    0.0000 </r>
       <r>   -0.7577    0.0000 </r>
       <r>   -0.5857    0.0000 </r>
       <r>    0.7929    0.0000 </r>
       <r>    3.0789    0.0000 </r>
      </set>
     </set>
    </set>
   </array>
  </eigenvalues>
  <separator name="orbital magnetization" >
   <v name="MAGDIPOLOUT">      0.00000000      0.00000000      0.00000000</v>
  </separator>
  <dos>
   <i name="efermi">     -3.07000000 </i>
   <total>
    <array>
     <dimension dim="1">gridpoints</dimension>
     <dimension dim="2">spin</dimension>
     <field>energy</field>
     <field>total</field>
     <field>integrated</field>
     <set>
      <set comment="spin 1">
       <r>   -12.0000   400.0000     4.0000 </r>
       <r>   -11.9900     0.0000     4.0000 </r>
       <r>   -11.9800     0.0000     4.0000 </r>
       <r>   -11.9700     0.0000     4.0000 </r>
       <r>   -11.9600     0.0000     4.0000 </r>
       <r>   -11.9500     0.0000     4.0000 </r>
       <r>   -11.9400     0.0000     4.0000 </r>
       <r>   -11.9300     0.0000     4.0000 </r>
       <r>   -11.9200     0.0000     4.0000 </r>
       <r>   -11.9100     0.0000     4.0000 </r>
       <r>   -11.9000     0.0000     4.0000 </r>
       <r>   -11.8900     0.0000     4.0000 </r>
       <r>   -11.8800     0.0000     4.0000 </r>
       <r>   -11.8700     0.0000     4.0000 </r>
       <r>   -11.8600     0.0000     4.0000 </r>
       <r>   -11.8500     0.0000     4.0000 </r>
       <r>   -11.8400     0.0000     4.0000 </r>
       <r>   -11.8300     0.0000     4.0000 </r>
       <r>   -11.8200     0.0000     4.0000 </r>
       <r>   -11.8100     0.0000     4.0000 </r>
       <r>   -11.8000     0.0000     4.0000 </r>
       <r>   -11.7900     0.0000     4.0000 </r>
       <r>   -11.7800     0.0000     4.0000 </r>
       <r>   -11.7700     0.0000     4.0000 </r>
       <r>   -11.7600     0.0000     4.0000 </r>
       <r>   -11.7500     0.0000     4.0000 </r>
       <r>   -11.7400     0.0000     4.0000 </r>
       <r>   -11.7300     0.0000     4.0000 </r>
       <r>   -11.7200     0.0000     4.0000 </r>
       <r>   -11.7100     0.0000     4.0000 </r>
       <r>   -11.7000     0.0000     4.0000 </r>
       <r>   -11.6900     0.0000     4.0000 </r>
       <r>   -11.6800     0.0000     4.0000 </r>
       <r>   -11.6700     0.0000     4.0000 </r>
       <r>   -11.6600     0.0000     4.0000 </r>
       <r>   -11.6500     0.0000     4.0000 </r>
       <r>   -11.6400     0.0000     4.0000 </r>
       <r>   -11.6300     0.0000     4.0000 </r>
       <r>   -11.6200     0.0000     4.0000 </r>
       <r>   -11.6100     0.0000     4.0000 </r>
       <r>   -11.6000     0.0000     4.0000 </r>
       <r>   -11.5900     0.0000     4.0000 </r>
       <r>   -11.5800     0.0000     4.0000 </r>
       <r>   -11.5700     0.0000     4.0000 </r>
       <r>   -11.5600     0.0000     4.0000 </r>
       <r>   -11.5500     0.0000     4.0000 </r>
       <r>   -11.5400     0.0000     4.0000 </r>
       <r>   -11.5300     0.0000     4.0000 </r>
       <r>   -11.5200     0.0000     4.0000 </r>
       <r>   -11.5100     0.0000     4.0000 </r>
       <r>   -11.5000     0.0000     4.0000 </r>
       <r>   -11.4900     0.0000     4.0000 </r>
       <r>   -11.4800     0.0000     4.0000 </r>
       <r>   -11.4700     0.0000     4.0000 </r>
       <r>   -11.4600     0.0000     4.0000 </r>
       <r>   -11.4500     0.0000     4.0000 </r>
       <r>   -11.4400     0.0000     4.0000 </r>
       <r>   -11.4300     0.0000     4.0000 </r>
       <r>   -11.4200     0.0000     4.0000 </r>
       <r>   -11.4100     0.0000     4.0000 </r>
       <r>   -11.4000     0.0000     4.0000 </r>
       <r>   -11.3900     0.0000     4.0000 </r>
       <r>   -11.3800     0.0000     4.0000 </r>
       <r>   -11.3700     0.0000     4.0000 </r>
       <r>   -11.3600     0.0000     4.0000 </r>
       <r>   -11.3500     0.0000     4.0000 </r>
       <r>   -11.3400     0.0000     4.0000 </r>
       <r>   -11.3300     0.0000     4.0000 </r>
       <r>   -11.3200     0.0000     4.0000 </r>
       <r>   -11.3100     0.0000     4.0000 </r>
       <r>   -11.3000     0.0000     4.0000 </r>
       <r>   -11.2900     0.0000     4.0000 </r>
       <r>   -11.2800     0.0000     4.0000 </r>
       <r>   -11.2700     0.0000     4.0000 </r>
       <r>   -11.2600     0.0000     4.0000 </r>
       <r>   -11.2500     0.0000     4.0000 </r>
       <r>   -11.2400     0.0000     4.0000 </r>
       <r>   -11.2300     0.0000     4.0000 </r>
       <r>   -11.2200     0.0000     4.0000 </r>
       <r>   -11.2100     0.0000     4.0000 </r>
       <r>   -11.2000     0.0000     4.0000 </r>
       <r>   -11.1900     0.0000     4.0000 </r>
       <r>   -11.1800     0.0000     4.0000 </r>
       <r>   -11.1700     0.0000     4.0000 </r>
       <r>   -11.1600     0.0000     4.0000 </r>
       <r>   -11.1500     0.0000     4.0000 </r>
       <r>   -11.1400     0.0000     4.0000 </r>
       <r>   -11.1300     0.0000     4.0000 </r>
       <r>   -11.1200     0.0000     4.0000 </r>
       <r>   -11.1100     0.0000     4.0000 </r>
       <r>   -11.1000     0.0000     4.0000 </r>
       <r>   -11.0900     0.0000     4.0000 </r>
       <r>   -11.0800     0.0000     4.0000 </r>
       <r>   -11.0700     0.0000     4.0000 </r>
       <r>   -11.0600     0.0000     4.0000 </r>
       <r>   -11.0500     0.0000     4.0000 </r>
       <r>   -11.0400     0.0000     4.0000 </r>
       <r>   -11.0300     0.0000     4.0000 </r>
       <r>   -11.0200     0.0000     4.0000 </r>
       <r>   -11.0100     0.0000     4.0000 </r>
       <r>   -11.0000     0.0000     4.0000 </r>
       <r>   -10.9900     0.0000     4.0000 </r>
       <r>   -10.9800     0.0000     4.0000 </r>
       <r>   -10.9700     0.0000     4.0000 </r>
       <r>   -10.9600     0.0000     4.0000 </r>
       <r>   -10.9500     0.0000     4.0000 </r>
       <r>   -10.9400     0.0000     4.0000 </r>
       <r>   -10.9300     0.0000     4.0000 </r>
       <r>   -10.9200     0.0000     4.0000 </r>
       <r>   -10.9100     0.0000     4.0000 </r>
       <r>   -10.9000     0.0000     4.0000 </r>
       <r>   -10.8900     0.0000     4.0000 </r>
       <r>   -10.8800     0.0000     4.0000 </r>
       <r>   -10.8700     0.0000     4.0000 </r>
       <r>   -10.8600     0.0000     4.0000 </r>
       <r>   -10.8500     0.0000     4.0000 </r>
       <r>   -10.8400     0.0000     4.0000 </r>
       <r>   -10.8300     0.0000     4.0000 </r>
       <r>   -10.8200     0.0000     4.0000 </r>
       <r>   -10.8100     0.0000     4.0000 </r>
       <r>   -10.8000     0.0000     4.0000 </r>
       <r>   -10.7900     0.0000     4.0000 </r>
       <r>   -10.7800     0.0000     4.0000 </r>
       <r>   -10.7700     0.0000     4.0000 </r>
       <r>   -10.7600     0.0000     4.0000 </r>
       <r>   -10.7500     0.0000     4.0000 </r>
       <r>   -10.7400     0.0000     4.0000 </r>
       <r>   -10.7300     0.0000     4.0000 </r>
       <r>   -10.7200     0.0000     4.0000 </r>
       <r>   -10.7100     0.0000     4.0000 </r>
       <r>   -10.7000     0.0000     4.0000 </r>
       <r>   -10.6900     0.0000     4.0000 </r>
       <r>   -10.6800     0.0000     4.0000 </r>
       <r>   -10.6700     0.0000     4.0000 </r>
       <r>   -10.6600     0.0000     4.0000 </r>
       <r>   -10.6500     0.0000     4.0000 </r>
       <r>   -10.6400     0.0000     4.0000 </r>
       <r>   -10.6300     0.0000     4.0000 </r>
       <r>   -10.6200     0.0000     4.0000 </r>
       <r>   -10.6100     0.0000     4.0000 </r>
       <r>   -10.6000     0.0000     4.0000 </r>
       <r>   -10.5900     0.0000     4.0000 </r>
       <r>   -10.5800     0.0000     4.0000 </r>
       <r>   -10.5700     0.0000     4.0000 </r>
       <r>   -10.5600     0.0000     4.0000 </r>
       <r>   -10.5500     0.0000     4.0000 </r>
       <r>   -10.5400     0.0000     4.0000 </r>
       <r>   -10.5300     0.0000     4.0000 </r>
       <r>   -10.5200     0.0000     4.0000 </r>
       <r>   -10.5100     0.0000     4.0000 </r>
       <r>   -10.5000     0.0000     4.0000 </r>
       <r>   -10.4900     0.0000     4.0000 </r>
       <r>   -10.4800     0.0000     4.0000 </r>
       <r>   -10.4700     0.0000     4.0000 </r>
       <r>   -10.4600     0.0000     4.0000 </r>
       <r>   -10.4500     0.0000     4.0000 </r>
       <r>   -10.4400     0.0000     4.0000 </r>
       <r>   -10.4300     0.0000     4.0000 </r>
       <r>   -10.4200     0.0000     4.0000 </r>
       <r>   -10.4100     0.0000     4.0000 </r>
       <r>   -10.4000     0.0000     4.0000 </r>
       <r>   -10.3900     0.0000     4.0000 </r>
       <r>   -10.3800     0.0000     4.0000 </r>
       <r>   -10.3700     0.0000     4.0000 </r>
       <r>   -10.3600     0.0000     4.0000 </r>
       <r>   -10.3500     0.0000     4.0000 </r>
       <r>   -10.3400     0.0000     4.0000 </r>
       <r>   -10.3300     0.0000     4.0000 </r>
       <r>   -10.3200     0.0000     4.0000 </r>
       <r>   -10.3100     0.0000     4.0000 </r>
       <r>   -10.3000     0.0000     4.0000 </r>
       <r>   -10.2900     0.0000     4.0000 </r>
       <r>   -10.2800     0.0000     4.0000 </r>
       <r>   -10.2700     0.0000     4.0000 </r>
       <r>   -10.2600     0.0000     4.0000 </r>
       <r>   -10.2500     0.0000     4.0000 </r>
       <r>   -10.2400     0.0000     4.0000 </r>
       <r>   -10.2300     0.0000     4.0000 </r>
       <r>   -10.2200     0.0000     4.0000 </r>
       <r>   -10.2100     0.0000     4.0000 </r>
       <r>   -10.2000     0.0000     4.0000 </r>
       <r>   -10.1900     0.0000     4.0000 </r>
       <r>   -10.1800     0.0001     4.0000 </r>
       <r>   -10.1700     0.0001     4.0000 </r>
       <r>   -10.1600     0.0001     4.0000 </r>
       <r>   -10.1500     0.0001     4.0000 </r>
       <r>   -10.1400     0.0002     4.0000 </r>
       <r>   -10.1300     0.0002     4.0000 </r>
       <r>   -10.1200     0.0003     4.0000 </r>
       <r>   -10.1100     0.0004     4.0000 </r>
       <r>   -10.1000     0.0005     4.0000 </r>
       <r>   -10.0900     0.0006     4.0000 </r>
       <r>   -10.0800     0.0008     4.0000 </r>
       <r>   -10.0700     0.0010     4.0000 </r>
       <r>   -10.0600     0.0013     4.0001 </r>
       <r>   -10.0500     0.0016     4.0001 </r>
       <r>   -10.0400     0.0020     4.0001 </r>
       <r>   -10.0300     0.0025     4.0001 </r>
       <r>   -10.0200     0.0031     4.0001 </r>
       <r>   -10.0100     0.0038     4.0002 </r>
       <r>   -10.0000     0.0046     4.0002 </r>
       <r>    -9.9900     0.0056     4.0003 </r>
       <r>    -9.9800     0.0069     4.0004 </r>
       <r>    -9.9700     0.0083     4.0004 </r>
       <r>    -9.9600     0.0100     4.0005 </r>
       <r>    -9.9500     0.0119     4.0007 </r>
       <r>    -9.9400     0.0142     4.0008 </r>
       <r>    -9.9300     0.0169     4.0010 </r>
       <r>    -9.9200     0.0199     4.0012 </r>
       <r>    -9.9100     0.0234     4.0014 </r>
       <r>    -9.9000     0.0273     4.0017 </r>
       <r>    -9.8900     0.0318     4.0020 </r>
       <r>    -9.8800     0.0368     4.0024 </r>
       <r>    -9.8700     0.0424     4.0028 </r>
       <r>    -9.8600     0.0486     4.0033 </r>
       <r>    -9.8500     0.0555     4.0038 </r>
       <r>    -9.8400     0.0631     4.0045 </r>
       <r>    -9.8300     0.0714     4.0052 </r>
       <r>    -9.8200     0.0804     4.0060 </r>
       <r>    -9.8100     0.0902     4.0069 </r>
       <r>    -9.8000     0.1008     4.0079 </r>
       <r>    -9.7900     0.1121     4.0090 </r>
       <r>    -9.7800     0.1241     4.0102 </r>
       <r>    -9.7700     0.1370     4.0116 </r>
       <r>    -9.7600     0.1505     4.0131 </r>
       <r>    -9.7500     0.1649     4.0148 </r>
       <r>    -9.7400     0.1799     4.0166 </r>
       <r>    -9.7300     0.1957     4.0185 </r>
       <r>    -9.7200     0.2121     4.0206 </r>
       <r>    -9.7100     0.2293     4.0229 </r>
       <r>    -9.7000     0.2472     4.0254 </r>
       <r>    -9.6900     0.2658     4.0281 </r>
       <r>    -9.6800     0.2853     4.0309 </r>
       <r>    -9.6700     0.3055     4.0340 </r>
       <r>    -9.6600     0.3267     4.0372 </r>
       <r>    -9.6500     0.3488     4.0407 </r>
       <r>    -9.6400     0.3720     4.0445 </r>
       <r>    -9.6300     0.3965     4.0484 </r>
       <r>    -9.6200     0.4223     4.0526 </r>
       <r>    -9.6100     0.4497     4.0571 </r>
       <r>    -9.6000     0.4789     4.0619 </r>
       <r>    -9.5900     0.5100     4.0670 </r>
       <r>    -9.5800     0.5433     4.0725 </r>
       <r>    -9.5700     0.5789     4.0783 </r>
       <r>    -9.5600     0.6172     4.0844 </r>
       <r>    -9.5500     0.6583     4.0910 </r>
       <r>    -9.5400     0.7024     4.0980 </r>
       <r>    -9.5300     0.7497     4.1055 </r>
       <r>    -9.5200     0.8003     4.1135 </r>
       <r>    -9.5100     0.8544     4.1221 </r>
       <r>    -9.5000     0.9119     4.1312 </r>
       <r>    -9.4900     0.9729     4.1409 </r>
       <r>    -9.4800     1.0374     4.1513 </r>
       <r>    -9.4700     1.1052     4.1623 </r>
       <r>    -9.4600     1.1760     4.1741 </r>
       <r>    -9.4500     1.2497     4.1866 </r>
       <r>    -9.4400     1.3259     4.1999 </r>
       <r>    -9.4300     1.4042     4.2139 </r>
       <r>    -9.4200     1.4841     4.2287 </r>
       <r>    -9.4100     1.5651     4.2444 </r>
       <r>    -9.4000     1.6467     4.2609 </r>
       <r>    -9.3900     1.7281     4.2781 </r>
       <r>    -9.3800     1.8088     4.2962 </r>
       <r>    -9.3700     1.8881     4.3151 </r>
       <r>    -9.3600     1.9653     4.3348 </r>
       <r>    -9.3500     2.0397     4.3552 </r>
       <r>    -9.3400     2.1107     4.3763 </r>
       <r>    -9.3300     2.1778     4.3981 </r>
       <r>    -9.3200     2.2403     4.4205 </r>
       <r>    -9.3100     2.2978     4.4434 </r>
       <r>    -9.3000     2.3500     4.4669 </r>
       <r>    -9.2900     2.3964     4.4909 </r>
       <r>    -9.2800     2.4370     4.5153 </r>
       <r>    -9.2700     2.4717     4.5400 </r>
       <r>    -9.2600     2.5004     4.5650 </r>
       <r>    -9.2500     2.5233     4.5902 </r>
       <r>    -9.2400     2.5407     4.6156 </r>
       <r>    -9.2300     2.5529     4.6412 </r>
       <r>    -9.2200     2.5605     4.6668 </r>
       <r>    -9.2100     2.5640     4.6924 </r>
       <r>    -9.2000     2.5641     4.7180 </r>
       <r>    -9.1900     2.5615     4.7437 </r>
       <r>    -9.1800     2.5570     4.7692 </r>
       <r>    -9.1700     2.5516     4.7947 </r>
       <r>    -9.1600     2.5460     4.8202 </r>
       <r>    -9.1500     2.5411     4.8456 </r>
       <r>    -9.1400     2.5379     4.8710 </r>
       <r>    -9.1300     2.5372     4.8964 </r>
       <r>    -9.1200     2.5399     4.9218 </r>
       <r>    -9.1100     2.5466     4.9472 </r>
       <r>    -9.1000     2.5581     4.9728 </r>
       <r>    -9.0900     2.5749     4.9986 </r>
       <r>    -9.0800     2.5976     5.0245 </r>
       <r>    -9.0700     2.6264     5.0508 </r>
       <r>    -9.0600     2.6617     5.0774 </r>
       <r>    -9.0500     2.7035     5.1045 </r>
       <r>    -9.0400     2.7518     5.1320 </r>
       <r>    -9.0300     2.8064     5.1600 </r>
       <r>    -9.0200     2.8670     5.1887 </r>
       <r>    -9.0100     2.9333     5.2180 </r>
       <r>    -9.0000     3.0046     5.2481 </r>
       <r>    -8.9900     3.0803     5.2789 </r>
       <r>    -8.9800     3.1596     5.3105 </r>
       <r>    -8.9700     3.2416     5.3429 </r>
       <r>    -8.9600     3.3256     5.3762 </r>
       <r>    -8.9500     3.4103     5.4103 </r>
       <r>    -8.9400     3.4949     5.4452 </r>
       <r>    -8.9300     3.5783     5.4810 </r>
       <r>    -8.9200     3.6594     5.5176 </r>
       <r>    -8.9100     3.7372     5.5550 </r>
       <r>    -8.9000     3.8106     5.5931 </r>
       <r>    -8.8900     3.8787     5.6319 </r>
       <r>    -8.8800     3.9404     5.6713 </r>
       <r>    -8.8700     3.9949     5.7112 </r>
       <r>    -8.8600     4.0415     5.7516 </r>
       <r>    -8.8500     4.0793     5.7924 </r>
       <r>    -8.8400     4.1077     5.8335 </r>
       <r>    -8.8300     4.1263     5.8748 </r>
       <r>    -8.8200     4.1345     5.9161 </r>
       <r>    -8.8100     4.1320     5.9574 </r>
       <r>    -8.8000     4.1187     5.9986 </r>
       <r>    -8.7900     4.0943     6.0395 </r>
       <r>    -8.7800     4.0589     6.0801 </r>
       <r>    -8.7700     4.0126     6.1203 </r>
       <r>    -8.7600     3.9557     6.1598 </r>
       <r>    -8.7500     3.8883     6.1987 </r>
       <r>    -8.7400     3.8109     6.2368 </r>
       <r>    -8.7300     3.7241     6.2741 </r>
       <r>    -8.7200     3.6285     6.3103 </r>
       <r>    -8.7100     3.5246     6.3456 </r>
       <r>    -8.7000     3.4133     6.3797 </r>
       <r>    -8.6900     3.2953     6.4127 </r>
       <r>    -8.6800     3.1716     6.4444 </r>
       <r>    -8.6700     3.0431     6.4748 </r>
       <r>    -8.6600     2.9106     6.5039 </r>
       <r>    -8.6500     2.7753     6.5317 </r>
       <r>    -8.6400     2.6381     6.5581 </r>
       <r>    -8.6300     2.4999     6.5831 </r>
       <r>    -8.6200     2.3618     6.6067 </r>
       <r>    -8.6100     2.2247     6.6289 </r>
       <r>    -8.6000     2.0896     6.6498 </r>
       <r>    -8.5900     1.9572     6.6694 </r>
       <r>    -8.5800     1.8285     6.6877 </r>
       <r>    -8.5700     1.7043     6.7047 </r>
       <r>    -8.5600     1.5851     6.7206 </r>
       <r>    -8.5500     1.4716     6.7353 </r>
       <r>    -8.5400     1.3643     6.7489 </r>
       <r>    -8.5300     1.2637     6.7616 </r>
       <r>    -8.5200     1.1701     6.7733 </r>
       <r>    -8.5100     1.0837     6.7841 </r>
       <r>    -8.5000     1.0048     6.7941 </r>
       <r>    -8.4900     0.9333     6.8035 </r>
       <r>    -8.4800     0.8692     6.8122 </r>
       <r>    -8.4700     0.8125     6.8203 </r>
       <r>    -8.4600     0.7629     6.8279 </r>
       <r>    -8.4500     0.7202     6.8351 </r>
       <r>    -8.4400     0.6840     6.8420 </r>
       <r>    -8.4300     0.6540     6.8485 </r>
       <r>    -8.4200     0.6297     6.8548 </r>
       <r>    -8.4100     0.6107     6.8609 </r>
       <r>    -8.4000     0.5964     6.8669 </r>
       <r>    -8.3900     0.5864     6.8727 </r>
       <r>    -8.3800     0.5801     6.8785 </r>
       <r>    -8.3700     0.5770     6.8843 </r>
       <r>    -8.3600     0.5766     6.8901 </r>
       <r>    -8.3500     0.5784     6.8959 </r>
       <r>    -8.3400     0.5820     6.9017 </r>
       <r>    -8.3300     0.5870     6.9076 </r>
       <r>    -8.3200     0.5931     6.9135 </r>
       <r>    -8.3100     0.5999     6.9195 </r>
       <r>    -8.3000     0.6073     6.9256 </r>
       <r>    -8.2900     0.6150     6.9317 </r>
       <r>    -8.2800     0.6230     6.9379 </r>
       <r>    -8.2700     0.6314     6.9442 </r>
       <r>    -8.2600     0.6401     6.9506 </r>
       <r>    -8.2500     0.6493     6.9571 </r>
       <r>    -8.2400     0.6592     6.9637 </r>
       <r>    -8.2300     0.6701     6.9704 </r>
       <r>    -8.2200     0.6823     6.9773 </r>
       <r>    -8.2100     0.6961     6.9842 </r>
       <r>    -8.2000     0.7121     6.9913 </r>
       <r>    -8.1900     0.7307     6.9986 </r>
       <r>    -8.1800     0.7522     7.0062 </r>
       <r>    -8.1700     0.7773     7.0139 </r>
       <r>    -8.1600     0.8063     7.0220 </r>
       <r>    -8.1500     0.8397     7.0304 </r>
       <r>    -8.1400     0.8779     7.0392 </r>
       <r>    -8.1300     0.9214     7.0484 </r>
       <r>    -8.1200     0.9705     7.0581 </r>
       <r>    -8.1100     1.0254     7.0684 </r>
       <r>    -8.1000     1.0864     7.0792 </r>
       <r>    -8.0900     1.1537     7.0908 </r>
       <r>    -8.0800     1.2272     7.1030 </r>
       <r>    -8.0700     1.3070     7.1161 </r>
       <r>    -8.0600     1.3930     7.1300 </r>
       <r>    -8.0500     1.4850     7.1449 </r>
       <r>    -8.0400     1.5827     7.1607 </r>
       <r>    -8.0300     1.6858     7.1776 </r>
       <r>    -8.0200     1.7940     7.1955 </r>
       <r>    -8.0100     1.9066     7.2146 </r>
       <r>    -8.0000     2.0232     7.2348 </r>
       <r>    -7.9900     2.1431     7.2562 </r>
       <r>    -7.9800     2.2657     7.2789 </r>
       <r>    -7.9700     2.3903     7.3028 </r>
       <r>    -7.9600     2.5161     7.3279 </r>
       <r>    -7.9500     2.6424     7.3544 </r>
       <r>    -7.9400     2.7684     7.3821 </r>
       <r>    -7.9300     2.8932     7.4110 </r>
       <r>    -7.9200     3.0162     7.4412 </r>
       <r>    -7.9100     3.1365     7.4725 </r>
       <r>    -7.9000     3.2533     7.5050 </r>
       <r>    -7.8900     3.3658     7.5387 </r>
       <r>    -7.8800     3.4734     7.5734 </r>
       <r>    -7.8700     3.5754     7.6092 </r>
       <r>    -7.8600     3.6710     7.6459 </r>
       <r>    -7.8500     3.7597     7.6835 </r>
       <r>    -7.8400     3.8410     7.7219 </r>
       <r>    -7.8300     3.9142     7.7611 </r>
       <r>    -7.8200     3.9791     7.8008 </r>
       <r>    -7.8100     4.0352     7.8412 </r>
       <r>    -7.8000     4.0823     7.8820 </r>
       <r>    -7.7900     4.1202     7.9232 </r>
       <r>    -7.7800     4.1487     7.9647 </r>
       <r>    -7.7700     4.1679     8.0064 </r>
       <r>    -7.7600     4.1777     8.0482 </r>
       <r>    -7.7500     4.1783     8.0900 </r>
       <r>    -7.7400     4.1699     8.1317 </r>
       <r>    -7.7300     4.1529     8.1732 </r>
       <r>    -7.7200     4.1276     8.2145 </r>
       <r>    -7.7100     4.0944     8.2554 </r>
       <r>    -7.7000     4.0538     8.2959 </r>
       <r>    -7.6900     4.0065     8.3360 </r>
       <r>    -7.6800     3.9529     8.3755 </r>
       <r>    -7.6700     3.8938     8.4145 </r>
       <r>    -7.6600     3.8298     8.4528 </r>
       <r>    -7.6500     3.7615     8.4904 </r>
       <r>    -7.6400     3.6896     8.5273 </r>
       <r>    -7.6300     3.6147     8.5634 </r>
       <r>    -7.6200     3.5375     8.5988 </r>
       <r>    -7.6100     3.4585     8.6334 </r>
       <r>    -7.6000     3.3781     8.6672 </r>
       <r>    -7.5900     3.2970     8.7001 </r>
       <r>    -7.5800     3.2155     8.7323 </r>
       <r>    -7.5700     3.1339     8.7636 </r>
       <r>    -7.5600     3.0526     8.7942 </r>
       <r>    -7.5500     2.9718     8.8239 </r>
       <r>    -7.5400     2.8917     8.8528 </r>
       <r>    -7.5300     2.8123     8.8809 </r>
       <r>    -7.5200     2.7340     8.9083 </r>
       <r>    -7.5100     2.6566     8.9348 </r>
       <r>    -7.5000     2.5804     8.9606 </r>
       <r>    -7.4900     2.5053     8.9857 </r>
       <r>    -7.4800     2.4315     9.0100 </r>
       <r>    -7.4700     2.3591     9.0336 </r>
       <r>    -7.4600     2.2882     9.0565 </r>
       <r>    -7.4500     2.2191     9.0787 </r>
       <r>    -7.4400     2.1520     9.1002 </r>
       <r>    -7.4300     2.0873     9.1210 </r>
       <r>    -7.4200     2.0253     9.1413 </r>
       <r>    -7.4100     1.9665     9.1610 </r>
       <r>    -7.4000     1.9114     9.1801 </r>
       <r>    -7.3900     1.8607     9.1987 </r>
       <r>    -7.3800     1.8150     9.2168 </r>
       <r>    -7.3700     1.7751     9.2346 </r>
       <r>    -7.3600     1.7417     9.2520 </r>
       <r>    -7.3500     1.7156     9.2692 </r>
       <r>    -7.3400     1.6975     9.2861 </r>
       <r>    -7.3300     1.6883     9.3030 </r>
       <r>    -7.3200     1.6888     9.3199 </r>
       <r>    -7.3100     1.6995     9.3369 </r>
       <r>    -7.3000     1.7211     9.3541 </r>
       <r>    -7.2900     1.7543     9.3717 </r>
       <r>    -7.2800     1.7992     9.3896 </r>
       <r>    -7.2700     1.8564     9.4082 </r>
       <r>    -7.2600     1.9258     9.4275 </r>
       <r>    -7.2500     2.0075     9.4475 </r>
       <r>    -7.2400     2.1012     9.4686 </r>
       <r>    -7.2300     2.2066     9.4906 </r>
       <r>    -7.2200     2.3230     9.5139 </r>
       <r>    -7.2100     2.4498     9.5384 </r>
       <r>    -7.2000     2.5858     9.5642 </r>
       <r>    -7.1900     2.7301     9.5915 </r>
       <r>    -7.1800     2.8813     9.6203 </r>
       <r>    -7.1700     3.0380     9.6507 </r>
       <r>    -7.1600     3.1985     9.6827 </r>
       <r>    -7.1500     3.3613     9.7163 </r>
       <r>    -7.1400     3.5245     9.7515 </r>
       <r>    -7.1300     3.6864     9.7884 </r>
       <r>    -7.1200     3.8452     9.8269 </r>
       <r>    -7.1100     3.9990     9.8669 </r>
       <r>    -7.1000     4.1461     9.9083 </r>
       <r>    -7.0900     4.2849     9.9512 </r>
       <r>    -7.0800     4.4137     9.9953 </r>
       <r>    -7.0700     4.5311    10.0406 </r>
       <r>    -7.0600     4.6359    10.0870 </r>
       <r>    -7.0500     4.7269    10.1342 </r>
       <r>    -7.0400     4.8033    10.1823 </r>
       <r>    -7.0300     4.8643    10.2309 </r>
       <r>    -7.0200     4.9095    10.2800 </r>
       <r>    -7.0100     4.9385    10.3294 </r>
       <r>    -7.0000     4.9514    10.3789 </r>
       <r>    -6.9900     4.9482    10.4284 </r>
       <r>    -6.9800     4.9292    10.4777 </r>
       <r>    -6.9700     4.8950    10.5266 </r>
       <r>    -6.9600     4.8463    10.5751 </r>
       <r>    -6.9500     4.7838    10.6229 </r>
       <r>    -6.9400     4.7084    10.6700 </r>
       <r>    -6.9300     4.6212    10.7162 </r>
       <r>    -6.9200     4.5233    10.7615 </r>
       <r>    -6.9100     4.4158    10.8056 </r>
       <r>    -6.9000     4.2999    10.8486 </r>
       <r>    -6.8900     4.1767    10.8904 </r>
       <r>    -6.8800     4.0476    10.9309 </r>
       <r>    -6.8700     3.9136    10.9700 </r>
       <r>    -6.8600     3.7759    11.0078 </r>
       <r>    -6.8500     3.6357    11.0441 </r>
       <r>    -6.8400     3.4940    11.0791 </r>
       <r>    -6.8300     3.3519    11.1126 </r>
       <r>    -6.8200     3.2103    11.1447 </r>
       <r>    -6.8100     3.0701    11.1754 </r>
       <r>    -6.8000     2.9323    11.2047 </r>
       <r>    -6.7900     2.7975    11.2327 </r>
       <r>    -6.7800     2.6667    11.2593 </r>
       <r>    -6.7700     2.5404    11.2848 </r>
       <r>    -6.7600     2.4193    11.3089 </r>
       <r>    -6.7500     2.3041    11.3320 </r>
       <r>    -6.7400     2.1951    11.3539 </r>
       <r>    -6.7300     2.0929    11.3749 </r>
       <r>    -6.7200     1.9979    11.3948 </r>
       <r>    -6.7100     1.9104    11.4139 </r>
       <r>    -6.7000     1.8308    11.4323 </r>
       <r>    -6.6900     1.7591    11.4498 </r>
       <r>    -6.6800     1.6955    11.4668 </r>
       <r>    -6.6700     1.6401    11.4832 </r>
       <r>    -6.6600     1.5929    11.4991 </r>
       <r>    -6.6500     1.5538    11.5147 </r>
       <r>    -6.6400     1.5226    11.5299 </r>
       <r>    -6.6300     1.4991    11.5449 </r>
       <r>    -6.6200     1.4829    11.5597 </r>
       <r>    -6.6100     1.4736    11.5745 </r>
       <r>    -6.6000     1.4709    11.5892 </r>
       <r>    -6.5900     1.4742    11.6039 </r>
       <r>    -6.5800     1.4829    11.6187 </r>
       <r>    -6.5700     1.4964    11.6337 </r>
       <r>    -6.5600     1.5142    11.6488 </r>
       <r>    -6.5500     1.5354    11.6642 </r>
       <r>    -6.5400     1.5594    11.6798 </r>
       <r>    -6.5300     1.5856    11.6956 </r>
       <r>    -6.5200     1.6132    11.7118 </r>
       <r>    -6.5100     1.6415    11.7282 </r>
       <r>    -6.5000     1.6699    11.7449 </r>
       <r>    -6.4900     1.6978    11.7619 </r>
       <r>    -6.4800     1.7244    11.7791 </r>
       <r>    -6.4700     1.7494    11.7966 </r>
       <r>    -6.4600     1.7721    11.8143 </r>
       <r>    -6.4500     1.7921    11.8322 </r>
       <r>    -6.4400     1.8090    11.8503 </r>
       <r>    -6.4300     1.8225    11.8686 </r>
       <r>    -6.4200     1.8321    11.8869 </r>
       <r>    -6.4100     1.8378    11.9053 </r>
       <r>    -6.4000     1.8394    11.9237 </r>
       <r>    -6.3900     1.8367    11.9420 </r>
       <r>    -6.3800     1.8297    11.9603 </r>
       <r>    -6.3700     1.8183    11.9785 </r>
       <r>    -6.3600     1.8027    11.9965 </r>
       <r>    -6.3500     1.7830    12.0144 </r>
       <r>    -6.3400     1.7593    12.0320 </r>
       <r>    -6.3300     1.7318    12.0493 </r>
       <r>    -6.3200     1.7009    12.0663 </r>
       <r>    -6.3100     1.6667    12.0829 </r>
       <r>    -6.3000     1.6297    12.0992 </r>
       <r>    -6.2900     1.5902    12.1151 </r>
       <r>    -6.2800     1.5488    12.1306 </r>
       <r>    -6.2700     1.5058    12.1457 </r>
       <r>    -6.2600     1.4617    12.1603 </r>
       <r>    -6.2500     1.4172    12.1745 </r>
       <r>    -6.2400     1.3728    12.1882 </r>
       <r>    -6.2300     1.3292    12.2015 </r>
       <r>    -6.2200     1.2868    12.2144 </r>
       <r>    -6.2100     1.2465    12.2268 </r>
       <r>    -6.2000     1.2088    12.2389 </r>
       <r>    -6.1900     1.1744    12.2507 </r>
       <r>    -6.1800     1.1442    12.2621 </r>
       <r>    -6.1700     1.1186    12.2733 </r>
       <r>    -6.1600     1.0984    12.2843 </r>
       <r>    -6.1500     1.0843    12.2951 </r>
       <r>    -6.1400     1.0769    12.3059 </r>
       <r>    -6.1300     1.0768    12.3167 </r>
       <r>    -6.1200     1.0846    12.3275 </r>
       <r>    -6.1100     1.1007    12.3385 </r>
       <r>    -6.1000     1.1257    12.3498 </r>
       <r>    -6.0900     1.1600    12.3614 </r>
       <r>    -6.0800     1.2038    12.3734 </r>
       <r>    -6.0700     1.2573    12.3860 </r>
       <r>    -6.0600     1.3208    12.3992 </r>
       <r>    -6.0500     1.3943    12.4131 </r>
       <r>    -6.0400     1.4777    12.4279 </r>
       <r>    -6.0300     1.5709    12.4436 </r>
       <r>    -6.0200     1.6736    12.4604 </r>
       <r>    -6.0100     1.7855    12.4782 </r>
       <r>    -6.0000     1.9061    12.4973 </r>
       <r>    -5.9900     2.0348    12.5176 </r>
       <r>    -5.9800     2.1711    12.5393 </r>
       <r>    -5.9700     2.3140    12.5625 </r>
       <r>    -5.9600     2.4629    12.5871 </r>
       <r>    -5.9500     2.6167    12.6133 </r>
       <r>    -5.9400     2.7745    12.6410 </r>
       <r>    -5.9300     2.9352    12.6704 </r>
       <r>    -5.9200     3.0977    12.7013 </r>
       <r>    -5.9100     3.2610    12.7339 </r>
       <r>    -5.9000     3.4237    12.7682 </r>
       <r>    -5.8900     3.5849    12.8040 </r>
       <r>    -5.8800     3.7432    12.8415 </r>
       <r>    -5.8700     3.8976    12.8804 </r>
       <r>    -5.8600     4.0469    12.9209 </r>
       <r>    -5.8500     4.1901    12.9628 </r>
       <r>    -5.8400     4.3260    13.0061 </r>
       <r>    -5.8300     4.4536    13.0506 </r>
       <r>    -5.8200     4.5722    13.0963 </r>
       <r>    -5.8100     4.6807    13.1431 </r>
       <r>    -5.8000     4.7784    13.1909 </r>
       <r>    -5.7900     4.8647    13.2396 </r>
       <r>    -5.7800     4.9390    13.2890 </r>
       <r>    -5.7700     5.0007    13.3390 </r>
       <r>    -5.7600     5.0495    13.3895 </r>
       <r>    -5.7500     5.0850    13.4403 </r>
       <r>    -5.7400     5.1070    13.4914 </r>
       <r>    -5.7300     5.1155    13.5425 </r>
       <r>    -5.7200     5.1105    13.5936 </r>
       <r>    -5.7100     5.0920    13.6446 </r>
       <r>    -5.7000     5.0603    13.6952 </r>
       <r>    -5.6900     5.0156    13.7453 </r>
       <r>    -5.6800     4.9584    13.7949 </r>
       <r>    -5.6700     4.8891    13.8438 </r>
       <r>    -5.6600     4.8084    13.8919 </r>
       <r>    -5.6500     4.7168    13.9390 </r>
       <r>    -5.6400     4.6151    13.9852 </r>
       <r>    -5.6300     4.5042    14.0302 </r>
       <r>    -5.6200     4.3849    14.0741 </r>
       <r>    -5.6100     4.2582    14.1167 </r>
       <r>    -5.6000     4.1250    14.1579 </r>
       <r>    -5.5900     3.9864    14.1978 </r>
       <r>    -5.5800     3.8434    14.2362 </r>
       <r>    -5.5700     3.6973    14.2732 </r>
       <r>    -5.5600     3.5490    14.3087 </r>
       <r>    -5.5500     3.3997    14.3427 </r>
       <r>    -5.5400     3.2506    14.3752 </r>
       <r>    -5.5300     3.1027    14.4062 </r>
       <r>    -5.5200     2.9571    14.4358 </r>
       <r>    -5.5100     2.8150    14.4639 </r>
       <r>    -5.5000     2.6772    14.4907 </r>
       <r>    -5.4900     2.5447    14.5161 </r>
       <r>    -5.4800     2.4185    14.5403 </r>
       <r>    -5.4700     2.2993    14.5633 </r>
       <r>    -5.4600     2.1879    14.5852 </r>
       <r>    -5.4500     2.0850    14.6061 </r>
       <r>    -5.4400     1.9911    14.6260 </r>
       <r>    -5.4300     1.9066    14.6450 </r>
       <r>    -5.4200     1.8321    14.6634 </r>
       <r>    -5.4100     1.7676    14.6810 </r>
       <r>    -5.4000     1.7134    14.6982 </r>
       <r>    -5.3900     1.6695    14.7149 </r>
       <r>    -5.3800     1.6359    14.7312 </r>
       <r>    -5.3700     1.6123    14.7473 </r>
       <r>    -5.3600     1.5985    14.7633 </r>
       <r>    -5.3500     1.5941    14.7793 </r>
       <r>    -5.3400     1.5987    14.7953 </r>
       <r>    -5.3300     1.6115    14.8114 </r>
       <r>    -5.3200     1.6320    14.8277 </r>
       <r>    -5.3100     1.6594    14.8443 </r>
       <r>    -5.3000     1.6928    14.8612 </r>
       <r>    -5.2900     1.7315    14.8785 </r>
       <r>    -5.2800     1.7745    14.8963 </r>
       <r>    -5.2700     1.8208    14.9145 </r>
       <r>    -5.2600     1.8696    14.9332 </r>
       <r>    -5.2500     1.9198    14.9524 </r>
       <r>    -5.2400     1.9705    14.9721 </r>
       <r>    -5.2300     2.0208    14.9923 </r>
       <r>    -5.2200     2.0700    15.0130 </r>
       <r>    -5.2100     2.1172    15.0342 </r>
       <r>    -5.2000     2.1616    15.0558 </r>
       <r>    -5.1900     2.2029    15.0778 </r>
       <r>    -5.1800     2.2403    15.1002 </r>
       <r>    -5.1700     2.2736    15.1229 </r>
       <r>    -5.1600     2.3024    15.1460 </r>
       <r>    -5.1500     2.3267    15.1692 </r>
       <r>    -5.1400     2.3463    15.1927 </r>
       <r>    -5.1300     2.3614    15.2163 </r>
       <r>    -5.1200     2.3722    15.2400 </r>
       <r>    -5.1100     2.3790    15.2638 </r>
       <r>    -5.1000     2.3821    15.2876 </r>
       <r>    -5.0900     2.3820    15.3115 </r>
       <r>    -5.0800     2.3793    15.3353 </r>
       <r>    -5.0700     2.3746    15.3590 </r>
       <r>    -5.0600     2.3685    15.3827 </r>
       <r>    -5.0500     2.3616    15.4063 </r>
       <r>    -5.0400     2.3546    15.4298 </r>
       <r>    -5.0300     2.3481    15.4533 </r>
       <r>    -5.0200     2.3427    15.4768 </r>
       <r>    -5.0100     2.3389    15.5001 </r>
       <r>    -5.0000     2.3373    15.5235 </r>
       <r>    -4.9900     2.3383    15.5469 </r>
       <r>    -4.9800     2.3421    15.5703 </r>
       <r>    -4.9700     2.3491    15.5938 </r>
       <r>    -4.9600     2.3595    15.6174 </r>
       <r>    -4.9500     2.3733    15.6411 </r>
       <r>    -4.9400     2.3905    15.6650 </r>
       <r>    -4.9300     2.4109    15.6892 </r>
       <r>    -4.9200     2.4345    15.7135 </r>
       <r>    -4.9100     2.4609    15.7381 </r>
       <r>    -4.9000     2.4898    15.7630 </r>
       <r>    -4.8900     2.5208    15.7882 </r>
       <r>    -4.8800     2.5534    15.8137 </r>
       <r>    -4.8700     2.5872    15.8396 </r>
       <r>    -4.8600     2.6216    15.8658 </r>
       <r>    -4.8500     2.6561    15.8924 </r>
       <r>    -4.8400     2.6901    15.9193 </r>
       <r>    -4.8300     2.7232    15.9465 </r>
       <r>    -4.8200     2.7547    15.9741 </r>
       <r>    -4.8100     2.7842    16.0019 </r>
       <r>    -4.8000     2.8113    16.0300 </r>
       <r>    -4.7900     2.8356    16.0584 </r>
       <r>    -4.7800     2.8568    16.0870 </r>
       <r>    -4.7700     2.8745    16.1157 </r>
       <r>    -4.7600     2.8887    16.1446 </r>
       <r>    -4.7500     2.8991    16.1736 </r>
       <r>    -4.7400     2.9059    16.2026 </r>
       <r>    -4.7300     2.9090    16.2317 </r>
       <r>    -4.7200     2.9085    16.2608 </r>
       <r>    -4.7100     2.9047    16.2899 </r>
       <r>    -4.7000     2.8978    16.3188 </r>
       <r>    -4.6900     2.8881    16.3477 </r>
       <r>    -4.6800     2.8761    16.3765 </r>
       <r>    -4.6700     2.8622    16.4051 </r>
       <r>    -4.6600     2.8469    16.4336 </r>
       <r>    -4.6500     2.8306    16.4619 </r>
       <r>    -4.6400     2.8139    16.4900 </r>
       <r>    -4.6300     2.7972    16.5180 </r>
       <r>    -4.6200     2.7811    16.5458 </r>
       <r>    -4.6100     2.7659    16.5735 </r>
       <r>    -4.6000     2.7521    16.6010 </r>
       <r>    -4.5900     2.7399    16.6284 </r>
       <r>    -4.5800     2.7297    16.6557 </r>
       <r>    -4.5700     2.7216    16.6829 </r>
       <r>    -4.5600     2.7157    16.7100 </r>
       <r>    -4.5500     2.7120    16.7372 </r>
       <r>    -4.5400     2.7103    16.7643 </r>
       <r>    -4.5300     2.7105    16.7914 </r>
       <r>    -4.5200     2.7123    16.8185 </r>
       <r>    -4.5100     2.7152    16.8457 </r>
       <r>    -4.5000     2.7187    16.8728 </r>
       <r>    -4.4900     2.7223    16.9001 </r>
       <r>    -4.4800     2.7255    16.9273 </r>
       <r>    -4.4700     2.7274    16.9546 </r>
       <r>    -4.4600     2.7275    16.9819 </r>
       <r>    -4.4500     2.7252    17.0091 </r>
       <r>    -4.4400     2.7196    17.0363 </r>
       <r>    -4.4300     2.7103    17.0634 </r>
       <r>    -4.4200     2.6967    17.0904 </r>
       <r>    -4.4100     2.6783    17.1172 </r>
       <r>    -4.4000     2.6548    17.1437 </r>
       <r>    -4.3900     2.6258    17.1700 </r>
       <r>    -4.3800     2.5913    17.1959 </r>
       <r>    -4.3700     2.5512    17.2214 </r>
       <r>    -4.3600     2.5057    17.2465 </r>
       <r>    -4.3500     2.4549    17.2710 </r>
       <r>    -4.3400     2.3993    17.2950 </r>
       <r>    -4.3300     2.3394    17.3184 </r>
       <r>    -4.3200     2.2758    17.3412 </r>
       <r>    -4.3100     2.2091    17.3632 </r>
       <r>    -4.3000     2.1401    17.3846 </r>
       <r>    -4.2900     2.0697    17.4053 </r>
       <r>    -4.2800     1.9987    17.4253 </r>
       <r>    -4.2700     1.9279    17.4446 </r>
       <r>    -4.2600     1.8583    17.4632 </r>
       <r>    -4.2500     1.7906    17.4811 </r>
       <r>    -4.2400     1.7255    17.4984 </r>
       <r>    -4.2300     1.6639    17.5150 </r>
       <r>    -4.2200     1.6061    17.5311 </r>
       <r>    -4.2100     1.5528    17.5466 </r>
       <r>    -4.2000     1.5042    17.5616 </r>
       <r>    -4.1900     1.4607    17.5762 </r>
       <r>    -4.1800     1.4222    17.5904 </r>
       <r>    -4.1700     1.3888    17.6043 </r>
       <r>    -4.1600     1.3604    17.6179 </r>
       <r>    -4.1500     1.3366    17.6313 </r>
       <r>    -4.1400     1.3171    17.6445 </r>
       <r>    -4.1300     1.3015    17.6575 </r>
       <r>    -4.1200     1.2891    17.6704 </r>
       <r>    -4.1100     1.2794    17.6832 </r>
       <r>    -4.1000     1.2717    17.6959 </r>
       <r>    -4.0900     1.2653    17.7085 </r>
       <r>    -4.0800     1.2596    17.7211 </r>
       <r>    -4.0700     1.2540    17.7337 </r>
       <r>    -4.0600     1.2476    17.7462 </r>
       <r>    -4.0500     1.2401    17.7586 </r>
       <r>    -4.0400     1.2308    17.7709 </r>
       <r>    -4.0300     1.2192    17.7831 </r>
       <r>    -4.0200     1.2050    17.7951 </r>
       <r>    -4.0100     1.1879    17.8070 </r>
       <r>    -4.0000     1.1677    17.8187 </r>
       <r>    -3.9900     1.1442    17.8301 </r>
       <r>    -3.9800     1.1174    17.8413 </r>
       <r>    -3.9700     1.0874    17.8522 </r>
       <r>    -3.9600     1.0543    17.8627 </r>
       <r>    -3.9500     1.0182    17.8729 </r>
       <r>    -3.9400     0.9796    17.8827 </r>
       <r>    -3.9300     0.9386    17.8921 </r>
       <r>    -3.9200     0.8956    17.9010 </r>
       <r>    -3.9100     0.8510    17.9095 </r>
       <r>    -3.9000     0.8053    17.9176 </r>
       <r>    -3.8900     0.7587    17.9252 </r>
       <r>    -3.8800     0.7119    17.9323 </r>
       <r>    -3.8700     0.6650    17.9389 </r>
       <r>    -3.8600     0.6186    17.9451 </r>
       <r>    -3.8500     0.5729    17.9509 </r>
       <r>    -3.8400     0.5284    17.9561 </r>
       <r>    -3.8300     0.4852    17.9610 </r>
       <r>    -3.8200     0.4436    17.9654 </r>
       <r>    -3.8100     0.4039    17.9695 </r>
       <r>    -3.8000     0.3662    17.9731 </r>
       <r>    -3.7900     0.3306    17.9764 </r>
       <r>    -3.7800     0.2972    17.9794 </r>
       <r>    -3.7700     0.2661    17.9821 </r>
       <r>    -3.7600     0.2372    17.9844 </r>
       <r>    -3.7500     0.2106    17.9865 </r>
       <r>    -3.7400     0.1862    17.9884 </r>
       <r>    -3.7300     0.1640    17.9900 </r>
       <r>    -3.7200     0.1438    17.9915 </r>
       <r>    -3.7100     0.1256    17.9927 </r>
       <r>    -3.7000     0.1093    17.9938 </r>
       <r>    -3.6900     0.0947    17.9948 </r>
       <r>    -3.6800     0.0817    17.9956 </r>
       <r>    -3.6700     0.0702    17.9963 </r>
       <r>    -3.6600     0.0601    17.9969 </r>
       <r>    -3.6500     0.0513    17.9974 </r>
       <r>    -3.6400     0.0436    17.9978 </r>
       <r>    -3.6300     0.0369    17.9982 </r>
       <r>    -3.6200     0.0311    17.9985 </r>
       <r>    -3.6100     0.0261    17.9988 </r>
       <r>    -3.6000     0.0218    17.9990 </r>
       <r>    -3.5900     0.0182    17.9992 </r>
       <r>    -3.5800     0.0151    17.9993 </r>
       <r>    -3.5700     0.0125    17.9995 </r>
       <r>    -3.5600     0.0103    17.9996 </r>
       <r>    -3.5500     0.0084    17.9997 </r>
       <r>    -3.5400     0.0069    17.9997 </r>
       <r>    -3.5300     0.0056    17.9998 </r>
       <r>    -3.5200     0.0046    17.9998 </r>
       <r>    -3.5100     0.0037    17.9999 </r>
       <r>    -3.5000     0.0030    17.9999 </r>
       <r>    -3.4900     0.0024    17.9999 </r>
       <r>    -3.4800     0.0019    17.9999 </r>
       <r>    -3.4700     0.0015    17.9999 </r>
       <r>    -3.4600     0.0012    18.0000 </r>
       <r>    -3.4500     0.0009    18.0000 </r>
       <r>    -3.4400     0.0007    18.0000 </r>
       <r>    -3.4300     0.0006    18.0000 </r>
       <r>    -3.4200     0.0004    18.0000 </r>
       <r>    -3.4100     0.0003    18.0000 </r>
       <r>    -3.4000     0.0003    18.0000 </r>
       <r>    -3.3900     0.0002    18.0000 </r>
       <r>    -3.3800     0.0002    18.0000 </r>
       <r>    -3.3700     0.0001    18.0000 </r>
       <r>    -3.3600     0.0001    18.0000 </r>
       <r>    -3.3500     0.0001    18.0000 </r>
       <r>    -3.3400     0.0001    18.0000 </r>
       <r>    -3.3300     0.0000    18.0000 </r>
       <r>    -3.3200     0.0000    18.0000 </r>
       <r>    -3.3100     0.0000    18.0000 </r>
       <r>    -3.3000     0.0000    18.0000 </r>
       <r>    -3.2900     0.0000    18.0000 </r>
       <r>    -3.2800     0.0000    18.0000 </r>
       <r>    -3.2700     0.0000    18.0000 </r>
       <r>    -3.2600     0.0000    18.0000 </r>
       <r>    -3.2500     0.0000    18.0000 </r>
       <r>    -3.2400     0.0000    18.0000 </r>
       <r>    -3.2300     0.0000    18.0000 </r>
       <r>    -3.2200     0.0000    18.0000 </r>
       <r>    -3.2100     0.0000    18.0000 </r>
       <r>    -3.2000     0.0000    18.0000 </r>
       <r>    -3.1900     0.0000    18.0000 </r>
       <r>    -3.1800     0.0000    18.0000 </r>
       <r>    -3.1700     0.0000    18.0000 </r>
       <r>    -3.1600     0.0000    18.0000 </r>
       <r>    -3.1500     0.0000    18.0000 </r>
       <r>    -3.1400     0.0000    18.0000 </r>
       <r>    -3.1300     0.0000    18.0000 </r>
       <r>    -3.1200     0.0000    18.0000 </r>
       <r>    -3.1100     0.0000    18.0000 </r>
       <r>    -3.1000     0.0000    18.0000 </r>
       <r>    -3.0900     0.0000    18.0000 </r>
       <r>    -3.0800     0.0000    18.0000 </r>
       <r>    -3.0700     0.0000    18.0000 </r>
       <r>    -3.0600     0.0000    18.0000 </r>
       <r>    -3.0500     0.0000    18.0000 </r>
       <r>    -3.0400     0.0000    18.0000 </r>
       <r>    -3.0300     0.0000    18.0000 </r>
       <r>    -3.0200     0.0000    18.0000 </r>
       <r>    -3.0100     0.0000    18.0000 </r>
       <r>    -3.0000     0.0000    18.0000 </r>
       <r>    -2.9900     0.0000    18.0000 </r>
       <r>    -2.9800     0.0000    18.0000 </r>
       <r>    -2.9700     0.0000    18.0000 </r>
       <r>    -2.9600     0.0000    18.0000 </r>
       <r>    -2.9500     0.0000    18.0000 </r>
       <r>    -2.9400     0.0000    18.0000 </r>
       <r>    -2.9300     0.0000    18.0000 </r>
       <r>    -2.9200     0.0000    18.0000 </r>
       <r>    -2.9100     0.0000    18.0000 </r>
       <r>    -2.9000     0.0000    18.0000 </r>
       <r>    -2.8900     0.0000    18.0000 </r>
       <r>    -2.8800     0.0000    18.0000 </r>
       <r>    -2.8700     0.0000    18.0000 </r>
       <r>    -2.8600     0.0000    18.0000 </r>
       <r>    -2.8500     0.0000    18.0000 </r>
       <r>    -2.8400     0.0000    18.0000 </r>
       <r>    -2.8300     0.0000    18.0000 </r>
       <r>    -2.8200     0.0000    18.0000 </r>
       <r>    -2.8100     0.0000    18.0000 </r>
       <r>    -2.8000     0.0000    18.0000 </r>
       <r>    -2.7900     0.0000    18.0000 </r>
       <r>    -2.7800     0.0000    18.0000 </r>
       <r>    -2.7700     0.0000    18.0000 </r>
       <r>    -2.7600     0.0000    18.0000 </r>
       <r>    -2.7500     0.0000    18.0000 </r>
       <r>    -2.7400     0.0000    18.0000 </r>
       <r>    -2.7300     0.0000    18.0000 </r>
       <r>    -2.7200     0.0000    18.0000 </r>
       <r>    -2.7100     0.0000    18.0000 </r>
       <r>    -2.7000     0.0000    18.0000 </r>
       <r>    -2.6900     0.0000    18.0000 </r>
       <r>    -2.6800     0.0000    18.0000 </r>
       <r>    -2.6700     0.0001    18.0000 </r>
       <r>    -2.6600     0.0001    18.0000 </r>
       <r>    -2.6500     0.0001    18.0000 </r>
       <r>    -2.6400     0.0001    18.0000 </r>
       <r>    -2.6300     0.0002    18.0000 </r>
       <r>    -2.6200     0.0003    18.0000 </r>
       <r>    -2.6100     0.0003    18.0000 </r>
       <r>    -2.6000     0.0005    18.0000 </r>
       <r>    -2.5900     0.0006    18.0000 </r>
       <r>    -2.5800     0.0008    18.0000 </r>
       <r>    -2.5700     0.0010    18.0000 </r>
       <r>    -2.5600     0.0013    18.0001 </r>
       <r>    -2.5500     0.0016    18.0001 </r>
       <r>    -2.5400     0.0020    18.0001 </r>
       <r>    -2.5300     0.0026    18.0001 </r>
       <r>    -2.5200     0.0033    18.0001 </r>
[...]
        <r>  0.0072  0.0713  0.0134  0.0405  0.0000  0.0000  0.0000  0.0000  0.0000 </r>
        <r>  0.0072  0.0713  0.0134  0.0405  0.0000  0.0000  0.0000  0.0000  0.0000 </r>
       </set>
       <set comment="band 11">
        <r>  0.0059  0.0061  0.0000  0.0055  0.2850  0.0000  0.0991  0.0000  0.1012 </r>
        <r>  0.0007  0.0397  0.0049  0.0955  0.0000  0.0000  0.0000  0.0000  0.0000 </r>
        <r>  0.0007  0.0397  0.0049  0.0955  0.0000  0.0000  0.0000  0.0000  0.0000 </r>
       </set>
       <set comment="band 12">
        <r>  0.0000  0.0000  0.0002  0.0000  0.0000  0.2432  0.0000  0.3035  0.0000 </r>
        <r>  0.0257  0.0395  0.0135  0.0145  0.0000  0.0000  0.0000  0.0000  0.0000 </r>
        <r>  0.0257  0.0395  0.0134  0.0145  0.0000  0.0000  0.0000  0.0000  0.0000 </r>
       </set>
       <set comment="band 13">
        <r>  0.0000  0.0000  0.0027  0.0000  0.0000  0.2525  0.0000  0.1916  0.0000 </r>
        <r>  0.0025  0.0406  0.0086  0.1196  0.0000  0.0000  0.0000  0.0000  0.0000 </r>
        <r>  0.0025  0.0406  0.0086  0.1196  0.0000  0.0000  0.0000  0.0000  0.0000 </r>
       </set>
       <set comment="band 14">
        <r>  0.0068  0.0034  0.0001  0.0017  0.0013  0.0005  0.0190  0.0002  0.0032 </r>
        <r>  0.0077  0.0061  0.0121  0.0020  0.0000  0.0000  0.0000  0.0000  0.0000 </r>
        <r>  0.0051  0.0038  0.0013  0.0015  0.0000  0.0000  0.0000  0.0000  0.0000 </r>
       </set>
      </set>
      <set comment="kpoint 7">
       <set comment="band 1">
        <r>  0.0576  0.0184  0.0000  0.0166  0.0142  0.0000  0.0008  0.0000  0.0116 </r>
        <r>  0.3024  0.0013  0.0053  0.0010  0.0000  0.0000  0.0000  0.0000  0.0000 </r>
        <r>  0.3024  0.0013  0.0053  0.0010  0.0000  0.0000  0.0000  0.0000  0.0000 </r>
       </set>
       <set comment="band 2">
        <r>  0.0000  0.0000  0.0239  0.0000  0.0000  0.0400  0.0000  0.0372  0.0000 </r>
        <r>  0.3250  0.0007  0.0018  0.0006  0.0000  0.0000  0.0000  0.0000  0.0000 </r>
        <r>  0.3250  0.0007  0.0018  0.0006  0.0000  0.0000  0.0000  0.0000  0.0000 </r>
       </set>
       <set comment="band 3">
        <r>  0.0219  0.0058  0.0000  0.0251  0.1217  0.0000  0.0656  0.0000  0.1287 </r>
        <r>  0.0017  0.0523  0.0478  0.0481  0.0000  0.0000  0.0000  0.0000  0.0000 </r>
        <r>  0.0017  0.0523  0.0478  0.0482  0.0000  0.0000  0.0000  0.0000  0.0000 </r>
       </set>
       <set comment="band 4">
        <r>  0.0000  0.0000  0.0208  0.0000  0.0000  0.0062  0.0000  0.2846  0.0000 </r>
        <r>  0.0062  0.0662  0.0150  0.0979  0.0000  0.0000  0.0000  0.0000  0.0000 </r>
        <r>  0.0062  0.0662  0.0150  0.0979  0.0000  0.0000  0.0000  0.0000  0.0000 </r>
       </set>
       <set comment="band 5">
        <r>  0.1216  0.0191  0.0000  0.0235  0.0287  0.0000  0.0522  0.0000  0.0057 </r>
        <r>  0.0328  0.0238  0.1106  0.0311  0.0000  0.0000  0.0000  0.0000  0.0000 </r>
        <r>  0.0328  0.0238  0.1106  0.0311  0.0000  0.0000  0.0000  0.0000  0.0000 </r>
       </set>
       <set comment="band 6">
        <r>  0.0000  0.0000  0.0056  0.0000  0.0000  0.3935  0.0000  0.0047  0.0000 </r>
        <r>  0.0029  0.0869  0.0506  0.0342  0.0000  0.0000  0.0000  0.0000  0.0000 </r>
        <r>  0.0029  0.0869  0.0506  0.0342  0.0000  0.0000  0.0000  0.0000  0.0000 </r>
       </set>
       <set comment="band 7">
        <r>  0.0135  0.0434  0.0000  0.0225  0.0265  0.0000  0.1133  0.0000  0.1178 </r>
        <r>  0.0016  0.0793  0.0035  0.0967  0.0000  0.0000  0.0000  0.0000  0.0000 </r>
        <r>  0.0016  0.0793  0.0035  0.0967  0.0000  0.0000  0.0000  0.0000  0.0000 </r>
       </set>
       <set comment="band 8">
        <r>  0.0000  0.0000  0.0647  0.0000  0.0000  0.0064  0.0000  0.0674  0.0000 </r>
        <r>  0.0087  0.0383  0.1533  0.0651  0.0000  0.0000  0.0000  0.0000  0.0000 </r>
        <r>  0.0087  0.0383  0.1533  0.0651  0.0000  0.0000  0.0000  0.0000  0.0000 </r>
       </set>
       <set comment="band 9">
        <r>  0.0025  0.0077  0.0000  0.0016  0.2466  0.0000  0.2341  0.0000  0.1593 </r>
        <r>  0.0043  0.0375  0.0216  0.0219  0.0000  0.0000  0.0000  0.0000  0.0000 </r>
        <r>  0.0043  0.0375  0.0216  0.0219  0.0000  0.0000  0.0000  0.0000  0.0000 </r>
       </set>
       <set comment="band 10">
        <r>  0.0080  0.0088  0.0000  0.0051  0.1225  0.0000  0.0882  0.0000  0.3459 </r>
        <r>  0.0034  0.0445  0.0233  0.0137  0.0000  0.0000  0.0000  0.0000  0.0000 </r>
        <r>  0.0034  0.0445  0.0233  0.0137  0.0000  0.0000  0.0000  0.0000  0.0000 </r>
       </set>
       <set comment="band 11">
        <r>  0.0114  0.0028  0.0000  0.0006  0.3143  0.0000  0.3114  0.0000  0.0885 </r>
        <r>  0.0004  0.0205  0.0071  0.0398  0.0000  0.0000  0.0000  0.0000  0.0000 </r>
        <r>  0.0004  0.0205  0.0071  0.0398  0.0000  0.0000  0.0000  0.0000  0.0000 </r>
       </set>
       <set comment="band 12">
        <r>  0.0000  0.0000  0.0065  0.0000  0.0000  0.1057  0.0000  0.4327  0.0000 </r>
        <r>  0.0211  0.0366  0.0268  0.0058  0.0000  0.0000  0.0000  0.0000  0.0000 </r>
        <r>  0.0211  0.0366  0.0268  0.0058  0.0000  0.0000  0.0000  0.0000  0.0000 </r>
       </set>
       <set comment="band 13">
        <r>  0.0000  0.0000  0.0026  0.0000  0.0000  0.3984  0.0000  0.0885  0.0000 </r>
        <r>  0.0083  0.0430  0.0288  0.0702  0.0000  0.0000  0.0000  0.0000  0.0000 </r>
        <r>  0.0083  0.0430  0.0288  0.0702  0.0000  0.0000  0.0000  0.0000  0.0000 </r>
       </set>
       <set comment="band 14">
        <r>  0.0020  0.0109  0.0000  0.0161  0.0051  0.0000  0.0145  0.0000  0.0090 </r>
        <r>  0.0091  0.0054  0.0068  0.0013  0.0000  0.0000  0.0000  0.0000  0.0000 </r>
        <r>  0.0089  0.0053  0.0056  0.0012  0.0000  0.0000  0.0000  0.0000  0.0000 </r>
       </set>
      </set>
      <set comment="kpoint 8">
       <set comment="band 1">
        <r>  0.0208  0.0185  0.0000  0.0307  0.0314  0.0000  0.0003  0.0000  0.0158 </r>
        <r>  0.3195  0.0004  0.0059  0.0003  0.0000  0.0000  0.0000  0.0000  0.0000 </r>
        <r>  0.3195  0.0004  0.0059  0.0003  0.0000  0.0000  0.0000  0.0000  0.0000 </r>
       </set>
       <set comment="band 2">
        <r>  0.0000  0.0000  0.0071  0.0000  0.0000  0.0407  0.0000  0.0721  0.0000 </r>
        <r>  0.3310  0.0003  0.0027  0.0003  0.0000  0.0000  0.0000  0.0000  0.0000 </r>
        <r>  0.3310  0.0003  0.0027  0.0003  0.0000  0.0000  0.0000  0.0000  0.0000 </r>
       </set>
       <set comment="band 3">
        <r>  0.1026  0.0024  0.0000  0.0266  0.0645  0.0000  0.0342  0.0000  0.0433 </r>
        <r>  0.0043  0.0508  0.0087  0.1019  0.0000  0.0000  0.0000  0.0000  0.0000 </r>
        <r>  0.0043  0.0508  0.0087  0.1020  0.0000  0.0000  0.0000  0.0000  0.0000 </r>
       </set>
       <set comment="band 4">
        <r>  0.0000  0.0000  0.0350  0.0000  0.0000  0.0692  0.0000  0.1795  0.0000 </r>
        <r>  0.0071  0.0573  0.0054  0.1112  0.0000  0.0000  0.0000  0.0000  0.0000 </r>
        <r>  0.0071  0.0573  0.0054  0.1112  0.0000  0.0000  0.0000  0.0000  0.0000 </r>
       </set>
       <set comment="band 5">
        <r>  0.0162  0.0240  0.0000  0.0179  0.1402  0.0000  0.0903  0.0000  0.0527 </r>
        <r>  0.0206  0.0058  0.1295  0.0199  0.0000  0.0000  0.0000  0.0000  0.0000 </r>
        <r>  0.0206  0.0058  0.1295  0.0199  0.0000  0.0000  0.0000  0.0000  0.0000 </r>
       </set>
       <set comment="band 6">
        <r>  0.0000  0.0000  0.0256  0.0000  0.0000  0.3185  0.0000  0.0260  0.0000 </r>
        <r>  0.0020  0.1085  0.0279  0.0475  0.0000  0.0000  0.0000  0.0000  0.0000 </r>
        <r>  0.0020  0.1085  0.0279  0.0475  0.0000  0.0000  0.0000  0.0000  0.0000 </r>
       </set>
       <set comment="band 7">
        <r>  0.0233  0.0416  0.0000  0.0489  0.0014  0.0000  0.0710  0.0000  0.0230 </r>
        <r>  0.0063  0.1215  0.0320  0.0561  0.0000  0.0000  0.0000  0.0000  0.0000 </r>
        <r>  0.0063  0.1215  0.0320  0.0561  0.0000  0.0000  0.0000  0.0000  0.0000 </r>
       </set>
       <set comment="band 8">
        <r>  0.0000  0.0000  0.0363  0.0000  0.0000  0.0160  0.0000  0.1501  0.0000 </r>
        <r>  0.0118  0.0171  0.1757  0.0390  0.0000  0.0000  0.0000  0.0000  0.0000 </r>
        <r>  0.0118  0.0171  0.1757  0.0390  0.0000  0.0000  0.0000  0.0000  0.0000 </r>
       </set>
       <set comment="band 9">
        <r>  0.0034  0.0196  0.0000  0.0198  0.1840  0.0000  0.1603  0.0000  0.1971 </r>
        <r>  0.0008  0.0478  0.0257  0.0261  0.0000  0.0000  0.0000  0.0000  0.0000 </r>
        <r>  0.0008  0.0478  0.0257  0.0261  0.0000  0.0000  0.0000  0.0000  0.0000 </r>
       </set>
       <set comment="band 10">
        <r>  0.0051  0.0091  0.0000  0.0018  0.0649  0.0000  0.3341  0.0000  0.3775 </r>
        <r>  0.0002  0.0266  0.0149  0.0068  0.0000  0.0000  0.0000  0.0000  0.0000 </r>
        <r>  0.0002  0.0266  0.0149  0.0068  0.0000  0.0000  0.0000  0.0000  0.0000 </r>
       </set>
       <set comment="band 11">
        <r>  0.0154  0.0057  0.0000  0.0107  0.3789  0.0000  0.2183  0.0000  0.1807 </r>
        <r>  0.0021  0.0014  0.0171  0.0181  0.0000  0.0000  0.0000  0.0000  0.0000 </r>
        <r>  0.0021  0.0014  0.0171  0.0181  0.0000  0.0000  0.0000  0.0000  0.0000 </r>
       </set>
       <set comment="band 12">
        <r>  0.0000  0.0000  0.0063  0.0000  0.0000  0.1641  0.0000  0.3324  0.0000 </r>
        <r>  0.0091  0.0683  0.0151  0.0162  0.0000  0.0000  0.0000  0.0000  0.0000 </r>
        <r>  0.0091  0.0683  0.0151  0.0162  0.0000  0.0000  0.0000  0.0000  0.0000 </r>
       </set>
       <set comment="band 13">
        <r>  0.0000  0.0000  0.0004  0.0000  0.0000  0.3331  0.0000  0.1444  0.0000 </r>
        <r>  0.0189  0.0144  0.0665  0.0290  0.0000  0.0000  0.0000  0.0000  0.0000 </r>
        <r>  0.0190  0.0144  0.0665  0.0290  0.0000  0.0000  0.0000  0.0000  0.0000 </r>
       </set>
       <set comment="band 14">
        <r>  0.1877  0.0089  0.0000  0.0533  0.0404  0.0000  0.0061  0.0000  0.0387 </r>
        <r>  0.0001  0.0013  0.0115  0.0051  0.0000  0.0000  0.0000  0.0000  0.0000 </r>
        <r>  0.0001  0.0013  0.0115  0.0051  0.0000  0.0000  0.0000  0.0000  0.0000 </r>
       </set>
      </set>
      <set comment="kpoint 9">
       <set comment="band 1">
        <r>  0.0218  0.0321  0.0000  0.0178  0.0177  0.0000  0.0004  0.0000  0.0266 </r>
        <r>  0.3183  0.0009  0.0058  0.0003  0.0000  0.0000  0.0000  0.0000  0.0000 </r>
        <r>  0.3183  0.0009  0.0058  0.0003  0.0000  0.0000  0.0000  0.0000  0.0000 </r>
       </set>
       <set comment="band 2">
        <r>  0.0000  0.0000  0.0084  0.0000  0.0000  0.0705  0.0000  0.0376  0.0000 </r>
        <r>  0.3319  0.0005  0.0027  0.0002  0.0000  0.0000  0.0000  0.0000  0.0000 </r>
        <r>  0.3319  0.0005  0.0027  0.0002  0.0000  0.0000  0.0000  0.0000  0.0000 </r>
       </set>
       <set comment="band 3">
        <r>  0.0650  0.0098  0.0000  0.0293  0.0359  0.0000  0.0616  0.0000  0.1071 </r>
        <r>  0.0004  0.1066  0.0170  0.0360  0.0000  0.0000  0.0000  0.0000  0.0000 </r>
        <r>  0.0004  0.1066  0.0171  0.0360  0.0000  0.0000  0.0000  0.0000  0.0000 </r>
       </set>
       <set comment="band 4">
        <r>  0.0000  0.0000  0.0084  0.0000  0.0000  0.1284  0.0000  0.2208  0.0000 </r>
        <r>  0.0041  0.0958  0.0001  0.0666  0.0000  0.0000  0.0000  0.0000  0.0000 </r>
        <r>  0.0041  0.0958  0.0001  0.0666  0.0000  0.0000  0.0000  0.0000  0.0000 </r>
       </set>
       <set comment="band 5">
        <r>  0.0785  0.0205  0.0000  0.0103  0.0692  0.0000  0.0001  0.0000  0.0673 </r>
        <r>  0.0340  0.0203  0.1495  0.0150  0.0000  0.0000  0.0000  0.0000  0.0000 </r>
        <r>  0.0340  0.0203  0.1496  0.0150  0.0000  0.0000  0.0000  0.0000  0.0000 </r>
       </set>
       <set comment="band 6">
        <r>  0.0000  0.0000  0.0470  0.0000  0.0000  0.1650  0.0000  0.0582  0.0000 </r>
        <r>  0.0039  0.0671  0.0535  0.0781  0.0000  0.0000  0.0000  0.0000  0.0000 </r>
        <r>  0.0039  0.0671  0.0535  0.0781  0.0000  0.0000  0.0000  0.0000  0.0000 </r>
       </set>
       <set comment="band 7">
        <r>  0.0102  0.0636  0.0000  0.0362  0.0089  0.0000  0.1207  0.0000  0.0185 </r>
        <r>  0.0005  0.0419  0.0089  0.1233  0.0000  0.0000  0.0000  0.0000  0.0000 </r>
        <r>  0.0005  0.0419  0.0089  0.1233  0.0000  0.0000  0.0000  0.0000  0.0000 </r>
       </set>
       <set comment="band 8">
        <r>  0.0000  0.0000  0.0523  0.0000  0.0000  0.0593  0.0000  0.0754  0.0000 </r>
        <r>  0.0130  0.0383  0.1559  0.0459  0.0000  0.0000  0.0000  0.0000  0.0000 </r>
        <r>  0.0130  0.0383  0.1559  0.0459  0.0000  0.0000  0.0000  0.0000  0.0000 </r>
       </set>
       <set comment="band 9">
        <r>  0.0074  0.0001  0.0000  0.0000  0.2535  0.0000  0.1475  0.0000  0.2690 </r>
        <r>  0.0010  0.0277  0.0016  0.0449  0.0000  0.0000  0.0000  0.0000  0.0000 </r>
        <r>  0.0010  0.0277  0.0016  0.0449  0.0000  0.0000  0.0000  0.0000  0.0000 </r>
       </set>
       <set comment="band 10">
        <r>  0.0074  0.0139  0.0000  0.0052  0.0463  0.0000  0.5214  0.0000  0.1099 </r>
        <r>  0.0006  0.0275  0.0274  0.0128  0.0000  0.0000  0.0000  0.0000  0.0000 </r>
        <r>  0.0006  0.0275  0.0274  0.0128  0.0000  0.0000  0.0000  0.0000  0.0000 </r>
       </set>
       <set comment="band 11">
        <r>  0.0246  0.0117  0.0000  0.0045  0.4757  0.0000  0.0544  0.0000  0.2307 </r>
        <r>  0.0023  0.0029  0.0261  0.0081  0.0000  0.0000  0.0000  0.0000  0.0000 </r>
        <r>  0.0023  0.0029  0.0261  0.0081  0.0000  0.0000  0.0000  0.0000  0.0000 </r>
       </set>
       <set comment="band 12">
        <r>  0.0000  0.0000  0.0020  0.0000  0.0000  0.1394  0.0000  0.3940  0.0000 </r>
        <r>  0.0077  0.0257  0.0088  0.0394  0.0000  0.0000  0.0000  0.0000  0.0000 </r>
        <r>  0.0077  0.0257  0.0088  0.0394  0.0000  0.0000  0.0000  0.0000  0.0000 </r>
       </set>
       <set comment="band 13">
        <r>  0.0000  0.0000  0.0016  0.0000  0.0000  0.3945  0.0000  0.1490  0.0000 </r>
        <r>  0.0208  0.0094  0.0755  0.0248  0.0000  0.0000  0.0000  0.0000  0.0000 </r>
        <r>  0.0208  0.0094  0.0755  0.0248  0.0000  0.0000  0.0000  0.0000  0.0000 </r>
       </set>
       <set comment="band 14">
        <r>  0.1320  0.0178  0.0000  0.0490  0.0233  0.0000  0.0105  0.0000  0.0695 </r>
        <r>  0.0001  0.0023  0.0278  0.0034  0.0000  0.0000  0.0000  0.0000  0.0000 </r>
        <r>  0.0001  0.0023  0.0278  0.0034  0.0000  0.0000  0.0000  0.0000  0.0000 </r>
       </set>
      </set>
      <set comment="kpoint 10">
       <set comment="band 1">
        <r>  0.0037  0.0239  0.0000  0.0333  0.0320  0.0000  0.0001  0.0000  0.0232 </r>
        <r>  0.3268  0.0001  0.0062  0.0000  0.0000  0.0000  0.0000  0.0000  0.0000 </r>
        <r>  0.3268  0.0001  0.0062  0.0000  0.0000  0.0000  0.0000  0.0000  0.0000 </r>
       </set>
       <set comment="band 2">
        <r>  0.0000  0.0000  0.0012  0.0000  0.0000  0.0490  0.0000  0.0725  0.0000 </r>
        <r>  0.3361  0.0001  0.0031  0.0001  0.0000  0.0000  0.0000  0.0000  0.0000 </r>
        <r>  0.3361  0.0001  0.0031  0.0001  0.0000  0.0000  0.0000  0.0000  0.0000 </r>
       </set>
       <set comment="band 3">
        <r>  0.0000  0.0000  0.0052  0.0000  0.0000  0.1909  0.0000  0.1716  0.0000 </r>
        <r>  0.0014  0.0682  0.0002  0.0892  0.0000  0.0000  0.0000  0.0000  0.0000 </r>
        <r>  0.0014  0.0682  0.0002  0.0892  0.0000  0.0000  0.0000  0.0000  0.0000 </r>
       </set>
       <set comment="band 4">
        <r>  0.1158  0.0140  0.0000  0.0182  0.0234  0.0000  0.0697  0.0000  0.0120 </r>
        <r>  0.0010  0.0456  0.0008  0.1277  0.0000  0.0000  0.0000  0.0000  0.0000 </r>
        <r>  0.0010  0.0456  0.0008  0.1277  0.0000  0.0000  0.0000  0.0000  0.0000 </r>
       </set>
       <set comment="band 5">
        <r>  0.0099  0.0426  0.0000  0.0147  0.1350  0.0000  0.0571  0.0000  0.0583 </r>
        <r>  0.0128  0.0514  0.0918  0.0171  0.0000  0.0000  0.0000  0.0000  0.0000 </r>
        <r>  0.0128  0.0514  0.0918  0.0171  0.0000  0.0000  0.0000  0.0000  0.0000 </r>
       </set>
       <set comment="band 6">
        <r>  0.0254  0.0245  0.0000  0.0604  0.0232  0.0000  0.0165  0.0000  0.0499 </r>
        <r>  0.0174  0.0805  0.0843  0.0297  0.0000  0.0000  0.0000  0.0000  0.0000 </r>
        <r>  0.0174  0.0805  0.0843  0.0297  0.0000  0.0000  0.0000  0.0000  0.0000 </r>
       </set>
       <set comment="band 7">
        <r>  0.0000  0.0000  0.0880  0.0000  0.0000  0.0673  0.0000  0.0295  0.0000 </r>
        <r>  0.0021  0.1084  0.0205  0.0916  0.0000  0.0000  0.0000  0.0000  0.0000 </r>
        <r>  0.0021  0.1084  0.0205  0.0916  0.0000  0.0000  0.0000  0.0000  0.0000 </r>
       </set>
       <set comment="band 8">
        <r>  0.0000  0.0000  0.0202  0.0000  0.0000  0.0930  0.0000  0.1434  0.0000 </r>
        <r>  0.0174  0.0142  0.1844  0.0176  0.0000  0.0000  0.0000  0.0000  0.0000 </r>
        <r>  0.0174  0.0142  0.1844  0.0176  0.0000  0.0000  0.0000  0.0000  0.0000 </r>
       </set>
       <set comment="band 9">
        <r>  0.0039  0.0023  0.0000  0.0065  0.3005  0.0000  0.0597  0.0000  0.3201 </r>
        <r>  0.0000  0.0395  0.0037  0.0253  0.0000  0.0000  0.0000  0.0000  0.0000 </r>
        <r>  0.0000  0.0395  0.0037  0.0253  0.0000  0.0000  0.0000  0.0000  0.0000 </r>
       </set>
       <set comment="band 10">
        <r>  0.0367  0.0018  0.0000  0.0007  0.0402  0.0000  0.7004  0.0000  0.0491 </r>
        <r>  0.0000  0.0133  0.0025  0.0204  0.0000  0.0000  0.0000  0.0000  0.0000 </r>
        <r>  0.0000  0.0133  0.0025  0.0204  0.0000  0.0000  0.0000  0.0000  0.0000 </r>
       </set>
       <set comment="band 11">
        <r>  0.0000  0.0000  0.0013  0.0000  0.0000  0.3130  0.0000  0.1959  0.0000 </r>
        <r>  0.0008  0.0487  0.0001  0.0299  0.0000  0.0000  0.0000  0.0000  0.0000 </r>
        <r>  0.0008  0.0487  0.0001  0.0299  0.0000  0.0000  0.0000  0.0000  0.0000 </r>
       </set>
       <set comment="band 12">
        <r>  0.0025  0.0104  0.0000  0.0214  0.2945  0.0000  0.0103  0.0000  0.3826 </r>
        <r>  0.0037  0.0009  0.0672  0.0012  0.0000  0.0000  0.0000  0.0000  0.0000 </r>
        <r>  0.0037  0.0009  0.0672  0.0012  0.0000  0.0000  0.0000  0.0000  0.0000 </r>
       </set>
       <set comment="band 13">
        <r>  0.0000  0.0000  0.0003  0.0000  0.0000  0.2358  0.0000  0.3392  0.0000 </r>
        <r>  0.0266  0.0010  0.0996  0.0019  0.0000  0.0000  0.0000  0.0000  0.0000 </r>
        <r>  0.0266  0.0010  0.0996  0.0019  0.0000  0.0000  0.0000  0.0000  0.0000 </r>
       </set>
       <set comment="band 14">
        <r>  0.1173  0.0534  0.0000  0.0641  0.0537  0.0000  0.0084  0.0000  0.0326 </r>
        <r>  0.0003  0.0020  0.0027  0.0043  0.0000  0.0000  0.0000  0.0000  0.0000 </r>
        <r>  0.0003  0.0020  0.0027  0.0043  0.0000  0.0000  0.0000  0.0000  0.0000 </r>
       </set>
      </set>
     </set>
    </set>
   </array>
  </projected>
 </calculation>
 <structure name="finalpos" >
  <crystal>
   <varray name="basis" >
    <v>       3.19031573       0.00000000       0.00000000 </v>
    <v>      -1.59515786       2.76289447       0.00000000 </v>
    <v>       0.00000000       0.00000000      32.87900430 </v>
   </varray>
   <i name="volume">    289.81217024 </i>
   <varray name="rec_basis" >
    <v>       0.31344860       0.18096963       0.00000000 </v>
    <v>       0.00000000       0.36193927       0.00000000 </v>
    <v>       0.00000000       0.00000000       0.03041455 </v>
   </varray>
  </crystal>
  <varray name="positions" >
   <v>       0.33333300       0.66666700       0.11313454 </v>
   <v>       0.66666700       0.33333300       0.06553929 </v>
   <v>       0.66666600       0.33333300       0.16072979 </v>
  </varray>
 </structure>
</modeling>
