unknown system                          
   1.00000000000000     
     3.190316    0.000000    0.000000
    -1.595158    2.762894    0.000000
     0.000000    0.000000   26.879004
   Mo   S 
     1     2
Direct
  0.333333  0.666667  0.138389
  0.666667  0.333333  0.080169
  0.666666  0.333333  0.196608
 
   28   28  240
 0.36323     0.36796     0.38206     0.40507     0.43622     0.47462     0.51923     0.56859     0.62063     0.67277    
 0.72198     0.76492     0.79816     0.81891     0.82567     0.81843     0.79816     0.76614     0.72395     0.67416    
 0.62064     0.56763     0.51832     0.47427     0.43623     0.40512     0.38208     0.36798     0.36800     0.36797    
 0.37952     0.40238     0.43593     0.47926     0.53123     0.59024     0.65404     0.71970     0.78370     0.84206    
 0.89057     0.92522     0.94287     0.94197     0.92317     0.88883     0.84190     0.78513     0.72152     0.65506    
 0.59026     0.53084     0.47895     0.43578     0.40234     0.37955     0.38209     0.37529     0.38210     0.40237    
 0.43577     0.48166     0.53892     0.60583     0.68009     0.75858     0.83734     0.91167     0.97671      1.0278    
  1.0605      1.0715      1.0595      1.0260     0.97468     0.91039     0.83741     0.75961     0.68110     0.60623    
 0.53884     0.48155     0.43577     0.40239     0.40501     0.38949     0.38965     0.40514     0.43577     0.48149    
 0.54151     0.61400     0.69659     0.78639     0.87920     0.96953      1.0515      1.1199      1.1696      1.1962    
  1.1968      1.1708      1.1205      1.0506     0.96774     0.87805     0.78650     0.69713     0.61411     0.54144    
 0.48170     0.43599     0.43623     0.40998     0.40164     0.41063     0.43623     0.47887     0.53874     0.61411    
 0.70226     0.80066     0.90570      1.0113      1.1105      1.1968      1.2645      1.3080      1.3235      1.3097    
  1.2675      1.1992      1.1105      1.0096     0.90461     0.80082     0.70227     0.61362     0.53884     0.47955    
 0.47513     0.43640     0.41746     0.41835     0.43731     0.47429     0.53081     0.60616     0.69698     0.80046    
 0.91428      1.0331      1.1485      1.2528      1.3397      1.4025      1.4345      1.4340      1.4025      1.3420    
  1.2550      1.1482      1.0321     0.91473     0.80107     0.69607     0.60533     0.53169     0.52035     0.46839    
 0.43683     0.42766     0.43884     0.46843     0.51841     0.59035     0.68110     0.78639     0.90455      1.0324    
  1.1615      1.2821      1.3877      1.4716      1.5245      1.5402      1.5204      1.4693      1.3888      1.2827    
  1.1605      1.0330     0.90664     0.78635     0.67908     0.59031     0.56965     0.50500     0.45992     0.43842    
 0.44036     0.46185     0.50302     0.56771     0.65515     0.75964     0.87813      1.0098      1.1484      1.2822    
  1.4031      1.5060      1.5820      1.6200      1.6166      1.5769      1.5053      1.4041      1.2807      1.1471    
  1.0122     0.88019     0.75763     0.65312     0.62064     0.54423     0.48650     0.45125     0.44185     0.45469    
 0.48643     0.54070     0.62064     0.72153     0.83747     0.96793      1.1105      1.2541      1.3868      1.5034    
  1.5985      1.6605      1.6797      1.6571      1.5985      1.5068      1.3868      1.2506      1.1105     0.97137    
 0.83740     0.71799     0.67135     0.58355     0.51510     0.46672     0.44402     0.44682     0.46950     0.51226    
 0.58070     0.67410     0.78511     0.91050      1.0509      1.1993      1.3416      1.4683      1.5762      1.6574    
  1.6997      1.6983      1.6578      1.5817      1.4720      1.3384      1.1958      1.0533     0.91316     0.78231    
 0.71989     0.62083     0.54321     0.48413     0.44797     0.43870     0.45212     0.48419     0.53914     0.62079    
 0.72388     0.84182     0.97469      1.1208      1.2684      1.4039      1.5214      1.6163      1.6777      1.6969    
  1.6756      1.6186      1.5265      1.4034      1.2634      1.1203     0.97874     0.84195     0.76345     0.65464    
 0.56853     0.50144     0.45400     0.43172     0.43449     0.45682     0.49878     0.56584     0.65737     0.76604    
 0.88852      1.0255      1.1709      1.3110      1.4361      1.5416      1.6190      1.6574      1.6543      1.6153    
  1.5429      1.4376      1.3076      1.1682      1.0287     0.89160     0.79816     0.68348     0.58986     0.51645    
 0.46101     0.42712     0.41807     0.43046     0.46101     0.51313     0.58995     0.68696     0.79816     0.92271    
  1.0586      1.1959      1.3235      1.4355      1.5255      1.5824      1.5985      1.5766      1.5224      1.4370    
  1.3235      1.1936      1.0595     0.92648     0.82029     0.70510     0.60660     0.52796     0.46715     0.42477    
 0.40455     0.40638     0.42655     0.46520     0.52607     0.60859     0.70731     0.81884     0.94195      1.0706    
  1.1944      1.3064      1.4020      1.4730      1.5088      1.5061      1.4697      1.4035      1.3093      1.1941    
  1.0696     0.94381     0.82759     0.71692     0.61781     0.53579     0.47127     0.42347     0.39450     0.38611    
 0.39632     0.42338     0.46928     0.53568     0.61970     0.71734     0.82663     0.94384      1.0605      1.1681    
  1.2624      1.3388      1.3887      1.4051      1.3878      1.3406      1.2664      1.1694      1.0586     0.94292    
 0.81981     0.71733     0.62215     0.53993     0.47336     0.42234     0.38752     0.37062     0.37148     0.38840    
 0.42152     0.47242     0.54044     0.62258     0.71648     0.81988     0.92693      1.0291      1.1200      1.1957    
  1.2515      1.2811      1.2813      1.2528      1.1983      1.1209      1.0269     0.92441     0.79816     0.70636    
 0.61873     0.54002     0.47387     0.42151     0.38331     0.36032     0.35316     0.36108     0.38346     0.42099    
 0.47386     0.54025     0.61778     0.70476     0.79816     0.89191     0.97874      1.0530      1.1105      1.1470    
  1.1594      1.1469      1.1105      1.0524     0.97671     0.88986     0.76467     0.68529     0.60766     0.53568    
 0.47288     0.42138     0.38198     0.35534     0.34214     0.34239     0.35561     0.38187     0.42144     0.47349    
 0.53589     0.60649     0.68338     0.76353     0.84203     0.91306     0.97119      1.0120      1.0326      1.0320    
  1.0105     0.96959     0.91189     0.84180     0.72185     0.65602     0.58998     0.52703     0.47025     0.42200    
 0.38356     0.35557     0.33861     0.33302     0.33867     0.35540     0.38333     0.42238     0.47133     0.52796    
 0.58982     0.65465     0.71996     0.78234     0.83734     0.88012     0.90671     0.91518     0.90557     0.87905    
 0.83747     0.78375     0.67274     0.62078     0.56721     0.51482     0.46613     0.42334     0.38798     0.36082    
 0.34236     0.33306     0.33309     0.34225     0.36035     0.38747     0.42345     0.46716     0.51642     0.56850    
 0.62086     0.67140     0.71798     0.75759     0.78646     0.80143     0.80124     0.78647     0.75865     0.71982    
 0.62063     0.58207     0.54114     0.50014     0.46101     0.42556     0.39528     0.37100     0.35317     0.34229    
 0.33874     0.34249     0.35316     0.37048     0.39440     0.42480     0.46101     0.50137     0.54319     0.58361    
 0.62064     0.65302     0.67907     0.69622     0.70226     0.69660     0.68008     0.65413     0.56868     0.54244    
 0.51365     0.48419     0.45549     0.42884     0.40544     0.38605     0.37099     0.36062     0.35544     0.35568    
 0.36111     0.37135     0.38598     0.40462     0.42723     0.45396     0.48406     0.51517     0.54430     0.56957    
 0.59022     0.60539     0.61359     0.61371     0.60570     0.59032     0.51941     0.50402     0.48644     0.46812    
 0.45009     0.43318     0.41817     0.40557     0.39546     0.38791     0.38325     0.38177     0.38349     0.38837    
 0.39623     0.40644     0.41825     0.43176     0.44788     0.46673     0.48661     0.50501     0.52025     0.53171    
 0.53893     0.54135     0.53874     0.53128     0.47475     0.46842     0.46085     0.45295     0.44540     0.43866    
 0.43309     0.42887     0.42580     0.42351     0.42191     0.42107     0.42094     0.42157     0.42337     0.42657    
 0.43057     0.43454     0.43861     0.44395     0.45130     0.45996     0.46833     0.47510     0.47961     0.48174    
 0.48156     0.47921     0.43622     0.43685     0.43779     0.43936     0.44185     0.44536     0.44991     0.45531    
 0.46101     0.46625     0.47038     0.47304     0.47387     0.47256     0.46935     0.46521     0.46101     0.45678    
 0.45203     0.44674     0.44185     0.43843     0.43681     0.43636     0.43623     0.43598     0.43576     0.43583    
 0.40504     0.41031     0.41789     0.42764     0.43943     0.45303     0.46811     0.48407     0.50001     0.51474    
 0.52702     0.53590     0.54069     0.54077     0.53578     0.52608     0.51310     0.49871     0.48412     0.46951    
 0.45474     0.44039     0.42764     0.41746     0.40999     0.40498     0.40236     0.40234     0.38210     0.38957    
 0.40166     0.41790     0.43784     0.46095     0.48658     0.51378     0.54119     0.56714     0.58980     0.60744    
 0.61877     0.62301     0.61968     0.60849     0.58991     0.56581     0.53911     0.51233     0.48654     0.46190    
 0.43881     0.41836     0.40169     0.38950     0.38207     0.37957     0.36801     0.37528     0.38956     0.41030    
 0.43681     0.46834     0.50400     0.54255     0.58223     0.62087     0.65601     0.68506     0.70571     0.71649    
 0.71691     0.70697     0.68686     0.65738     0.62082     0.58076     0.54077     0.50303     0.46838     0.43728    
 0.41065     0.38966     0.37528     0.36800     0.48214     0.48862     0.50810     0.54042     0.58516     0.64157    
 0.70842     0.78362     0.86396     0.94525      1.0225      1.0902      1.1429      1.1760      1.1870      1.1755    
  1.1429      1.0915      1.0246     0.94670     0.86397     0.78262     0.70747     0.64120     0.58518     0.54048    
 0.50812     0.48864     0.48866     0.48863     0.50466     0.53682     0.58496     0.64852     0.72634     0.81624    
 0.91475      1.0171      1.1176      1.2095      1.2860      1.3409      1.3690      1.3681      1.3387      1.2842    
  1.2093      1.1191      1.0191     0.91582     0.81626     0.72593     0.64820     0.58481     0.53678     0.50469    
 0.50813     0.49861     0.50814     0.53681     0.58484     0.65216     0.73784     0.83977     0.95445      1.0769    
  1.2005      1.3176      1.4201      1.5004      1.5518      1.5693      1.5508      1.4986      1.4180      1.3162    
  1.2005      1.0779     0.95551     0.84018     0.73776     0.65204     0.58484     0.53683     0.54036     0.51825    
 0.51842     0.54050     0.58480     0.65198     0.74174     0.85210     0.97968      1.1197      1.2652      1.4074    
  1.5367      1.6443      1.7221      1.7635      1.7641      1.7234      1.6449      1.5358      1.4055      1.2640    
  1.1198     0.98025     0.85222     0.74167     0.65220     0.58502     0.58518     0.54721     0.53509     0.54789    
 0.58517     0.64811     0.73765     0.85222     0.98837      1.1418      1.3063      1.4722      1.6282      1.7640    
  1.8701      1.9381      1.9619      1.9398      1.8733      1.7666      1.6282      1.4703      1.3052      1.1420    
 0.98838     0.85170     0.73775     0.64883     0.64211     0.58531     0.55765     0.55859     0.58627     0.64122    
 0.72590     0.84011     0.98009      1.1416      1.3199      1.5059      1.6869      1.8506      1.9866      2.0842    
  2.1344      2.1338      2.0843      1.9890      1.8529      1.6866      1.5048      1.3204      1.1423     0.97914    
 0.83923     0.72682     0.70959     0.63223     0.58595     0.57204     0.58805     0.63227     0.70756     0.81635    
 0.95551      1.1197      1.3051      1.5052      1.7070      1.8960      2.0607      2.1902      2.2719      2.2973    
  2.2676      2.1878      2.0618      1.8965      1.7060      1.5058      1.3073      1.1197     0.95339     0.81631    
 0.78473     0.68676     0.62013     0.58822     0.59026     0.62216     0.68468     0.78270     0.91591      1.0780    
  1.2641      1.4706      1.6868      1.8961      2.0850      2.2437      2.3594      2.4179      2.4143      2.3541    
  2.2430      2.0860      1.8945      1.6855      1.4731      1.2663      1.0759     0.91379     0.86397     0.74626    
 0.65977     0.60778     0.59302     0.61139     0.65970     0.74255     0.86396      1.0191      1.2006      1.4057    
  1.6282      1.8520      2.0597      2.2410      2.3860      2.4795      2.5093      2.4759      2.3860      2.2445    
  2.0597      1.8484      1.6282      1.4093      1.2005      1.0154     0.94376     0.80718     0.70289     0.63121    
 0.59723     0.60016     0.63413     0.69992     0.80419     0.94665      1.1191      1.3163      1.5360      1.7667    
  1.9885      2.1868      2.3534      2.4763      2.5401      2.5386      2.4766      2.3591      2.1907      1.9851    
  1.7630      1.5385      1.3191      1.1161      1.0203     0.86605     0.74612     0.65747     0.60403     0.58923    
 0.60837     0.65753     0.74184     0.86600      1.0245      1.2093      1.4180      1.6453      1.8743      2.0857    
  2.2687      2.4140      2.5071      2.5371      2.5050      2.4164      2.2740      2.0852      1.8690      1.6448    
  1.4222      1.2094      1.0887     0.91990     0.78609     0.68391     0.61361     0.58025     0.58316     0.61656    
 0.68111     0.78327     0.92276      1.0914      1.2839      1.4981      1.7235      1.9411      2.1360      2.2988    
  2.4168      2.4762      2.4730      2.4129      2.3002      2.1376      1.9376      1.7207      1.5014      1.2871    
  1.1429     0.96563     0.82046     0.70754     0.62453     0.57456     0.56035     0.57806     0.62453     0.70405    
 0.82054     0.96927      1.1429      1.3382      1.5498      1.7632      1.9619      2.1354      2.2729      2.3598    
  2.3860      2.3538      2.2697      2.1370      1.9619      1.7607      1.5508      1.3422      1.1775     0.99948    
 0.84750     0.72638     0.63444     0.57190     0.54192     0.54383     0.57376     0.63239     0.72440     0.84959    
  1.0018      1.1760      1.3681      1.5683      1.7616      1.9363      2.0837      2.1917      2.2466      2.2438    
  2.1882      2.0852      1.9394      1.7613      1.5673      1.3700      1.1890      1.0178     0.86534     0.73954    
 0.64165     0.57076     0.52842     0.51574     0.53033     0.57067     0.63957     0.73942     0.86732      1.0182    
  1.1880      1.3701      1.5518      1.7206      1.8680      1.9856      2.0617      2.0871      2.0608      1.9875    
  1.8721      1.7220      1.5498      1.3691      1.1770      1.0182     0.87199     0.74649     0.64576     0.56995    
 0.51927     0.49475     0.49565     0.52020     0.56909     0.64477     0.74703     0.87243      1.0173      1.1770    
  1.3427      1.5019      1.6444      1.7629      1.8493      1.8949      1.8951      1.8507      1.7656      1.6454    
  1.4995      1.3400      1.1429      1.0008     0.86630     0.74658     0.64696     0.56934     0.51391     0.48105    
 0.47073     0.48184     0.51406     0.56880     0.64695     0.74682     0.86531     0.99913      1.1429      1.2875    
  1.4222      1.5382      1.6282      1.6854      1.7049      1.6853      1.6282      1.5376      1.4201      1.2853    
  1.0899     0.96752     0.84860     0.73942     0.64526     0.56921     0.51222     0.47448     0.45599     0.45625    
 0.47476     0.51210     0.56927     0.64589     0.73964     0.84739     0.96552      1.0887      1.2095      1.3190    
  1.4091      1.4729      1.5054      1.5047      1.4713      1.4074      1.3178      1.2092      1.0224     0.92135    
 0.82058     0.72540     0.64058     0.56960     0.51417     0.47473     0.45128     0.44360     0.45134     0.47454    
 0.51393     0.56999     0.64171     0.72638     0.82041     0.91991      1.0204      1.1162      1.2005      1.2662    
  1.3074      1.3208      1.3062      1.2651      1.2006      1.1176     0.94521     0.86600     0.78471     0.70583    
 0.63336     0.57063     0.51976     0.48158     0.45621     0.44364     0.44368     0.45610     0.48108     0.51923    
 0.57074     0.63445     0.70751     0.78606     0.86608     0.94381      1.0153      1.0758      1.1198      1.1427    
  1.1424      1.1198      1.0769      1.0173     0.86396     0.80563     0.74395     0.68254     0.62454     0.57273    
 0.52924     0.49514     0.47074     0.45614     0.45141     0.45636     0.47073     0.49461     0.52832     0.57192    
 0.62453     0.68382     0.74609     0.80724     0.86396     0.91369     0.95338     0.97930     0.98837     0.97970    
 0.95444     0.91484     0.78372     0.74438     0.70137     0.65752     0.61517     0.57636     0.54285     0.51567    
 0.49513     0.48137     0.47459     0.47483     0.48188     0.49552     0.51560     0.54199     0.57467     0.61357    
 0.65739     0.70296     0.74634     0.78465     0.81622     0.83930     0.85168     0.85180     0.83963     0.81632    
 0.70862     0.68573     0.65972     0.63268     0.60625     0.58178     0.56046     0.54298     0.52943     0.51969    
 0.51384     0.51200     0.51410     0.52017     0.53024     0.54390     0.56054     0.58030     0.60393     0.63122    
 0.65989     0.68676     0.70949     0.72684     0.73785     0.74158     0.73766     0.72640     0.64171     0.63225    
 0.62111     0.60957     0.59867     0.58919     0.58168     0.57640     0.57298     0.57081     0.56950     0.56889    
 0.56875     0.56915     0.57066     0.57378     0.57818     0.58321     0.58914     0.59715     0.60784     0.62018    
 0.63217     0.64207     0.64889     0.65224     0.65206     0.64848     0.58516     0.58578     0.58696     0.58921    
 0.59302     0.59863     0.60606     0.61498     0.62454     0.63349     0.64072     0.64542     0.64696     0.64492    
 0.63964     0.63240     0.62453     0.61653     0.60828     0.60008     0.59302     0.58824     0.58592     0.58527    
 0.58517     0.58502     0.58483     0.58485     0.54040     0.54755     0.55811     0.57203     0.58928     0.60965    
 0.63266     0.65740     0.68241     0.70574     0.72539     0.73965     0.74728     0.74738     0.73953     0.72441    
 0.70403     0.68103     0.65745     0.63413     0.61144     0.59028     0.57203     0.55766     0.54723     0.54033    
 0.53680     0.53678     0.50814     0.51834     0.53511     0.55812     0.58701     0.62121     0.65986     0.70150    
 0.74399     0.78463     0.82039     0.84838     0.86635     0.87289     0.86730     0.84948     0.82051     0.78324    
 0.74182     0.69998     0.65982     0.62221     0.58803     0.55860     0.53514     0.51826     0.50810     0.50471    
 0.48867     0.49859     0.51833     0.54755     0.58574     0.63217     0.68571     0.74450     0.80580     0.86609    
 0.92133     0.96728      1.0001      1.0173      1.0177      1.0015     0.96917     0.92277     0.86603     0.80425    
 0.74263     0.68469     0.63221     0.58623     0.54791     0.51843     0.49859     0.48867     0.63235     0.64153    
 0.66932     0.71615     0.78213     0.86675     0.96844      1.0840      1.2083      1.3347      1.4551      1.5609    
  1.6433      1.6954      1.7129      1.6949      1.6433      1.5622      1.4573      1.3363      1.2083      1.0829    
 0.96744     0.86636     0.78214     0.71621     0.66935     0.64155     0.64157     0.64154     0.66473     0.71170    
 0.78295     0.87835     0.99653      1.1343      1.2862      1.4447      1.6006      1.7434      1.8625      1.9478    
  1.9919      1.9909      1.9455      1.8605      1.7433      1.6022      1.4467      1.2873      1.1343     0.99609    
 0.87800     0.78279     0.71166     0.66476     0.66936     0.65538     0.66937     0.71169     0.78322     0.88449    
  1.0146      1.1706      1.3472      1.5363      1.7278      1.9096      2.0689      2.1936      2.2734      2.3005    
  2.2723      2.1917      2.0666      1.9081      1.7279      1.5375      1.3483      1.1711      1.0145     0.88436    
 0.78322     0.71171     0.71608     0.68310     0.68328     0.71623     0.78278     0.88430      1.0208      1.1897    
  1.3861      1.6022      1.8274      2.0479      2.2492      2.4168      2.5379      2.6019      2.6025      2.5392    
  2.4174      2.2482      2.0460      1.8261      1.6023      1.3867      1.1899      1.0207     0.88453     0.78302    
 0.78214     0.72488     0.70644     0.72560     0.78213     0.87792      1.0144      1.1899      1.3994      1.6364    
  1.8907      2.1478      2.3907      2.6030      2.7691      2.8754      2.9124      2.8772      2.7724      2.6057    
  2.3907      2.1459      1.8895      1.6366      1.3994      1.1893      1.0145     0.87866     0.86731     0.78102    
 0.73887     0.73986     0.78202     0.86638     0.99606      1.1710      1.3865      1.6362      1.9119      2.1999    
  2.4815      2.7378      2.9512      3.1048      3.1843      3.1836      3.1048      2.9537      2.7402      2.4813    
  2.1988      1.9124      1.6369      1.3855      1.1701     0.99703     0.96967     0.85133     0.78082     0.75898    
 0.78303     0.85137     0.96753      1.1344      1.3483      1.6022      1.8894      2.1992      2.5127      2.8084    
  3.0674      3.2712      3.4004      3.4421      3.3959      3.2686      3.0686      2.8090      2.5116      2.1998    
  1.8917      1.6022      1.3461      1.1343      1.0852     0.93419     0.83254     0.78336     0.78552     0.83468    
 0.93201      1.0830      1.2874      1.5375      1.8262      2.1461      2.4814      2.8085      3.1061      3.3564    
  3.5385      3.6318      3.6281      3.5329      3.3556      3.1072      2.8068      2.4801      2.1488      1.8284    
  1.5353      1.2852      1.2083      1.0259     0.89326     0.81387     0.79016     0.81766     0.89319      1.0220    
  1.2083      1.4467      1.7280      2.0462      2.3907      2.7392      3.0664      3.3535      3.5823      3.7297    
  3.7780      3.7259      3.5823      3.3573      3.0663      2.7354      2.3907      2.0500      1.7279      1.4428    
  1.3332      1.1210     0.96008     0.85077     0.79819     0.80127     0.85383     0.95695      1.1179      1.3362    
  1.6022      1.9083      2.2484      2.6058      2.9532      3.2676      3.5321      3.7263      3.8277      3.8261    
  3.7267      3.5382      3.2717      2.9497      2.6019      2.2511      1.9112      1.5991      1.4528      1.2141    
  1.0281     0.89234     0.81078     0.78682     0.81536     0.89241      1.0236      1.2140      1.4572      1.7432    
  2.0666      2.4178      2.7734      3.1064      3.3971      3.6277      3.7758      3.8246      3.7735      3.6303    
  3.4026      3.1058      2.7679      2.4173      2.0711      1.7433      1.5592      1.2996      1.0922     0.93480    
 0.82775     0.77621     0.77927     0.83086     0.93186      1.0893      1.3026      1.5621      1.8602      2.1912    
  2.5393      2.8786      3.1860      3.4437      3.6307      3.7263      3.7229      3.6266      3.4451      3.1876    
  2.8749      2.5364      2.1947      1.8636      1.6433      1.3719      1.1481     0.97372     0.84684     0.77071    
 0.74795     0.77440     0.84684     0.97005      1.1482      1.3757      1.6433      1.9450      2.2712      2.6016    
  2.9124      3.1853      3.4015      3.5389      3.5823      3.5326      3.3982      3.1870      2.9124      2.5990    
  2.2723      1.9492      1.6969      1.4249      1.1921      1.0056     0.86466     0.76959     0.72352     0.72554    
 0.77154     0.86250      1.0035      1.1943      1.4274      1.6953      1.9909      2.2995      2.5999      2.8735    
  3.1043      3.2727      3.3594      3.3565      3.2691      3.1059      2.8767      2.5996      2.2984      1.9930    
  1.7150      1.4533      1.2209      1.0283     0.87842     0.77058     0.70630     0.68643     0.70831     0.77049    
 0.87623      1.0282      1.2230      1.4537      1.7139      1.9930      2.2734      2.5363      2.7668      2.9502    
  3.0685      3.1083      3.0675      2.9522      2.7712      2.5377      2.2712      1.9920      1.6964      1.4537    
  1.2313      1.0403     0.88684     0.77170     0.69514     0.65788     0.65883     0.69612     0.77080     0.88581    
  1.0409      1.2318      1.4528      1.6965      1.9497      2.1951      2.4169      2.6018      2.7363      2.8073    
  2.8074      2.7378      2.6046      2.4179      2.1927      1.9469      1.6433      1.4263      1.2219      1.0404    
 0.88954     0.77222     0.68888     0.63960     0.62390     0.64043     0.68904     0.77166     0.88954      1.0407    
  1.2208      1.4245      1.6433      1.8639      2.0711      2.2508      2.3907      2.4799      2.5105      2.4798    
  2.3907      2.2501      2.0689      1.8617      1.5606      1.3738      1.1933      1.0282     0.88632     0.77208    
 0.68695     0.63091     0.60348     0.60375     0.63121     0.68683     0.77215     0.88698      1.0284      1.1920    
  1.3717      1.5593      1.7434      1.9111      2.0498      2.1485      2.1994      2.1987      2.1468      2.0480    
  1.9098      1.7432      1.4550      1.3011      1.1482      1.0046     0.87730     0.77134     0.68915     0.63117    
 0.59694     0.58575     0.59701     0.63098     0.68890     0.77175     0.87849      1.0056      1.1480      1.2996    
  1.4529      1.5991      1.7278      1.8284      1.8918      1.9129      1.8906      1.8272      1.7280      1.6007    
  1.3347      1.2140      1.0908     0.97192     0.86353     0.77045     0.69566     0.64015     0.60371     0.58579    
 0.58583     0.60359     0.63963     0.69510     0.77056     0.86466     0.97369      1.0922      1.2141      1.3332    
  1.4428      1.5352      1.6023      1.6373      1.6371      1.6023      1.5364      1.4448      1.2083      1.1194    
  1.0259     0.93336     0.84685     0.77046     0.70717     0.65829     0.62391     0.60364     0.59708     0.60386    
 0.62390     0.65773     0.70620     0.76961     0.84684     0.93471      1.0281      1.1211      1.2083      1.2851    
  1.3460      1.3856      1.3994      1.3861      1.3472      1.2863      1.0841      1.0239     0.95848     0.89240    
 0.82939     0.77260     0.72450     0.68636     0.65828     0.63993     0.63103     0.63129     0.64047     0.65868    
 0.68629     0.72359     0.77083     0.82771     0.89226     0.96015      1.0259      1.0851      1.1342      1.1701    
  1.1893      1.1894      1.1705      1.1344     0.96865     0.93310     0.89322     0.85231     0.81313     0.77782    
 0.74806     0.72464     0.70737     0.69558     0.68881     0.68672     0.68908     0.69609     0.70821     0.72561    
 0.74815     0.77626     0.81068     0.85077     0.89339     0.93419     0.96957     0.99705      1.0146      1.0206    
  1.0144     0.99658     0.86689     0.85136     0.83358     0.81574     0.79971     0.78677     0.77772     0.77264    
 0.77072     0.77063     0.77124     0.77175     0.77160     0.77086     0.77048     0.77157     0.77452     0.77932    
 0.78672     0.79811     0.81392     0.83259     0.85127     0.86727     0.87873     0.88458     0.88439     0.87830    
 0.78213     0.78151     0.78187     0.78441     0.79015     0.79967     0.81292     0.82919     0.84685     0.86366    
 0.87744     0.88649     0.88954     0.88596     0.87631     0.86252     0.84684     0.83082     0.81526     0.80119    
 0.79016     0.78338     0.78079     0.78097     0.78213     0.78301     0.78321     0.78283     0.71612     0.72524    
 0.73935     0.75897     0.78448     0.81583     0.85229     0.89227     0.93323     0.97183      1.0046      1.0285    
  1.0412      1.0413      1.0283      1.0036     0.97003     0.93178     0.89233     0.85384     0.81772     0.78554    
 0.75897     0.73888     0.72490     0.71605     0.71167     0.71166     0.66938     0.68320     0.70646     0.73937    
 0.78193     0.83368     0.89336     0.95862      1.0259      1.0907      1.1480      1.1930      1.2219      1.2323    
  1.2229      1.1942      1.1481      1.0892      1.0236     0.95702     0.89332     0.83473     0.78300     0.73987    
 0.70650     0.68311     0.66933     0.66479     0.64158     0.65537     0.68318     0.72524     0.78147     0.85127    
 0.93309      1.0240      1.1196      1.2141      1.3011      1.3736      1.4256      1.4528      1.4533      1.4270    
  1.3756      1.3026      1.2141      1.1180      1.0220     0.93202     0.85132     0.78199     0.72561     0.68329    
 0.65537     0.64158     0.82083     0.83432     0.87535     0.94493      1.0438      1.1715      1.3258      1.5017    
  1.6915      1.8847      2.0689      2.2308      2.3572      2.4374      2.4645      2.4368      2.3572      2.2322    
  2.0712      1.8863      1.6915      1.5006      1.3247      1.1711      1.0438     0.94499     0.87538     0.83435    
 0.83436     0.83434     0.86906     0.93951      1.0467      1.1908      1.3697      1.5787      1.8095      2.0508    
  2.2885      2.5066      2.6886      2.8194      2.8873      2.8863      2.8170      2.6866      2.5064      2.2902    
  2.0530      1.8107      1.5787      1.3693      1.1904      1.0466     0.93947     0.86909     0.87539     0.85421    
 0.87540     0.93950      1.0478      1.2011      1.3981      1.6345      1.9023      2.1897      2.4814      2.7592    
  3.0034      3.1951      3.3178      3.3597      3.3167      3.1931      3.0011      2.7577      2.4815      2.1909    
  1.9034      1.6350      1.3981      1.2010      1.0478     0.93953     0.94485     0.89450     0.89468     0.94501    
  1.0466      1.2009      1.4079      1.6639      1.9615      2.2897      2.6328      2.9705      3.2805      3.5398    