unknown system                          
   1.00000000000000     
     3.190316    0.000000    0.000000
    -1.595158    2.762894    0.000000
     0.000000    0.000000   26.879004
   Mo   S 
     1     2
Direct
  0.333333  0.666667  0.138389
  0.666667  0.333333  0.080169
  0.666666  0.333333  0.196608
 
   28   28  240
 0.36323354260E+00 0.36795989204E+00 0.38205735832E+00 0.40506912235E+00 0.43622255860E+00
 0.47462191205E+00 0.51922933530E+00 0.56858733548E+00 0.62063438092E+00 0.67277241968E+00
 0.72198484076E+00 0.76491683297E+00 0.79816146757E+00 0.81891274786E+00 0.82567129670E+00
 0.81843108049E+00 0.79816017175E+00 0.76613631439E+00 0.72394593117E+00 0.67415863800E+00
 0.62063620427E+00 0.56763067780E+00 0.51831918924E+00 0.47426849437E+00 0.43623307254E+00
 0.40512371938E+00 0.38208186059E+00 0.36798202349E+00 0.36799534768E+00 0.36796931090E+00
 0.37951874507E+00 0.40238269700E+00 0.43592957395E+00 0.47925915529E+00 0.53122726439E+00
 0.59023841283E+00 0.65403743926E+00 0.71969556998E+00 0.78369766637E+00 0.84205878182E+00
 0.89056771039E+00 0.92522260508E+00 0.94286615510E+00 0.94197216351E+00 0.92316638713E+00
 0.88882878201E+00 0.84190226256E+00 0.78513082105E+00 0.72151896267E+00 0.65505514874E+00
 0.59026355984E+00 0.53083871080E+00 0.47894712284E+00 0.43578285590E+00 0.40234495110E+00
 0.37954813344E+00 0.38209010708E+00 0.37529360329E+00 0.38210436746E+00 0.40237138928E+00
 0.43576708545E+00 0.48166011367E+00 0.53891886089E+00 0.60583473246E+00 0.68008532622E+00
 0.75858047680E+00 0.83733557295E+00 0.91167459719E+00 0.97671491378E+00 0.10277508348E+01
 0.10604754891E+01 0.10715215236E+01 0.10595276827E+01 0.10259606743E+01 0.97467828484E+00
 0.91039290059E+00 0.83741044266E+00 0.75961241555E+00 0.68109576327E+00 0.60622529882E+00
 0.53884343576E+00 0.48154687308E+00 0.43577292631E+00 0.40239482505E+00 0.40500572205E+00
 0.38949071451E+00 0.38965127755E+00 0.40514406185E+00 0.43577337124E+00 0.48148909635E+00
 0.54150712821E+00 0.61399603909E+00 0.69659038200E+00 0.78638607705E+00 0.87920222908E+00
 0.96952864833E+00 0.10515451549E+01 0.11198855313E+01 0.11695760974E+01 0.11961870073E+01
 0.11967649534E+01 0.11707780562E+01 0.11204651185E+01 0.10506428975E+01 0.96774246026E+00
 0.87805467242E+00 0.78650370601E+00 0.69712700424E+00 0.61410906821E+00 0.54144100549E+00
 0.48170141923E+00 0.43598727648E+00 0.43623307312E+00 0.40998473128E+00 0.40164161445E+00
 0.41062876647E+00 0.43622586568E+00 0.47886878420E+00 0.53874078589E+00 0.61411334817E+00
 0.70226406939E+00 0.80065994635E+00 0.90569819080E+00 0.10113483173E+01 0.11104813746E+01
 0.11967648907E+01 0.12644711362E+01 0.13080408115E+01 0.13235060687E+01 0.13096970491E+01
 0.12674522292E+01 0.11992245603E+01 0.11104761230E+01 0.10095944912E+01 0.90461353244E+00
 0.80082351585E+00 0.70227082464E+00 0.61361500014E+00 0.53883518756E+00 0.47954586303E+00
 0.47513181912E+00 0.43639795708E+00 0.41745572364E+00 0.41834889279E+00 0.43731471425E+00
 0.47429140633E+00 0.53080669870E+00 0.60615622956E+00 0.69697816771E+00 0.80046332334E+00
 0.91427870033E+00 0.10330717500E+01 0.11484692993E+01 0.12527758158E+01 0.13397483187E+01
 0.14024600975E+01 0.14345413828E+01 0.14339628293E+01 0.14025089662E+01 0.13420294925E+01
 0.12549726233E+01 0.11482197661E+01 0.10320600289E+01 0.91472778917E+00 0.80107477709E+00
 0.69607258637E+00 0.60532542467E+00 0.53168870900E+00 0.52034650300E+00 0.46839066202E+00
 0.43683142072E+00 0.42765625447E+00 0.43883607199E+00 0.46842874770E+00 0.51840589301E+00
 0.59034756750E+00 0.68109765818E+00 0.78639272731E+00 0.90455283925E+00 0.10324103701E+01
 0.11614754991E+01 0.12821093295E+01 0.13877315357E+01 0.14716009113E+01 0.15244588705E+01
 0.15402169096E+01 0.15204047942E+01 0.14692656795E+01 0.13887914578E+01 0.12826609949E+01
 0.11604525625E+01 0.10329599033E+01 0.90664085039E+00 0.78634916476E+00 0.67907669813E+00
 0.59031343234E+00 0.56965058580E+00 0.50500032434E+00 0.45991677424E+00 0.43841541236E+00
 0.44036327344E+00 0.46184885220E+00 0.50302294677E+00 0.56771384673E+00 0.65514796215E+00
 0.75964378230E+00 0.87813276050E+00 0.10098224010E+01 0.11483539962E+01 0.12822426771E+01
 0.14031391142E+01 0.15060185156E+01 0.15819829122E+01 0.16199766271E+01 0.16166268809E+01
 0.15769243262E+01 0.15053107378E+01 0.14041238163E+01 0.12806776374E+01 0.11471362818E+01
 0.10122264694E+01 0.88019258557E+00 0.75762906092E+00 0.65312166317E+00 0.62063620399E+00
 0.54423152297E+00 0.48649648194E+00 0.45125238179E+00 0.44184784800E+00 0.45468566225E+00
 0.48642612487E+00 0.54069769812E+00 0.62063594718E+00 0.72152907495E+00 0.83747167508E+00
 0.96792920826E+00 0.11104840275E+01 0.12541048205E+01 0.13868310472E+01 0.15033837466E+01
 0.15985045793E+01 0.16605129311E+01 0.16796762581E+01 0.16570561318E+01 0.15984967473E+01
 0.15068031965E+01 0.13867641520E+01 0.12505969437E+01 0.11104761297E+01 0.97137282857E+00
 0.83740220332E+00 0.71799327835E+00 0.67135075636E+00 0.58354855416E+00 0.51510103074E+00
 0.46672151367E+00 0.44402496282E+00 0.44681900204E+00 0.46950251976E+00 0.51226421178E+00
 0.58069565074E+00 0.67410387391E+00 0.78511034395E+00 0.91050464785E+00 0.10508984698E+01
 0.11993329410E+01 0.13415877597E+01 0.14683314425E+01 0.15762439100E+01 0.16574351952E+01
 0.16996648145E+01 0.16982787024E+01 0.16577606122E+01 0.15816790272E+01 0.14720370270E+01
 0.13383582996E+01 0.11958046250E+01 0.10532596978E+01 0.91316424558E+00 0.78230961908E+00
 0.71989309533E+00 0.62083091496E+00 0.54321166225E+00 0.48413292396E+00 0.44797366813E+00
 0.43870494157E+00 0.45211834163E+00 0.48419119668E+00 0.53913517431E+00 0.62078704722E+00
 0.72388019339E+00 0.84182249323E+00 0.97468701221E+00 0.11208243194E+01 0.12684190457E+01
 0.14039115298E+01 0.15214231695E+01 0.16162590358E+01 0.16776511854E+01 0.16968934806E+01
 0.16756234184E+01 0.16186102468E+01 0.15264849626E+01 0.14034088585E+01 0.12633994088E+01
 0.11203105911E+01 0.97873938794E+00 0.84195214613E+00 0.76344821992E+00 0.65464248647E+00
 0.56853341435E+00 0.50144461756E+00 0.45400383570E+00 0.43171907826E+00 0.43448889331E+00
 0.45681633839E+00 0.49878257457E+00 0.56584470379E+00 0.65737304639E+00 0.76604470700E+00
 0.88852276110E+00 0.10255375721E+01 0.11708679019E+01 0.13109800417E+01 0.14361014958E+01
 0.15415809059E+01 0.16189836920E+01 0.16573885176E+01 0.16543124715E+01 0.16152686254E+01
 0.15429415770E+01 0.14375873750E+01 0.13076210359E+01 0.11682079759E+01 0.10286853471E+01
 0.89160332140E+00 0.79816018287E+00 0.68348345960E+00 0.58986238378E+00 0.51645069127E+00
 0.46100726236E+00 0.42711747690E+00 0.41806760408E+00 0.43046279998E+00 0.46100632550E+00
 0.51312649397E+00 0.58994534947E+00 0.68695530907E+00 0.79815972370E+00 0.92271497607E+00
 0.10585713384E+01 0.11959074470E+01 0.13235193082E+01 0.14354641912E+01 0.15254760221E+01
 0.15823772198E+01 0.15985045931E+01 0.15766376084E+01 0.15224315805E+01 0.14370034983E+01
 0.13235060963E+01 0.11935575665E+01 0.10595194624E+01 0.92647849461E+00 0.82028577955E+00
 0.70509567152E+00 0.60660204568E+00 0.52796000279E+00 0.46715414067E+00 0.42477328505E+00
 0.40454952085E+00 0.40637695550E+00 0.42654754968E+00 0.46519746410E+00 0.52606849962E+00
 0.60859327911E+00 0.70730727910E+00 0.81884463112E+00 0.94195239926E+00 0.10705821058E+01
 0.11944367209E+01 0.13063641661E+01 0.14020203134E+01 0.14729940302E+01 0.15087508140E+01
 0.15061106671E+01 0.14697097105E+01 0.14034514929E+01 0.13092834644E+01 0.11941412603E+01
 0.10696303214E+01 0.94381354726E+00 0.82758801153E+00 0.71691992165E+00 0.61781127186E+00
 0.53579161083E+00 0.47127115697E+00 0.42346649088E+00 0.39449862481E+00 0.38610565816E+00
 0.39631892135E+00 0.42337792607E+00 0.46928471788E+00 0.53567508401E+00 0.61970010667E+00
 0.71733849886E+00 0.82663163431E+00 0.94384363613E+00 0.10604880395E+01 0.11681432606E+01
 0.12624495283E+01 0.13388164501E+01 0.13887477684E+01 0.14051225017E+01 0.13878421891E+01
 0.13406482326E+01 0.12663878713E+01 0.11694215871E+01 0.10585670742E+01 0.94291605738E+00
 0.81980698197E+00 0.71733494213E+00 0.62215385438E+00 0.53992920138E+00 0.47336173776E+00
 0.42233641935E+00 0.38751591454E+00 0.37062210438E+00 0.37148233199E+00 0.38840191830E+00
 0.42151838238E+00 0.47241847402E+00 0.54044492396E+00 0.62257622914E+00 0.71648083988E+00
 0.81987821005E+00 0.92693461086E+00 0.10291198984E+01 0.11199666763E+01 0.11957039715E+01
 0.12514866996E+01 0.12811170104E+01 0.12812517014E+01 0.12528180663E+01 0.11982712079E+01
 0.11208977773E+01 0.10268932063E+01 0.92441484642E+00 0.79816149105E+00 0.70635858621E+00
 0.61872543994E+00 0.54001897013E+00 0.47387003993E+00 0.42150766742E+00 0.38330992091E+00
 0.36032135085E+00 0.35316469941E+00 0.36107772933E+00 0.38346147832E+00 0.42099394611E+00
 0.47386007665E+00 0.54024564826E+00 0.61778341368E+00 0.70475766718E+00 0.79815973606E+00
 0.89190581387E+00 0.97873987130E+00 0.10530114429E+01 0.11104840589E+01 0.11470290567E+01
 0.11594482198E+01 0.11469110763E+01 0.11104814126E+01 0.10523581237E+01 0.97670669870E+00
 0.88985947828E+00 0.76466840934E+00 0.68528935699E+00 0.60765655314E+00 0.53567808249E+00
 0.47288375080E+00 0.42137922616E+00 0.38197737211E+00 0.35533615896E+00 0.34214082996E+00
 0.34238685067E+00 0.35560988060E+00 0.38186519077E+00 0.42144043673E+00 0.47348803279E+00
 0.53588698106E+00 0.60649015365E+00 0.68338145971E+00 0.76353196498E+00 0.84203440549E+00
 0.91306410580E+00 0.97119315111E+00 0.10120176876E+01 0.10326222995E+01 0.10319600146E+01
 0.10104878413E+01 0.96958603116E+00 0.91188652296E+00 0.84179703724E+00 0.72185455877E+00
 0.65602309485E+00 0.58997658707E+00 0.52702962966E+00 0.47025267111E+00 0.42200405103E+00
 0.38356194387E+00 0.35557466549E+00 0.33861231282E+00 0.33301962409E+00 0.33867465181E+00
 0.35539798430E+00 0.38333117791E+00 0.42237604635E+00 0.47133171669E+00 0.52795973587E+00
 0.58981505414E+00 0.65464840478E+00 0.71995766711E+00 0.78233902497E+00 0.83734139192E+00
 0.88011614224E+00 0.90671048039E+00 0.91517860216E+00 0.90556791900E+00 0.87904771141E+00
 0.83747414760E+00 0.78374756302E+00 0.67273745590E+00 0.62078051438E+00 0.56720894624E+00
 0.51481875842E+00 0.46612511455E+00 0.42334207758E+00 0.38798430399E+00 0.36082194169E+00
 0.34235641410E+00 0.33305686688E+00 0.33309115315E+00 0.34224648293E+00 0.36034781254E+00
 0.38747272747E+00 0.42344945880E+00 0.46716023166E+00 0.51641693291E+00 0.56849783441E+00
 0.62085858840E+00 0.67140408298E+00 0.71798174684E+00 0.75758890918E+00 0.78646427498E+00
 0.80143474664E+00 0.80123705326E+00 0.78646911674E+00 0.75865202835E+00 0.71981699305E+00
 0.62063439474E+00 0.58207309674E+00 0.54113926271E+00 0.50014262552E+00 0.46101360036E+00
 0.42556377326E+00 0.39527780224E+00 0.37099709258E+00 0.35317147327E+00 0.34228640105E+00
 0.33874261264E+00 0.34249426567E+00 0.35316469631E+00 0.37048312546E+00 0.39440222560E+00
 0.42479786116E+00 0.46100633156E+00 0.50136569277E+00 0.54318802522E+00 0.58360853898E+00
 0.62063596129E+00 0.65302307586E+00 0.67907035936E+00 0.69621985123E+00 0.70226408532E+00
 0.69660340359E+00 0.68007709602E+00 0.65412912276E+00 0.56868089587E+00 0.54243649172E+00
 0.51364740233E+00 0.48418902905E+00 0.45548990946E+00 0.42883841659E+00 0.40543787279E+00
 0.38604554518E+00 0.37098564774E+00 0.36062031013E+00 0.35544456332E+00 0.35567815051E+00
 0.36110983186E+00 0.37134966274E+00 0.38597555480E+00 0.40461581909E+00 0.42723093849E+00
 0.45396159362E+00 0.48406110552E+00 0.51516565365E+00 0.54430362076E+00 0.56956712002E+00
 0.59021748233E+00 0.60538646846E+00 0.61359484551E+00 0.61371140661E+00 0.60570464636E+00
 0.59031864976E+00 0.51941420495E+00 0.50401622006E+00 0.48644430046E+00 0.46812115447E+00
 0.45009495867E+00 0.43318142911E+00 0.41816890510E+00 0.40556796960E+00 0.39546265964E+00
 0.38791276866E+00 0.38324677472E+00 0.38176546969E+00 0.38349477692E+00 0.38837357164E+00
 0.39623045380E+00 0.40644074998E+00 0.41825246403E+00 0.43176424386E+00 0.44788064442E+00
 0.46673119135E+00 0.48661099229E+00 0.50500631333E+00 0.52024835425E+00 0.53170658229E+00
 0.53892565792E+00 0.54135259199E+00 0.53874225628E+00 0.53127714743E+00 0.47475359872E+00
 0.46841571938E+00 0.46085354443E+00 0.45295201874E+00 0.44540495519E+00 0.43865784329E+00
 0.43308629614E+00 0.42887338048E+00 0.42580044069E+00 0.42350873108E+00 0.42190891071E+00
 0.42107218901E+00 0.42094440367E+00 0.42157388184E+00 0.42337135501E+00 0.42656938414E+00
 0.43057456947E+00 0.43453886246E+00 0.43860981415E+00 0.44395254198E+00 0.45130498560E+00
 0.45996062837E+00 0.46833362063E+00 0.47509615368E+00 0.47961253659E+00 0.48173878149E+00
 0.48156498958E+00 0.47921390464E+00 0.43622256285E+00 0.43685049927E+00 0.43779150810E+00
 0.43936049190E+00 0.44184673503E+00 0.44536428940E+00 0.44991009420E+00 0.45530533886E+00
 0.46101359357E+00 0.46625110255E+00 0.47038296219E+00 0.47304116866E+00 0.47387002812E+00
 0.47255853201E+00 0.46935445395E+00 0.46520843656E+00 0.46100726164E+00 0.45678295577E+00
 0.45202651218E+00 0.44674183536E+00 0.44184785441E+00 0.43843438682E+00 0.43680876267E+00
 0.43636037747E+00 0.43622586935E+00 0.43598238903E+00 0.43575884312E+00 0.43582523773E+00
 0.40504472865E+00 0.41030647302E+00 0.41789204657E+00 0.42764187384E+00 0.43942711051E+00
 0.45303499444E+00 0.46810899713E+00 0.48407107694E+00 0.50001322863E+00 0.51473506595E+00
 0.52701746547E+00 0.53590211961E+00 0.54068949693E+00 0.54077469810E+00 0.53577944668E+00
 0.52608091438E+00 0.51310087795E+00 0.49870781257E+00 0.48412077242E+00 0.46950500340E+00
 0.45474035212E+00 0.44038662444E+00 0.42764410712E+00 0.41746117695E+00 0.40999230855E+00
 0.40497736554E+00 0.40235923935E+00 0.40234497890E+00 0.38210338631E+00 0.38957350151E+00
 0.40165662453E+00 0.41790419830E+00 0.43783753222E+00 0.46094867179E+00 0.48658312948E+00
 0.51377749328E+00 0.54118527952E+00 0.56713740485E+00 0.58980024582E+00 0.60744464295E+00
 0.61877145324E+00 0.62301150419E+00 0.61968192914E+00 0.60849326880E+00 0.58990840312E+00
 0.56580875908E+00 0.53911279390E+00 0.51232969636E+00 0.48654250875E+00 0.46190013496E+00
 0.43881271051E+00 0.41835560041E+00 0.40168764449E+00 0.38949673397E+00 0.38206659019E+00
 0.37956862076E+00 0.36801101725E+00 0.37528118986E+00 0.38955892525E+00 0.41030404844E+00
 0.43681060416E+00 0.46833515831E+00 0.50400163759E+00 0.54255200571E+00 0.58222920207E+00
 0.62086660542E+00 0.65600850324E+00 0.68506286758E+00 0.70571475773E+00 0.71649184006E+00
 0.71690533368E+00 0.70697231904E+00 0.68685998911E+00 0.65738170794E+00 0.62081633699E+00
 0.58076264387E+00 0.54077028467E+00 0.50303153933E+00 0.46837608581E+00 0.43728325508E+00
 0.41064792221E+00 0.38965983812E+00 0.37527902951E+00 0.36800461052E+00 0.48214127319E+00
 0.48861867426E+00 0.50809511617E+00 0.54042476764E+00 0.58516423931E+00 0.64157212536E+00
 0.70842386329E+00 0.78362116435E+00 0.86396344826E+00 0.94524754469E+00 0.10224922932E+01
 0.10901986868E+01 0.11428859696E+01 0.11760325221E+01 0.11870330173E+01 0.11755256813E+01
 0.11428849671E+01 0.10914805661E+01 0.10245510508E+01 0.94670124268E+00 0.86396508742E+00
 0.78261758117E+00 0.70746728061E+00 0.64119894786E+00 0.58517567247E+00 0.54048475150E+00
 0.50812196061E+00 0.48864098348E+00 0.48865557870E+00 0.48863061943E+00 0.50466167286E+00
 0.53682110428E+00 0.58495830258E+00 0.64852432709E+00 0.72634358789E+00 0.81623831586E+00
 0.91474823176E+00 0.10171361124E+01 0.11175834559E+01 0.12095026084E+01 0.12860498916E+01
 0.13408717150E+01 0.13690441898E+01 0.13681064028E+01 0.13387153143E+01 0.12842271652E+01
 0.12093399381E+01 0.11190885878E+01 0.10190514882E+01 0.91581745806E+00 0.81626246548E+00
 0.72593171278E+00 0.64819621116E+00 0.58480774270E+00 0.53678310196E+00 0.50468955832E+00
 0.50812968640E+00 0.49860999469E+00 0.50814446238E+00 0.53680994473E+00 0.58483744333E+00
 0.65215763869E+00 0.73784246641E+00 0.83976687920E+00 0.95444505979E+00 0.10768660086E+01
 0.12004685649E+01 0.13175608484E+01 0.14201068180E+01 0.15004427875E+01 0.15518241749E+01
 0.15692633433E+01 0.15508285124E+01 0.14985649945E+01 0.14179722545E+01 0.13162170632E+01
 0.12005460384E+01 0.10779485161E+01 0.95550709488E+00 0.84017788170E+00 0.73776180332E+00
 0.65203622537E+00 0.58484225983E+00 0.53683451338E+00 0.54035906605E+00 0.51825493780E+00
 0.51842324063E+00 0.54050410574E+00 0.58479810423E+00 0.65197813914E+00 0.74174135529E+00
 0.85209869509E+00 0.97968487278E+00 0.11196979498E+01 0.12652197189E+01 0.14073757062E+01
 0.15367051554E+01 0.16443087578E+01 0.17221350493E+01 0.17634520762E+01 0.17640585313E+01
 0.17233964882E+01 0.16449169429E+01 0.15357569915E+01 0.14054987972E+01 0.12640142966E+01
 0.11198231925E+01 0.98025090411E+00 0.85221810258E+00 0.74167015157E+00 0.65219872608E+00
 0.58502165531E+00 0.58517567305E+00 0.54721417497E+00 0.53508900065E+00 0.54789213744E+00
 0.58516955680E+00 0.64811410244E+00 0.73765371089E+00 0.85222331114E+00 0.98837004495E+00
 0.11418426961E+01 0.13063153559E+01 0.14721665147E+01 0.16281939400E+01 0.17639887444E+01
 0.18701280707E+01 0.19380671635E+01 0.19619020682E+01 0.19398049290E+01 0.18732545714E+01
 0.17665668119E+01 0.16281866113E+01 0.14703270290E+01 0.13051790717E+01 0.11420146020E+01
 0.98837586815E+00 0.85169998909E+00 0.73775407581E+00 0.64882541386E+00 0.64210611674E+00
 0.58530743535E+00 0.55765199644E+00 0.55858834975E+00 0.58626815126E+00 0.64122433237E+00
 0.72589953123E+00 0.84010575662E+00 0.98009475431E+00 0.11416377702E+01 0.13198939183E+01
 0.15059030388E+01 0.16869057570E+01 0.18506416483E+01 0.19866056423E+01 0.20842079415E+01
 0.21343866353E+01 0.21337776187E+01 0.20842553888E+01 0.19889974248E+01 0.18529484348E+01
 0.16866467241E+01 0.15048421143E+01 0.13203635659E+01 0.11422779738E+01 0.97914442112E+00
 0.83923389699E+00 0.72682428408E+00 0.70959390774E+00 0.63222916165E+00 0.58594981789E+00
 0.57204325578E+00 0.58805108102E+00 0.63226774684E+00 0.70755835666E+00 0.81635069598E+00
 0.95550896885E+00 0.11197070482E+01 0.13051164220E+01 0.15052104352E+01 0.17070252413E+01
 0.18959609933E+01 0.20606841504E+01 0.21902196633E+01 0.22718509727E+01 0.22973192780E+01
 0.22675971439E+01 0.21877696466E+01 0.20617974557E+01 0.18965417034E+01 0.17059528827E+01
 0.15057860992E+01 0.13073057030E+01 0.11196606967E+01 0.95338819567E+00 0.81631387545E+00
 0.78473496523E+00 0.68675800944E+00 0.62013070814E+00 0.58821595785E+00 0.59026078067E+00
 0.62215978923E+00 0.68468352538E+00 0.78270093852E+00 0.91591262210E+00 0.10779825130E+01
 0.12640979120E+01 0.14705660043E+01 0.16867868196E+01 0.18961034919E+01 0.20849765638E+01
 0.22437156374E+01 0.23593784609E+01 0.24178602248E+01 0.24143485592E+01 0.23540762030E+01
 0.22429752742E+01 0.20860089117E+01 0.18944611363E+01 0.16855101407E+01 0.14730882168E+01
 0.12662573740E+01 0.10758679518E+01 0.91378830034E+00 0.86396508713E+00 0.74626076665E+00
 0.65977306903E+00 0.60778328397E+00 0.59302128659E+00 0.61138559577E+00 0.65970053997E+00
 0.74255475969E+00 0.86396450122E+00 0.10190609671E+01 0.12006088475E+01 0.14056942312E+01
 0.16281957497E+01 0.18520389427E+01 0.20597401424E+01 0.22409512018E+01 0.23859938300E+01
 0.24794773588E+01 0.25092731445E+01 0.24758529172E+01 0.23859886068E+01 0.22445409637E+01
 0.20596708366E+01 0.18483582042E+01 0.16281866180E+01 0.14093075605E+01 0.12005383198E+01
 0.10153538259E+01 0.94375719401E+00 0.80717747425E+00 0.70289035810E+00 0.63120937091E+00
 0.59722572702E+00 0.60015560313E+00 0.63412527237E+00 0.69991563684E+00 0.80418774582E+00
 0.94664640757E+00 0.11190654747E+01 0.13163308125E+01 0.15360234921E+01 0.17666809841E+01
 0.19885340164E+01 0.21867880447E+01 0.23533609474E+01 0.24762504072E+01 0.25400531350E+01
 0.25385988181E+01 0.24765919374E+01 0.23590640142E+01 0.21906768946E+01 0.19851462208E+01
 0.17629789761E+01 0.15385017378E+01 0.13191243087E+01 0.11161299478E+01 0.10202996038E+01
 0.86604851364E+00 0.74611969473E+00 0.65746646238E+00 0.60402529096E+00 0.58923499244E+00
 0.60837408745E+00 0.65752790960E+00 0.74184261832E+00 0.86600235203E+00 0.10244838130E+01
 0.12092571744E+01 0.14179798414E+01 0.16452906605E+01 0.18742671308E+01 0.20857279172E+01
 0.22686678111E+01 0.24139638791E+01 0.25071486984E+01 0.25371459005E+01 0.25050216937E+01
 0.24164291347E+01 0.22739752369E+01 0.20851993916E+01 0.18690031398E+01 0.16447544609E+01
 0.14222314481E+01 0.12093913592E+01 0.10886594391E+01 0.91989886732E+00 0.78609385877E+00
 0.68390550227E+00 0.61361372246E+00 0.58025046984E+00 0.58315622302E+00 0.61656419872E+00
 0.68111230221E+00 0.78327207048E+00 0.92276304393E+00 0.10913854290E+01 0.12839083316E+01
 0.14981222142E+01 0.17234896847E+01 0.19411492588E+01 0.21360214430E+01 0.22987528385E+01
 0.24168218344E+01 0.24762011280E+01 0.24729731598E+01 0.24129217146E+01 0.23001772444E+01
 0.21375795739E+01 0.19376276168E+01 0.17207010636E+01 0.15014229663E+01 0.12871365411E+01
 0.11428849782E+01 0.96562662978E+00 0.82045556556E+00 0.70754084871E+00 0.62453262496E+00
 0.57455624156E+00 0.56035198871E+00 0.57806269709E+00 0.62453004467E+00 0.70405487411E+00
 0.82054374728E+00 0.96926824811E+00 0.11428845787E+01 0.13382435767E+01 0.15498273604E+01
 0.17631589668E+01 0.19619139640E+01 0.21353534876E+01 0.22729192748E+01 0.23597941076E+01
 0.23859938438E+01 0.23537719978E+01 0.22697243694E+01 0.21369685902E+01 0.19619020959E+01
 0.17606951492E+01 0.15508208129E+01 0.13421898341E+01 0.11774718109E+01 0.99948421750E+00
 0.84750104485E+00 0.72637975303E+00 0.63444226626E+00 0.57189987348E+00 0.54191712835E+00
 0.54383340302E+00 0.57376055805E+00 0.63239085076E+00 0.72439652707E+00 0.84958892127E+00
 0.10018028685E+01 0.11759596216E+01 0.13680846099E+01 0.15682768286E+01 0.17616159878E+01
 0.19363083874E+01 0.20837450040E+01 0.21916782299E+01 0.22465804066E+01 0.22438133018E+01
 0.21882367657E+01 0.20852469235E+01 0.19393695134E+01 0.17613066778E+01 0.15672804443E+01
 0.13700379461E+01 0.11890416949E+01 0.10177544637E+01 0.86534323375E+00 0.73954202405E+00
 0.64165144298E+00 0.57076185742E+00 0.52842390270E+00 0.51573666015E+00 0.53033328945E+00
 0.57067088256E+00 0.63957008111E+00 0.73941883799E+00 0.86732127129E+00 0.10181921990E+01
 0.11880390552E+01 0.13700675437E+01 0.15518360243E+01 0.17206317444E+01 0.18680070394E+01
 0.19856268063E+01 0.20617488264E+01 0.20870571611E+01 0.20608021545E+01 0.19875496668E+01
 0.18721367686E+01 0.17219725845E+01 0.15498232766E+01 0.13690956296E+01 0.11769673483E+01
 0.10181889017E+01 0.87199209985E+00 0.74649084019E+00 0.64575985392E+00 0.56994996466E+00
 0.51927286487E+00 0.49475340979E+00 0.49565342902E+00 0.52019974526E+00 0.56909415360E+00
 0.64477365650E+00 0.74703080556E+00 0.87243279456E+00 0.10172942144E+01 0.11770445719E+01
 0.13426674869E+01 0.15018781651E+01 0.16443926918E+01 0.17628757884E+01 0.18492907070E+01
 0.18949209413E+01 0.18950630397E+01 0.18506876838E+01 0.17655673872E+01 0.16453692840E+01
 0.14995448335E+01 0.13400251683E+01 0.11428859930E+01 0.10008073708E+01 0.86629855359E+00
 0.74658302813E+00 0.64696325212E+00 0.56934072774E+00 0.51390614551E+00 0.48105414189E+00
 0.47072908165E+00 0.48184349309E+00 0.51406366743E+00 0.56880452320E+00 0.64695464952E+00
 0.74682083352E+00 0.86531261553E+00 0.99913193040E+00 0.11428845911E+01 0.12874543126E+01
 0.14222313117E+01 0.15382427365E+01 0.16281957812E+01 0.16853942998E+01 0.17048986487E+01
 0.16852737942E+01 0.16281939781E+01 0.15375557080E+01 0.14200991236E+01 0.12853104928E+01
 0.10899414528E+01 0.96751987035E+00 0.84860496172E+00 0.73942020699E+00 0.64525962167E+00
 0.56920641510E+00 0.51221558805E+00 0.47447681164E+00 0.45598835762E+00 0.45624505531E+00
 0.47476284978E+00 0.51209982501E+00 0.56927209906E+00 0.64589208483E+00 0.73963927904E+00
 0.84738555489E+00 0.96552190497E+00 0.10887479321E+01 0.12094776307E+01 0.13190176270E+01
 0.14091200705E+01 0.14728670445E+01 0.15054309087E+01 0.15047386489E+01 0.14712654947E+01
 0.14074336785E+01 0.13177813182E+01 0.12092307824E+01 0.10223579636E+01 0.92134632448E+00
 0.82057615432E+00 0.72540436705E+00 0.64058492084E+00 0.56960299873E+00 0.51416847910E+00
 0.47472557236E+00 0.45127633671E+00 0.44360223362E+00 0.45134140283E+00 0.47454240948E+00
 0.51392931943E+00 0.56999214314E+00 0.64171309027E+00 0.72637946023E+00 0.82040940435E+00
 0.91990510336E+00 0.10203667231E+01 0.11161582551E+01 0.12004745168E+01 0.12661785034E+01
 0.13073774241E+01 0.13208379307E+01 0.13061810365E+01 0.12650572467E+01 0.12006106664E+01
 0.11176348900E+01 0.94521070326E+00 0.86599609697E+00 0.78470512972E+00 0.70583104673E+00
 0.63336382515E+00 0.57063370119E+00 0.51976325770E+00 0.48157651957E+00 0.45621295929E+00
 0.44364029424E+00 0.44367590677E+00 0.45609828766E+00 0.48108180297E+00 0.51922808477E+00
 0.57074455938E+00 0.63444745932E+00 0.70750711873E+00 0.78605635598E+00 0.86607603730E+00
 0.94381286014E+00 0.10153410545E+01 0.10758282861E+01 0.11197807400E+01 0.11426554482E+01
 0.11424496589E+01 0.11197867999E+01 0.10769397043E+01 0.10172612170E+01 0.86396346208E+00
 0.80563316079E+00 0.74394521820E+00 0.68253955706E+00 0.62453857278E+00 0.57272948769E+00
 0.52924186318E+00 0.49514484220E+00 0.47073595500E+00 0.45613963351E+00 0.45141068411E+00
 0.45635579415E+00 0.47072907856E+00 0.49460844010E+00 0.52832463093E+00 0.57192462944E+00
 0.62453005073E+00 0.68382326256E+00 0.74609408041E+00 0.80724199146E+00 0.86396451533E+00
 0.91368506936E+00 0.95338235666E+00 0.97929778408E+00 0.98837006087E+00 0.97970039211E+00
 0.95443735028E+00 0.91484383461E+00 0.78372004450E+00 0.74438217885E+00 0.70136655253E+00
 0.65752371401E+00 0.61517175155E+00 0.57635897516E+00 0.54284820319E+00 0.51567242425E+00
 0.49513352673E+00 0.48136715773E+00 0.47458988399E+00 0.47483293339E+00 0.48187783833E+00
 0.49551570754E+00 0.51560097060E+00 0.54198615589E+00 0.57467247202E+00 0.61357056880E+00
 0.65739223225E+00 0.70295856549E+00 0.74633670896E+00 0.78464583524E+00 0.81621502461E+00
 0.83929747115E+00 0.85167839469E+00 0.85180052185E+00 0.83963120691E+00 0.81632260151E+00
 0.70861687412E+00 0.68572615774E+00 0.65972119958E+00 0.63267760780E+00 0.60625084808E+00
 0.58178187329E+00 0.56045527358E+00 0.54298388618E+00 0.52943486176E+00 0.51968957829E+00
 0.51384112120E+00 0.51199514162E+00 0.51409914270E+00 0.52017084756E+00 0.53023955329E+00
 0.54390005440E+00 0.56054498983E+00 0.58029827460E+00 0.60392963790E+00 0.63121804338E+00
 0.65989354857E+00 0.68676410156E+00 0.70949199008E+00 0.72684352538E+00 0.73784672409E+00
 0.74157886451E+00 0.73765719993E+00 0.72639500840E+00 0.64170809539E+00 0.63225208737E+00
 0.62111459700E+00 0.60956753715E+00 0.59867330258E+00 0.58918539088E+00 0.58168272339E+00
 0.57639550832E+00 0.57297562886E+00 0.57080651571E+00 0.56950384148E+00 0.56888681702E+00
 0.56875185168E+00 0.56915111851E+00 0.57066270461E+00 0.57378365255E+00 0.57818130083E+00
 0.58320756993E+00 0.58913584809E+00 0.59714922556E+00 0.60783849561E+00 0.62017837271E+00
 0.63216860285E+00 0.64206917335E+00 0.64889387173E+00 0.65223979577E+00 0.65205849767E+00
 0.64847659698E+00 0.58516424356E+00 0.58578096563E+00 0.58695560878E+00 0.58920783971E+00
 0.59301834228E+00 0.59863022320E+00 0.60605784244E+00 0.61497999143E+00 0.62453856599E+00
 0.63349356057E+00 0.64071925950E+00 0.64542398019E+00 0.64696324030E+00 0.64491792592E+00
 0.63964277719E+00 0.63240326191E+00 0.62453262424E+00 0.61652774483E+00 0.60827674619E+00
 0.60007689681E+00 0.59302129301E+00 0.58823628777E+00 0.58592445833E+00 0.58526810058E+00
 0.58516956048E+00 0.58501667991E+00 0.58482972171E+00 0.58485082555E+00 0.54040162096E+00
 0.54755489278E+00 0.55810898046E+00 0.57202814505E+00 0.58927757510E+00 0.60965301633E+00
 0.63266393702E+00 0.65740168915E+00 0.68240621680E+00 0.70574369672E+00 0.72539068942E+00
 0.73965430155E+00 0.74728469760E+00 0.74737514905E+00 0.73952834646E+00 0.72441048115E+00
 0.70402859906E+00 0.68103388487E+00 0.65745279740E+00 0.63413027465E+00 0.61144320819E+00
 0.59028286612E+00 0.57202959500E+00 0.55765803679E+00 0.54722519298E+00 0.54032794143E+00
 0.53679628136E+00 0.53678336215E+00 0.50814490631E+00 0.51834400479E+00 0.53510608948E+00
 0.55812264564E+00 0.58700539505E+00 0.62121374129E+00 0.65986440762E+00 0.70150222968E+00
 0.74399499716E+00 0.78463144423E+00 0.82039200333E+00 0.84838450752E+00 0.86634832903E+00
 0.87289007524E+00 0.86730209165E+00 0.84948396488E+00 0.82050534705E+00 0.78323590453E+00
 0.74181845305E+00 0.69998312315E+00 0.65982285798E+00 0.62221127848E+00 0.58802665889E+00
 0.55859598376E+00 0.53513879283E+00 0.51826074248E+00 0.50810240226E+00 0.50471308601E+00
 0.48867191139E+00 0.49859477437E+00 0.51832758305E+00 0.54755213617E+00 0.58574131268E+00
 0.63216935485E+00 0.68570972979E+00 0.74450143355E+00 0.80579656842E+00 0.86608617759E+00
 0.92132988739E+00 0.96728299146E+00 0.10001357586E+01 0.10173073196E+01 0.10177380302E+01
 0.10014507165E+01 0.96916895455E+00 0.92277323324E+00 0.86603209019E+00 0.80425381791E+00
 0.74263093339E+00 0.68469386028E+00 0.63221273995E+00 0.58623499842E+00 0.54791121136E+00
 0.51843386145E+00 0.49859357543E+00 0.48866561103E+00 0.63235336372E+00 0.64152735908E+00
 0.66932330027E+00 0.71614825340E+00 0.78212533254E+00 0.86675183393E+00 0.96844498209E+00
 0.10840001425E+01 0.12083423505E+01 0.13347242706E+01 0.14551402391E+01 0.15608567181E+01
 0.16433008944E+01 0.16954000984E+01 0.17128921483E+01 0.16948668344E+01 0.16432994845E+01
 0.15622051533E+01 0.14573073327E+01 0.13362562267E+01 0.12083462606E+01 0.10829441453E+01
 0.96743623897E+00 0.86635671740E+00 0.78213625703E+00 0.71621137454E+00 0.66935161126E+00
 0.64155066840E+00 0.64156631668E+00 0.64154063499E+00 0.66473389690E+00 0.71169889980E+00
 0.78294659059E+00 0.87834662784E+00 0.99652685983E+00 0.11342708981E+01 0.12861721101E+01
 0.14447089229E+01 0.16006123286E+01 0.17434414124E+01 0.18624575543E+01 0.19478100777E+01
 0.19919297960E+01 0.19909425222E+01 0.19455393367E+01 0.18605375844E+01 0.17432705322E+01
 0.16021997774E+01 0.14467284039E+01 0.12872978104E+01 0.11342939525E+01 0.99609196362E+00
 0.87800269757E+00 0.78279048514E+00 0.71165973291E+00 0.66476249186E+00 0.66936046573E+00
 0.65538355339E+00 0.66937312260E+00 0.71168723777E+00 0.78321756796E+00 0.88448936088E+00