   3   3   0   0
  0.7897505E+02  0.3190316E-09  0.3190316E-09  0.2687900E-08  0.5000000E-15
  1.000000000000000E-004
  CAR 
 unknown system                          
      6.10618846    -19.46570663  301     -3.41934246      1.00000000
    -19.466  0.0000E+00  0.0000E+00
    -19.380  0.0000E+00  0.0000E+00
    -19.295  0.0000E+00  0.0000E+00
    -19.210  0.0000E+00  0.0000E+00
    -19.125  0.0000E+00  0.0000E+00
    -19.040  0.0000E+00  0.0000E+00
    -18.954  0.0000E+00  0.0000E+00
    -18.869  0.0000E+00  0.0000E+00
    -18.784  0.0000E+00  0.0000E+00
    -18.699  0.0000E+00  0.0000E+00
    -18.613  0.0000E+00  0.0000E+00
    -18.528  0.0000E+00  0.0000E+00
    -18.443  0.0000E+00  0.0000E+00
    -18.358  0.0000E+00  0.0000E+00
    -18.272  0.0000E+00  0.0000E+00
    -18.187  0.0000E+00  0.0000E+00
    -18.102  0.0000E+00  0.0000E+00
    -18.017  0.0000E+00  0.0000E+00
    -17.931  0.0000E+00  0.0000E+00
    -17.846  0.0000E+00  0.0000E+00
    -17.761  0.0000E+00  0.0000E+00
    -17.676  0.0000E+00  0.0000E+00
    -17.590  0.0000E+00  0.0000E+00
    -17.505  0.0000E+00  0.0000E+00
    -17.420  0.1871E+00  0.4279E-02
    -17.335  0.5355E+00  0.3508E-01
    -17.249  0.4783E+00  0.9474E-01
    -17.164  0.5178E+00  0.1372E+00
    -17.079  0.5573E+00  0.1830E+00
    -16.994  0.5968E+00  0.2322E+00
    -16.909  0.6362E+00  0.2847E+00
    -16.823  0.6623E+00  0.3404E+00
    -16.738  0.6693E+00  0.3972E+00
    -16.653  0.6856E+00  0.4547E+00
    -16.568  0.7186E+00  0.5145E+00
    -16.482  0.7516E+00  0.5772E+00
    -16.397  0.7846E+00  0.6426E+00
    -16.312  0.8176E+00  0.7109E+00
    -16.227  0.1399E+01  0.7905E+00
    -16.141  0.2063E+01  0.9725E+00
    -16.056  0.2358E+01  0.1161E+01
    -15.971  0.2679E+01  0.1375E+01
    -15.886  0.2894E+01  0.1613E+01
    -15.800  0.3232E+01  0.1874E+01
    -15.715  0.3571E+01  0.2164E+01
    -15.630  0.4217E+01  0.2621E+01
    -15.545  0.4241E+01  0.2978E+01
    -15.459  0.3771E+01  0.3369E+01
    -15.374  0.3334E+01  0.3779E+01
    -15.289  0.0000E+00  0.4000E+01
    -15.204  0.0000E+00  0.4000E+01
    -15.118  0.0000E+00  0.4000E+01
    -15.033  0.0000E+00  0.4000E+01
    -14.948  0.0000E+00  0.4000E+01
    -14.863  0.0000E+00  0.4000E+01
    -14.778  0.0000E+00  0.4000E+01
    -14.692  0.0000E+00  0.4000E+01
    -14.607  0.0000E+00  0.4000E+01
    -14.522  0.0000E+00  0.4000E+01
    -14.437  0.0000E+00  0.4000E+01
    -14.351  0.0000E+00  0.4000E+01
    -14.266  0.0000E+00  0.4000E+01
    -14.181  0.0000E+00  0.4000E+01
    -14.096  0.0000E+00  0.4000E+01
    -14.010  0.0000E+00  0.4000E+01
    -13.925  0.0000E+00  0.4000E+01
    -13.840  0.0000E+00  0.4000E+01
    -13.755  0.0000E+00  0.4000E+01
    -13.669  0.0000E+00  0.4000E+01
    -13.584  0.0000E+00  0.4000E+01
    -13.499  0.0000E+00  0.4000E+01
    -13.414  0.0000E+00  0.4000E+01
    -13.328  0.0000E+00  0.4000E+01
    -13.243  0.0000E+00  0.4000E+01
    -13.158  0.0000E+00  0.4000E+01
    -13.073  0.0000E+00  0.4000E+01
    -12.987  0.0000E+00  0.4000E+01
    -12.902  0.0000E+00  0.4000E+01
    -12.817  0.0000E+00  0.4000E+01
    -12.732  0.0000E+00  0.4000E+01
    -12.647  0.0000E+00  0.4000E+01
    -12.561  0.0000E+00  0.4000E+01
    -12.476  0.0000E+00  0.4000E+01
    -12.391  0.0000E+00  0.4000E+01
    -12.306  0.0000E+00  0.4000E+01
    -12.220  0.0000E+00  0.4000E+01
    -12.135  0.0000E+00  0.4000E+01
    -12.050  0.0000E+00  0.4000E+01
    -11.965  0.0000E+00  0.4000E+01
    -11.879  0.0000E+00  0.4000E+01
    -11.794  0.0000E+00  0.4000E+01
    -11.709  0.0000E+00  0.4000E+01
    -11.624  0.0000E+00  0.4000E+01
    -11.538  0.0000E+00  0.4000E+01
    -11.453  0.0000E+00  0.4000E+01
    -11.368  0.0000E+00  0.4000E+01
    -11.283  0.0000E+00  0.4000E+01
    -11.197  0.0000E+00  0.4000E+01
    -11.112  0.0000E+00  0.4000E+01
    -11.027  0.0000E+00  0.4000E+01
    -10.942  0.0000E+00  0.4000E+01
    -10.857  0.0000E+00  0.4000E+01
    -10.771  0.0000E+00  0.4000E+01
    -10.686  0.0000E+00  0.4000E+01
    -10.601  0.0000E+00  0.4000E+01
    -10.516  0.0000E+00  0.4000E+01
    -10.430  0.0000E+00  0.4000E+01
    -10.345  0.0000E+00  0.4000E+01
    -10.260  0.0000E+00  0.4000E+01
    -10.175  0.0000E+00  0.4000E+01
    -10.089  0.0000E+00  0.4000E+01
    -10.004  0.0000E+00  0.4000E+01
     -9.919  0.0000E+00  0.4000E+01
     -9.834  0.0000E+00  0.4000E+01
     -9.748  0.0000E+00  0.4000E+01
     -9.663  0.0000E+00  0.4000E+01
     -9.578  0.0000E+00  0.4000E+01
     -9.493  0.0000E+00  0.4000E+01
     -9.407  0.0000E+00  0.4000E+01
     -9.322  0.0000E+00  0.4000E+01
     -9.237  0.0000E+00  0.4000E+01
     -9.152  0.0000E+00  0.4000E+01
     -9.066  0.4785E+00  0.4018E+01
     -8.981  0.1016E+01  0.4082E+01
     -8.896  0.1811E+01  0.4202E+01
     -8.811  0.2632E+01  0.4400E+01
     -8.726  0.2853E+01  0.4641E+01
     -8.640  0.3816E+01  0.4958E+01
     -8.555  0.3145E+01  0.5255E+01
     -8.470  0.5052E+01  0.5528E+01
     -8.385  0.3467E+01  0.5980E+01
     -8.299  0.5197E+01  0.6175E+01
     -8.214  0.2683E+01  0.6503E+01
     -8.129  0.1326E+01  0.6640E+01
     -8.044  0.1190E+01  0.6747E+01
     -7.958  0.1054E+01  0.6843E+01
     -7.873  0.9186E+00  0.6927E+01
     -7.788  0.8331E+00  0.7001E+01
     -7.703  0.8380E+00  0.7072E+01
     -7.617  0.8428E+00  0.7143E+01
     -7.532  0.8477E+00  0.7215E+01
     -7.447  0.1929E+01  0.7305E+01
     -7.362  0.4906E+01  0.7596E+01
     -7.276  0.5159E+01  0.8132E+01
     -7.191  0.5106E+01  0.8553E+01
     -7.106  0.3214E+01  0.8907E+01
     -7.021  0.1411E+01  0.9102E+01
     -6.935  0.1184E+01  0.9210E+01
     -6.850  0.1088E+01  0.9307E+01
     -6.765  0.9918E+00  0.9395E+01
     -6.680  0.8957E+00  0.9476E+01
     -6.595  0.1179E+02  0.1007E+02
     -6.509  0.3800E+01  0.1064E+02
     -6.424  0.2360E+01  0.1091E+02
     -6.339  0.2340E+01  0.1119E+02
     -6.254  0.1836E+01  0.1136E+02
     -6.168  0.1724E+01  0.1151E+02
     -6.083  0.1612E+01  0.1165E+02
     -5.998  0.3654E+01  0.1182E+02
     -5.913  0.2168E+01  0.1206E+02
     -5.827  0.1665E+01  0.1224E+02
     -5.742  0.8723E+00  0.1234E+02
     -5.657  0.8658E+00  0.1241E+02
     -5.572  0.8594E+00  0.1249E+02
     -5.486  0.8529E+00  0.1256E+02
     -5.401  0.3855E+01  0.1274E+02
     -5.316  0.9213E+01  0.1327E+02
     -5.231  0.6887E+01  0.1398E+02
     -5.145  0.1716E+01  0.1435E+02
     -5.060  0.1494E+01  0.1449E+02
     -4.975  0.1451E+01  0.1461E+02
     -4.890  0.1482E+01  0.1474E+02
     -4.804  0.1666E+01  0.1487E+02
     -4.719  0.4724E+01  0.1505E+02
     -4.634  0.3178E+01  0.1544E+02
     -4.549  0.2292E+01  0.1565E+02
     -4.464  0.2647E+01  0.1585E+02
     -4.378  0.6109E+00  0.1599E+02
     -4.293  0.1451E+01  0.1604E+02
     -4.208  0.4212E+01  0.1629E+02
     -4.123  0.3702E+01  0.1662E+02
     -4.037  0.3381E+01  0.1692E+02
     -3.952  0.3016E+01  0.1720E+02
     -3.867  0.2104E+01  0.1742E+02
     -3.782  0.1790E+01  0.1758E+02
     -3.696  0.1475E+01  0.1772E+02
     -3.611  0.1161E+01  0.1784E+02
     -3.526  0.8239E+00  0.1797E+02
     -3.441  0.0000E+00  0.1800E+02
     -3.355  0.0000E+00  0.1800E+02
     -3.270  0.0000E+00  0.1800E+02
     -3.185  0.0000E+00  0.1800E+02
     -3.100  0.0000E+00  0.1800E+02
     -3.014  0.0000E+00  0.1800E+02
     -2.929  0.0000E+00  0.1800E+02
     -2.844  0.0000E+00  0.1800E+02
     -2.759  0.0000E+00  0.1800E+02
     -2.673  0.0000E+00  0.1800E+02
     -2.588  0.0000E+00  0.1800E+02
     -2.503  0.0000E+00  0.1800E+02
     -2.418  0.0000E+00  0.1800E+02
     -2.333  0.0000E+00  0.1800E+02
     -2.247  0.0000E+00  0.1800E+02
     -2.162  0.0000E+00  0.1800E+02
     -2.077  0.0000E+00  0.1800E+02
     -1.992  0.0000E+00  0.1800E+02
     -1.906  0.0000E+00  0.1800E+02
     -1.821  0.0000E+00  0.1800E+02
     -1.736  0.0000E+00  0.1800E+02
     -1.651  0.0000E+00  0.1800E+02
     -1.565  0.7070E+00  0.1806E+02
     -1.480  0.9291E+00  0.1813E+02
     -1.395  0.6011E+01  0.1838E+02
     -1.310  0.8347E+01  0.1901E+02
     -1.224  0.9423E+00  0.1971E+02
     -1.139  0.7949E+00  0.1979E+02
     -1.054  0.3955E+01  0.1992E+02
     -0.969  0.4384E+01  0.2053E+02
     -0.883  0.4387E+01  0.2096E+02
     -0.798  0.4806E+01  0.2135E+02
     -0.713  0.4022E+01  0.2184E+02
     -0.628  0.3235E+01  0.2216E+02
     -0.543  0.2408E+01  0.2240E+02
     -0.457  0.2651E+01  0.2260E+02
     -0.372  0.2642E+01  0.2282E+02
     -0.287  0.1896E+01  0.2308E+02
     -0.202  0.2404E+01  0.2326E+02
     -0.116  0.2034E+01  0.2351E+02
     -0.031  0.1971E+01  0.2368E+02
      0.054  0.1908E+01  0.2385E+02
      0.139  0.1813E+01  0.2401E+02
      0.225  0.1898E+01  0.2418E+02
      0.310  0.1607E+01  0.2433E+02
      0.395  0.1233E+01  0.2445E+02
      0.480  0.9637E+00  0.2454E+02
      0.566  0.1063E+01  0.2462E+02
      0.651  0.1163E+01  0.2472E+02
      0.736  0.3227E+01  0.2486E+02
      0.821  0.2126E+01  0.2535E+02
      0.907  0.1795E+01  0.2552E+02
      0.992  0.1464E+01  0.2566E+02
      1.077  0.1133E+01  0.2577E+02
      1.162  0.1124E+01  0.2586E+02
      1.248  0.1292E+01  0.2596E+02
      1.333  0.0000E+00  0.2600E+02
      1.418  0.0000E+00  0.2600E+02
      1.503  0.0000E+00  0.2600E+02
      1.588  0.0000E+00  0.2600E+02
      1.674  0.0000E+00  0.2600E+02
      1.759  0.0000E+00  0.2600E+02
      1.844  0.0000E+00  0.2600E+02
      1.929  0.0000E+00  0.2600E+02
      2.015  0.3695E-01  0.2600E+02
      2.100  0.1549E+00  0.2601E+02
      2.185  0.2729E+00  0.2603E+02
      2.270  0.3909E+00  0.2606E+02
      2.356  0.5089E+00  0.2609E+02
      2.441  0.3344E+00  0.2612E+02
      2.526  0.3550E+00  0.2615E+02
      2.611  0.3756E+00  0.2618E+02
      2.697  0.3962E+00  0.2621E+02
      2.782  0.4664E+00  0.2625E+02
      2.867  0.6078E+00  0.2630E+02
      2.952  0.7491E+00  0.2635E+02
      3.038  0.8598E+00  0.2642E+02
      3.123  0.9702E+00  0.2650E+02
      3.208  0.1106E+01  0.2659E+02
      3.293  0.1661E+01  0.2670E+02
      3.379  0.1700E+01  0.2684E+02
      3.464  0.1738E+01  0.2699E+02
      3.549  0.2095E+01  0.2718E+02
      3.634  0.2133E+01  0.2736E+02
      3.719  0.2084E+01  0.2754E+02
      3.805  0.1580E+01  0.2770E+02
      3.890  0.1077E+01  0.2781E+02
      3.975  0.1221E+01  0.2792E+02
      4.060  0.4266E+00  0.2799E+02
      4.146  0.0000E+00  0.2800E+02
      4.231  0.0000E+00  0.2800E+02
      4.316  0.0000E+00  0.2800E+02
      4.401  0.0000E+00  0.2800E+02
      4.487  0.0000E+00  0.2800E+02
      4.572  0.0000E+00  0.2800E+02
      4.657  0.0000E+00  0.2800E+02
      4.742  0.0000E+00  0.2800E+02
      4.828  0.0000E+00  0.2800E+02
      4.913  0.0000E+00  0.2800E+02
      4.998  0.0000E+00  0.2800E+02
      5.083  0.0000E+00  0.2800E+02
      5.169  0.0000E+00  0.2800E+02
      5.254  0.0000E+00  0.2800E+02
      5.339  0.0000E+00  0.2800E+02
      5.424  0.0000E+00  0.2800E+02
      5.510  0.0000E+00  0.2800E+02
      5.595  0.0000E+00  0.2800E+02
      5.680  0.0000E+00  0.2800E+02
      5.765  0.0000E+00  0.2800E+02
      5.850  0.0000E+00  0.2800E+02
      5.936  0.0000E+00  0.2800E+02
      6.021  0.0000E+00  0.2800E+02
      6.106  0.0000E+00  0.2800E+02
