    3    3    1    1
  0.7897505E+02  0.3190316E-09  0.3190316E-09  0.2687900E-08  0.5000000E-15
  1.000000000000000E-004
  CAR 
 unknown system                          
     18     10     14
 
  0.0000000E+00  0.0000000E+00  0.0000000E+00  0.1562500E-01
    1      -17.465707   1.000000
    2      -16.257299   1.000000
    3       -8.984309   1.000000
    4       -6.023306   1.000000
    5       -6.023299   1.000000
    6       -5.162456   1.000000
    7       -4.917558   1.000000
    8       -4.917529   1.000000
    9       -3.441804   1.000000
   10       -0.670274   0.000000
   11       -0.670239   0.000000
   12       -0.447350   0.000000
   13       -0.447340   0.000000
   14        1.987989   0.000000
 
  0.1250000E+00  0.0000000E+00  0.0000000E+00  0.9375000E-01
    1      -17.251553   1.000000
    2      -16.154860   1.000000
    3       -8.739563   1.000000
    4       -6.486675   1.000000
    5       -5.969977   1.000000
    6       -5.789009   1.000000
    7       -5.253156   1.000000
    8       -4.484570   1.000000
    9       -3.580137   1.000000
   10       -0.951214   0.000000
   11       -0.884560   0.000000
   12       -0.683773   0.000000
   13       -0.315430   0.000000
   14        2.356029   0.000000
 
  0.2500000E+00  0.0000000E+00  0.0000000E+00  0.9375000E-01
    1      -16.682783   1.000000
    2      -15.885941   1.000000
    3       -8.373197   1.000000
    4       -7.213803   1.000000
    5       -6.950711   1.000000
    6       -5.888127   1.000000
    7       -5.201870   1.000000
    8       -4.736046   1.000000
    9       -4.148075   1.000000
   10       -1.274641   0.000000
   11       -1.098893   0.000000
   12       -0.555998   0.000000
   13        0.301625   0.000000
   14        3.174430   0.000000
 
  0.3750000E+00  0.0000000E+00  0.0000000E+00  0.9375000E-01
    1      -16.007572   1.000000
    2      -15.577346   1.000000
    3       -8.810941   1.000000
    4       -7.818359   1.000000
    5       -7.346118   1.000000
    6       -6.385617   1.000000
    7       -5.145303   1.000000
    8       -4.611572   1.000000
    9       -4.343191   1.000000
   10       -1.280606   0.000000
   11       -1.001079   0.000000
   12        0.162641   0.000000
   13        0.695141   0.000000
   14        3.705686   0.000000
 
  0.5000000E+00  0.0000000E+00  0.0000000E+00  0.4687500E-01
    1      -15.679251   1.000000
    2      -15.433912   1.000000
    3       -9.143731   1.000000
    4       -8.183189   1.000000
    5       -7.471799   1.000000
    6       -6.565924   1.000000
    7       -5.283928   1.000000
    8       -4.384273   1.000000
    9       -4.062083   1.000000
   10       -1.257626   0.000000
   11       -0.742058   0.000000
   12        0.461543   0.000000
   13        0.811096   0.000000
   14        2.746817   0.000000
 
  0.1250000E+00  0.1250000E+00  0.0000000E+00  0.9375000E-01
    1      -16.858724   1.000000
    2      -15.967750   1.000000
    3       -8.392194   1.000000
    4       -7.050996   1.000000
    5       -6.532252   1.000000
    6       -6.066983   1.000000
    7       -5.449655   1.000000
    8       -4.350167   1.000000
    9       -3.952238   1.000000
   10       -1.350092   0.000000
   11       -0.972262   0.000000
   12       -0.959751   0.000000
   13        0.279117   0.000000
   14        2.953413   0.000000
 
  0.2500000E+00  0.1250000E+00  0.0000000E+00  0.1875000E+00
    1      -16.225048   1.000000
    2      -15.669044   1.000000
    3       -8.455102   1.000000
    4       -7.477242   1.000000
    5       -7.214616   1.000000
    6       -6.571174   1.000000
    7       -5.350420   1.000000
    8       -4.712227   1.000000
    9       -4.235545   1.000000
   10       -1.433217   0.000000
   11       -0.985175   0.000000
   12       -0.489279   0.000000
   13        0.786995   0.000000
   14        3.922599   0.000000
 
  0.3750000E+00  0.1250000E+00  0.0000000E+00  0.1875000E+00
    1      -15.694514   1.000000
    2      -15.425015   1.000000
    3       -8.856419   1.000000
    4       -8.240262   1.000000
    5       -7.344395   1.000000
    6       -6.588169   1.000000
    7       -5.335206   1.000000
    8       -5.193901   1.000000
    9       -3.908514   1.000000
   10       -1.239124   0.000000
   11       -0.728783   0.000000
   12        0.133168   0.000000
   13        0.820542   0.000000
   14        3.273872   0.000000
 
  0.2500000E+00  0.2500000E+00  0.0000000E+00  0.9375000E-01
    1      -15.709480   1.000000
    2      -15.416055   1.000000
    3       -8.495932   1.000000
    4       -8.290688   1.000000
    5       -7.017579   1.000000
    6       -6.636615   1.000000
    7       -6.318009   1.000000
    8       -5.060523   1.000000
    9       -3.937599   1.000000
   10       -1.289890   0.000000
   11       -0.678780   0.000000
   12       -0.364949   0.000000
   13        1.107446   0.000000
   14        4.106188   0.000000
 
  0.3750000E+00  0.2500000E+00  0.0000000E+00  0.9375000E-01
    1      -15.474599   1.000000
    2      -15.296871   1.000000
    3       -8.675110   1.000000
    4       -8.327235   1.000000
    5       -7.301751   1.000000
    6       -6.639428   1.000000
    7       -6.409382   1.000000
    8       -5.446644   1.000000
    9       -3.570383   1.000000
   10       -1.616239   0.000000
   11       -0.305811   0.000000
   12       -0.128875   0.000000
   13        1.251653   0.000000
   14        3.517896   0.000000
