       N       E                     dE             d eps       ncg     rms          rms(c)
DAV:   1     0.110224820991E+03    0.11022E+03   -0.46901E+03   296   0.598E+02
DAV:   2    -0.969448110865E+01   -0.11992E+03   -0.11122E+03   426   0.160E+02
DAV:   3    -0.231057592220E+02   -0.13411E+02   -0.13275E+02   402   0.652E+01
DAV:   4    -0.233907176000E+02   -0.28496E+00   -0.28347E+00   360   0.115E+01
DAV:   5    -0.233978338765E+02   -0.71163E-02   -0.71131E-02   352   0.175E+00    0.690E+00
RMM:   6    -0.222326993720E+02    0.11651E+01   -0.54439E+00   295   0.120E+01    0.263E+00
RMM:   7    -0.218469994558E+02    0.38570E+00   -0.55588E-01   290   0.335E+00    0.151E+00
RMM:   8    -0.217869743650E+02    0.60025E-01   -0.23468E-01   307   0.247E+00    0.354E-01
RMM:   9    -0.217822495189E+02    0.47248E-02   -0.85500E-03   336   0.580E-01    0.951E-02
RMM:  10    -0.217815775486E+02    0.67197E-03   -0.16900E-03   332   0.216E-01    0.440E-02
RMM:  11    -0.217815073239E+02    0.70225E-04   -0.17747E-03   313   0.192E-01    0.560E-02
RMM:  12    -0.217813066005E+02    0.20072E-03   -0.56714E-04   305   0.131E-01    0.164E-02
RMM:  13    -0.217815595880E+02   -0.25299E-03   -0.15049E-04   299   0.659E-02    0.197E-02
RMM:  14    -0.217815955239E+02   -0.35936E-04   -0.23719E-05   251   0.262E-02    0.496E-03
RMM:  15    -0.217817078431E+02   -0.11232E-03   -0.12182E-05   198   0.164E-02    0.290E-03
RMM:  16    -0.217817444324E+02   -0.36589E-04   -0.48616E-06   187   0.904E-03    0.171E-03
RMM:  17    -0.217817960622E+02   -0.51630E-04   -0.33119E-06   160   0.794E-03    0.154E-03
RMM:  18    -0.217818030739E+02   -0.70117E-05   -0.41070E-07    88   0.412E-03
   1 F= -.22372712E+02 E0= -.22372712E+02  d E =0.000000E+00
