 vasp.5.4.4.18Apr17-6-g9f103f2a35 (build Jun 30 2017 11:15:00) complex          
  
 executed on    STALLO_VASP_5.4.4 date 2019.11.08  11:57:05
 running on    4 total cores
 distrk:  each k-point on    4 cores,    1 groups
 distr:  one band on NCORES_PER_BAND=   2 cores,    2 groups


--------------------------------------------------------------------------------------------------------


 INCAR:
 POTCAR:   PAW_PBE Mo 08Apr2002                   
 POTCAR:    PAW_PBE S 17Jan2003                   
 POTCAR:   PAW_PBE Mo 08Apr2002                   
   VRHFIN =Mo: 4p5s4d                                                           
   LEXCH  = PE                                                                  
   EATOM  =   217.5180 eV,   15.9871 Ry                                         
                                                                                
   TITEL  = PAW_PBE Mo 08Apr2002                                                
   LULTRA =        F    use ultrasoft PP ?                                      
   IUNSCR =        1    unscreen: 0-lin 1-nonlin 2-no                           
   RPACOR =    2.200    partial core radius                                     
   POMASS =   95.940; ZVAL   =    6.000    mass and valenz                      
   RCORE  =    2.750    outmost cutoff radius                                   
   RWIGS  =    2.750; RWIGS  =    1.455    wigner-seitz radius (au A)           
   ENMAX  =  224.584; ENMIN  =  168.438 eV                                      
   RCLOC  =    2.111    cutoff for local pot                                    
   LCOR   =        T    correct aug charges                                     
   LPAW   =        T    paw PP                                                  
   EAUG   =  345.278                                                            
   DEXC   =    -.088                                                            
   RMAX   =    3.077    core radius for proj-oper                               
   RAUG   =    1.300    factor for augmentation sphere                          
   RDEP   =    2.815    radius for radial grids                                 
   QCUT   =   -4.063; QGAM   =    8.126    optimization parameters              
                                                                                
   Description                                                                  
     l     E      TYP  RCUT    TYP  RCUT                                        
     2   .000     23  2.500                                                     
     2   .000     23  2.500                                                     
     0   .000     23  2.600                                                     
     0  1.000     23  2.600                                                     
     1   .400     23  2.750                                                     
     1  2.000     23  2.750                                                     
     3   .000      7   .000                                                     
  local pseudopotential read in
  partial core-charges read in
  atomic valenz-charges read in
  non local Contribution for L=           2  read in
    real space projection operators read in
  non local Contribution for L=           2  read in
    real space projection operators read in
  non local Contribution for L=           0  read in
    real space projection operators read in
  non local Contribution for L=           0  read in
    real space projection operators read in
  non local Contribution for L=           1  read in
    real space projection operators read in
  non local Contribution for L=           1  read in
    real space projection operators read in
    PAW grid and wavefunctions read in
 
   number of l-projection  operators is LMAX  =           6
   number of lm-projection operators is LMMAX =          18
 
 POTCAR:    PAW_PBE S 17Jan2003                   
   VRHFIN =S : s2p4                                                             
   LEXCH  = PE                                                                  
   EATOM  =   276.8230 eV,   20.3459 Ry                                         
                                                                                
   TITEL  = PAW_PBE S 17Jan2003                                                 
   LULTRA =        F    use ultrasoft PP ?                                      
   IUNSCR =        1    unscreen: 0-lin 1-nonlin 2-no                           
   RPACOR =    1.500    partial core radius                                     
   POMASS =   32.066; ZVAL   =    6.000    mass and valenz                      
   RCORE  =    1.900    outmost cutoff radius                                   
   RWIGS  =    2.200; RWIGS  =    1.164    wigner-seitz radius (au A)           
   ENMAX  =  280.000; ENMIN  =  194.016 eV                                      
   ICORE  =        2    local potential                                         
   LCOR   =        T    correct aug charges                                     
   LPAW   =        T    paw PP                                                  
   EAUG   =  335.092                                                            
   DEXC   =     .000                                                            
   RMAX   =    2.867    core radius for proj-oper                               
   RAUG   =    1.300    factor for augmentation sphere                          
   RDEP   =    1.954    radius for radial grids                                 
   QCUT   =   -4.360; QGAM   =    8.721    optimization parameters              
                                                                                
   Description                                                                  
     l     E      TYP  RCUT    TYP  RCUT                                        
     0   .000     23  1.900                                                     
     0   .000     23  1.900                                                     
     1   .000     23  1.900                                                     
     1   .000     23  1.900                                                     
     2   .000     23  1.900                                                     
  local pseudopotential read in
  partial core-charges read in
  atomic valenz-charges read in
  non local Contribution for L=           0  read in
    real space projection operators read in
  non local Contribution for L=           0  read in
    real space projection operators read in
  non local Contribution for L=           1  read in
    real space projection operators read in
  non local Contribution for L=           1  read in
    real space projection operators read in
    PAW grid and wavefunctions read in
 
   number of l-projection  operators is LMAX  =           4
   number of lm-projection operators is LMMAX =           8
 
 PAW_PBE Mo 08Apr2002                   :
 energy of atom  1       EATOM= -217.5180
 kinetic energy error for atom=    0.0176 (will be added to EATOM!!)
  PAW_PBE S 17Jan2003                   :
 energy of atom  2       EATOM= -276.8230
 kinetic energy error for atom=    0.0077 (will be added to EATOM!!)
 
 
 POSCAR: MoS2_mp-2815_computed                   
  positions in cartesian coordinates
  velocities in cartesian coordinates
  No initial velocities read in
 exchange correlation table for  LEXCH =        8
   RHO(1)=    0.500       N(1)  =     2000
   RHO(2)=  100.500       N(2)  =     4000
 


--------------------------------------------------------------------------------------------------------


 ion  position               nearest neighbor table
   1  0.333  0.667  0.138-   3 2.42   2 2.42   2 2.42   3 2.42   3 2.42   2 2.42
   2  0.667  0.333  0.080-   1 2.42   1 2.42   1 2.42
   3  0.667  0.333  0.197-   1 2.42   1 2.42   1 2.42
 
  LATTYP: Found a hexagonal cell.
 ALAT       =     3.1903157300
 C/A-ratio  =     8.4251862746
  
  Lattice vectors:
  
 A1 = (   3.1903157300,   0.0000000000,   0.0000000000)
 A2 = (  -1.5951578650,   2.7628944683,   0.0000000000)
 A3 = (   0.0000000000,   0.0000000000,  26.8790043000)


Analysis of symmetry for initial positions (statically):
=====================================================================
 Subroutine PRICEL returns:
 Original cell was already a primitive cell.
 

 Routine SETGRP: Setting up the symmetry group for a 
 hexagonal supercell.


 Subroutine GETGRP returns: Found 12 space group operations
 (whereof  6 operations were pure point group operations)
 out of a pool of 24 trial point group operations.


The static configuration has the point symmetry C_3v.
 The point group associated with its full space group is D_3h.


Analysis of symmetry for dynamics (positions and initial velocities):
=====================================================================
 Subroutine PRICEL returns:
 Original cell was already a primitive cell.
 

 Routine SETGRP: Setting up the symmetry group for a 
 hexagonal supercell.


 Subroutine GETGRP returns: Found 12 space group operations
 (whereof  6 operations were pure point group operations)
 out of a pool of 24 trial point group operations.


The dynamic configuration has the point symmetry C_3v.
 The point group associated with its full space group is D_3h.


 Subroutine INISYM returns: Found 12 space group operations
 (whereof  6 operations are pure point group operations),
 and found     1 'primitive' translations

 
 
 KPOINTS: k-density: 4.0                          

Automatic generation of k-mesh.
Space group operators:
 irot       det(A)        alpha          n_x          n_y          n_z        tau_x        tau_y        tau_z
    1     1.000000     0.000001     1.000000     0.000000     0.000000     0.000000     0.000000     0.000000
    2     1.000000   120.000000     0.000000     0.000000    -1.000000     0.000000     0.000000     0.000000
    3     1.000000   120.000000     0.000000     0.000000     1.000000     0.000000     0.000000     0.000000
    4    -1.000000   179.999999     1.000000    -0.000000     0.000000     0.000000     0.000000     0.000000
    5    -1.000000   180.000000     0.500000    -0.866025     0.000000     0.000000     0.000000     0.000000
    6    -1.000000   180.000000    -0.500000    -0.866025     0.000000     0.000000     0.000000     0.000000
    7    -1.000000    60.000000     0.000000     0.000000    -1.000000    -0.000000     0.000000     0.276777
    8    -1.000000   180.000000     0.000000     0.000000     1.000000     0.000000     0.000000     0.276777
    9    -1.000000    60.000000     0.000000     0.000000     1.000000     0.000000     0.000001     0.276777
   10     1.000000   180.000000     0.866025    -0.500000     0.000000     0.000000     0.000000     0.276777
   11     1.000000   180.000000     0.000000     1.000000     0.000000     0.000000     0.000000     0.276777
   12     1.000000   179.999999     0.866025     0.500000     0.000000    -0.000000     0.000001     0.276777
 
 Subroutine IBZKPT returns following result:
 ===========================================
 
 Found     10 irreducible k-points:
 
 Following reciprocal coordinates:
            Coordinates               Weight
  0.000000  0.000000  0.000000      1.000000
  0.125000  0.000000  0.000000      6.000000
  0.250000  0.000000  0.000000      6.000000
  0.375000  0.000000  0.000000      6.000000
  0.500000  0.000000  0.000000      3.000000
  0.125000  0.125000  0.000000      6.000000
  0.250000  0.125000  0.000000     12.000000
  0.375000  0.125000  0.000000     12.000000
  0.250000  0.250000  0.000000      6.000000
  0.375000  0.250000  0.000000      6.000000
 
 Following cartesian coordinates:
            Coordinates               Weight
  0.000000  0.000000  0.000000      1.000000
  0.039181  0.022621  0.000000      6.000000
  0.078362  0.045242  0.000000      6.000000
  0.117543  0.067864  0.000000      6.000000
  0.156724  0.090485  0.000000      3.000000
  0.039181  0.067864  0.000000      6.000000
  0.078362  0.090485  0.000000     12.000000
  0.117543  0.113106  0.000000     12.000000
  0.078362  0.135727  0.000000      6.000000
  0.117543  0.158348  0.000000      6.000000
 
 TETIRR: Found     36 inequivalent tetrahedra from      384


--------------------------------------------------------------------------------------------------------




 Dimension of arrays:
   k-points           NKPTS =     10   k-points in BZ     NKDIM =     10   number of bands    NBANDS=     14
   number of dos      NEDOS =    301   number of ions     NIONS =      3
   non local maximal  LDIM  =      6   non local SUM 2l+1 LMDIM =     18
   total plane-waves  NPLWV =  23520
   max r-space proj   IRMAX =      1   max aug-charges    IRDMAX=   6572
   dimension x,y,z NGX =    14 NGY =   14 NGZ =  120
   dimension x,y,z NGXF=    28 NGYF=   28 NGZF=  240
   support grid    NGXF=    28 NGYF=   28 NGZF=  240
   ions per type =               1   2
   NGX,Y,Z   is equivalent  to a cutoff of   7.30,  7.30,  7.42 a.u.
   NGXF,Y,Z  is equivalent  to a cutoff of  14.59, 14.59, 14.84 a.u.

 SYSTEM =  unknown system                          
 POSCAR =  MoS2_mp-2815_computed                   

 Startparameter for this run:
   NWRITE =      2    write-flag & timer
   PREC   = normal    normal or accurate (medium, high low for compatibility)
   ISTART =      0    job   : 0-new  1-cont  2-samecut
   ICHARG =      2    charge: 1-file 2-atom 10-const
   ISPIN  =      1    spin polarized calculation?
   LNONCOLLINEAR =      F non collinear calculations
   LSORBIT =      F    spin-orbit coupling
   INIWAV =      1    electr: 0-lowe 1-rand  2-diag
   LASPH  =      F    aspherical Exc in radial PAW
   METAGGA=      F    non-selfconsistent MetaGGA calc.

 Electronic Relaxation 1
   ENCUT  =  300.0 eV  22.05 Ry    4.70 a.u.   4.51  4.51 37.96*2*pi/ulx,y,z
   ENINI  =  300.0     initial cutoff
   ENAUG  =  345.3 eV  augmentation charge cutoff
   NELM   =     60;   NELMIN=  4; NELMDL= -5     # of ELM steps 
   EDIFF  = 0.1E-04   stopping-criterion for ELM
   LREAL  =      F    real-space projection
   NLSPLINE    = F    spline interpolate recip. space projectors
   LCOMPAT=      F    compatible to vasp.4.4
   GGA_COMPAT  = T    GGA compatible to vasp.4.4-vasp.4.6
   LMAXPAW     = -100 max onsite density
   LMAXMIX     =    2 max onsite mixed and CHGCAR
   VOSKOWN=      0    Vosko Wilk Nusair interpolation
   ROPT   =    0.00000   0.00000
 Ionic relaxation
   EDIFFG = 0.1E-03   stopping-criterion for IOM
   NSW    =      0    number of steps for IOM
   NBLOCK =      1;   KBLOCK =      1    inner block; outer block 
   IBRION =     -1    ionic relax: 0-MD 1-quasi-New 2-CG
   NFREE  =      0    steps in history (QN), initial steepest desc. (CG)
   ISIF   =      2    stress and relaxation
   IWAVPR =     10    prediction:  0-non 1-charg 2-wave 3-comb
   ISYM   =      2    0-nonsym 1-usesym 2-fastsym
   LCORR  =      T    Harris-Foulkes like correction to forces

   POTIM  = 0.5000    time-step for ionic-motion
   TEIN   =    0.0    initial temperature
   TEBEG  =    0.0;   TEEND  =   0.0 temperature during run
   SMASS  =  -3.00    Nose mass-parameter (am)
   estimated Nose-frequenzy (Omega)   =  0.10E-29 period in steps =****** mass=  -0.233E-27a.u.
   SCALEE = 1.0000    scale energy and forces
   NPACO  =    256;   APACO  = 16.0  distance and # of slots for P.C.
   PSTRESS=    0.0 pullay stress

  Mass of Ions in am
   POMASS =  95.94 32.07
  Ionic Valenz
   ZVAL   =   6.00  6.00
  Atomic Wigner-Seitz radii
   RWIGS  =  -1.00 -1.00
  virtual crystal weights 
   VCA    =   1.00  1.00
   NELECT =      18.0000    total number of electrons
   NUPDOWN=      -1.0000    fix difference up-down

 DOS related values:
   EMIN   =  10.00;   EMAX   =-10.00  energy-range for DOS
   EFERMI =   0.00
   ISMEAR =    -5;   SIGMA  =   0.20  broadening in eV -4-tet -1-fermi 0-gaus

 Electronic relaxation 2 (details)
   IALGO  =     68    algorithm
   LDIAG  =      T    sub-space diagonalisation (order eigenvalues)
   LSUBROT=      F    optimize rotation matrix (better conditioning)
   TURBO    =      0    0=normal 1=particle mesh
   IRESTART =      0    0=no restart 2=restart with 2 vectors
   NREBOOT  =      0    no. of reboots
   NMIN     =      0    reboot dimension
   EREF     =   0.00    reference energy to select bands
   IMIX   =      4    mixing-type and parameters
     AMIX     =   0.40;   BMIX     =  1.00
     AMIX_MAG =   1.60;   BMIX_MAG =  1.00
     AMIN     =   0.10
     WC   =   100.;   INIMIX=   1;  MIXPRE=   1;  MAXMIX= -45

 Intra band minimization:
   WEIMIN = 0.0000     energy-eigenvalue tresh-hold
   EBREAK =  0.18E-06  absolut break condition
   DEPER  =   0.30     relativ break condition  

   TIME   =   0.40     timestep for ELM

  volume/ion in A,a.u.               =      78.98       532.95
  Fermi-wavevector in a.u.,A,eV,Ry     =   0.693365  1.310270  6.541070  0.480755
  Thomas-Fermi vector in A             =   1.775558
 
 Write flags
   LWAVE        =      F    write WAVECAR
   LDOWNSAMPLE  =      F    k-point downsampling of WAVECAR
   LCHARG       =      T    write CHGCAR
   LVTOT        =      F    write LOCPOT, total local potential
   LVHAR        =      F    write LOCPOT, Hartree potential only
   LELF         =      F    write electronic localiz. function (ELF)
   LORBIT       =      0    0 simple, 1 ext, 2 COOP (PROOUT), +10 PAW based schemes


 Dipole corrections
   LMONO  =      F    monopole corrections only (constant potential shift)
   LDIPOL =      F    correct potential (dipole corrections)
   IDIPOL =      0    1-x, 2-y, 3-z, 4-all directions 
   EPSILON=  1.0000000 bulk dielectric constant

 Exchange correlation treatment:
   GGA     =    --    GGA type
   LEXCH   =     8    internal setting for exchange type
   VOSKOWN=      0    Vosko Wilk Nusair interpolation
   LHFCALC =     F    Hartree Fock is set to
   LHFONE  =     F    Hartree Fock one center treatment
   AEXX    =    0.0000 exact exchange contribution

 Linear response parameters
   LEPSILON=     F    determine dielectric tensor
   LRPA    =     F    only Hartree local field effects (RPA)
   LNABLA  =     F    use nabla operator in PAW spheres
   LVEL    =     F    velocity operator in full k-point grid
   LINTERFAST=   F  fast interpolation
   KINTER  =     0    interpolate to denser k-point grid
   CSHIFT  =0.1000    complex shift for real part using Kramers Kronig
   OMEGAMAX=  -1.0    maximum frequency
   DEG_THRESHOLD= 0.2000000E-02 threshold for treating states as degnerate
   RTIME   =   -0.100 relaxation time in fs
  (WPLASMAI=    0.000 imaginary part of plasma frequency in eV, 0.658/RTIME)
   DFIELD  = 0.0000000 0.0000000 0.0000000 field for delta impulse in time
 
 Orbital magnetization related:
   ORBITALMAG=     F  switch on orbital magnetization
   LCHIMAG   =     F  perturbation theory with respect to B field
   DQ        =  0.001000  dq finite difference perturbation B field
   LLRAUG    =     F  two centre corrections for induced B field



--------------------------------------------------------------------------------------------------------


 Static calculation
 charge density and potential will be updated during run
 non-spin polarized calculation
 RMM-DIIS sequential band-by-band and
  variant of blocked Davidson during initial phase
 perform sub-space diagonalisation
    before iterative eigenvector-optimisation
 modified Broyden-mixing scheme, WC =      100.0
 initial mixing is a Kerker type mixing with AMIX =  0.4000 and BMIX =      1.0000
 Hartree-type preconditioning will be used
 using additional bands            5
 reciprocal scheme for non local part
 use partial core corrections
 calculate Harris-corrections to forces 
   (improved forces if not selfconsistent)
 use gradient corrections 
 use of overlap-Matrix (Vanderbilt PP)
 Fermi weights with tetrahedron method with Bloechl corrections


--------------------------------------------------------------------------------------------------------


  energy-cutoff  :      300.00
  volume of cell :      236.93
      direct lattice vectors                 reciprocal lattice vectors
     3.190315730  0.000000000  0.000000000     0.313448600  0.180969634  0.000000000
    -1.595157865  2.762894468  0.000000000     0.000000000  0.361939267  0.000000000
     0.000000000  0.000000000 26.879004300     0.000000000  0.000000000  0.037203759

  length of vectors
     3.190315730  3.190315730 26.879004300     0.361939267  0.361939267  0.037203759


 
 k-points in units of 2pi/SCALE and weight: k-density: 4.0                          
   0.00000000  0.00000000  0.00000000       0.016
   0.03918108  0.02262120  0.00000000       0.094
   0.07836215  0.04524241  0.00000000       0.094
   0.11754323  0.06786361  0.00000000       0.094
   0.15672430  0.09048482  0.00000000       0.047
   0.03918108  0.06786361  0.00000000       0.094
   0.07836215  0.09048482  0.00000000       0.188
   0.11754323  0.11310602  0.00000000       0.188
   0.07836215  0.13572723  0.00000000       0.094
   0.11754323  0.15834843  0.00000000       0.094
 
 k-points in reciprocal lattice and weights: k-density: 4.0                          
   0.00000000  0.00000000  0.00000000       0.016
   0.12500000  0.00000000  0.00000000       0.094
   0.25000000  0.00000000  0.00000000       0.094
   0.37500000  0.00000000  0.00000000       0.094
   0.50000000  0.00000000  0.00000000       0.047
   0.12500000  0.12500000  0.00000000       0.094
   0.25000000  0.12500000  0.00000000       0.188
   0.37500000  0.12500000  0.00000000       0.188
   0.25000000  0.25000000  0.00000000       0.094
   0.37500000  0.25000000  0.00000000       0.094
 
 position of ions in fractional coordinates (direct lattice) 
   0.33333300  0.66666700  0.13838872
   0.66666700  0.33333300  0.08016914
   0.66666600  0.33333300  0.19660830
 
 position of ions in cartesian coordinates  (Angst):
  -0.00000160  1.84193057  3.71975108
   1.59515946  0.92096390  2.15486668
   1.59515627  0.92096390  5.28463547
 


--------------------------------------------------------------------------------------------------------


 k-point  1 :   0.0000 0.0000 0.0000  plane waves:    2829
 k-point  2 :   0.1250 0.0000 0.0000  plane waves:    2832
 k-point  3 :   0.2500 0.0000 0.0000  plane waves:    2826
 k-point  4 :   0.3750 0.0000 0.0000  plane waves:    2808
 k-point  5 :   0.5000 0.0000 0.0000  plane waves:    2740
 k-point  6 :   0.1250 0.1250 0.0000  plane waves:    2845
 k-point  7 :   0.2500 0.1250 0.0000  plane waves:    2797
 k-point  8 :   0.3750 0.1250 0.0000  plane waves:    2769
 k-point  9 :   0.2500 0.2500 0.0000  plane waves:    2763
 k-point 10 :   0.3750 0.2500 0.0000  plane waves:    2780

 maximum and minimum number of plane-waves per node :      1425     1365

 maximum number of plane-waves:      2845
 maximum index in each direction: 
   IXMAX=    4   IYMAX=    4   IZMAX=   37
   IXMIN=   -4   IYMIN=   -4   IZMIN=  -37


 parallel 3D FFT for wavefunctions:
    minimum data exchange during FFTs selected (reduces bandwidth)
 parallel 3D FFT for charge:
    minimum data exchange during FFTs selected (reduces bandwidth)


 total amount of memory used by VASP MPI-rank0    40899. kBytes
=======================================================================

   base      :      30000. kBytes
   nonl-proj :       4175. kBytes
   fftplans  :       1946. kBytes
   grid      :       3121. kBytes
   one-center:         31. kBytes
   wavefun   :       1626. kBytes
 
     INWAV:  cpu time    0.0010: real time    0.0004
 Broyden mixing: mesh for mixing (old mesh)
   NGX =  9   NGY =  9   NGZ = 75
  (NGX  = 28   NGY  = 28   NGZ  =240)
  gives a total of   6075 points

 initial charge density was supplied:
 charge density of overlapping atoms calculated
 number of electron      18.0000000 magnetization 
 keeping initial charge density in first step


--------------------------------------------------------------------------------------------------------


 Maximum index for augmentation-charges         1558 (set IRDMAX)


--------------------------------------------------------------------------------------------------------


 First call to EWALD:  gamma=   0.286
 Maximum number of real-space cells 6x 6x 1
 Maximum number of reciprocal cells 2x 2x10

    FEWALD:  cpu time    0.0020: real time    0.0015


--------------------------------------- Iteration      1(   1)  ---------------------------------------


    POTLOK:  cpu time    0.0250: real time    0.0765
    SETDIJ:  cpu time    0.0030: real time    0.0027
     EDDAV:  cpu time    0.1240: real time    0.1281
 BZINTS: Fermi energy:  6.079213; 18.000000 electrons
         Band energy: -33.198177;  BLOECHL correction: -0.193879
       DOS:  cpu time    0.0010: real time    0.0010
    --------------------------------------------
      LOOP:  cpu time    0.1530: real time    0.2084

 eigenvalue-minimisations  :   296
 total energy-change (2. order) : 0.1102248E+03  (-0.4690146E+03)
 number of electron      18.0000000 magnetization 
 augmentation part       18.0000000 magnetization 

 Free energy of the ion-electron system (eV)
  ---------------------------------------------------
  alpha Z        PSCENC =        12.51390764
  Ewald energy   TEWEN  =      4286.25630342
  -Hartree energ DENC   =     -4967.71356794
  -exchange      EXHF   =         0.00000000
  -V(xc)+E(xc)   XCENC  =       -36.31055633
  PAW double counting   =       406.88651198     -329.34073203
  entropy T*S    EENTRO =         0.00000000
  eigenvalues    EBANDS =       -33.19817653
  atomic energy  EATOM  =       771.13113078
  Solvation  Ediel_sol  =         0.00000000
  ---------------------------------------------------
  free energy    TOTEN  =       110.22482099 eV

  energy without entropy =      110.22482099  energy(sigma->0) =      110.22482099


--------------------------------------------------------------------------------------------------------




--------------------------------------- Iteration      1(   2)  ---------------------------------------


     EDDAV:  cpu time    0.1600: real time    0.1611
 BZINTS: Fermi energy: -1.986603; 18.000000 electrons
         Band energy:-153.117479;  BLOECHL correction:  0.000000
       DOS:  cpu time    0.0000: real time    0.0002
    --------------------------------------------
      LOOP:  cpu time    0.1600: real time    0.1613

 eigenvalue-minimisations  :   426
 total energy-change (2. order) :-0.1199193E+03  (-0.1112243E+03)
 number of electron      18.0000000 magnetization 
 augmentation part       18.0000000 magnetization 

 Free energy of the ion-electron system (eV)
  ---------------------------------------------------
  alpha Z        PSCENC =        12.51390764
  Ewald energy   TEWEN  =      4286.25630342
  -Hartree energ DENC   =     -4967.71356794
  -exchange      EXHF   =         0.00000000
  -V(xc)+E(xc)   XCENC  =       -36.31055633
  PAW double counting   =       406.88651198     -329.34073203
  entropy T*S    EENTRO =         0.00000000
  eigenvalues    EBANDS =      -153.11747863
  atomic energy  EATOM  =       771.13113078
  Solvation  Ediel_sol  =         0.00000000
  ---------------------------------------------------
  free energy    TOTEN  =        -9.69448111 eV

  energy without entropy =       -9.69448111  energy(sigma->0) =       -9.69448111


--------------------------------------------------------------------------------------------------------




--------------------------------------- Iteration      1(   3)  ---------------------------------------


     EDDAV:  cpu time    0.1520: real time    0.1527
 BZINTS: Fermi energy: -3.300943; 18.000000 electrons
         Band energy:-166.528757;  BLOECHL correction:  0.000000
       DOS:  cpu time    0.0010: real time    0.0002
    --------------------------------------------
      LOOP:  cpu time    0.1530: real time    0.1529

 eigenvalue-minimisations  :   402
 total energy-change (2. order) :-0.1341128E+02  (-0.1327501E+02)
 number of electron      18.0000000 magnetization 
 augmentation part       18.0000000 magnetization 

 Free energy of the ion-electron system (eV)
  ---------------------------------------------------
  alpha Z        PSCENC =        12.51390764
  Ewald energy   TEWEN  =      4286.25630342
  -Hartree energ DENC   =     -4967.71356794
  -exchange      EXHF   =         0.00000000
  -V(xc)+E(xc)   XCENC  =       -36.31055633
  PAW double counting   =       406.88651198     -329.34073203
  entropy T*S    EENTRO =         0.00000000
  eigenvalues    EBANDS =      -166.52875674
  atomic energy  EATOM  =       771.13113078
  Solvation  Ediel_sol  =         0.00000000
  ---------------------------------------------------
  free energy    TOTEN  =       -23.10575922 eV

  energy without entropy =      -23.10575922  energy(sigma->0) =      -23.10575922


--------------------------------------------------------------------------------------------------------




--------------------------------------- Iteration      1(   4)  ---------------------------------------


     EDDAV:  cpu time    0.1380: real time    0.1390
 BZINTS: Fermi energy: -3.304287; 18.000000 electrons
         Band energy:-166.813715;  BLOECHL correction:  0.000000
       DOS:  cpu time    0.0000: real time    0.0002
    --------------------------------------------
      LOOP:  cpu time    0.1380: real time    0.1392

 eigenvalue-minimisations  :   360
 total energy-change (2. order) :-0.2849584E+00  (-0.2834742E+00)
 number of electron      18.0000000 magnetization 
 augmentation part       18.0000000 magnetization 

 Free energy of the ion-electron system (eV)
  ---------------------------------------------------
  alpha Z        PSCENC =        12.51390764
  Ewald energy   TEWEN  =      4286.25630342
  -Hartree energ DENC   =     -4967.71356794
  -exchange      EXHF   =         0.00000000
  -V(xc)+E(xc)   XCENC  =       -36.31055633
  PAW double counting   =       406.88651198     -329.34073203
  entropy T*S    EENTRO =         0.00000000
  eigenvalues    EBANDS =      -166.81371512
  atomic energy  EATOM  =       771.13113078
  Solvation  Ediel_sol  =         0.00000000
  ---------------------------------------------------
  free energy    TOTEN  =       -23.39071760 eV

  energy without entropy =      -23.39071760  energy(sigma->0) =      -23.39071760


--------------------------------------------------------------------------------------------------------




--------------------------------------- Iteration      1(   5)  ---------------------------------------


     EDDAV:  cpu time    0.1360: real time    0.1365
 BZINTS: Fermi energy: -3.314276; 18.000000 electrons
         Band energy:-166.820831;  BLOECHL correction:  0.000000
       DOS:  cpu time    0.0010: real time    0.0002
    CHARGE:  cpu time    0.0110: real time    0.0118
    MIXING:  cpu time    0.0010: real time    0.0011
    --------------------------------------------
      LOOP:  cpu time    0.1490: real time    0.1496

 eigenvalue-minimisations  :   352
 total energy-change (2. order) :-0.7116276E-02  (-0.7113097E-02)
 number of electron      17.9999986 magnetization 
 augmentation part       -0.9502565 magnetization 

 Broyden mixing:
  rms(total) = 0.69029E+00    rms(broyden)= 0.69021E+00
  rms(prec ) = 0.74754E+00
  weight for this iteration     100.00

 Free energy of the ion-electron system (eV)
  ---------------------------------------------------
  alpha Z        PSCENC =        12.51390764
  Ewald energy   TEWEN  =      4286.25630342
  -Hartree energ DENC   =     -4967.71356794
  -exchange      EXHF   =         0.00000000
  -V(xc)+E(xc)   XCENC  =       -36.31055633
  PAW double counting   =       406.88651198     -329.34073203
  entropy T*S    EENTRO =         0.00000000
  eigenvalues    EBANDS =      -166.82083140
  atomic energy  EATOM  =       771.13113078
  Solvation  Ediel_sol  =         0.00000000
  ---------------------------------------------------
  free energy    TOTEN  =       -23.39783388 eV

  energy without entropy =      -23.39783388  energy(sigma->0) =      -23.39783388


--------------------------------------------------------------------------------------------------------




--------------------------------------- Iteration      1(   6)  ---------------------------------------


    POTLOK:  cpu time    0.0220: real time    0.0222
    SETDIJ:  cpu time    0.0020: real time    0.0020
    EDDIAG:  cpu time    0.0260: real time    0.0261
  RMM-DIIS:  cpu time    0.0950: real time    0.0948
    ORTHCH:  cpu time    0.0020: real time    0.0026
 BZINTS: Fermi energy: -4.385418; 18.000000 electrons
         Band energy:-167.350243;  BLOECHL correction:  0.000000
       DOS:  cpu time    0.0000: real time    0.0002
    CHARGE:  cpu time    0.0120: real time    0.0115
    MIXING:  cpu time    0.0010: real time    0.0008
    --------------------------------------------
      LOOP:  cpu time    0.1600: real time    0.1603

 eigenvalue-minimisations  :   295
 total energy-change (2. order) : 0.1165135E+01  (-0.5443935E+00)
 number of electron      17.9999985 magnetization 
 augmentation part       -0.4051351 magnetization 

 Broyden mixing:
  rms(total) = 0.26300E+00    rms(broyden)= 0.26291E+00
  rms(prec ) = 0.30858E+00
  weight for this iteration     100.00

 eigenvalues of (default mixing * dielectric matrix)
  average eigenvalue GAMMA=   0.8338
  0.8338

 Free energy of the ion-electron system (eV)
  ---------------------------------------------------
  alpha Z        PSCENC =        12.51390764
  Ewald energy   TEWEN  =      4286.25630342
  -Hartree energ DENC   =     -4966.01784423
  -exchange      EXHF   =         0.00000000
  -V(xc)+E(xc)   XCENC  =       -35.42153433
  PAW double counting   =       424.71867744     -348.06309686
  entropy T*S    EENTRO =         0.00000000
  eigenvalues    EBANDS =      -167.35024323
  atomic energy  EATOM  =       771.13113078
  Solvation  Ediel_sol  =         0.00000000
  ---------------------------------------------------
  free energy    TOTEN  =       -22.23269937 eV

  energy without entropy =      -22.23269937  energy(sigma->0) =      -22.23269937


--------------------------------------------------------------------------------------------------------




--------------------------------------- Iteration      1(   7)  ---------------------------------------


    POTLOK:  cpu time    0.0200: real time    0.0237
    SETDIJ:  cpu time    0.0030: real time    0.0020
    EDDIAG:  cpu time    0.0250: real time    0.0257
  RMM-DIIS:  cpu time    0.0930: real time    0.0920
    ORTHCH:  cpu time    0.0020: real time    0.0026
 BZINTS: Fermi energy: -3.818468; 18.000000 electrons
         Band energy:-161.201089;  BLOECHL correction:  0.000000
       DOS:  cpu time    0.0000: real time    0.0002
    CHARGE:  cpu time    0.0110: real time    0.0115
    MIXING:  cpu time    0.0010: real time    0.0009
    --------------------------------------------
      LOOP:  cpu time    0.1550: real time    0.1586

 eigenvalue-minimisations  :   290
 total energy-change (2. order) : 0.3856999E+00  (-0.5558822E-01)
 number of electron      17.9999985 magnetization 
 augmentation part       -0.6054528 magnetization 

 Broyden mixing:
  rms(total) = 0.15113E+00    rms(broyden)= 0.15111E+00
  rms(prec ) = 0.15948E+00
  weight for this iteration     100.00

 eigenvalues of (default mixing * dielectric matrix)
  average eigenvalue GAMMA=   1.3663
  0.6657  2.0669

 Free energy of the ion-electron system (eV)
  ---------------------------------------------------
  alpha Z        PSCENC =        12.51390764
  Ewald energy   TEWEN  =      4286.25630342
  -Hartree energ DENC   =     -4971.40706371
  -exchange      EXHF   =         0.00000000
  -V(xc)+E(xc)   XCENC  =       -35.56553744
  PAW double counting   =       442.80273141     -366.37738218
  entropy T*S    EENTRO =         0.00000000
  eigenvalues    EBANDS =      -161.20108938
  atomic energy  EATOM  =       771.13113078
  Solvation  Ediel_sol  =         0.00000000
  ---------------------------------------------------
  free energy    TOTEN  =       -21.84699946 eV

  energy without entropy =      -21.84699946  energy(sigma->0) =      -21.84699946


--------------------------------------------------------------------------------------------------------




--------------------------------------- Iteration      1(   8)  ---------------------------------------


    POTLOK:  cpu time    0.0210: real time    0.0205
    SETDIJ:  cpu time    0.0020: real time    0.0020
    EDDIAG:  cpu time    0.0250: real time    0.0257
  RMM-DIIS:  cpu time    0.0980: real time    0.0977
    ORTHCH:  cpu time    0.0030: real time    0.0026
 BZINTS: Fermi energy: -3.702199; 18.000000 electrons
         Band energy:-156.979430;  BLOECHL correction:  0.000000
       DOS:  cpu time    0.0000: real time    0.0002
    CHARGE:  cpu time    0.0110: real time    0.0114
    MIXING:  cpu time    0.0010: real time    0.0014
    --------------------------------------------
      LOOP:  cpu time    0.1610: real time    0.1616

 eigenvalue-minimisations  :   307
 total energy-change (2. order) : 0.6002509E-01  (-0.2346759E-01)
 number of electron      17.9999985 magnetization 
 augmentation part       -0.5581062 magnetization 

 Broyden mixing:
  rms(total) = 0.35359E-01    rms(broyden)= 0.35339E-01
  rms(prec ) = 0.37687E-01
  weight for this iteration     100.00

 eigenvalues of (default mixing * dielectric matrix)
  average eigenvalue GAMMA=   1.4991
  1.9167  1.9167  0.6640

 Free energy of the ion-electron system (eV)
  ---------------------------------------------------
  alpha Z        PSCENC =        12.51390764
  Ewald energy   TEWEN  =      4286.25630342
  -Hartree energ DENC   =     -4975.32533867
  -exchange      EXHF   =         0.00000000
  -V(xc)+E(xc)   XCENC  =       -35.29221373
  PAW double counting   =       467.47020393     -391.56153751
  entropy T*S    EENTRO =         0.00000000
  eigenvalues    EBANDS =      -156.97943022
  atomic energy  EATOM  =       771.13113078
  Solvation  Ediel_sol  =         0.00000000
  ---------------------------------------------------
  free energy    TOTEN  =       -21.78697436 eV

  energy without entropy =      -21.78697436  energy(sigma->0) =      -21.78697436


--------------------------------------------------------------------------------------------------------




--------------------------------------- Iteration      1(   9)  ---------------------------------------


    POTLOK:  cpu time    0.0200: real time    0.0204
    SETDIJ:  cpu time    0.0030: real time    0.0020
    EDDIAG:  cpu time    0.0250: real time    0.0256
  RMM-DIIS:  cpu time    0.1090: real time    0.1083
    ORTHCH:  cpu time    0.0020: real time    0.0026
 BZINTS: Fermi energy: -3.630974; 18.000000 electrons
         Band energy:-155.676905;  BLOECHL correction:  0.000000
       DOS:  cpu time    0.0000: real time    0.0002
    CHARGE:  cpu time    0.0110: real time    0.0114
    MIXING:  cpu time    0.0010: real time    0.0009
    --------------------------------------------
      LOOP:  cpu time    0.1710: real time    0.1716

 eigenvalue-minimisations  :   336
 total energy-change (2. order) : 0.4724846E-02  (-0.8549977E-03)
 number of electron      17.9999985 magnetization 
 augmentation part       -0.5535983 magnetization 

 Broyden mixing:
  rms(total) = 0.95135E-02    rms(broyden)= 0.95098E-02
  rms(prec ) = 0.11728E-01
  weight for this iteration     100.00

 eigenvalues of (default mixing * dielectric matrix)
  average eigenvalue GAMMA=   1.5063
  0.6661  1.0471  2.4388  1.8732

 Free energy of the ion-electron system (eV)
  ---------------------------------------------------
  alpha Z        PSCENC =        12.51390764
  Ewald energy   TEWEN  =      4286.25630342
  -Hartree energ DENC   =     -4976.59817600
  -exchange      EXHF   =         0.00000000
  -V(xc)+E(xc)   XCENC  =       -35.23974188
  PAW double counting   =       472.97123228     -397.14000067
  entropy T*S    EENTRO =         0.00000000
  eigenvalues    EBANDS =      -155.67690509
  atomic energy  EATOM  =       771.13113078
  Solvation  Ediel_sol  =         0.00000000
  ---------------------------------------------------
  free energy    TOTEN  =       -21.78224952 eV

  energy without entropy =      -21.78224952  energy(sigma->0) =      -21.78224952


--------------------------------------------------------------------------------------------------------




--------------------------------------- Iteration      1(  10)  ---------------------------------------


    POTLOK:  cpu time    0.0210: real time    0.0204
    SETDIJ:  cpu time    0.0020: real time    0.0020
    EDDIAG:  cpu time    0.0250: real time    0.0256
  RMM-DIIS:  cpu time    0.1070: real time    0.1066
    ORTHCH:  cpu time    0.0030: real time    0.0026
 BZINTS: Fermi energy: -3.573716; 18.000000 electrons
         Band energy:-154.551315;  BLOECHL correction:  0.000000
       DOS:  cpu time    0.0000: real time    0.0002
    CHARGE:  cpu time    0.0110: real time    0.0115
    MIXING:  cpu time    0.0010: real time    0.0010
    --------------------------------------------
      LOOP:  cpu time    0.1700: real time    0.1700

 eigenvalue-minimisations  :   332
 total energy-change (2. order) : 0.6719703E-03  (-0.1690023E-03)
 number of electron      17.9999985 magnetization 
 augmentation part       -0.5577981 magnetization 

 Broyden mixing:
  rms(total) = 0.44002E-02    rms(broyden)= 0.43989E-02
  rms(prec ) = 0.60609E-02
  weight for this iteration     100.00

 eigenvalues of (default mixing * dielectric matrix)
  average eigenvalue GAMMA=   1.6740
  0.6667  1.0355  2.1596  2.2540  2.2540

 Free energy of the ion-electron system (eV)
  ---------------------------------------------------
  alpha Z        PSCENC =        12.51390764
  Ewald energy   TEWEN  =      4286.25630342
  -Hartree energ DENC   =     -4977.71416879
  -exchange      EXHF   =         0.00000000
  -V(xc)+E(xc)   XCENC  =       -35.21801666
  PAW double counting   =       475.33782815     -399.53724684
  entropy T*S    EENTRO =         0.00000000
  eigenvalues    EBANDS =      -154.55131526
  atomic energy  EATOM  =       771.13113078
  Solvation  Ediel_sol  =         0.00000000
  ---------------------------------------------------
  free energy    TOTEN  =       -21.78157755 eV

  energy without entropy =      -21.78157755  energy(sigma->0) =      -21.78157755


--------------------------------------------------------------------------------------------------------




--------------------------------------- Iteration      1(  11)  ---------------------------------------


    POTLOK:  cpu time    0.0210: real time    0.0204
    SETDIJ:  cpu time    0.0020: real time    0.0020
    EDDIAG:  cpu time    0.0250: real time    0.0257
  RMM-DIIS:  cpu time    0.1030: real time    0.1020
    ORTHCH:  cpu time    0.0020: real time    0.0026
 BZINTS: Fermi energy: -3.515849; 18.000000 electrons
         Band energy:-153.411378;  BLOECHL correction:  0.000000
       DOS:  cpu time    0.0000: real time    0.0002
    CHARGE:  cpu time    0.0120: real time    0.0116
    MIXING:  cpu time    0.0010: real time    0.0010
    --------------------------------------------
      LOOP:  cpu time    0.1660: real time    0.1655

 eigenvalue-minimisations  :   313
 total energy-change (2. order) : 0.7022468E-04  (-0.1774738E-03)
 number of electron      17.9999985 magnetization 
 augmentation part       -0.5542911 magnetization 

 Broyden mixing:
  rms(total) = 0.55959E-02    rms(broyden)= 0.55953E-02
  rms(prec ) = 0.64178E-02
  weight for this iteration     100.00

 eigenvalues of (default mixing * dielectric matrix)
  average eigenvalue GAMMA=   1.6680
  2.8920  2.7038  0.6673  0.9232  1.4108  1.4108

 Free energy of the ion-electron system (eV)
  ---------------------------------------------------
  alpha Z        PSCENC =        12.51390764
  Ewald energy   TEWEN  =      4286.25630342
  -Hartree energ DENC   =     -4978.87726999
  -exchange      EXHF   =         0.00000000
  -V(xc)+E(xc)   XCENC  =       -35.20455690
  PAW double counting   =       474.75376941     -398.94341352
  entropy T*S    EENTRO =         0.00000000
  eigenvalues    EBANDS =      -153.41137817
  atomic energy  EATOM  =       771.13113078
  Solvation  Ediel_sol  =         0.00000000
  ---------------------------------------------------
  free energy    TOTEN  =       -21.78150732 eV

  energy without entropy =      -21.78150732  energy(sigma->0) =      -21.78150732


--------------------------------------------------------------------------------------------------------




--------------------------------------- Iteration      1(  12)  ---------------------------------------


    POTLOK:  cpu time    0.0200: real time    0.0205
    SETDIJ:  cpu time    0.0020: real time    0.0020
    EDDIAG:  cpu time    0.0250: real time    0.0256
  RMM-DIIS:  cpu time    0.1010: real time    0.1001
    ORTHCH:  cpu time    0.0020: real time    0.0027
 BZINTS: Fermi energy: -3.481558; 18.000000 electrons
         Band energy:-152.771141;  BLOECHL correction:  0.000000
       DOS:  cpu time    0.0000: real time    0.0002
    CHARGE:  cpu time    0.0110: real time    0.0115
    MIXING:  cpu time    0.0010: real time    0.0011
    --------------------------------------------
      LOOP:  cpu time    0.1630: real time    0.1638

 eigenvalue-minimisations  :   305
 total energy-change (2. order) : 0.2007234E-03  (-0.5671368E-04)
 number of electron      17.9999985 magnetization 
 augmentation part       -0.5568113 magnetization 

 Broyden mixing:
  rms(total) = 0.16434E-02    rms(broyden)= 0.16429E-02
  rms(prec ) = 0.22546E-02
  weight for this iteration     100.00

 eigenvalues of (default mixing * dielectric matrix)
  average eigenvalue GAMMA=   1.9521
  3.8618  2.7469  2.7469  0.6672  0.9664  1.3375  1.3375

 Free energy of the ion-electron system (eV)
  ---------------------------------------------------
  alpha Z        PSCENC =        12.51390764
  Ewald energy   TEWEN  =      4286.25630342
  -Hartree energ DENC   =     -4979.52299880
  -exchange      EXHF   =         0.00000000
  -V(xc)+E(xc)   XCENC  =       -35.20105643
  PAW double counting   =       474.93984964     -399.12730149
  entropy T*S    EENTRO =         0.00000000
  eigenvalues    EBANDS =      -152.77114136
  atomic energy  EATOM  =       771.13113078
  Solvation  Ediel_sol  =         0.00000000
  ---------------------------------------------------
  free energy    TOTEN  =       -21.78130660 eV

  energy without entropy =      -21.78130660  energy(sigma->0) =      -21.78130660


--------------------------------------------------------------------------------------------------------




--------------------------------------- Iteration      1(  13)  ---------------------------------------


    POTLOK:  cpu time    0.0220: real time    0.0216
    SETDIJ:  cpu time    0.0020: real time    0.0020
    EDDIAG:  cpu time    0.0260: real time    0.0259
  RMM-DIIS:  cpu time    0.0960: real time    0.0954
    ORTHCH:  cpu time    0.0020: real time    0.0026
 BZINTS: Fermi energy: -3.442285; 18.000000 electrons
         Band energy:-152.046469;  BLOECHL correction:  0.000000
       DOS:  cpu time    0.0000: real time    0.0002
    CHARGE:  cpu time    0.0120: real time    0.0115
    MIXING:  cpu time    0.0010: real time    0.0011
    --------------------------------------------
      LOOP:  cpu time    0.1600: real time    0.1604

 eigenvalue-minimisations  :   299
 total energy-change (2. order) :-0.2529875E-03  (-0.1504880E-04)
 number of electron      17.9999985 magnetization 
 augmentation part       -0.5553703 magnetization 

 Broyden mixing:
  rms(total) = 0.19678E-02    rms(broyden)= 0.19676E-02
  rms(prec ) = 0.22073E-02
  weight for this iteration     100.00

 eigenvalues of (default mixing * dielectric matrix)
  average eigenvalue GAMMA=   1.8999
  4.7282  2.7064  2.3723  1.4162  1.4162  0.6673  0.9463  0.9463

 Free energy of the ion-electron system (eV)
  ---------------------------------------------------
  alpha Z        PSCENC =        12.51390764
  Ewald energy   TEWEN  =      4286.25630342
  -Hartree energ DENC   =     -4980.24965884
  -exchange      EXHF   =         0.00000000
  -V(xc)+E(xc)   XCENC  =       -35.19437914
  PAW double counting   =       474.89169438     -399.08408896
  entropy T*S    EENTRO =         0.00000000
  eigenvalues    EBANDS =      -152.04646887
  atomic energy  EATOM  =       771.13113078
  Solvation  Ediel_sol  =         0.00000000
  ---------------------------------------------------
  free energy    TOTEN  =       -21.78155959 eV

  energy without entropy =      -21.78155959  energy(sigma->0) =      -21.78155959


--------------------------------------------------------------------------------------------------------




--------------------------------------- Iteration      1(  14)  ---------------------------------------


    POTLOK:  cpu time    0.0210: real time    0.0234
    SETDIJ:  cpu time    0.0020: real time    0.0020
    EDDIAG:  cpu time    0.0260: real time    0.0256
  RMM-DIIS:  cpu time    0.0870: real time    0.0865
    ORTHCH:  cpu time    0.0020: real time    0.0026
 BZINTS: Fermi energy: -3.434446; 18.000000 electrons
         Band energy:-151.903711;  BLOECHL correction:  0.000000
       DOS:  cpu time    0.0000: real time    0.0002
    CHARGE:  cpu time    0.0120: real time    0.0114
    MIXING:  cpu time    0.0010: real time    0.0012
    --------------------------------------------
      LOOP:  cpu time    0.1510: real time    0.1529

 eigenvalue-minimisations  :   251
 total energy-change (2. order) :-0.3593590E-04  (-0.2371936E-05)
 number of electron      17.9999985 magnetization 
 augmentation part       -0.5565399 magnetization 

 Broyden mixing:
  rms(total) = 0.49641E-03    rms(broyden)= 0.49570E-03
  rms(prec ) = 0.68864E-03
  weight for this iteration     100.00

 eigenvalues of (default mixing * dielectric matrix)
  average eigenvalue GAMMA=   2.1570
  6.4008  2.9722  2.3836  2.3836  1.5025  0.6674  1.1877  0.9576  0.9576

 Free energy of the ion-electron system (eV)
  ---------------------------------------------------
  alpha Z        PSCENC =        12.51390764
  Ewald energy   TEWEN  =      4286.25630342
  -Hartree energ DENC   =     -4980.39478669
  -exchange      EXHF   =         0.00000000
  -V(xc)+E(xc)   XCENC  =       -35.19664422
  PAW double counting   =       474.70689305     -398.89468899
  entropy T*S    EENTRO =         0.00000000
  eigenvalues    EBANDS =      -151.90371051
  atomic energy  EATOM  =       771.13113078
  Solvation  Ediel_sol  =         0.00000000
  ---------------------------------------------------
  free energy    TOTEN  =       -21.78159552 eV

  energy without entropy =      -21.78159552  energy(sigma->0) =      -21.78159552


--------------------------------------------------------------------------------------------------------




--------------------------------------- Iteration      1(  15)  ---------------------------------------


    POTLOK:  cpu time    0.0210: real time    0.0221
    SETDIJ:  cpu time    0.0030: real time    0.0020
    EDDIAG:  cpu time    0.0250: real time    0.0256
  RMM-DIIS:  cpu time    0.0720: real time    0.0717
    ORTHCH:  cpu time    0.0020: real time    0.0026
 BZINTS: Fermi energy: -3.424763; 18.000000 electrons
         Band energy:-151.742433;  BLOECHL correction:  0.000000
       DOS:  cpu time    0.0000: real time    0.0002
    CHARGE:  cpu time    0.0120: real time    0.0115
    MIXING:  cpu time    0.0010: real time    0.0013
    --------------------------------------------
      LOOP:  cpu time    0.1360: real time    0.1370

 eigenvalue-minimisations  :   198
 total energy-change (2. order) :-0.1123192E-03  (-0.1218220E-05)
 number of electron      17.9999985 magnetization 
 augmentation part       -0.5562197 magnetization 

 Broyden mixing:
  rms(total) = 0.29014E-03    rms(broyden)= 0.28919E-03
  rms(prec ) = 0.38332E-03
  weight for this iteration     100.00

 eigenvalues of (default mixing * dielectric matrix)
  average eigenvalue GAMMA=   2.1397
  6.5736  3.5029  2.6133  1.7170  1.7170  1.6011  0.6674  1.0492  1.0172  0.9382

 Free energy of the ion-electron system (eV)
  ---------------------------------------------------
  alpha Z        PSCENC =        12.51390764
  Ewald energy   TEWEN  =      4286.25630342
  -Hartree energ DENC   =     -4980.55615744
  -exchange      EXHF   =         0.00000000
  -V(xc)+E(xc)   XCENC  =       -35.19629131
  PAW double counting   =       474.73804632     -398.92621389
  entropy T*S    EENTRO =         0.00000000
  eigenvalues    EBANDS =      -151.74243337
  atomic energy  EATOM  =       771.13113078
  Solvation  Ediel_sol  =         0.00000000
  ---------------------------------------------------
  free energy    TOTEN  =       -21.78170784 eV

  energy without entropy =      -21.78170784  energy(sigma->0) =      -21.78170784


--------------------------------------------------------------------------------------------------------




--------------------------------------- Iteration      1(  16)  ---------------------------------------


    POTLOK:  cpu time    0.0220: real time    0.0218
    SETDIJ:  cpu time    0.0020: real time    0.0020
    EDDIAG:  cpu time    0.0260: real time    0.0256
  RMM-DIIS:  cpu time    0.0720: real time    0.0718
    ORTHCH:  cpu time    0.0020: real time    0.0026
 BZINTS: Fermi energy: -3.420889; 18.000000 electrons
         Band energy:-151.681558;  BLOECHL correction:  0.000000
       DOS:  cpu time    0.0000: real time    0.0002
    CHARGE:  cpu time    0.0110: real time    0.0114
    MIXING:  cpu time    0.0020: real time    0.0014
    --------------------------------------------
      LOOP:  cpu time    0.1370: real time    0.1368

 eigenvalue-minimisations  :   187
 total energy-change (2. order) :-0.3658926E-04  (-0.4861588E-06)
 number of electron      17.9999985 magnetization 
 augmentation part       -0.5563919 magnetization 

 Broyden mixing:
  rms(total) = 0.17120E-03    rms(broyden)= 0.16963E-03
  rms(prec ) = 0.21664E-03
  weight for this iteration     100.00

 eigenvalues of (default mixing * dielectric matrix)
  average eigenvalue GAMMA=   2.3222
  7.3367  4.0800  3.0270  2.6605  2.1338  1.5332  0.6674  1.1495  1.0705  0.9659
  0.9195

 Free energy of the ion-electron system (eV)
  ---------------------------------------------------
  alpha Z        PSCENC =        12.51390764
  Ewald energy   TEWEN  =      4286.25630342
  -Hartree energ DENC   =     -4980.61621926
  -exchange      EXHF   =         0.00000000
  -V(xc)+E(xc)   XCENC  =       -35.19622814
  PAW double counting   =       474.79112751     -398.98020794
  entropy T*S    EENTRO =         0.00000000
  eigenvalues    EBANDS =      -151.68155844
  atomic energy  EATOM  =       771.13113078
  Solvation  Ediel_sol  =         0.00000000
  ---------------------------------------------------
  free energy    TOTEN  =       -21.78174443 eV

  energy without entropy =      -21.78174443  energy(sigma->0) =      -21.78174443


--------------------------------------------------------------------------------------------------------




--------------------------------------- Iteration      1(  17)  ---------------------------------------


    POTLOK:  cpu time    0.0210: real time    0.0214
    SETDIJ:  cpu time    0.0020: real time    0.0020
    EDDIAG:  cpu time    0.0260: real time    0.0256
  RMM-DIIS:  cpu time    0.0630: real time    0.0625
    ORTHCH:  cpu time    0.0020: real time    0.0026
 BZINTS: Fermi energy: -3.419202; 18.000000 electrons
         Band energy:-151.644443;  BLOECHL correction:  0.000000
       DOS:  cpu time    0.0000: real time    0.0002
    CHARGE:  cpu time    0.0110: real time    0.0114
    MIXING:  cpu time    0.0020: real time    0.0015
    --------------------------------------------
      LOOP:  cpu time    0.1270: real time    0.1272

 eigenvalue-minimisations  :   160
 total energy-change (2. order) :-0.5162982E-04  (-0.3311895E-06)
 number of electron      17.9999985 magnetization 
 augmentation part       -0.5564013 magnetization 

 Broyden mixing:
  rms(total) = 0.15400E-03    rms(broyden)= 0.15224E-03
  rms(prec ) = 0.17471E-03
  weight for this iteration     100.00

 eigenvalues of (default mixing * dielectric matrix)
  average eigenvalue GAMMA=   2.3207
  7.8007  4.9177  2.9637  2.5153  2.0988  1.4757  1.4757  0.6674  1.0422  1.0422
  0.9247  0.9247

 Free energy of the ion-electron system (eV)
  ---------------------------------------------------
  alpha Z        PSCENC =        12.51390764
  Ewald energy   TEWEN  =      4286.25630342
  -Hartree energ DENC   =     -4980.65422859
  -exchange      EXHF   =         0.00000000
  -V(xc)+E(xc)   XCENC  =       -35.19638832
  PAW double counting   =       474.74353000     -398.93160784
  entropy T*S    EENTRO =         0.00000000
  eigenvalues    EBANDS =      -151.64444315
  atomic energy  EATOM  =       771.13113078
  Solvation  Ediel_sol  =         0.00000000
  ---------------------------------------------------
  free energy    TOTEN  =       -21.78179606 eV

  energy without entropy =      -21.78179606  energy(sigma->0) =      -21.78179606


--------------------------------------------------------------------------------------------------------




--------------------------------------- Iteration      1(  18)  ---------------------------------------


    POTLOK:  cpu time    0.0210: real time    0.0213
    SETDIJ:  cpu time    0.0020: real time    0.0020
    EDDIAG:  cpu time    0.0260: real time    0.0256
  RMM-DIIS:  cpu time    0.0590: real time    0.0585
    ORTHCH:  cpu time    0.0020: real time    0.0026
 BZINTS: Fermi energy: -3.419342; 18.000000 electrons
         Band energy:-151.645774;  BLOECHL correction:  0.000000
       DOS:  cpu time    0.0000: real time    0.0002
    --------------------------------------------
      LOOP:  cpu time    0.1100: real time    0.1102

 eigenvalue-minimisations  :    88
 total energy-change (2. order) :-0.7011706E-05  (-0.4107028E-07)
 number of electron      17.9999985 magnetization 
 augmentation part       -0.5564013 magnetization 

 Free energy of the ion-electron system (eV)
  ---------------------------------------------------
  alpha Z        PSCENC =        12.51390764
  Ewald energy   TEWEN  =      4286.25630342
  -Hartree energ DENC   =     -4980.65272336
  -exchange      EXHF   =         0.00000000
  -V(xc)+E(xc)   XCENC  =       -35.19634346
  PAW double counting   =       474.75421159     -398.94251567
  entropy T*S    EENTRO =         0.00000000
  eigenvalues    EBANDS =      -151.64577402
  atomic energy  EATOM  =       771.13113078
  Solvation  Ediel_sol  =         0.00000000
  ---------------------------------------------------
  free energy    TOTEN  =       -21.78180307 eV

  energy without entropy =      -21.78180307  energy(sigma->0) =      -21.78180307


--------------------------------------------------------------------------------------------------------




 average (electrostatic) potential at core
  the test charge radii are     1.2296  0.9698
  (the norm of the test charge is              1.0000)
       1 -46.8883       2 -94.7190       3 -94.7189
 
 
 
 E-fermi :  -3.4193     XC(G=0):  -2.8767     alpha+bet : -2.6672


 k-point     1 :       0.0000    0.0000    0.0000
  band No.  band energies     occupation 
      1     -17.4657      2.00000
      2     -16.2573      2.00000
      3      -8.9843      2.00000
      4      -6.0233      2.00000
      5      -6.0233      2.00000
      6      -5.1625      2.00000
      7      -4.9176      2.00000
      8      -4.9175      2.00000
      9      -3.4418      2.00000
     10      -0.6703      0.00000
     11      -0.6702      0.00000
     12      -0.4474      0.00000
     13      -0.4473      0.00000
     14       1.9880      0.00000

 k-point     2 :       0.1250    0.0000    0.0000
  band No.  band energies     occupation 
      1     -17.2516      2.00000
      2     -16.1549      2.00000
      3      -8.7396      2.00000
      4      -6.4867      2.00000
      5      -5.9700      2.00000
      6      -5.7890      2.00000
      7      -5.2532      2.00000
      8      -4.4846      2.00000
      9      -3.5801      2.00000
     10      -0.9512      0.00000
     11      -0.8846      0.00000
     12      -0.6838      0.00000
     13      -0.3154      0.00000
     14       2.3560      0.00000

 k-point     3 :       0.2500    0.0000    0.0000
  band No.  band energies     occupation 
      1     -16.6828      2.00000
      2     -15.8859      2.00000
      3      -8.3732      2.00000
      4      -7.2138      2.00000
      5      -6.9507      2.00000
      6      -5.8881      2.00000
      7      -5.2019      2.00000
      8      -4.7360      2.00000
      9      -4.1481      2.00000
     10      -1.2746      0.00000
     11      -1.0989      0.00000
     12      -0.5560      0.00000
     13       0.3016      0.00000
     14       3.1744      0.00000

 k-point     4 :       0.3750    0.0000    0.0000
  band No.  band energies     occupation 
      1     -16.0076      2.00000
      2     -15.5773      2.00000
      3      -8.8109      2.00000
      4      -7.8184      2.00000
      5      -7.3461      2.00000
      6      -6.3856      2.00000
      7      -5.1453      2.00000
      8      -4.6116      2.00000
      9      -4.3432      2.00000
     10      -1.2806      0.00000
     11      -1.0011      0.00000
     12       0.1626      0.00000
     13       0.6951      0.00000
     14       3.7057      0.00000

 k-point     5 :       0.5000    0.0000    0.0000
  band No.  band energies     occupation 
      1     -15.6793      2.00000
      2     -15.4339      2.00000
      3      -9.1437      2.00000
      4      -8.1832      2.00000
      5      -7.4718      2.00000
      6      -6.5659      2.00000
      7      -5.2839      2.00000
      8      -4.3843      2.00000
      9      -4.0621      2.00000
     10      -1.2576      0.00000
     11      -0.7421      0.00000
     12       0.4615      0.00000
     13       0.8111      0.00000
     14       2.7468      0.00000

 k-point     6 :       0.1250    0.1250    0.0000
  band No.  band energies     occupation 
      1     -16.8587      2.00000
      2     -15.9678      2.00000
      3      -8.3922      2.00000
      4      -7.0510      2.00000
      5      -6.5323      2.00000
      6      -6.0670      2.00000
      7      -5.4497      2.00000
      8      -4.3502      2.00000
      9      -3.9522      2.00000
     10      -1.3501      0.00000
     11      -0.9723      0.00000
     12      -0.9598      0.00000
     13       0.2791      0.00000
     14       2.9534      0.00000

 k-point     7 :       0.2500    0.1250    0.0000
  band No.  band energies     occupation 
      1     -16.2250      2.00000
      2     -15.6690      2.00000
      3      -8.4551      2.00000
      4      -7.4772      2.00000
      5      -7.2146      2.00000
      6      -6.5712      2.00000
      7      -5.3504      2.00000
      8      -4.7122      2.00000
      9      -4.2355      2.00000
     10      -1.4332      0.00000
     11      -0.9852      0.00000
     12      -0.4893      0.00000
     13       0.7870      0.00000
     14       3.9226      0.00000

 k-point     8 :       0.3750    0.1250    0.0000
  band No.  band energies     occupation 
      1     -15.6945      2.00000
      2     -15.4250      2.00000
      3      -8.8564      2.00000
      4      -8.2403      2.00000
      5      -7.3444      2.00000
      6      -6.5882      2.00000
      7      -5.3352      2.00000
      8      -5.1939      2.00000
      9      -3.9085      2.00000
     10      -1.2391      0.00000
     11      -0.7288      0.00000
     12       0.1332      0.00000
     13       0.8205      0.00000
     14       3.2739      0.00000

 k-point     9 :       0.2500    0.2500    0.0000
  band No.  band energies     occupation 
      1     -15.7095      2.00000
      2     -15.4161      2.00000
      3      -8.4959      2.00000
      4      -8.2907      2.00000
      5      -7.0176      2.00000
      6      -6.6366      2.00000
      7      -6.3180      2.00000
      8      -5.0605      2.00000
      9      -3.9376      2.00000
     10      -1.2899      0.00000
     11      -0.6788      0.00000
     12      -0.3649      0.00000
     13       1.1074      0.00000
     14       4.1062      0.00000

 k-point    10 :       0.3750    0.2500    0.0000
  band No.  band energies     occupation 
      1     -15.4746      2.00000
      2     -15.2969      2.00000
      3      -8.6751      2.00000
      4      -8.3272      2.00000
      5      -7.3018      2.00000
      6      -6.6394      2.00000
      7      -6.4094      2.00000
      8      -5.4466      2.00000
      9      -3.5704      2.00000
     10      -1.6162      0.00000
     11      -0.3058      0.00000
     12      -0.1289      0.00000
     13       1.2517      0.00000
     14       3.5179      0.00000


--------------------------------------------------------------------------------------------------------


 soft charge-density along one line, spin component           1
         0         1         2         3         4         5         6         7         8         9
 total charge-density along one line
 
 pseudopotential strength for first ion, spin component:           1
 -9.989  -0.000   0.000  -0.000   0.000   0.103   0.000  -0.000
 -0.000  -9.990  -0.000  -0.000  -0.000   0.000   0.102   0.000
  0.000  -0.000  -9.969  -0.000  -0.000  -0.000   0.000   0.101
 -0.000  -0.000  -0.000  -9.990  -0.000   0.000   0.000   0.000
  0.000  -0.000  -0.000  -0.000  -9.989  -0.000   0.000   0.000
  0.103   0.000  -0.000   0.000  -0.000   0.098  -0.000   0.000
  0.000   0.102   0.000   0.000   0.000  -0.000   0.098  -0.000
 -0.000   0.000   0.101   0.000   0.000   0.000  -0.000   0.098
  0.000   0.000   0.000   0.102   0.000  -0.000  -0.000  -0.000
 -0.000   0.000   0.000   0.000   0.103   0.000  -0.000  -0.000
  0.000  -0.000  -0.005   0.000  -0.000  -0.000   0.000   0.000
 -0.000   0.000   0.001  -0.000   0.000   0.000  -0.000  -0.000
 -0.000  -0.000  -0.000  -0.000  -0.007   0.000  -0.000   0.000
 -0.000   0.000   0.000  -0.000  -0.000  -0.000  -0.000  -0.000
 -0.007  -0.000   0.000  -0.000  -0.000  -0.000  -0.000  -0.000
  0.000   0.000   0.000   0.000   0.004  -0.000   0.000  -0.000
  0.000  -0.000  -0.000   0.000   0.000  -0.000   0.000   0.000
  0.004   0.000  -0.000   0.000   0.000   0.000  -0.000   0.000
 total augmentation occupancy for first ion, spin component:           1
  0.968   0.000  -0.000  -0.000  -0.000   0.639   0.000  -0.000  -0.000  -0.000  -0.000   0.000   0.000  -0.000  -0.066  -0.000
  0.000   0.910   0.000   0.000  -0.000   0.000   0.880   0.000   0.000   0.000   0.000   0.000  -0.000   0.000   0.000   0.000
 -0.000   0.000   1.032  -0.000   0.000  -0.000   0.000   0.540   0.000   0.000   0.112  -0.019  -0.000   0.000   0.000   0.000
  0.000   0.000  -0.000   0.910   0.000   0.000   0.000  -0.000   0.880   0.000  -0.000   0.000   0.000  -0.000  -0.000   0.000
 -0.000  -0.000   0.000   0.000   0.968  -0.000  -0.000   0.000   0.000   0.639   0.000  -0.000  -0.066   0.000  -0.000   0.007
  0.639  -0.000  -0.000   0.000  -0.000   0.727   0.000  -0.000  -0.000   0.000   0.000   0.000   0.000   0.000  -0.141  -0.000
  0.000   0.880  -0.000   0.000  -0.000   0.000   1.158   0.000   0.000   0.000   0.000   0.000  -0.000   0.000   0.000   0.000
 -0.000   0.000   0.540  -0.000   0.000  -0.000   0.000   0.516   0.000   0.000   0.066  -0.022  -0.000  -0.000   0.000   0.000
  0.000   0.000   0.000   0.880   0.000   0.000   0.000   0.000   1.158   0.000   0.000  -0.000   0.000  -0.000   0.000   0.000
 -0.000   0.000   0.000   0.000   0.639  -0.000   0.000   0.000   0.000   0.727   0.000  -0.000  -0.141  -0.000  -0.000   0.023
 -0.000   0.000   0.112  -0.000   0.000   0.000   0.000   0.066   0.000   0.000   1.209  -0.183   0.000   0.000  -0.000   0.000
  0.000   0.000  -0.019   0.000  -0.000   0.000   0.000  -0.022  -0.000  -0.000  -0.183   0.041   0.000   0.000  -0.000   0.000
  0.000   0.000  -0.000   0.000  -0.066   0.000  -0.000  -0.000  -0.000  -0.141   0.000   0.000   0.217   0.000   0.000  -0.032
 -0.000   0.000   0.000  -0.000   0.000   0.000  -0.000   0.000  -0.000   0.000   0.000  -0.000   0.000   0.265   0.000  -0.000
 -0.066   0.000   0.000  -0.000  -0.000  -0.141   0.000   0.000   0.000  -0.000  -0.000  -0.000   0.000   0.000   0.217  -0.000
 -0.000   0.000   0.000   0.000   0.007  -0.000   0.000   0.000   0.000   0.023   0.000   0.000  -0.032   0.000  -0.000   0.005
 -0.000  -0.000  -0.000   0.000   0.000   0.000  -0.000   0.000   0.000   0.000   0.000   0.000  -0.000  -0.038   0.000   0.000
  0.007   0.000  -0.000  -0.000   0.000   0.023   0.000  -0.000   0.000   0.000  -0.000   0.000  -0.000   0.000  -0.032   0.000


------------------------ aborting loop because EDIFF is reached ----------------------------------------


    CHARGE:  cpu time    0.0110: real time    0.0115
    FORLOC:  cpu time    0.0020: real time    0.0022
    FORNL :  cpu time    0.0190: real time    0.0185
    STRESS:  cpu time    0.0990: real time    0.0993
    FORCOR:  cpu time    0.0240: real time    0.0245
    FORHAR:  cpu time    0.0060: real time    0.0054
    MIXING:  cpu time    0.0010: real time    0.0015
    OFIELD:  cpu time    0.0000: real time    0.0000

  DFT-D2 method for vdW energy calculation
  -------------------------------------------------------------------

  Parameters of vdW forcefield:
         C6(Jnm^6/mol)     R0(A)
   -----------------------------
   Mo      24.670          1.639
   S        5.570          1.683

  IVDW =   1
  VDW_RADIUS =    50.000 A
  VDW_S6 =     0.750
  VDW_SR =     1.000
  VDW_D =    20.000
  LVDW_EWALD = F

  Number of pair interactions contributing to vdW energy:   12957
  Edisp (eV):   -0.59091
    FORVDW:  cpu time    0.0110: real time    0.0148

  FORCE on cell =-STRESS in cart. coord.  units (eV):
  Direction    XX          YY          ZZ          XY          YZ          ZX
  --------------------------------------------------------------------------------------
  Alpha Z    12.51391    12.51391    12.51391
  Ewald    4853.12264  4853.12308 -5419.98957     0.00019     0.00000     0.00012
  Hartree  4942.39816  4942.39817 -4904.14185     0.00002    -0.00000    -0.00000
  E(xc)     -70.30726   -70.30727   -70.91046    -0.00001     0.00000     0.00000
  Local  -10076.41372-10076.41448 10037.26374    -0.00058    -0.00006    -0.00009
  n-local   127.04381   125.66061   131.57061    -0.23613    -0.00000    -0.00001
  augment   -25.61698   -25.61671   -26.72243     0.00023     0.00001    -0.00000
  Kinetic   236.08414   238.89074   239.99888    -7.43240     0.00002     0.00002
  Fock        0.00000     0.00000     0.00000     0.00000     0.00000     0.00000
  vdW         0.16041     0.16041    -0.13425     0.00000     0.00000    -0.00000
  -------------------------------------------------------------------------------------
  Total      -0.30322    -0.30322    -0.55144    -0.00000     0.00000     0.00000
  in kB      -2.05046    -2.05046    -3.72902    -0.00000     0.00000     0.00000
  external pressure =       -2.61 kB  Pullay stress =        0.00 kB


 VOLUME and BASIS-vectors are now :
 -----------------------------------------------------------------------------
  energy-cutoff  :      300.00
  volume of cell :      236.93
      direct lattice vectors                 reciprocal lattice vectors
     3.190315730  0.000000000  0.000000000     0.313448600  0.180969634  0.000000000
    -1.595157865  2.762894468  0.000000000     0.000000000  0.361939267  0.000000000
     0.000000000  0.000000000 26.879004300     0.000000000  0.000000000  0.037203759

  length of vectors
     3.190315730  3.190315730 26.879004300     0.361939267  0.361939267  0.037203759


 FORCES acting on ions
    electron-ion (+dipol)            ewald-force                    non-local-force                 convergence-correction
 -----------------------------------------------------------------------------------------------
   -.673E-05 -.299E-05 0.113E-03   0.931E-04 -.108E-03 0.307E-06   0.347E-17 0.000E+00 0.000E+00   0.129E-08 -.249E-08 -.626E-06
   -.859E-03 0.489E-03 0.579E+03   -.864E-04 0.538E-04 -.584E+03   0.104E-16 0.694E-17 0.484E+01   -.123E-07 0.660E-08 0.283E-02
   0.865E-03 0.503E-03 -.579E+03   -.674E-05 0.538E-04 0.584E+03   0.173E-17 0.347E-17 -.484E+01   0.189E-07 0.640E-08 -.284E-02
 -----------------------------------------------------------------------------------------------
   -.600E-06 0.989E-03 0.388E-03   0.897E-14 0.972E-14 -.114E-12   0.156E-16 0.104E-16 0.000E+00   0.795E-08 0.105E-07 -.170E-05
 
 
 POSITION                                       TOTAL-FORCE (eV/Angst)
 -----------------------------------------------------------------------------------
     -0.00000      1.84193      3.71975         0.000000     -0.000000     -0.000000
      1.59516      0.92096      2.15487        -0.000000     -0.000000      0.111590
      1.59516      0.92096      5.28464         0.000000      0.000000     -0.111590
 -----------------------------------------------------------------------------------
    total drift:                               -0.000001      0.000989      0.000386


--------------------------------------------------------------------------------------------------------



  FREE ENERGIE OF THE ION-ELECTRON SYSTEM (eV)
  ---------------------------------------------------
  free  energy   TOTEN  =       -22.37271214 eV

  energy  without entropy=      -22.37271214  energy(sigma->0) =      -22.37271214
 


--------------------------------------------------------------------------------------------------------


    POTLOK:  cpu time    0.0260: real time    0.0250


--------------------------------------------------------------------------------------------------------


     LOOP+:  cpu time    3.1075: real time    3.2279
    4ORBIT:  cpu time    0.0000: real time    0.0000
 BZINTS: Fermi energy: -3.419342; 18.000000 electrons
         Band energy:-151.645774;  BLOECHL correction:  0.000000

 total amount of memory used by VASP MPI-rank0    40899. kBytes
=======================================================================

   base      :      30000. kBytes
   nonl-proj :       4175. kBytes
   fftplans  :       1946. kBytes
   grid      :       3121. kBytes
   one-center:         31. kBytes
   wavefun   :       1626. kBytes
 
  
  
 General timing and accounting informations for this job:
 ========================================================
  
                  Total CPU time used (sec):        3.898
                            User time (sec):        3.811
                          System time (sec):        0.087
                         Elapsed time (sec):        5.506
  
                   Maximum memory used (kb):       33588.
                   Average memory used (kb):           0.
  
                          Minor page faults:         8498
                          Major page faults:          148
                 Voluntary context switches:         2422
