perl: warning: Setting locale failed.
perl: warning: Please check that your locale settings:
	LANGUAGE = (unset),
	LC_ALL = (unset),
	LC_CTYPE = "UTF-8",
	LANG = "en_US.iso885915"
    are supported and installed on your system.
perl: warning: Falling back to the standard locale ("C").
Starting job 28532686 ("jobname") on c15-7 at Fri Nov 8 11:57:04 CET 2019
 running on    4 total cores
 distrk:  each k-point on    4 cores,    1 groups
 distr:  one band on    2 cores,    2 groups
 using from now: INCAR     
 vasp.5.4.4.18Apr17-6-g9f103f2a35 (build Jun 30 2017 11:15:00) complex          
  
 POSCAR found type information on POSCAR  Mo S 
 POSCAR found :  2 types and       3 ions
 scaLAPACK will be used
 LDA part: xc-table for Pade appr. of Perdew
 POSCAR, INCAR and KPOINTS ok, starting setup
 FFT: planning ...
 WAVECAR not read
 entering main loop
       N       E                     dE             d eps       ncg     rms          rms(c)
DAV:   1     0.110224820991E+03    0.11022E+03   -0.46901E+03   296   0.598E+02
DAV:   2    -0.969448110865E+01   -0.11992E+03   -0.11122E+03   426   0.160E+02
DAV:   3    -0.231057592220E+02   -0.13411E+02   -0.13275E+02   402   0.652E+01
DAV:   4    -0.233907176000E+02   -0.28496E+00   -0.28347E+00   360   0.115E+01
DAV:   5    -0.233978338765E+02   -0.71163E-02   -0.71131E-02   352   0.175E+00    0.690E+00
RMM:   6    -0.222326993720E+02    0.11651E+01   -0.54439E+00   295   0.120E+01    0.263E+00
RMM:   7    -0.218469994558E+02    0.38570E+00   -0.55588E-01   290   0.335E+00    0.151E+00
RMM:   8    -0.217869743650E+02    0.60025E-01   -0.23468E-01   307   0.247E+00    0.354E-01
RMM:   9    -0.217822495189E+02    0.47248E-02   -0.85500E-03   336   0.580E-01    0.951E-02
RMM:  10    -0.217815775486E+02    0.67197E-03   -0.16900E-03   332   0.216E-01    0.440E-02
RMM:  11    -0.217815073239E+02    0.70225E-04   -0.17747E-03   313   0.192E-01    0.560E-02
RMM:  12    -0.217813066005E+02    0.20072E-03   -0.56714E-04   305   0.131E-01    0.164E-02
RMM:  13    -0.217815595880E+02   -0.25299E-03   -0.15049E-04   299   0.659E-02    0.197E-02
RMM:  14    -0.217815955239E+02   -0.35936E-04   -0.23719E-05   251   0.262E-02    0.496E-03
RMM:  15    -0.217817078431E+02   -0.11232E-03   -0.12182E-05   198   0.164E-02    0.290E-03
RMM:  16    -0.217817444324E+02   -0.36589E-04   -0.48616E-06   187   0.904E-03    0.171E-03
RMM:  17    -0.217817960622E+02   -0.51630E-04   -0.33119E-06   160   0.794E-03    0.154E-03
RMM:  18    -0.217818030739E+02   -0.70117E-05   -0.41070E-07    88   0.412E-03
   1 F= -.22372712E+02 E0= -.22372712E+02  d E =0.000000E+00

Currently Loaded Modulefiles:
  1) Anaconda3/5.1.0       3) vesta/3.3.8           5) intel/2016.1
  2) gnuplot/5.0.4         4) imagemagick/6.7.9-0   6) vasp/5.4.1.Feb16

Job script resource usage:
       JobID  MaxVMSize     MaxRSS 
------------ ---------- ---------- 
28532686.ba+    216888K      2301K 

Job step resource usage:
       JobID    JobName  AllocCPUS  MaxVMSize     MaxRSS    Elapsed ExitCode 
------------ ---------- ---------- ---------- ---------- ---------- -------- 
28532686        jobname          4                         00:00:08      0:0 
28532686.0    pmi_proxy          1    279832K       521K   00:00:06      0:0 

Job 28532686 ("jobname") completed on c15-7 at Fri Nov 8 11:57:10 CET 2019
