<?xml version="1.0" encoding="ISO-8859-1"?>
<modeling>
 <generator>
  <i name="program" type="string">vasp </i>
  <i name="version" type="string">5.4.4.18Apr17-6-g9f103f2a35  </i>
  <i name="subversion" type="string">(build Jun 30 2017 11:15:00) complex            parallel </i>
  <i name="platform" type="string">STALLO_VASP_5.4.4 </i>
  <i name="date" type="string">2019 11 08 </i>
  <i name="time" type="string">11:57:05 </i>
 </generator>
 <incar>
  <i type="string" name="PREC">normal    ! low/normal/accurate</i>
  <i type="string" name="ALGO"> Fast      ! Algorithm for electronic re</i>
  <i type="int" name="ISPIN">     1</i>
  <i type="int" name="NELMIN">     4</i>
  <i name="EDIFF">      0.00001000</i>
  <i type="int" name="NSW">     0</i>
  <i name="ENCUT">    300.00000000</i>
  <i type="logical" name="LREAL"> F  </i>
  <i type="int" name="ISMEAR">    -5</i>
  <i name="SIGMA">      0.20000000</i>
  <i type="logical" name="LWAVE"> F  </i>
  <v type="int" name="KPOINT_BSE">    -1     0     0     0</v>
 </incar>
 <structure name="primitive_cell" >
  <crystal>
   <varray name="basis" >
    <v>       3.19031573       0.00000000       0.00000000 </v>
    <v>      -1.59515786       2.76289447       0.00000000 </v>
    <v>       0.00000000       0.00000000      26.87900430 </v>
   </varray>
   <i name="volume">    236.92513614 </i>
   <varray name="rec_basis" >
    <v>       0.31344860       0.18096963       0.00000000 </v>
    <v>       0.00000000       0.36193927       0.00000000 </v>
    <v>       0.00000000       0.00000000       0.03720376 </v>
   </varray>
  </crystal>
  <varray name="positions" >
   <v>       0.33333300      -0.33333300       0.13838872 </v>
   <v>      -0.33333400       0.33333300       0.19660830 </v>
   <v>      -0.33333300       0.33333300       0.08016914 </v>
  </varray>
 </structure>
 <varray name="primitive_index" >
  <v type="int" >        1 </v>
  <v type="int" >        3 </v>
  <v type="int" >        2 </v>
 </varray>
 <kpoints>
  <generation param="Gamma">
   <v type="int" name="divisions">       8        8        1 </v>
   <v name="usershift">      0.00000000       0.00000000       0.00000000 </v>
   <v name="genvec1">      0.12500000       0.00000000       0.00000000 </v>
   <v name="genvec2">      0.00000000       0.12500000       0.00000000 </v>
   <v name="genvec3">      0.00000000       0.00000000       1.00000000 </v>
   <v name="shift">      0.00000000       0.00000000       0.00000000 </v>
  </generation>
  <varray name="kpointlist" >
   <v>       0.00000000       0.00000000       0.00000000 </v>
   <v>       0.12500000       0.00000000       0.00000000 </v>
   <v>       0.25000000       0.00000000       0.00000000 </v>
   <v>       0.37500000       0.00000000       0.00000000 </v>
   <v>       0.50000000       0.00000000       0.00000000 </v>
   <v>       0.12500000       0.12500000       0.00000000 </v>
   <v>       0.25000000       0.12500000       0.00000000 </v>
   <v>       0.37500000       0.12500000       0.00000000 </v>
   <v>       0.25000000       0.25000000       0.00000000 </v>
   <v>       0.37500000       0.25000000       0.00000000 </v>
  </varray>
  <varray name="weights" >
   <v>       0.01562500 </v>
   <v>       0.09375000 </v>
   <v>       0.09375000 </v>
   <v>       0.09375000 </v>
   <v>       0.04687500 </v>
   <v>       0.09375000 </v>
   <v>       0.18750000 </v>
   <v>       0.18750000 </v>
   <v>       0.09375000 </v>
   <v>       0.09375000 </v>
  </varray>
  <varray name="tetrahedronlist"  type="int" >
   <v type="int" >       12        2        2        2        6 </v>
   <v type="int" >       12        1        2        2        2 </v>
   <v type="int" >        6        1        1        2        2 </v>
   <v type="int" >        6        2        2        6        6 </v>
   <v type="int" >       12        3        6        6        7 </v>
   <v type="int" >       12        2        3        6        6 </v>
   <v type="int" >       12        2        2        3        6 </v>
   <v type="int" >       12        3        6        7        7 </v>
   <v type="int" >       12        3        3        6        7 </v>
   <v type="int" >       12        2        3        3        6 </v>
   <v type="int" >       12        4        7        7        8 </v>
   <v type="int" >       12        3        4        7        7 </v>
   <v type="int" >       12        3        3        4        7 </v>
   <v type="int" >       12        4        7        8        8 </v>
   <v type="int" >       12        4        4        7        8 </v>
   <v type="int" >       12        3        4        4        7 </v>
   <v type="int" >       12        5        8        8        8 </v>
   <v type="int" >       12        4        5        8        8 </v>
   <v type="int" >       12        4        4        5        8 </v>
   <v type="int" >        6        5        5        8        8 </v>
   <v type="int" >       12        4        5        5        8 </v>
   <v type="int" >       12        7        7        7        9 </v>
   <v type="int" >       12        6        7        7        7 </v>
   <v type="int" >        6        6        6        7        7 </v>
   <v type="int" >        6        7        7        9        9 </v>
   <v type="int" >       12        8        9        9       10 </v>
   <v type="int" >       12        7        8        9        9 </v>
   <v type="int" >       12        7        7        8        9 </v>
   <v type="int" >       12        8        9       10       10 </v>
   <v type="int" >       12        8        8        9       10 </v>
   <v type="int" >       12        7        8        8        9 </v>
   <v type="int" >        6        8        8       10       10 </v>
   <v type="int" >       12        8        8        8       10 </v>
   <v type="int" >        6       10       10       10       10 </v>
   <v type="int" >       12        9       10       10       10 </v>
   <v type="int" >        6        9        9       10       10 </v>
  </varray>
  <i name="volumeweight">      0.00260417 </i>
 </kpoints>
 <parameters>
  <separator name="general" >
   <i type="string" name="SYSTEM">unknown system</i>
   <i type="logical" name="LCOMPAT"> F  </i>
  </separator>
  <separator name="electronic" >
   <i type="string" name="PREC">normal</i>
   <i name="ENMAX">    300.00000000</i>
   <i name="ENAUG">    345.27800000</i>
   <i name="EDIFF">      0.00001000</i>
   <i type="int" name="IALGO">    68</i>
   <i type="int" name="IWAVPR">    10</i>
   <i type="int" name="NBANDS">    14</i>
   <i name="NELECT">     18.00000000</i>
   <i type="int" name="TURBO">     0</i>
   <i type="int" name="IRESTART">     0</i>
   <i type="int" name="NREBOOT">     0</i>
   <i type="int" name="NMIN">     0</i>
   <i name="EREF">      0.00000000</i>
   <separator name="electronic smearing" >
    <i type="int" name="ISMEAR">    -5</i>
    <i name="SIGMA">      0.20000000</i>
    <i name="KSPACING">      0.50000000</i>
    <i type="logical" name="KGAMMA"> T  </i>
   </separator>
   <separator name="electronic projectors" >
    <i type="logical" name="LREAL"> F  </i>
    <v name="ROPT">      0.00000000      0.00000000</v>
    <i type="int" name="LMAXPAW">  -100</i>
    <i type="int" name="LMAXMIX">     2</i>
    <i type="logical" name="NLSPLINE"> F  </i>
   </separator>
   <separator name="electronic startup" >
    <i type="int" name="ISTART">     0</i>
    <i type="int" name="ICHARG">     2</i>
    <i type="int" name="INIWAV">     1</i>
   </separator>
   <separator name="electronic spin" >
    <i type="int" name="ISPIN">     1</i>
    <i type="logical" name="LNONCOLLINEAR"> F  </i>
    <v name="MAGMOM">      1.00000000      1.00000000      1.00000000</v>
    <i name="NUPDOWN">     -1.00000000</i>
    <i type="logical" name="LSORBIT"> F  </i>
    <v name="SAXIS">      0.00000000      0.00000000      1.00000000</v>
    <i type="logical" name="LSPIRAL"> F  </i>
    <v name="QSPIRAL">      0.00000000      0.00000000      0.00000000</v>
    <i type="logical" name="LZEROZ"> F  </i>
   </separator>
   <separator name="electronic exchange-correlation" >
    <i type="logical" name="LASPH"> F  </i>
    <i type="logical" name="LMETAGGA"> F  </i>
   </separator>
   <separator name="electronic convergence" >
    <i type="int" name="NELM">    60</i>
    <i type="int" name="NELMDL">    -5</i>
    <i type="int" name="NELMIN">     4</i>
    <i name="ENINI">    300.00000000</i>
    <separator name="electronic convergence detail" >
     <i type="logical" name="LDIAG"> T  </i>
     <i type="logical" name="LSUBROT"> F  </i>
     <i name="WEIMIN">      0.00000000</i>
     <i name="EBREAK">      0.00000018</i>
     <i name="DEPER">      0.30000000</i>
     <i type="int" name="NRMM">     4</i>
     <i name="TIME">      0.40000000</i>
    </separator>
   </separator>
   <separator name="electronic mixer" >
    <i name="AMIX">      0.40000000</i>
    <i name="BMIX">      1.00000000</i>
    <i name="AMIN">      0.10000000</i>
    <i name="AMIX_MAG">      1.60000000</i>
    <i name="BMIX_MAG">      1.00000000</i>
    <separator name="electronic mixer details" >
     <i type="int" name="IMIX">     4</i>
     <i type="logical" name="MIXFIRST"> F  </i>
     <i type="int" name="MAXMIX">   -45</i>
     <i name="WC">    100.00000000</i>
     <i type="int" name="INIMIX">     1</i>
     <i type="int" name="MIXPRE">     1</i>
     <i type="int" name="MREMOVE">     5</i>
    </separator>
   </separator>
   <separator name="electronic dipolcorrection" >
    <i type="logical" name="LDIPOL"> F  </i>
    <i type="logical" name="LMONO"> F  </i>
    <i type="int" name="IDIPOL">     0</i>
    <i name="EPSILON">      1.00000000</i>
    <v name="DIPOL">   -100.00000000   -100.00000000   -100.00000000</v>
    <i name="EFIELD">      0.00000000</i>
   </separator>
  </separator>
  <separator name="grids" >
   <i type="int" name="NGX">    14</i>
   <i type="int" name="NGY">    14</i>
   <i type="int" name="NGZ">   120</i>
   <i type="int" name="NGXF">    28</i>
   <i type="int" name="NGYF">    28</i>
   <i type="int" name="NGZF">   240</i>
   <i type="logical" name="ADDGRID"> F  </i>
  </separator>
  <separator name="ionic" >
   <i type="int" name="NSW">     0</i>
   <i type="int" name="IBRION">    -1</i>
   <i type="int" name="MDALGO">     0</i>
   <i type="int" name="ISIF">     2</i>
   <i name="PSTRESS">      0.00000000</i>
   <i name="EDIFFG">      0.00010000</i>
   <i type="int" name="NFREE">     0</i>
   <i name="POTIM">      0.50000000</i>
   <i name="SMASS">     -3.00000000</i>
   <i name="SCALEE">      1.00000000</i>
  </separator>
  <separator name="ionic md" >
   <i name="TEBEG">      0.00010000</i>
   <i name="TEEND">      0.00010000</i>
   <i type="int" name="NBLOCK">     1</i>
   <i type="int" name="KBLOCK">     1</i>
   <i type="int" name="NPACO">   256</i>
   <i name="APACO">     16.00000000</i>
  </separator>
  <separator name="symmetry" >
   <i type="int" name="ISYM">     2</i>
   <i name="SYMPREC">      0.00001000</i>
  </separator>
  <separator name="dos" >
   <i type="int" name="LORBIT">     0</i>
   <v name="RWIGS">     -1.00000000     -1.00000000</v>
   <i type="int" name="NEDOS">   301</i>
   <i name="EMIN">     10.00000000</i>
   <i name="EMAX">    -10.00000000</i>
   <i name="EFERMI">      0.00000000</i>
  </separator>
  <separator name="writing" >
   <i type="int" name="NWRITE">     2</i>
   <i type="logical" name="LWAVE"> F  </i>
   <i type="logical" name="LDOWNSAMPLE"> F  </i>
   <i type="logical" name="LCHARG"> T  </i>
   <i type="logical" name="LPARD"> F  </i>
   <i type="logical" name="LVTOT"> F  </i>
   <i type="logical" name="LVHAR"> F  </i>
   <i type="logical" name="LELF"> F  </i>
   <i type="logical" name="LOPTICS"> F  </i>
   <v name="STM">      0.00000000      0.00000000      0.00000000      0.00000000      0.00000000      0.00000000      0.00000000</v>
  </separator>
  <separator name="performance" >
   <i type="int" name="NPAR">     2</i>
   <i type="int" name="NSIM">     4</i>
   <i type="int" name="NBLK">    -1</i>
   <i type="logical" name="LPLANE"> T  </i>
   <i type="logical" name="LSCALAPACK"> T  </i>
   <i type="logical" name="LSCAAWARE"> F  </i>
   <i type="logical" name="LSCALU"> F  </i>
   <i type="logical" name="LASYNC"> F  </i>
   <i type="logical" name="LORBITALREAL"> F  </i>
  </separator>
  <separator name="miscellaneous" >
   <i type="int" name="IDIOT">     3</i>
   <i type="int" name="ISPECIAL">     0</i>
   <i type="logical" name="LMUSIC"> F  </i>
   <v name="POMASS">     95.94000000     32.06600000</v>
   <v name="DARWINR">      0.00000000      0.00000000</v>
   <v name="DARWINV">      1.00000000      1.00000000</v>
   <i type="logical" name="LCORR"> T  </i>
  </separator>
  <i type="logical" name="GGA_COMPAT"> T  </i>
  <i type="logical" name="LBERRY"> F  </i>
  <i type="int" name="ICORELEVEL">     0</i>
  <i type="logical" name="LDAU"> F  </i>
  <i type="int" name="I_CONSTRAINED_M">     0</i>
  <separator name="electronic exchange-correlation" >
   <i type="string" name="GGA">--</i>
   <i type="int" name="VOSKOWN">     0</i>
   <i type="logical" name="LHFCALC"> F  </i>
   <i type="string" name="PRECFOCK"></i>
   <i type="logical" name="LSYMGRAD"> F  </i>
   <i type="logical" name="LHFONE"> F  </i>
   <i type="logical" name="LRHFCALC"> F  </i>
   <i type="logical" name="LTHOMAS"> F  </i>
   <i type="logical" name="LMODELHF"> F  </i>
   <i name="ENCUT4O">     -1.00000000</i>
   <i type="int" name="EXXOEP">     0</i>
   <i type="int" name="FOURORBIT">     0</i>
   <i name="AEXX">      0.00000000</i>
   <i name="HFALPHA">      0.00000000</i>
   <i name="MCALPHA">      0.00000000</i>
   <i name="ALDAX">      1.00000000</i>
   <i name="AGGAX">      1.00000000</i>
   <i name="ALDAC">      1.00000000</i>
   <i name="AGGAC">      1.00000000</i>
   <i type="int" name="NKREDX">     1</i>
   <i type="int" name="NKREDY">     1</i>
   <i type="int" name="NKREDZ">     1</i>
   <i type="logical" name="SHIFTRED"> F  </i>
   <i type="logical" name="ODDONLY"> F  </i>
   <i type="logical" name="EVENONLY"> F  </i>
   <i type="int" name="LMAXFOCK">     0</i>
   <i type="int" name="NMAXFOCKAE">     0</i>
   <i type="logical" name="LFOCKAEDFT"> F  </i>
   <i name="HFSCREEN">      0.00000000</i>
   <i name="HFSCREENC">      0.00000000</i>
   <i type="int" name="NBANDSGWLOW">     0</i>
  </separator>
  <separator name="vdW DFT" >
   <i type="logical" name="LUSE_VDW"> F  </i>
   <i name="Zab_VDW">     -0.84910000</i>
   <i name="PARAM1">      0.12340000</i>
   <i name="PARAM2">      1.00000000</i>
   <i name="PARAM3">      0.00000000</i>
  </separator>
  <separator name="model GW" >
   <i type="int" name="MODEL_GW">     0</i>
   <i name="MODEL_EPS0">     47.38502723</i>
   <i name="MODEL_ALPHA">      1.00000000</i>
  </separator>
  <separator name="linear response parameters" >
   <i type="logical" name="LEPSILON"> F  </i>
   <i type="logical" name="LRPA"> F  </i>
   <i type="logical" name="LNABLA"> F  </i>
   <i type="logical" name="LVEL"> F  </i>
   <i type="int" name="KINTER">     0</i>
   <i name="CSHIFT">      0.10000000</i>
   <i name="OMEGAMAX">     -1.00000000</i>
   <i name="DEG_THRESHOLD">      0.00200000</i>
   <i name="RTIME">     -0.10000000</i>
   <i name="WPLASMAI">      0.00000000</i>
   <v name="DFIELD">      0.00000000      0.00000000      0.00000000</v>
   <v name="WPLASMA">      0.00000000      0.00000000      0.00000000      0.00000000      0.00000000      0.00000000      0.00000000      0.00000000      0.00000000</v>
  </separator>
  <separator name="orbital magnetization" >
   <i type="logical" name="NUCIND"> F  </i>
   <v name="MAGPOS">      0.00000000      0.00000000      0.00000000</v>
   <i type="logical" name="LNICSALL"> T  </i>
   <i type="logical" name="ORBITALMAG"> F  </i>
   <i type="logical" name="LMAGBLOCH"> F  </i>
   <i type="logical" name="LCHIMAG"> F  </i>
   <i type="logical" name="LGAUGE"> T  </i>
   <i type="int" name="MAGATOM">     0</i>
   <v name="MAGDIPOL">      0.00000000      0.00000000      0.00000000</v>
   <v name="AVECCONST">      0.00000000      0.00000000      0.00000000</v>
  </separator>
  <separator name="response functions" >
   <i type="logical" name="LADDER"> F  </i>
   <i type="logical" name="LRPAFORCE"> F  </i>
   <i type="logical" name="LFXC"> F  </i>
   <i type="logical" name="LHARTREE"> T  </i>
   <i type="int" name="IBSE">     0</i>
   <v type="int" name="KPOINT">    -1     0     0     0</v>
   <i type="logical" name="LTCTE"> F  </i>
   <i type="logical" name="LTETE"> F  </i>
   <i type="logical" name="LTRIPLET"> F  </i>
   <i type="logical" name="LFXCEPS"> F  </i>
   <i type="logical" name="LFXHEG"> F  </i>
   <i type="int" name="NATURALO">     2</i>
   <i type="logical" name="L2ORDER"> F  </i>
   <i type="logical" name="LMP2LT"> F  </i>
   <i type="logical" name="LUSEW"> F  </i>
   <i name="ENCUTGW">     -2.00000000</i>
   <i name="ENCUTGWSOFT">     -2.00000000</i>
   <i name="ENCUTLF">     -1.00000000</i>
   <i type="int" name="LMAXMP2">    -1</i>
   <i name="SCISSOR">      0.00000000</i>
   <i type="int" name="NOMEGA">     0</i>
   <i type="int" name="NOMEGAR">     0</i>
   <i type="int" name="NBANDSGW">    -1</i>
   <i type="int" name="NBANDSO">    -1</i>
   <i type="int" name="NBANDSV">    -1</i>
   <i type="int" name="NELM">     1</i>
   <i type="int" name="NELMHF">     1</i>
   <i type="int" name="DIM">     3</i>
   <i type="int" name="ANTIRES">     0</i>
   <i name="OMEGAMAX">    -30.00000000</i>
   <i name="OMEGAMIN">    -30.00000000</i>
   <i name="OMEGATL">   -200.00000000</i>
   <i type="int" name="OMEGAGRID">   140</i>
   <i name="CSHIFT">     -0.10000000</i>
   <i type="logical" name="SELFENERGY"> F  </i>
   <i type="logical" name="LSPECTRAL"> F  </i>
   <i type="logical" name="LSPECTRALGW"> F  </i>
   <i type="logical" name="LSINGLES"> F  </i>
   <i type="logical" name="LFERMIGW"> F  </i>
   <i type="logical" name="ODDONLYGW"> F  </i>
   <i type="logical" name="EVENONLYGW"> F  </i>
   <i type="int" name="NKREDLFX">     1</i>
   <i type="int" name="NKREDLFY">     1</i>
   <i type="int" name="NKREDLFZ">     1</i>
   <i type="int" name="MAXMEM">  2800</i>
   <i type="int" name="TELESCOPE">     0</i>
   <i type="int" name="TAUPAR">     1</i>
   <i type="int" name="OMEGAPAR">    -1</i>
   <i name="LAMBDA">      1.00000000</i>
  </separator>
  <separator name="External order field" >
   <i name="OFIELD_KAPPA">      0.00000000</i>
   <v name="OFIELD_K">      0.00000000      0.00000000      0.00000000</v>
   <i name="OFIELD_Q6_NEAR">      0.00000000</i>
   <i name="OFIELD_Q6_FAR">      0.00000000</i>
   <i name="OFIELD_A">      0.00000000</i>
  </separator>
 </parameters>
 <atominfo>
  <atoms>       3 </atoms>
  <types>       2 </types>
  <array name="atoms" >
   <dimension dim="1">ion</dimension>
   <field type="string">element</field>
   <field type="int">atomtype</field>
   <set>
    <rc><c>Mo</c><c>   1</c></rc>
    <rc><c>S </c><c>   2</c></rc>
    <rc><c>S </c><c>   2</c></rc>
   </set>
  </array>
  <array name="atomtypes" >
   <dimension dim="1">type</dimension>
   <field type="int">atomspertype</field>
   <field type="string">element</field>
   <field>mass</field>
   <field>valence</field>
   <field type="string">pseudopotential</field>
   <set>
    <rc><c>   1</c><c>Mo</c><c>     95.94000000</c><c>      6.00000000</c><c> PAW_PBE Mo 08Apr2002                   </c></rc>
    <rc><c>   2</c><c>S </c><c>     32.06600000</c><c>      6.00000000</c><c>  PAW_PBE S 17Jan2003                   </c></rc>
   </set>
  </array>
 </atominfo>
 <structure name="initialpos" >
  <crystal>
   <varray name="basis" >
    <v>       3.19031573       0.00000000       0.00000000 </v>
    <v>      -1.59515786       2.76289447       0.00000000 </v>
    <v>       0.00000000       0.00000000      26.87900430 </v>
   </varray>
   <i name="volume">    236.92513614 </i>
   <varray name="rec_basis" >
    <v>       0.31344860       0.18096963       0.00000000 </v>
    <v>       0.00000000       0.36193927       0.00000000 </v>
    <v>       0.00000000       0.00000000       0.03720376 </v>
   </varray>
  </crystal>
  <varray name="positions" >
   <v>       0.33333300       0.66666700       0.13838872 </v>
   <v>       0.66666700       0.33333300       0.08016914 </v>
   <v>       0.66666600       0.33333300       0.19660830 </v>
  </varray>
 </structure>
 <calculation>
  <scstep>
   <time name="dav">    0.12    0.13</time>
   <time name="total">    0.15    0.21</time>
   <energy>
    <i name="alphaZ">     12.51390764 </i>
    <i name="ewald">   4286.25630342 </i>
    <i name="hartreedc">  -4967.71356794 </i>
    <i name="XCdc">    -36.31055633 </i>
    <i name="pawpsdc">    406.88651198 </i>
    <i name="pawaedc">   -329.34073203 </i>
    <i name="eentropy">      0.00000000 </i>
    <i name="bandstr">    -33.19817653 </i>
    <i name="atom">    771.13113078 </i>
    <i name="e_fr_energy">    110.22482099 </i>
    <i name="e_wo_entrp">    110.22482099 </i>
    <i name="e_0_energy">    110.22482099 </i>
   </energy>
  </scstep>
  <scstep>
   <time name="dav">    0.16    0.16</time>
   <time name="total">    0.16    0.16</time>
   <energy>
    <i name="e_fr_energy">     -9.69448111 </i>
    <i name="e_wo_entrp">     -9.69448111 </i>
    <i name="e_0_energy">     -9.69448111 </i>
   </energy>
  </scstep>
  <scstep>
   <time name="dav">    0.15    0.15</time>
   <time name="total">    0.15    0.15</time>
   <energy>
    <i name="e_fr_energy">    -23.10575922 </i>
    <i name="e_wo_entrp">    -23.10575922 </i>
    <i name="e_0_energy">    -23.10575922 </i>
   </energy>
  </scstep>
  <scstep>
   <time name="dav">    0.14    0.14</time>
   <time name="total">    0.14    0.14</time>
   <energy>
    <i name="e_fr_energy">    -23.39071760 </i>
    <i name="e_wo_entrp">    -23.39071760 </i>
    <i name="e_0_energy">    -23.39071760 </i>
   </energy>
  </scstep>
  <scstep>
   <time name="dav">    0.14    0.14</time>
   <time name="total">    0.15    0.15</time>
   <energy>
    <i name="e_fr_energy">    -23.39783388 </i>
    <i name="e_wo_entrp">    -23.39783388 </i>
    <i name="e_0_energy">    -23.39783388 </i>
   </energy>
  </scstep>
  <scstep>
   <time name="diag">    0.03    0.03</time>
   <time name="diis">    0.09    0.09</time>
   <time name="orth">    0.00    0.00</time>
   <time name="total">    0.16    0.16</time>
   <energy>
    <i name="e_fr_energy">    -22.23269937 </i>
    <i name="e_wo_entrp">    -22.23269937 </i>
    <i name="e_0_energy">    -22.23269937 </i>
   </energy>
  </scstep>
  <scstep>
   <time name="diag">    0.02    0.03</time>
   <time name="diis">    0.09    0.09</time>
   <time name="orth">    0.00    0.00</time>
   <time name="total">    0.15    0.16</time>
   <energy>
    <i name="e_fr_energy">    -21.84699946 </i>
    <i name="e_wo_entrp">    -21.84699946 </i>
    <i name="e_0_energy">    -21.84699946 </i>
   </energy>
  </scstep>
  <scstep>
   <time name="diag">    0.02    0.03</time>
   <time name="diis">    0.10    0.10</time>
   <time name="orth">    0.00    0.00</time>
   <time name="total">    0.16    0.16</time>
   <energy>
    <i name="e_fr_energy">    -21.78697436 </i>
    <i name="e_wo_entrp">    -21.78697436 </i>
    <i name="e_0_energy">    -21.78697436 </i>
   </energy>
  </scstep>
  <scstep>
   <time name="diag">    0.02    0.03</time>
   <time name="diis">    0.11    0.11</time>
   <time name="orth">    0.00    0.00</time>
   <time name="total">    0.17    0.17</time>
   <energy>
    <i name="e_fr_energy">    -21.78224952 </i>
    <i name="e_wo_entrp">    -21.78224952 </i>
    <i name="e_0_energy">    -21.78224952 </i>
   </energy>
  </scstep>
  <scstep>
   <time name="diag">    0.02    0.03</time>
   <time name="diis">    0.11    0.11</time>
   <time name="orth">    0.00    0.00</time>
   <time name="total">    0.17    0.17</time>
   <energy>
    <i name="e_fr_energy">    -21.78157755 </i>
    <i name="e_wo_entrp">    -21.78157755 </i>
    <i name="e_0_energy">    -21.78157755 </i>
   </energy>
  </scstep>
  <scstep>
   <time name="diag">    0.02    0.03</time>
   <time name="diis">    0.10    0.10</time>
   <time name="orth">    0.00    0.00</time>
   <time name="total">    0.17    0.17</time>
   <energy>
    <i name="e_fr_energy">    -21.78150732 </i>
    <i name="e_wo_entrp">    -21.78150732 </i>
    <i name="e_0_energy">    -21.78150732 </i>
   </energy>
  </scstep>
  <scstep>
   <time name="diag">    0.02    0.03</time>
   <time name="diis">    0.10    0.10</time>
   <time name="orth">    0.00    0.00</time>
   <time name="total">    0.16    0.16</time>
   <energy>
    <i name="e_fr_energy">    -21.78130660 </i>
    <i name="e_wo_entrp">    -21.78130660 </i>
    <i name="e_0_energy">    -21.78130660 </i>
   </energy>
  </scstep>
  <scstep>
   <time name="diag">    0.03    0.03</time>
   <time name="diis">    0.10    0.10</time>
   <time name="orth">    0.00    0.00</time>
   <time name="total">    0.16    0.16</time>
   <energy>
    <i name="e_fr_energy">    -21.78155959 </i>
    <i name="e_wo_entrp">    -21.78155959 </i>
    <i name="e_0_energy">    -21.78155959 </i>
   </energy>
  </scstep>
  <scstep>
   <time name="diag">    0.03    0.03</time>
   <time name="diis">    0.09    0.09</time>
   <time name="orth">    0.00    0.00</time>
   <time name="total">    0.15    0.15</time>
   <energy>
    <i name="e_fr_energy">    -21.78159552 </i>
    <i name="e_wo_entrp">    -21.78159552 </i>
    <i name="e_0_energy">    -21.78159552 </i>
   </energy>
  </scstep>
  <scstep>
   <time name="diag">    0.02    0.03</time>
   <time name="diis">    0.07    0.07</time>
   <time name="orth">    0.00    0.00</time>
   <time name="total">    0.14    0.14</time>
   <energy>
    <i name="e_fr_energy">    -21.78170784 </i>
    <i name="e_wo_entrp">    -21.78170784 </i>
    <i name="e_0_energy">    -21.78170784 </i>
   </energy>
  </scstep>
  <scstep>
   <time name="diag">    0.03    0.03</time>
   <time name="diis">    0.07    0.07</time>
   <time name="orth">    0.00    0.00</time>
   <time name="total">    0.14    0.14</time>
   <energy>
    <i name="e_fr_energy">    -21.78174443 </i>
    <i name="e_wo_entrp">    -21.78174443 </i>
    <i name="e_0_energy">    -21.78174443 </i>
   </energy>
  </scstep>
  <scstep>
   <time name="diag">    0.03    0.03</time>
   <time name="diis">    0.06    0.06</time>
   <time name="orth">    0.00    0.00</time>
   <time name="total">    0.13    0.13</time>
   <energy>
    <i name="e_fr_energy">    -21.78179606 </i>
    <i name="e_wo_entrp">    -21.78179606 </i>
    <i name="e_0_energy">    -21.78179606 </i>
   </energy>
  </scstep>
  <scstep>
   <time name="diag">    0.03    0.03</time>
   <time name="diis">    0.06    0.06</time>
   <time name="orth">    0.00    0.00</time>
   <time name="total">    0.11    0.11</time>
   <energy>
    <i name="alphaZ">     12.51390764 </i>
    <i name="ewald">   4286.25630342 </i>
    <i name="hartreedc">  -4980.65272336 </i>
    <i name="XCdc">    -35.19634346 </i>
    <i name="pawpsdc">    474.75421159 </i>
    <i name="pawaedc">   -398.94251567 </i>
    <i name="eentropy">      0.00000000 </i>
    <i name="bandstr">   -151.64577402 </i>
    <i name="atom">    771.13113078 </i>
    <i name="e_fr_energy">    -21.78180307 </i>
    <i name="e_wo_entrp">    -21.78180307 </i>
    <i name="e_0_energy">    -21.78180307 </i>
   </energy>
  </scstep>
  <structure>
   <crystal>
    <varray name="basis" >
     <v>       3.19031573       0.00000000       0.00000000 </v>
     <v>      -1.59515786       2.76289447       0.00000000 </v>
     <v>       0.00000000       0.00000000      26.87900430 </v>
    </varray>
    <i name="volume">    236.92513614 </i>
    <varray name="rec_basis" >
     <v>       0.31344860       0.18096963       0.00000000 </v>
     <v>       0.00000000       0.36193927       0.00000000 </v>
     <v>       0.00000000       0.00000000       0.03720376 </v>
    </varray>
   </crystal>
   <varray name="positions" >
    <v>       0.33333300       0.66666700       0.13838872 </v>
    <v>       0.66666700       0.33333300       0.08016914 </v>
    <v>       0.66666600       0.33333300       0.19660830 </v>
   </varray>
  </structure>
  <varray name="forces" >
   <v>       0.00000000      -0.00000000      -0.00000000 </v>
   <v>      -0.00000000      -0.00000000       0.11158994 </v>
   <v>       0.00000000       0.00000000      -0.11158994 </v>
  </varray>
  <varray name="stress" >
   <v>      -2.05046329      -0.00000000       0.00000000 </v>
   <v>      -0.00000000      -2.05046329       0.00000000 </v>
   <v>      -0.00000000       0.00000000      -3.72901619 </v>
  </varray>
  <energy>
   <i name="e_fr_energy">    -22.37271214 </i>
   <i name="e_wo_entrp">    -22.37271214 </i>
   <i name="e_0_energy">      0.00000000 </i>
  </energy>
  <time name="totalsc">    3.11    3.23</time>
  <eigenvalues>
   <array>
    <dimension dim="1">band</dimension>
    <dimension dim="2">kpoint</dimension>
    <dimension dim="3">spin</dimension>
    <field>eigene</field>
    <field>occ</field>
    <set>
     <set comment="spin 1">
      <set comment="kpoint 1">
       <r>  -17.4657    1.0000 </r>
       <r>  -16.2573    1.0000 </r>
       <r>   -8.9843    1.0000 </r>
       <r>   -6.0233    1.0000 </r>
       <r>   -6.0233    1.0000 </r>
       <r>   -5.1625    1.0000 </r>
       <r>   -4.9176    1.0000 </r>
       <r>   -4.9175    1.0000 </r>
       <r>   -3.4418    1.0000 </r>
       <r>   -0.6703    0.0000 </r>
       <r>   -0.6702    0.0000 </r>
       <r>   -0.4474    0.0000 </r>
       <r>   -0.4473    0.0000 </r>
       <r>    1.9880    0.0000 </r>
      </set>
      <set comment="kpoint 2">
       <r>  -17.2516    1.0000 </r>
       <r>  -16.1549    1.0000 </r>
       <r>   -8.7396    1.0000 </r>
       <r>   -6.4867    1.0000 </r>
       <r>   -5.9700    1.0000 </r>
       <r>   -5.7890    1.0000 </r>
       <r>   -5.2532    1.0000 </r>
       <r>   -4.4846    1.0000 </r>
       <r>   -3.5801    1.0000 </r>
       <r>   -0.9512    0.0000 </r>
       <r>   -0.8846    0.0000 </r>
       <r>   -0.6838    0.0000 </r>
       <r>   -0.3154    0.0000 </r>
       <r>    2.3560    0.0000 </r>
      </set>
      <set comment="kpoint 3">
       <r>  -16.6828    1.0000 </r>
       <r>  -15.8859    1.0000 </r>
       <r>   -8.3732    1.0000 </r>
       <r>   -7.2138    1.0000 </r>
       <r>   -6.9507    1.0000 </r>
       <r>   -5.8881    1.0000 </r>
       <r>   -5.2019    1.0000 </r>
       <r>   -4.7360    1.0000 </r>
       <r>   -4.1481    1.0000 </r>
       <r>   -1.2746    0.0000 </r>
       <r>   -1.0989    0.0000 </r>
       <r>   -0.5560    0.0000 </r>
       <r>    0.3016    0.0000 </r>
       <r>    3.1744    0.0000 </r>
      </set>
      <set comment="kpoint 4">
       <r>  -16.0076    1.0000 </r>
       <r>  -15.5773    1.0000 </r>
       <r>   -8.8109    1.0000 </r>
       <r>   -7.8184    1.0000 </r>
       <r>   -7.3461    1.0000 </r>
       <r>   -6.3856    1.0000 </r>
       <r>   -5.1453    1.0000 </r>
       <r>   -4.6116    1.0000 </r>
       <r>   -4.3432    1.0000 </r>
       <r>   -1.2806    0.0000 </r>
       <r>   -1.0011    0.0000 </r>
       <r>    0.1626    0.0000 </r>
       <r>    0.6951    0.0000 </r>
       <r>    3.7057    0.0000 </r>
      </set>
      <set comment="kpoint 5">
       <r>  -15.6793    1.0000 </r>
       <r>  -15.4339    1.0000 </r>
       <r>   -9.1437    1.0000 </r>
       <r>   -8.1832    1.0000 </r>
       <r>   -7.4718    1.0000 </r>
       <r>   -6.5659    1.0000 </r>
       <r>   -5.2839    1.0000 </r>
       <r>   -4.3843    1.0000 </r>
       <r>   -4.0621    1.0000 </r>
       <r>   -1.2576    0.0000 </r>
       <r>   -0.7421    0.0000 </r>
       <r>    0.4615    0.0000 </r>
       <r>    0.8111    0.0000 </r>
       <r>    2.7468    0.0000 </r>
      </set>
      <set comment="kpoint 6">
       <r>  -16.8587    1.0000 </r>
       <r>  -15.9678    1.0000 </r>
       <r>   -8.3922    1.0000 </r>
       <r>   -7.0510    1.0000 </r>
       <r>   -6.5323    1.0000 </r>
       <r>   -6.0670    1.0000 </r>
       <r>   -5.4497    1.0000 </r>
       <r>   -4.3502    1.0000 </r>
       <r>   -3.9522    1.0000 </r>
       <r>   -1.3501    0.0000 </r>
       <r>   -0.9723    0.0000 </r>
       <r>   -0.9598    0.0000 </r>
       <r>    0.2791    0.0000 </r>
       <r>    2.9534    0.0000 </r>
      </set>
      <set comment="kpoint 7">
       <r>  -16.2250    1.0000 </r>
       <r>  -15.6690    1.0000 </r>
       <r>   -8.4551    1.0000 </r>
       <r>   -7.4772    1.0000 </r>
       <r>   -7.2146    1.0000 </r>
       <r>   -6.5712    1.0000 </r>
       <r>   -5.3504    1.0000 </r>
       <r>   -4.7122    1.0000 </r>
       <r>   -4.2355    1.0000 </r>
       <r>   -1.4332    0.0000 </r>
       <r>   -0.9852    0.0000 </r>
       <r>   -0.4893    0.0000 </r>
       <r>    0.7870    0.0000 </r>
       <r>    3.9226    0.0000 </r>
      </set>
      <set comment="kpoint 8">
       <r>  -15.6945    1.0000 </r>
       <r>  -15.4250    1.0000 </r>
       <r>   -8.8564    1.0000 </r>
       <r>   -8.2403    1.0000 </r>
       <r>   -7.3444    1.0000 </r>
       <r>   -6.5882    1.0000 </r>
       <r>   -5.3352    1.0000 </r>
       <r>   -5.1939    1.0000 </r>
       <r>   -3.9085    1.0000 </r>
       <r>   -1.2391    0.0000 </r>
       <r>   -0.7288    0.0000 </r>
       <r>    0.1332    0.0000 </r>
       <r>    0.8205    0.0000 </r>
       <r>    3.2739    0.0000 </r>
      </set>
      <set comment="kpoint 9">
       <r>  -15.7095    1.0000 </r>
       <r>  -15.4161    1.0000 </r>
       <r>   -8.4959    1.0000 </r>
       <r>   -8.2907    1.0000 </r>
       <r>   -7.0176    1.0000 </r>
       <r>   -6.6366    1.0000 </r>
       <r>   -6.3180    1.0000 </r>
       <r>   -5.0605    1.0000 </r>
       <r>   -3.9376    1.0000 </r>
       <r>   -1.2899    0.0000 </r>
       <r>   -0.6788    0.0000 </r>
       <r>   -0.3649    0.0000 </r>
       <r>    1.1074    0.0000 </r>
       <r>    4.1062    0.0000 </r>
      </set>
      <set comment="kpoint 10">
       <r>  -15.4746    1.0000 </r>
       <r>  -15.2969    1.0000 </r>
       <r>   -8.6751    1.0000 </r>
       <r>   -8.3272    1.0000 </r>
       <r>   -7.3018    1.0000 </r>
       <r>   -6.6394    1.0000 </r>
       <r>   -6.4094    1.0000 </r>
       <r>   -5.4466    1.0000 </r>
       <r>   -3.5704    1.0000 </r>
       <r>   -1.6162    0.0000 </r>
       <r>   -0.3058    0.0000 </r>
       <r>   -0.1289    0.0000 </r>
       <r>    1.2517    0.0000 </r>
       <r>    3.5179    0.0000 </r>
      </set>
     </set>
    </set>
   </array>
  </eigenvalues>
  <separator name="orbital magnetization" >
   <v name="MAGDIPOLOUT">      0.00000000      0.00000000      0.00000000</v>
  </separator>
  <dos>
   <i name="efermi">     -3.41934246 </i>
   <total>
    <array>
     <dimension dim="1">gridpoints</dimension>
     <dimension dim="2">spin</dimension>
     <field>energy</field>
     <field>total</field>
     <field>integrated</field>
     <set>
      <set comment="spin 1">
       <r>   -19.4657     0.0000     0.0000 </r>
       <r>   -19.3805     0.0000     0.0000 </r>
       <r>   -19.2952     0.0000     0.0000 </r>
       <r>   -19.2100     0.0000     0.0000 </r>
       <r>   -19.1247     0.0000     0.0000 </r>
       <r>   -19.0395     0.0000     0.0000 </r>
       <r>   -18.9543     0.0000     0.0000 </r>
       <r>   -18.8690     0.0000     0.0000 </r>
       <r>   -18.7838     0.0000     0.0000 </r>
       <r>   -18.6985     0.0000     0.0000 </r>
       <r>   -18.6133     0.0000     0.0000 </r>
       <r>   -18.5281     0.0000     0.0000 </r>
       <r>   -18.4428     0.0000     0.0000 </r>
       <r>   -18.3576     0.0000     0.0000 </r>
       <r>   -18.2724     0.0000     0.0000 </r>
       <r>   -18.1871     0.0000     0.0000 </r>
       <r>   -18.1019     0.0000     0.0000 </r>
       <r>   -18.0166     0.0000     0.0000 </r>
       <r>   -17.9314     0.0000     0.0000 </r>
       <r>   -17.8462     0.0000     0.0000 </r>
       <r>   -17.7609     0.0000     0.0000 </r>
       <r>   -17.6757     0.0000     0.0000 </r>
       <r>   -17.5904     0.0000     0.0000 </r>
       <r>   -17.5052     0.0000     0.0000 </r>
       <r>   -17.4200     0.1871     0.0043 </r>
       <r>   -17.3347     0.5355     0.0351 </r>
       <r>   -17.2495     0.4783     0.0947 </r>
       <r>   -17.1642     0.5178     0.1372 </r>
       <r>   -17.0790     0.5573     0.1830 </r>
       <r>   -16.9938     0.5968     0.2322 </r>
       <r>   -16.9085     0.6362     0.2847 </r>
       <r>   -16.8233     0.6623     0.3404 </r>
       <r>   -16.7380     0.6693     0.3972 </r>
       <r>   -16.6528     0.6856     0.4547 </r>
       <r>   -16.5676     0.7186     0.5145 </r>
       <r>   -16.4823     0.7516     0.5772 </r>
       <r>   -16.3971     0.7846     0.6426 </r>
       <r>   -16.3118     0.8176     0.7109 </r>
       <r>   -16.2266     1.3992     0.7905 </r>
       <r>   -16.1414     2.0634     0.9725 </r>
       <r>   -16.0561     2.3583     1.1610 </r>
       <r>   -15.9709     2.6786     1.3750 </r>
       <r>   -15.8856     2.8939     1.6127 </r>
       <r>   -15.8004     3.2325     1.8738 </r>
       <r>   -15.7152     3.5710     2.1638 </r>
       <r>   -15.6299     4.2167     2.6211 </r>
       <r>   -15.5447     4.2406     2.9785 </r>
       <r>   -15.4594     3.7711     3.3690 </r>
       <r>   -15.3742     3.3342     3.7790 </r>
       <r>   -15.2890     0.0000     4.0000 </r>
       <r>   -15.2037     0.0000     4.0000 </r>
       <r>   -15.1185     0.0000     4.0000 </r>
       <r>   -15.0332     0.0000     4.0000 </r>
       <r>   -14.9480     0.0000     4.0000 </r>
       <r>   -14.8628     0.0000     4.0000 </r>
       <r>   -14.7775     0.0000     4.0000 </r>
       <r>   -14.6923     0.0000     4.0000 </r>
       <r>   -14.6070     0.0000     4.0000 </r>
       <r>   -14.5218     0.0000     4.0000 </r>
       <r>   -14.4366     0.0000     4.0000 </r>
       <r>   -14.3513     0.0000     4.0000 </r>
       <r>   -14.2661     0.0000     4.0000 </r>
       <r>   -14.1808     0.0000     4.0000 </r>
       <r>   -14.0956     0.0000     4.0000 </r>
       <r>   -14.0104     0.0000     4.0000 </r>
       <r>   -13.9251     0.0000     4.0000 </r>
       <r>   -13.8399     0.0000     4.0000 </r>
       <r>   -13.7547     0.0000     4.0000 </r>
       <r>   -13.6694     0.0000     4.0000 </r>
       <r>   -13.5842     0.0000     4.0000 </r>
       <r>   -13.4989     0.0000     4.0000 </r>
       <r>   -13.4137     0.0000     4.0000 </r>
       <r>   -13.3285     0.0000     4.0000 </r>
       <r>   -13.2432     0.0000     4.0000 </r>
       <r>   -13.1580     0.0000     4.0000 </r>
       <r>   -13.0727     0.0000     4.0000 </r>
       <r>   -12.9875     0.0000     4.0000 </r>
       <r>   -12.9023     0.0000     4.0000 </r>
       <r>   -12.8170     0.0000     4.0000 </r>
       <r>   -12.7318     0.0000     4.0000 </r>
       <r>   -12.6465     0.0000     4.0000 </r>
       <r>   -12.5613     0.0000     4.0000 </r>
       <r>   -12.4761     0.0000     4.0000 </r>
       <r>   -12.3908     0.0000     4.0000 </r>
       <r>   -12.3056     0.0000     4.0000 </r>
       <r>   -12.2203     0.0000     4.0000 </r>
       <r>   -12.1351     0.0000     4.0000 </r>
       <r>   -12.0499     0.0000     4.0000 </r>
       <r>   -11.9646     0.0000     4.0000 </r>
       <r>   -11.8794     0.0000     4.0000 </r>
       <r>   -11.7941     0.0000     4.0000 </r>
       <r>   -11.7089     0.0000     4.0000 </r>
       <r>   -11.6237     0.0000     4.0000 </r>
       <r>   -11.5384     0.0000     4.0000 </r>
       <r>   -11.4532     0.0000     4.0000 </r>
       <r>   -11.3679     0.0000     4.0000 </r>
       <r>   -11.2827     0.0000     4.0000 </r>
       <r>   -11.1975     0.0000     4.0000 </r>
       <r>   -11.1122     0.0000     4.0000 </r>
       <r>   -11.0270     0.0000     4.0000 </r>
       <r>   -10.9417     0.0000     4.0000 </r>
       <r>   -10.8565     0.0000     4.0000 </r>
       <r>   -10.7713     0.0000     4.0000 </r>
       <r>   -10.6860     0.0000     4.0000 </r>
       <r>   -10.6008     0.0000     4.0000 </r>
       <r>   -10.5155     0.0000     4.0000 </r>
       <r>   -10.4303     0.0000     4.0000 </r>
       <r>   -10.3451     0.0000     4.0000 </r>
       <r>   -10.2598     0.0000     4.0000 </r>
       <r>   -10.1746     0.0000     4.0000 </r>
       <r>   -10.0893     0.0000     4.0000 </r>
       <r>   -10.0041     0.0000     4.0000 </r>
       <r>    -9.9189     0.0000     4.0000 </r>
       <r>    -9.8336     0.0000     4.0000 </r>
       <r>    -9.7484     0.0000     4.0000 </r>
       <r>    -9.6631     0.0000     4.0000 </r>
       <r>    -9.5779     0.0000     4.0000 </r>
       <r>    -9.4927     0.0000     4.0000 </r>
       <r>    -9.4074     0.0000     4.0000 </r>
       <r>    -9.3222     0.0000     4.0000 </r>
       <r>    -9.2369     0.0000     4.0000 </r>
       <r>    -9.1517     0.0000     4.0000 </r>
       <r>    -9.0665     0.4785     4.0185 </r>
       <r>    -8.9812     1.0161     4.0818 </r>
       <r>    -8.8960     1.8108     4.2023 </r>
       <r>    -8.8108     2.6317     4.3998 </r>
       <r>    -8.7255     2.8530     4.6409 </r>
       <r>    -8.6403     3.8164     4.9585 </r>
       <r>    -8.5550     3.1448     5.2552 </r>
       <r>    -8.4698     5.0515     5.5283 </r>
       <r>    -8.3846     3.4673     5.9803 </r>
       <r>    -8.2993     5.1970     6.1754 </r>
       <r>    -8.2141     2.6830     6.5026 </r>
       <r>    -8.1288     1.3257     6.6403 </r>
       <r>    -8.0436     1.1900     6.7475 </r>
       <r>    -7.9584     1.0543     6.8431 </r>
       <r>    -7.8731     0.9186     6.9272 </r>
       <r>    -7.7879     0.8331     7.0005 </r>
       <r>    -7.7026     0.8380     7.0717 </r>
       <r>    -7.6174     0.8428     7.1434 </r>
       <r>    -7.5322     0.8477     7.2154 </r>
       <r>    -7.4469     1.9289     7.3050 </r>
       <r>    -7.3617     4.9059     7.5963 </r>
       <r>    -7.2764     5.1588     8.1319 </r>
       <r>    -7.1912     5.1060     8.5529 </r>
       <r>    -7.1060     3.2141     8.9075 </r>
       <r>    -7.0207     1.4113     9.1022 </r>
       <r>    -6.9355     1.1840     9.2100 </r>
       <r>    -6.8502     1.0879     9.3068 </r>
       <r>    -6.7650     0.9918     9.3955 </r>
       <r>    -6.6798     0.8957     9.4759 </r>
       <r>    -6.5945    11.7855    10.0732 </r>
       <r>    -6.5093     3.8003    10.6432 </r>
       <r>    -6.4240     2.3597    10.9076 </r>
       <r>    -6.3388     2.3400    11.1915 </r>
       <r>    -6.2536     1.8358    11.3569 </r>
       <r>    -6.1683     1.7241    11.5086 </r>
       <r>    -6.0831     1.6124    11.6508 </r>
       <r>    -5.9978     3.6545    11.8208 </r>
       <r>    -5.9126     2.1681    12.0648 </r>
       <r>    -5.8274     1.6646    12.2407 </r>
       <r>    -5.7421     0.8723    12.3376 </r>
       <r>    -5.6569     0.8658    12.4117 </r>
       <r>    -5.5716     0.8594    12.4852 </r>
       <r>    -5.4864     0.8529    12.5582 </r>
       <r>    -5.4012     3.8548    12.7448 </r>
       <r>    -5.3159     9.2132    13.2701 </r>
       <r>    -5.2307     6.8873    13.9793 </r>
       <r>    -5.1454     1.7165    14.3525 </r>
       <r>    -5.0602     1.4942    14.4889 </r>
       <r>    -4.9750     1.4509    14.6145 </r>
       <r>    -4.8897     1.4817    14.7373 </r>
       <r>    -4.8045     1.6656    14.8715 </r>
       <r>    -4.7192     4.7245    15.0454 </r>
       <r>    -4.6340     3.1776    15.4387 </r>
       <r>    -4.5488     2.2920    15.6482 </r>
       <r>    -4.4635     2.6469    15.8531 </r>
       <r>    -4.3783     0.6109    15.9914 </r>
       <r>    -4.2930     1.4510    16.0364 </r>
       <r>    -4.2078     4.2117    16.2872 </r>
       <r>    -4.1226     3.7024    16.6218 </r>
       <r>    -4.0373     3.3811    16.9243 </r>
       <r>    -3.9521     3.0160    17.1969 </r>
       <r>    -3.8669     2.1043    17.4182 </r>
       <r>    -3.7816     1.7898    17.5842 </r>
       <r>    -3.6964     1.4753    17.7233 </r>
       <r>    -3.6111     1.1608    17.8357 </r>
       <r>    -3.5259     0.8239    17.9654 </r>
       <r>    -3.4407     0.0000    18.0000 </r>
       <r>    -3.3554     0.0000    18.0000 </r>
       <r>    -3.2702     0.0000    18.0000 </r>
       <r>    -3.1849     0.0000    18.0000 </r>
       <r>    -3.0997     0.0000    18.0000 </r>
       <r>    -3.0145     0.0000    18.0000 </r>
       <r>    -2.9292     0.0000    18.0000 </r>
       <r>    -2.8440     0.0000    18.0000 </r>
       <r>    -2.7587     0.0000    18.0000 </r>
       <r>    -2.6735     0.0000    18.0000 </r>
       <r>    -2.5883     0.0000    18.0000 </r>
       <r>    -2.5030     0.0000    18.0000 </r>
       <r>    -2.4178     0.0000    18.0000 </r>
       <r>    -2.3325     0.0000    18.0000 </r>
       <r>    -2.2473     0.0000    18.0000 </r>
       <r>    -2.1621     0.0000    18.0000 </r>
       <r>    -2.0768     0.0000    18.0000 </r>
       <r>    -1.9916     0.0000    18.0000 </r>
       <r>    -1.9063     0.0000    18.0000 </r>
       <r>    -1.8211     0.0000    18.0000 </r>
       <r>    -1.7359     0.0000    18.0000 </r>
       <r>    -1.6506     0.0000    18.0000 </r>
       <r>    -1.5654     0.7070    18.0638 </r>
       <r>    -1.4801     0.9291    18.1336 </r>
       <r>    -1.3949     6.0109    18.3836 </r>
       <r>    -1.3097     8.3470    19.0128 </r>
       <r>    -1.2244     0.9423    19.7133 </r>
       <r>    -1.1392     0.7949    19.7874 </r>
       <r>    -1.0539     3.9547    19.9232 </r>
       <r>    -0.9687     4.3842    20.5297 </r>
       <r>    -0.8835     4.3871    20.9588 </r>
       <r>    -0.7982     4.8059    21.3506 </r>
       <r>    -0.7130     4.0225    21.8448 </r>
       <r>    -0.6277     3.2348    22.1565 </r>
       <r>    -0.5425     2.4084    22.3964 </r>
       <r>    -0.4573     2.6513    22.6036 </r>
       <r>    -0.3720     2.6422    22.8239 </r>
       <r>    -0.2868     1.8965    23.0795 </r>
       <r>    -0.2015     2.4044    23.2628 </r>
       <r>    -0.1163     2.0340    23.5101 </r>
       <r>    -0.0311     1.9712    23.6808 </r>
       <r>     0.0542     1.9085    23.8462 </r>
       <r>     0.1394     1.8131    24.0056 </r>
       <r>     0.2247     1.8979    24.1798 </r>
       <r>     0.3099     1.6075    24.3258 </r>
       <r>     0.3951     1.2332    24.4469 </r>
       <r>     0.4804     0.9637    24.5371 </r>
       <r>     0.5656     1.0633    24.6235 </r>
       <r>     0.6509     1.1630    24.7183 </r>
       <r>     0.7361     3.2270    24.8619 </r>
       <r>     0.8213     2.1259    25.3524 </r>
       <r>     0.9066     1.7951    25.5195 </r>
       <r>     0.9918     1.4642    25.6584 </r>
       <r>     1.0770     1.1333    25.7691 </r>
       <r>     1.1623     1.1237    25.8604 </r>
       <r>     1.2475     1.2921    25.9634 </r>
       <r>     1.3328     0.0000    26.0000 </r>
       <r>     1.4180     0.0000    26.0000 </r>
       <r>     1.5032     0.0000    26.0000 </r>
       <r>     1.5885     0.0000    26.0000 </r>
       <r>     1.6737     0.0000    26.0000 </r>
       <r>     1.7590     0.0000    26.0000 </r>
       <r>     1.8442     0.0000    26.0000 </r>
       <r>     1.9294     0.0000    26.0000 </r>
       <r>     2.0147     0.0370    26.0005 </r>
       <r>     2.0999     0.1549    26.0087 </r>
       <r>     2.1852     0.2729    26.0269 </r>
       <r>     2.2704     0.3909    26.0552 </r>
       <r>     2.3556     0.5089    26.0936 </r>
       <r>     2.4409     0.3344    26.1213 </r>
       <r>     2.5261     0.3550    26.1506 </r>
       <r>     2.6114     0.3756    26.1818 </r>
       <r>     2.6966     0.3962    26.2147 </r>
       <r>     2.7818     0.4664    26.2502 </r>
       <r>     2.8671     0.6078    26.2960 </r>
       <r>     2.9523     0.7491    26.3538 </r>
       <r>     3.0376     0.8598    26.4224 </r>
       <r>     3.1228     0.9702    26.5004 </r>
       <r>     3.2080     1.1056    26.5882 </r>
       <r>     3.2933     1.6615    26.6976 </r>
       <r>     3.3785     1.6999    26.8408 </r>
       <r>     3.4638     1.7384    26.9874 </r>
       <r>     3.5490     2.0954    27.1783 </r>
       <r>     3.6342     2.1334    27.3586 </r>
       <r>     3.7195     2.0838    27.5414 </r>
       <r>     3.8047     1.5803    27.6976 </r>
       <r>     3.8900     1.0769    27.8109 </r>
       <r>     3.9752     1.2215    27.9200 </r>
       <r>     4.0604     0.4266    27.9902 </r>
       <r>     4.1457     0.0000    28.0000 </r>
       <r>     4.2309     0.0000    28.0000 </r>
       <r>     4.3162     0.0000    28.0000 </r>
       <r>     4.4014     0.0000    28.0000 </r>
       <r>     4.4866     0.0000    28.0000 </r>
       <r>     4.5719     0.0000    28.0000 </r>
       <r>     4.6571     0.0000    28.0000 </r>
       <r>     4.7424     0.0000    28.0000 </r>
       <r>     4.8276     0.0000    28.0000 </r>
       <r>     4.9128     0.0000    28.0000 </r>
       <r>     4.9981     0.0000    28.0000 </r>
       <r>     5.0833     0.0000    28.0000 </r>
       <r>     5.1686     0.0000    28.0000 </r>
       <r>     5.2538     0.0000    28.0000 </r>
       <r>     5.3390     0.0000    28.0000 </r>
       <r>     5.4243     0.0000    28.0000 </r>
       <r>     5.5095     0.0000    28.0000 </r>
       <r>     5.5948     0.0000    28.0000 </r>
       <r>     5.6800     0.0000    28.0000 </r>
       <r>     5.7652     0.0000    28.0000 </r>
       <r>     5.8505     0.0000    28.0000 </r>
       <r>     5.9357     0.0000    28.0000 </r>
       <r>     6.0209     0.0000    28.0000 </r>
       <r>     6.1062     0.0000    28.0000 </r>
      </set>
     </set>
    </array>
   </total>
  </dos>
 </calculation>
 <structure name="finalpos" >
  <crystal>
   <varray name="basis" >
    <v>       3.19031573       0.00000000       0.00000000 </v>
    <v>      -1.59515786       2.76289447       0.00000000 </v>
    <v>       0.00000000       0.00000000      26.87900430 </v>
   </varray>
   <i name="volume">    236.92513614 </i>
   <varray name="rec_basis" >
    <v>       0.31344860       0.18096963       0.00000000 </v>
    <v>       0.00000000       0.36193927       0.00000000 </v>
    <v>       0.00000000       0.00000000       0.03720376 </v>
   </varray>
  </crystal>
  <varray name="positions" >
   <v>       0.33333300       0.66666700       0.13838872 </v>
   <v>       0.66666700       0.33333300       0.08016914 </v>
   <v>       0.66666600       0.33333300       0.19660830 </v>
  </varray>
 </structure>
</modeling>
