unknown system                          
   1.00000000000000     
     3.190316    0.000000    0.000000
    -1.595158    2.762894    0.000000
     0.000000    0.000000   14.879004
   Mo   S 
     2     4
Direct
  0.333333  0.666667  0.250000
  0.666667  0.333333  0.750000
  0.333333  0.666667  0.855174
  0.666667  0.333333  0.144826
  0.666666  0.333333  0.355174
  0.333334  0.666667  0.644826
 
   32   32  140
 0.39586     0.39978     0.41152     0.43105     0.45824     0.49269     0.53370     0.58016     0.63062     0.68329    
 0.73608     0.78670     0.83270     0.87163     0.90125     0.91978     0.92608     0.91975     0.90120     0.87156    
 0.83262     0.78661     0.73598     0.68320     0.63054     0.58009     0.53363     0.49264     0.45820     0.43103    
 0.41150     0.39977     0.39977     0.39977     0.40760     0.42325     0.44664     0.47753     0.51540     0.55937    
 0.60816     0.66011     0.71325     0.76539     0.81413     0.85704     0.89172     0.91611     0.92868     0.92865    
 0.91606     0.89170     0.85705     0.81414     0.76534     0.71312     0.65994     0.60801     0.55927     0.51536    
 0.47751     0.44662     0.42323     0.40759     0.41151     0.40760     0.41151     0.42326     0.44279     0.46998    
 0.50446     0.54559     0.59234     0.64324     0.69646     0.74986     0.80107     0.84764     0.88710     0.91720    
 0.93606     0.94246     0.93600     0.91714     0.88708     0.84763     0.80104     0.74976     0.69631     0.64309    
 0.59224     0.54555     0.50444     0.46996     0.44276     0.42324     0.43104     0.42324     0.42324     0.43105    
 0.44666     0.47000     0.50086     0.53878     0.58298     0.63225     0.68498     0.73918     0.79251     0.84243    
 0.88638     0.92197     0.94707     0.96003     0.96000     0.94700     0.92189     0.88628     0.84230     0.79239    
 0.73911     0.68494     0.63221     0.58294     0.53875     0.50082     0.46995     0.44662     0.45820     0.44664    
 0.44277     0.44662     0.45822     0.47755     0.50451     0.53882     0.57994     0.62690     0.67836     0.73254    
 0.78727     0.84001     0.88806     0.92883     0.95998     0.97954     0.98622     0.97953     0.95995     0.92875    
 0.88790     0.83983     0.78719     0.73255     0.67838     0.62687     0.57988     0.53876     0.50444     0.47749    
 0.49262     0.47752     0.46998     0.46995     0.47750     0.49265     0.51539     0.54562     0.58304     0.62698    
 0.67629     0.72945     0.78453     0.83914     0.89054     0.93597     0.97282     0.99885      1.0123      1.0123    
 0.99888     0.97286     0.93593     0.89042     0.83903     0.78451     0.72945     0.67621     0.62687     0.58297    
 0.54557     0.51533     0.53358     0.51535     0.50448     0.50084     0.50444     0.51536     0.53364     0.55929    
 0.59228     0.63230     0.67849     0.72954     0.78375     0.83898     0.89261     0.94176     0.98367      1.0158    
  1.0360      1.0428      1.0359      1.0158     0.98375     0.94177     0.89253     0.83893     0.78371     0.72942    
 0.67832     0.63221     0.59229     0.55928     0.58004     0.55926     0.54560     0.53881     0.53877     0.54558    
 0.55934     0.58010     0.60800     0.64310     0.68498     0.73264     0.78461     0.83902     0.89344     0.94503    
 0.99090      1.0283      1.0549      1.0686      1.0685      1.0548      1.0284     0.99097     0.94500     0.89336    
 0.83898     0.78454     0.73248     0.68488     0.64314     0.60806     0.63054     0.60799     0.59228     0.58302    
 0.57991     0.58296     0.59233     0.60815     0.63058     0.65994     0.69630     0.73910     0.78723     0.83912    
 0.89264     0.94507     0.99347      1.0350      1.0671      1.0873      1.0941      1.0871      1.0670      1.0350    
 0.99344     0.94495     0.89259     0.83915     0.78719     0.73901     0.69631     0.66003     0.68327     0.65995    
 0.64309     0.63227     0.62693     0.62686     0.63222     0.64323     0.66012     0.68328     0.71317     0.74976    
 0.79237     0.83984     0.89046     0.94181     0.99096      1.0350      1.0712      1.0971      1.1105      1.1104    
  1.0970      1.0713      1.0350     0.99084     0.94170     0.89052     0.83993     0.79232     0.74968     0.71320    
 0.73610     0.71317     0.69627     0.68493     0.67844     0.67624     0.67831     0.68494     0.69643     0.71326    
 0.73609     0.76542     0.80107     0.84229     0.88787     0.93591     0.98373      1.0283      1.0669      1.0970    
  1.1161      1.1225      1.1160      1.0970      1.0671      1.0283     0.98358     0.93591     0.88802     0.84231    
 0.80092     0.76534     0.78669     0.76538     0.74969     0.73904     0.73260     0.72953     0.72944     0.73251    
 0.73912     0.74979     0.76535     0.78670     0.81424     0.84769     0.88628     0.92872     0.97284      1.0158    
  1.0548      1.0872      1.1104      1.1225      1.1225      1.1104      1.0873      1.0549      1.0157     0.97275    
 0.92881     0.88636     0.84755     0.81406     0.83262     0.81416     0.80099     0.79231     0.78722     0.78463    
 0.78379     0.78455     0.78726     0.79245     0.80099     0.81406     0.83266     0.85711     0.88711     0.92188    
 0.95992     0.99889      1.0360      1.0686      1.0941      1.1104      1.1159      1.1103      1.0941      1.0687    
  1.0360     0.99879     0.95995     0.92200     0.88707     0.85693     0.87149     0.85703     0.84763     0.84228    
 0.83986     0.83915     0.83903     0.83900     0.83916     0.84003     0.84242     0.84758     0.85696     0.87156    
 0.89171     0.91713     0.94697     0.97949      1.0123      1.0429      1.0686      1.0873      1.0970      1.0969    
  1.0871      1.0686      1.0429      1.0123     0.97948     0.94708     0.91721     0.89162     0.90113     0.89166    
 0.88712     0.88634     0.88794     0.89049     0.89261     0.89339     0.89258     0.89058     0.88813     0.88644    
 0.88711     0.89167     0.90119     0.91604     0.93597     0.95995     0.98613      1.0122      1.0359      1.0549    
  1.0671      1.0713      1.0670      1.0548      1.0360      1.0123     0.98614     0.96001     0.93608     0.91606    
 0.91973     0.91604     0.91719     0.92197     0.92880     0.93595     0.94179     0.94501     0.94497     0.94175    
 0.93601     0.92892     0.92206     0.91726     0.91611     0.91975     0.92864     0.94243     0.95998     0.97945    
 0.99874      1.0157      1.0284      1.0351      1.0351      1.0284      1.0158     0.99885     0.97950     0.96000    
 0.94249     0.92868     0.92608     0.92867     0.93604     0.94704     0.95997     0.97286     0.98374     0.99098    
 0.99350     0.99093     0.98367     0.97284     0.96003     0.94714     0.93613     0.92871     0.92608     0.92866    
 0.93604     0.94704     0.95992     0.97275     0.98361     0.99088     0.99347     0.99096     0.98372     0.97285    
 0.95998     0.94706     0.93606     0.92868     0.91975     0.92869     0.94249     0.96000     0.97951     0.99888    
  1.0158      1.0284      1.0351      1.0351      1.0284      1.0158     0.99884     0.97956     0.96009     0.94252    
 0.92868     0.91975     0.91607     0.91718     0.92197     0.92883     0.93594     0.94170     0.94495     0.94500    
 0.94179     0.93596     0.92882     0.92201     0.91723     0.91608     0.90117     0.91609     0.93610     0.96003    
 0.98617      1.0123      1.0360      1.0549      1.0671      1.0714      1.0672      1.0550      1.0360      1.0123    
 0.98625     0.96006     0.93606     0.91608     0.90119     0.89163     0.88704     0.88637     0.88807     0.89053    
 0.89256     0.89338     0.89263     0.89052     0.88799     0.88639     0.88718     0.89172     0.87156     0.89168    
 0.91725     0.94711     0.97952      1.0123      1.0430      1.0687      1.0872      1.0970      1.0971      1.0874    
  1.0687      1.0429      1.0124     0.97961     0.94707     0.91721     0.89175     0.87156     0.85692     0.84753    
 0.84236     0.83999     0.83914     0.83900     0.83905     0.83918     0.83992     0.84235     0.84771     0.85711    
 0.83270     0.85701     0.88714     0.92206     0.96000     0.99884      1.0361      1.0688      1.0942      1.1104    
  1.1160      1.1105      1.0942      1.0686      1.0361     0.99899     0.96003     0.92197     0.88718     0.85714    
 0.83266     0.81403     0.80095     0.79241     0.78723     0.78455     0.78381     0.78467     0.78727     0.79238    
 0.80107     0.81425     0.78679     0.81415     0.84763     0.88644     0.92888     0.97281      1.0158      1.0550    
  1.0874      1.1105      1.1225      1.1226      1.1105      1.0872      1.0549      1.0159     0.97292     0.92880    
 0.88635     0.84774     0.81426     0.78670     0.76533     0.74977     0.73910     0.73250     0.72945     0.72956    
 0.73265     0.73910     0.74977     0.76548     0.73620     0.76544     0.80102     0.84240     0.88810     0.93599    
 0.98365      1.0284      1.0672      1.0971      1.1161      1.1226      1.1161      1.0970      1.0670      1.0284    
 0.98379     0.93598     0.88793     0.84235     0.80111     0.76544     0.73609     0.71324     0.69642     0.68493    
 0.67832     0.67627     0.67848     0.68499     0.69634     0.71326     0.68337     0.71330     0.74979     0.79243    
 0.84003     0.89062     0.94178     0.99092      1.0351      1.0713      1.0970      1.1105      1.1106      1.0972    
  1.0713      1.0350     0.99100     0.94185     0.89050     0.83988     0.79241     0.74978     0.71318     0.68328    
 0.66011     0.64323     0.63222     0.62687     0.62696     0.63232     0.64316     0.66003     0.63062     0.66012    
 0.69641     0.73911     0.78730     0.83925     0.89269     0.94505     0.99352      1.0351      1.0670      1.0872    
  1.0942      1.0874      1.0671      1.0351     0.99350     0.94509     0.89266     0.83914     0.78726     0.73912    
 0.69631     0.65995     0.63058     0.60815     0.59233     0.58297     0.57994     0.58306     0.59233     0.60806    
 0.58011     0.60814     0.64324     0.68498     0.73259     0.78465     0.83909     0.89346     0.94509     0.99105    
  1.0284      1.0549      1.0686      1.0687      1.0550      1.0284     0.99093     0.94504     0.89344     0.83902    
 0.78462     0.73265     0.68499     0.64310     0.60800     0.58010     0.55934     0.54559     0.53879     0.53884    
 0.54564     0.55932     0.53364     0.55935     0.59238     0.63231     0.67843     0.72954     0.78383     0.83904    
 0.89264     0.94186     0.98382      1.0159      1.0360      1.0429      1.0360      1.0158     0.98369     0.94176    
 0.89259     0.83896     0.78374     0.72953     0.67849     0.63229     0.59228     0.55929     0.53364     0.51537    
 0.50445     0.50087     0.50452     0.51540     0.49267     0.51539     0.54565     0.58306     0.62696     0.67632    
 0.72956     0.78463     0.83914     0.89051     0.93601     0.97293     0.99893      1.0124      1.0124     0.99888    
 0.97283     0.93596     0.89051     0.83910     0.78449     0.72942     0.67627     0.62696     0.58303     0.54561    
 0.51539     0.49265     0.47751     0.46997     0.47000     0.47756     0.45824     0.47754     0.50450     0.53884    
 0.57997     0.62697     0.67848     0.73266     0.78730     0.83994     0.88798     0.92882     0.96000     0.97957    
 0.98624     0.97956     0.95997     0.92881     0.88802     0.83995     0.78722     0.73249     0.67832     0.62687    
 0.57991     0.53880     0.50449     0.47754     0.45822     0.44663     0.44279     0.44666     0.43106     0.44666    
 0.47000     0.50088     0.53883     0.58303     0.63230     0.68504     0.73921     0.79250     0.84240     0.88636    
 0.92195     0.94703     0.96002     0.96004     0.94705     0.92194     0.88633     0.84236     0.79244     0.73912    
 0.68492     0.63220     0.58294     0.53875     0.50084     0.46999     0.44665     0.43105     0.42325     0.42326    
 0.41152     0.42326     0.44280     0.47001     0.50451     0.54562     0.59232     0.64319     0.69642     0.74986    
 0.80114     0.84772     0.88715     0.91718     0.93602     0.94246     0.93604     0.91716     0.88704     0.84756    
 0.80099     0.74978     0.69638     0.64317     0.59228     0.54555     0.50443     0.46995     0.44278     0.42325    
 0.41151     0.40760     0.39978     0.40761     0.42326     0.44666     0.47756     0.51542     0.55935     0.60809    
 0.66003     0.71322     0.76544     0.81424     0.85713     0.89175     0.91609     0.92866     0.92867     0.91607    
 0.89166     0.85696     0.81405     0.76530     0.71317     0.66003     0.60809     0.55931     0.51535     0.47749    
 0.44662     0.42324     0.40759     0.39977     0.40939     0.41356     0.42607     0.44689     0.47589     0.51269    
 0.55659     0.60646     0.66079     0.71764     0.77476     0.82963     0.87955     0.92182     0.95400     0.97414    
 0.98099     0.97413     0.95396     0.92176     0.87946     0.82952     0.77465     0.71754     0.66070     0.60640    
 0.55653     0.51264     0.47585     0.44686     0.42605     0.41355     0.41355     0.41356     0.42259     0.44063    
 0.46761     0.50325     0.54700     0.59790     0.65455     0.71507     0.77718     0.83828     0.89553     0.94599    
 0.98683      1.0156      1.0304      1.0304      1.0155     0.98681     0.94601     0.89554     0.83822     0.77705    
 0.71490     0.65441     0.59781     0.54696     0.50323     0.46759     0.44061     0.42258     0.42606     0.42120    
 0.42606     0.44064     0.46487     0.49859     0.54137     0.59246     0.65066     0.71421     0.78090     0.84804    
 0.91265     0.97154      1.0216      1.0597      1.0837      1.0918      1.0836      1.0597      1.0215     0.97154    
 0.91262     0.84795     0.78076     0.71407     0.65055     0.59241     0.54135     0.49856     0.46484     0.44062    
 0.44687     0.43650     0.43650     0.44688     0.46762     0.49861     0.53954     0.58986     0.64857     0.71416    
 0.78455     0.85713     0.92881     0.99614      1.0556      1.1039      1.1379      1.1556      1.1555      1.1379    
  1.1038      1.0555     0.99602     0.92870     0.85706     0.78450     0.71411     0.64853     0.58983     0.53951    
 0.49855     0.46758     0.47585     0.45942     0.45393     0.45940     0.47587     0.50327     0.54141     0.58990    
 0.64797     0.71436     0.78719     0.86406     0.94193      1.0172      1.0861      1.1447      1.1896      1.2178    
  1.2274      1.2178      1.1895      1.1446      1.0859      1.0170     0.94185     0.86407     0.78721     0.71432    
 0.64792     0.58985     0.54134     0.50320     0.51262     0.48973     0.47827     0.47825     0.48971     0.51266    
 0.54699     0.59248     0.64862     0.71442     0.78824     0.86786     0.95048      1.0326      1.1101      1.1789    
  1.2348      1.2744      1.2950      1.2950      1.2745      1.2349      1.1789      1.1100      1.0325     0.95046    
 0.86786     0.78816     0.71431     0.64857     0.59244     0.54693     0.55647     0.52695     0.50926     0.50333    
 0.50921     0.52696     0.55654     0.59783     0.65060     0.71420     0.78731     0.86795     0.95351      1.0407    
  1.1255      1.2035      1.2702      1.3214      1.3537      1.3647      1.3537      1.3215      1.2703      1.2035    
  1.1255      1.0407     0.95348     0.86783     0.78715     0.71412     0.65062     0.59782     0.60634     0.57026    
 0.54631     0.53433     0.53429     0.54628     0.57034     0.60641     0.65440     0.71407     0.78455     0.86415    
 0.95055      1.0407      1.1309      1.2165      1.2927      1.3551      1.3994      1.4223      1.4222      1.3993    
  1.3551      1.2928      1.2164      1.1308      1.0407     0.95049     0.86399     0.78444     0.71412     0.65446    
 0.66070     0.61847     0.58850     0.57063     0.56463     0.57055     0.58855     0.61862     0.66074     0.71491    
 0.78074     0.85706     0.94188      1.0326      1.1256      1.2165      1.3005      1.3727      1.4284      1.4636    
  1.4755      1.4634      1.4283      1.3727      1.3005      1.2164      1.1255      1.0326     0.94185     0.85695    
 0.78075     0.71500     0.71762     0.67000     0.63458     0.61123     0.59959     0.59951     0.61117     0.63472    
 0.67016     0.71761     0.77709     0.84795     0.92868      1.0170      1.1100      1.2036      1.2928      1.3726    
  1.4382      1.4850      1.5093      1.5092      1.4849      1.4383      1.3727      1.2927      1.2035      1.1101    
  1.0171     0.92862     0.84787     0.77713     0.77478     0.72289     0.68291     0.65482     0.63816     0.63255    
 0.63802     0.65482     0.68309     0.72297     0.77475     0.83830     0.91265     0.99600      1.0859      1.1788    
  1.2703      1.3551      1.4282      1.4849      1.5208      1.5331      1.5207      1.4850      1.4284      1.3551    
  1.2701      1.1788      1.0860     0.99602     0.91249     0.83822     0.82962     0.77488     0.73156     0.69970    
 0.67891     0.66859     0.66850     0.67881     0.69980     0.73167     0.77483     0.82961     0.89562     0.97158    
  1.0555      1.1446      1.2349      1.3215      1.3993      1.4634      1.5092      1.5330      1.5330      1.5092    
  1.4636      1.3994      1.3214      1.2348      1.1447      1.0556     0.97144     0.89544     0.87946     0.82348    
 0.77832     0.74397     0.72013     0.70614     0.70145     0.70604     0.72017     0.74412     0.77832     0.82336    
 0.87950     0.94606      1.0215      1.1038      1.1895      1.2745      1.3537      1.4223      1.4755      1.5092    
  1.5207      1.5091      1.4755      1.4224      1.3537      1.2744      1.1895      1.1039      1.0215     0.94588    
 0.92168     0.86621     0.82083     0.78551     0.75992     0.74343     0.73532     0.73527     0.74343     0.76009    
 0.78565     0.82077     0.86612     0.92175     0.98681      1.0597      1.1378      1.2177      1.2949      1.3647    
  1.4223      1.4636      1.4850      1.4848      1.4634      1.4223      1.3648      1.2949      1.2177      1.1379    
  1.0597     0.98673     0.95388     0.90071     0.85680     0.82212     0.79627     0.77861     0.76837     0.76496    
 0.76832     0.77870     0.79646     0.82222     0.85677     0.90072     0.95395      1.0155      1.0836      1.1555    
  1.2273      1.2949      1.3536      1.3994      1.4284      1.4383      1.4283      1.3993      1.3537      1.2949    
  1.2273      1.1555      1.0837      1.0155     0.97409     0.92500     0.88417     0.85170     0.82713     0.80977    
 0.79879     0.79344     0.79339     0.79873     0.80984     0.82725     0.85177     0.88422     0.92507     0.97412    
  1.0303      1.0918      1.1555      1.2177      1.2743      1.3214      1.3551      1.3728      1.3727      1.3551    
  1.3215      1.2744      1.2177      1.1555      1.0919      1.0304     0.98099     0.93757     0.90131     0.87247    
 0.85065     0.83504     0.82474     0.81891     0.81700     0.81884     0.82468     0.83503     0.85069     0.87255    
 0.90139     0.93762     0.98098      1.0304      1.0837      1.1379      1.1895      1.2348      1.2701      1.2927    
  1.3005      1.2928      1.2703      1.2349      1.1896      1.1379      1.0837      1.0304     0.97412     0.93760    
 0.90718     0.88320     0.86536     0.85282     0.84457     0.83965     0.83739     0.83740     0.83965     0.84452    
 0.85279     0.86540     0.88327     0.90720     0.93759     0.97410      1.0155      1.0597      1.1039      1.1447    
  1.1789      1.2035      1.2164      1.2164      1.2035      1.1789      1.1447      1.1039      1.0598      1.0155    
 0.95394     0.92505     0.90137     0.88323     0.87037     0.86201     0.85702     0.85430     0.85304     0.85275    
 0.85315     0.85436     0.85699     0.86202     0.87044     0.88325     0.90133     0.92503     0.95392     0.98673    
  1.0215      1.0556      1.0861      1.1101      1.1255      1.1308      1.1256      1.1101      1.0860      1.0556    
  1.0216     0.98683     0.92176     0.90074     0.88422     0.87253     0.86537     0.86200     0.86129     0.86193    
 0.86291     0.86364     0.86373     0.86305     0.86194     0.86127     0.86208     0.86544     0.87250     0.88419    
 0.90078     0.92174     0.94586     0.97142     0.99607      1.0172      1.0326      1.0407      1.0408      1.0326    
  1.0171     0.99607     0.97160     0.94606     0.87955     0.86619     0.85682     0.85177     0.85067     0.85279    
 0.85704     0.86200     0.86637     0.86935     0.87047     0.86944     0.86636     0.86190     0.85705     0.85292    
 0.85069     0.85170     0.85686     0.86631     0.87950     0.89542     0.91251     0.92870     0.94188     0.95050    
 0.95357     0.95062     0.94193     0.92869     0.91264     0.89563     0.82971     0.82347     0.82083     0.82222    
 0.82722     0.83501     0.84453     0.85438     0.86307     0.86943     0.87283     0.87287     0.86941     0.86290    
 0.85428     0.84462     0.83510     0.82714     0.82214     0.82093     0.82357     0.82962     0.83822     0.84794    
 0.85704     0.86401     0.86787     0.86797     0.86416     0.85706     0.84796     0.83836     0.77487     0.77493    
 0.77836     0.78564     0.79644     0.80982     0.82466     0.83962     0.85313     0.86374     0.87052     0.87291    
 0.87058     0.86367     0.85298     0.83963     0.82478     0.80980     0.79627     0.78557     0.77843     0.77493    
 0.77477     0.77717     0.78085     0.78449     0.78715     0.78821     0.78730     0.78456     0.78079     0.77718    
 0.71771     0.72302     0.73167     0.74410     0.76010     0.77874     0.79878     0.81885     0.83736     0.85272    
 0.86367     0.86944     0.86952     0.86377     0.85268     0.83731     0.81893     0.79884     0.77863     0.75994    
 0.74406     0.73165     0.72290     0.71763     0.71508     0.71420     0.71413     0.71432     0.71440     0.71422    
 0.71414     0.71500     0.66079     0.67017     0.68306     0.69979     0.72022     0.74353     0.76843     0.79347    
 0.81702     0.83738     0.85302     0.86290     0.86637     0.86306     0.85310     0.83733     0.81700     0.79351    
 0.76841     0.74343     0.72017     0.69978     0.68295     0.67000     0.66074     0.65454     0.65065     0.64857    
 0.64797     0.64865     0.65065     0.65447     0.60642     0.61862     0.63472     0.65487     0.67890     0.70615    
 0.73537     0.76504     0.79350     0.81896     0.83967     0.85426     0.86185     0.86192     0.85434     0.83962    
 0.81885     0.79345     0.76501     0.73530     0.70612     0.67895     0.65487     0.63459     0.61848     0.60640    
 0.59787     0.59246     0.58987     0.58992     0.59251     0.59786     0.55654     0.57035     0.58860     0.61127    
 0.63814     0.66860     0.70149     0.73532     0.76838     0.79885     0.82482     0.84461     0.85699     0.86123    
 0.85701     0.84455     0.82469     0.79875     0.76833     0.73524     0.70140     0.66859     0.63820     0.61126    
 0.58850     0.57028     0.55653     0.54696     0.54136     0.53955     0.54142     0.54700     0.51267     0.52699    
 0.54635     0.57066     0.59962     0.63263     0.66862     0.70612     0.74342     0.77864     0.80984     0.83511    
 0.85288     0.86204     0.86203     0.85283     0.83503     0.80979     0.77864     0.74337     0.70598     0.66848    
 0.63257     0.59962     0.57063     0.54631     0.52698     0.51265     0.50322     0.49858     0.49861     0.50327    
 0.47589     0.48975     0.50927     0.53436     0.56469     0.59963     0.63819     0.67897     0.72022     0.76001    
 0.79633     0.82716     0.85067     0.86541     0.87043     0.86539     0.85065     0.82715     0.79636     0.76002    
 0.72013     0.67880     0.63803     0.59953     0.56463     0.53433     0.50926     0.48975     0.47587     0.46759    
 0.46487     0.46763     0.44690     0.45944     0.47829     0.50337     0.53435     0.57063     0.61127     0.65492    
 0.69988     0.74416     0.78563     0.82215     0.85167     0.87246     0.88322     0.88323     0.87247     0.85165    
 0.82211     0.78560     0.74411     0.69979     0.65481     0.61116     0.57053     0.53427     0.50332     0.47828    
 0.45943     0.44688     0.44063     0.44064     0.42607     0.43652     0.45396     0.47830     0.50928     0.54633    
 0.58855     0.63468     0.68307     0.73174     0.77846     0.82091     0.85682     0.88416     0.90130     0.90716    
 0.90132     0.88413     0.85671     0.82075     0.77832     0.73166     0.68304     0.63466     0.58851     0.54625    
 0.50920     0.47825     0.45393     0.43651     0.42606     0.42259     0.41356     0.42121     0.43652     0.45944    
 0.48977     0.52701     0.57035     0.61857     0.67009     0.72295     0.77493     0.82355     0.86630     0.90080    
 0.92505     0.93758     0.93759     0.92504     0.90071     0.86612     0.82335     0.77478     0.72289     0.67008    
 0.61857     0.57031     0.52695     0.48970     0.45940     0.43650     0.42120     0.41355     0.45036     0.45534    
 0.47026     0.49514     0.52984     0.57404     0.62703     0.68762     0.75406     0.82406     0.89481     0.96307    
  1.0254      1.0783      1.1186      1.1438      1.1524      1.1438      1.1185      1.0782      1.0253     0.96295    
 0.89469     0.82395     0.75398     0.68755     0.62698     0.57399     0.52980     0.49511     0.47025     0.45533    
 0.45533     0.45534     0.46676     0.48960     0.52376     0.56901     0.62475     0.68995     0.76297     0.84152    
 0.92266      1.0029      1.0785      1.1452      1.1993      1.2375      1.2572      1.2571      1.2374      1.1993    
  1.1452      1.0785      1.0029     0.92252     0.84134     0.76282     0.68986     0.62471     0.56899     0.52374    
 0.48958     0.46675     0.47025     0.46381     0.47026     0.48960     0.52177     0.56660     0.62363     0.69203    
 0.77035     0.85644     0.94737      1.0395      1.1286      1.2102      1.2796      1.3327      1.3660      1.3773    
  1.3659      1.3326      1.2796      1.2102      1.1286      1.0394     0.94724     0.85629     0.77024     0.69198    
 0.62361     0.56657     0.52174     0.48958     0.49512     0.48079     0.48079     0.49512     0.52377     0.56662    
 0.62333     0.69327     0.77523     0.86729     0.96672      1.0699      1.1723      1.2690      1.3546      1.4243    
  1.4734      1.4989      1.4989      1.4733      1.4241      1.3545      1.2689      1.1722      1.0698     0.96668    
 0.86724     0.77518     0.69323     0.62329     0.56656     0.52374     0.52980     0.50629     0.49843     0.50627    
 0.52982     0.56902     0.62367     0.69329     0.77697     0.87306     0.97907      1.0916      1.2061      1.3173    
  1.4194      1.5065      1.5733      1.6153      1.6296      1.6153      1.5733      1.5064      1.4193      1.3172    
  1.2060      1.0916     0.97908     0.87302     0.77692     0.69325     0.62361     0.56896     0.57396     0.54014    
 0.52321     0.52318     0.54011     0.57401     0.62474     0.69204     0.77527     0.87312     0.98339      1.1029    
  1.2275      1.3517      1.4694      1.5740      1.6592      1.7195      1.7508      1.7508      1.7196      1.6593    
  1.5740      1.4693      1.3516      1.2274      1.1029     0.98331     0.87301     0.77522     0.69201     0.62468    
 0.62691     0.58193     0.55497     0.54594     0.55491     0.58194     0.62698     0.68988     0.77029     0.86733    
 0.97918      1.1030      1.2348      1.3696      1.5010      1.6220      1.7254      1.8049      1.8549      1.8720    
  1.8549      1.8050      1.7256      1.6220      1.5009      1.3695      1.2348      1.1029     0.97901     0.86725    
 0.77031     0.68986     0.68749     0.63089     0.59324     0.57442     0.57437     0.59321     0.63097     0.68756    
 0.76282     0.85630     0.96672      1.0916      1.2275      1.3696      1.5118      1.6469      1.7672      1.8655    
  1.9352      1.9713      1.9712      1.9351      1.8656      1.7673      1.6469      1.5117      1.3696      1.2275    
  1.0915     0.96661     0.85636     0.76289     0.75398     0.68577     0.63721     0.60817     0.59844     0.60809    
 0.63726     0.68593     0.75401     0.84135     0.94723      1.0698      1.2061      1.3517      1.5010      1.6469    
  1.7815      1.8970      1.9858      2.0418      2.0609      2.0416      1.9857      1.8970      1.7815      1.6468    
  1.5010      1.3517      1.2060      1.0697     0.94723     0.84145     0.82405     0.74485     0.68563     0.64638    
 0.62678     0.62669     0.64631     0.68577     0.74502     0.82403     0.92255      1.0394      1.1722      1.3172    
  1.4693      1.6220      1.7673      1.8969      2.0030      2.0784      2.1175      2.1174      2.0783      2.0031    
  1.8970      1.7672      1.6219      1.4694      1.3173      1.1721      1.0393     0.92261     0.89483     0.80587    
 0.73680     0.68784     0.65864     0.64883     0.65849     0.68784     0.73698     0.80595     0.89478      1.0029    
  1.1286      1.2688      1.4192      1.5740      1.7255      1.8655      1.9857      2.0783      2.1368      2.1567    
  2.1367      2.0784      1.9859      1.8655      1.7253      1.5740      1.4194      1.2689      1.1285      1.0029    
 0.96306     0.86616     0.78864     0.73094     0.69286     0.67388     0.67377     0.69276     0.73105     0.78876    
 0.86610     0.96303      1.0785      1.2102      1.3545      1.5064      1.6593      1.8050      1.9351      2.0417    
  2.1174      2.1567      2.1566      2.1174      2.0419      1.9353      1.8049      1.6591      1.5065      1.3546    
  1.2101      1.0784      1.0253     0.92274     0.83872     0.77380     0.72798     0.70075     0.69164     0.70064    