unknown system                          
   1.00000000000000     
     3.190316    0.000000    0.000000
    -1.595158    2.762894    0.000000
     0.000000    0.000000   14.879004
   Mo   S 
     2     4
Direct
  0.333333  0.666667  0.250000
  0.666667  0.333333  0.750000
  0.333333  0.666667  0.855174
  0.666667  0.333333  0.144826
  0.666666  0.333333  0.355174
  0.333334  0.666667  0.644826
 
   32   32  140
 0.39586004331E+00 0.39977535518E+00 0.41151616065E+00 0.43105384652E+00 0.45823931510E+00
 0.49269039610E+00 0.53369505084E+00 0.58016148995E+00 0.63062443088E+00 0.68328899451E+00
 0.73608213768E+00 0.78670310911E+00 0.83270238598E+00 0.87162905807E+00 0.90124843296E+00
 0.91977831695E+00 0.92607761382E+00 0.91975464374E+00 0.90120097892E+00 0.87155934825E+00
 0.83261520055E+00 0.78660619556E+00 0.73598401698E+00 0.68319647469E+00 0.63054143048E+00
 0.58008950386E+00 0.53363441352E+00 0.49264125623E+00 0.45820179382E+00 0.43102761336E+00
 0.41150010786E+00 0.39976791129E+00 0.39976925024E+00 0.39977209900E+00 0.40760218298E+00
 0.42325223467E+00 0.44664324039E+00 0.47753083771E+00 0.51539871737E+00 0.55936752079E+00
 0.60815612411E+00 0.66010773552E+00 0.71325494082E+00 0.76539004476E+00 0.81413488972E+00
 0.85703577862E+00 0.89171771577E+00 0.91610722922E+00 0.92868054640E+00 0.92865428187E+00
 0.91605805291E+00 0.89169739833E+00 0.85705387096E+00 0.81414457466E+00 0.76533523220E+00
 0.71312259858E+00 0.65993717026E+00 0.60800632723E+00 0.55927480154E+00 0.51535772405E+00
 0.47751168783E+00 0.44662443969E+00 0.42323385223E+00 0.40759145103E+00 0.41150535980E+00
 0.40759590610E+00 0.41151067330E+00 0.42325558893E+00 0.44279408450E+00 0.46997815451E+00
 0.50446141305E+00 0.54559391701E+00 0.59233641750E+00 0.64323581741E+00 0.69645893111E+00
 0.74985999902E+00 0.80107462290E+00 0.84763572214E+00 0.88709990683E+00 0.91720045532E+00
 0.93606359025E+00 0.94246276500E+00 0.93600112723E+00 0.91713676905E+00 0.88707876557E+00
 0.84763405815E+00 0.80103744947E+00 0.74975986982E+00 0.69631415993E+00 0.64309158982E+00
 0.59223544640E+00 0.54554790335E+00 0.50444397760E+00 0.46995623859E+00 0.44276401961E+00
 0.42323519085E+00 0.43103564359E+00 0.42324266540E+00 0.42323976386E+00 0.43104523203E+00
 0.44665892556E+00 0.47000187298E+00 0.50085760873E+00 0.53877913097E+00 0.58297546169E+00
 0.63224709346E+00 0.68498367094E+00 0.73918380267E+00 0.79251022720E+00 0.84242706577E+00
 0.88638452847E+00 0.92197278503E+00 0.94706539442E+00 0.96003459860E+00 0.96000475066E+00
 0.94699623518E+00 0.92189022354E+00 0.88628307445E+00 0.84230199413E+00 0.79239250474E+00
 0.73910536379E+00 0.68493578959E+00 0.63220571563E+00 0.58293865587E+00 0.53874909599E+00
 0.50081832172E+00 0.46994820802E+00 0.44661774778E+00 0.45820179391E+00 0.44663703716E+00
 0.44277265641E+00 0.44662209522E+00 0.45822077325E+00 0.47755181616E+00 0.50450540247E+00
 0.53881758913E+00 0.57993543605E+00 0.62690483862E+00 0.67836131298E+00 0.73254366860E+00
 0.78727281649E+00 0.84000794070E+00 0.88805901244E+00 0.92883067639E+00 0.95997619573E+00
 0.97954428438E+00 0.98621701961E+00 0.97953385718E+00 0.95994973963E+00 0.92874815546E+00
 0.88789670299E+00 0.83983431318E+00 0.78719008042E+00 0.73255469205E+00 0.67837559744E+00
 0.62687062355E+00 0.57987973702E+00 0.53876217554E+00 0.50443872556E+00 0.47748923909E+00
 0.49261662230E+00 0.47752054743E+00 0.46997785061E+00 0.46995394581E+00 0.47749911122E+00
 0.49265324832E+00 0.51539084000E+00 0.54561536637E+00 0.58303765119E+00 0.62697560395E+00
 0.67629017220E+00 0.72945101726E+00 0.78452941143E+00 0.83913769473E+00 0.89054394282E+00
 0.93596740474E+00 0.97282056914E+00 0.99884662064E+00 0.10123231680E+01 0.10123316841E+01
 0.99888412221E+00 0.97286375041E+00 0.93593355745E+00 0.89041846394E+00 0.83903004976E+00
 0.78451292398E+00 0.72944935777E+00 0.67621471964E+00 0.62686709941E+00 0.58297132092E+00
 0.54557253760E+00 0.51533175089E+00 0.53358229222E+00 0.51535328879E+00 0.50448494509E+00
 0.50084310473E+00 0.50444030297E+00 0.51536089515E+00 0.53363897185E+00 0.55928881819E+00
 0.59228247398E+00 0.63229720411E+00 0.67849014325E+00 0.72954129025E+00 0.78375367877E+00
 0.83898336278E+00 0.89260745166E+00 0.94176316667E+00 0.98366619723E+00 0.10157765303E+01
 0.10359638087E+01 0.10428286353E+01 0.10359474657E+01 0.10158254244E+01 0.98375416154E+00
 0.94177222215E+00 0.89253398535E+00 0.83892816237E+00 0.78371454048E+00 0.72942472316E+00
 0.67832347624E+00 0.63221374653E+00 0.59229281962E+00 0.55927613980E+00 0.58003880752E+00
 0.55925789041E+00 0.54560147547E+00 0.53880805137E+00 0.53876975497E+00 0.54558037837E+00
 0.55933694538E+00 0.58010034048E+00 0.60800331229E+00 0.64309857597E+00 0.68497940705E+00
 0.73263833174E+00 0.78461307418E+00 0.83901893023E+00 0.89343561977E+00 0.94502739765E+00
 0.99090448544E+00 0.10283461101E+01 0.10548828721E+01 0.10685905853E+01 0.10685178168E+01
 0.10547884730E+01 0.10283743314E+01 0.99096940882E+00 0.94499575794E+00 0.89335880716E+00
 0.83897885801E+00 0.78453898468E+00 0.73248288593E+00 0.68487706381E+00 0.64314228579E+00
 0.60805836108E+00 0.63054142976E+00 0.60799435760E+00 0.59227774170E+00 0.58302092261E+00
 0.57991162870E+00 0.58295904185E+00 0.59233165177E+00 0.60814677160E+00 0.63058301529E+00
 0.65994268426E+00 0.69629567140E+00 0.73910028227E+00 0.78723221200E+00 0.83912026661E+00
 0.89263745468E+00 0.94506884587E+00 0.99346649914E+00 0.10350153450E+01 0.10670787257E+01
 0.10873075434E+01 0.10941275917E+01 0.10871381671E+01 0.10669805048E+01 0.10350446867E+01
 0.99344399535E+00 0.94495497525E+00 0.89258610734E+00 0.83914616268E+00 0.78719007960E+00
 0.73900585454E+00 0.69630890868E+00 0.66002731030E+00 0.68327339135E+00 0.65995191216E+00
 0.64309411039E+00 0.63226811264E+00 0.62692959148E+00 0.62685843379E+00 0.63221730562E+00
 0.64323111772E+00 0.66011724219E+00 0.68328133169E+00 0.71316628504E+00 0.74975532184E+00
 0.79237158854E+00 0.83983886940E+00 0.89045682843E+00 0.94180809467E+00 0.99096082571E+00
 0.10349953474E+01 0.10712163052E+01 0.10970834084E+01 0.11104998667E+01 0.11104083215E+01
 0.10969706143E+01 0.10712507999E+01 0.10350301243E+01 0.99084179597E+00 0.94169530613E+00
 0.89052001606E+00 0.83993233963E+00 0.79232361764E+00 0.74968295344E+00 0.71319817754E+00
 0.73610465798E+00 0.71316681250E+00 0.69626768929E+00 0.68493278815E+00 0.67844149443E+00
 0.67624354577E+00 0.67831232455E+00 0.68493680918E+00 0.69643087702E+00 0.71325515324E+00
 0.73609310575E+00 0.76542112042E+00 0.80107079575E+00 0.84229035864E+00 0.88787127779E+00
 0.93591391432E+00 0.98373302951E+00 0.10283405048E+01 0.10669491570E+01 0.10969779484E+01
 0.11160588625E+01 0.11225456343E+01 0.11159960551E+01 0.10970475316E+01 0.10671011451E+01
 0.10283236344E+01 0.98358139921E+00 0.93590892418E+00 0.88801734409E+00 0.84231002367E+00
 0.80092206036E+00 0.76533657179E+00 0.78669413440E+00 0.76538316867E+00 0.74968849352E+00
 0.73903534868E+00 0.73260239740E+00 0.72953312540E+00 0.72944303876E+00 0.73250781283E+00
 0.73911822766E+00 0.74979219857E+00 0.76535173543E+00 0.78669880747E+00 0.81423844718E+00
 0.84768640069E+00 0.88628023811E+00 0.92871528711E+00 0.97284034716E+00 0.10158319085E+01
 0.10548138928E+01 0.10871548885E+01 0.11103959925E+01 0.11225053251E+01 0.11224576961E+01
 0.11103973014E+01 0.10873175850E+01 0.10549271059E+01 0.10157374848E+01 0.97275117814E+00
 0.92881498450E+00 0.88636298161E+00 0.84754611893E+00 0.81405797554E+00 0.83261520153E+00
 0.81416208891E+00 0.80098500504E+00 0.79231140800E+00 0.78721611709E+00 0.78463422818E+00
 0.78378872903E+00 0.78455024934E+00 0.78725634018E+00 0.79244986128E+00 0.80098880708E+00
 0.81405830854E+00 0.83265845576E+00 0.85711106871E+00 0.88711297962E+00 0.92188226165E+00
 0.95992329898E+00 0.99888588644E+00 0.10359970881E+01 0.10685793875E+01 0.10941370713E+01
 0.11104260652E+01 0.11159382204E+01 0.11103049384E+01 0.10941275934E+01 0.10686865248E+01
 0.10359995859E+01 0.99879074449E+00 0.95994974052E+00 0.92200020490E+00 0.88707351259E+00
 0.85693452036E+00 0.87148801423E+00 0.85703166308E+00 0.84763083872E+00 0.84227940695E+00
 0.83986030443E+00 0.83914529174E+00 0.83903392910E+00 0.83899836832E+00 0.83916297612E+00
 0.84003002850E+00 0.84241656174E+00 0.84757963508E+00 0.85695507030E+00 0.87155803081E+00
 0.89170512800E+00 0.91713351260E+00 0.94696533756E+00 0.97949081976E+00 0.10123130023E+01
 0.10428503381E+01 0.10686260651E+01 0.10873141618E+01 0.10970492817E+01 0.10969351553E+01
 0.10871447304E+01 0.10686112256E+01 0.10428999699E+01 0.10122849831E+01 0.97948363295E+00
 0.94707560120E+00 0.91720810332E+00 0.89162472414E+00 0.90112720630E+00 0.89166154813E+00
 0.88711878406E+00 0.88633776995E+00 0.88794144430E+00 0.89048888315E+00 0.89261293358E+00
 0.89338505838E+00 0.89258393729E+00 0.89057695133E+00 0.88812931382E+00 0.88644171451E+00
 0.88710558210E+00 0.89167423261E+00 0.90118773009E+00 0.91603852733E+00 0.93597117974E+00
 0.95994764192E+00 0.98613312115E+00 0.10122416674E+01 0.10359233166E+01 0.10549018326E+01
 0.10671435706E+01 0.10712932209E+01 0.10670049524E+01 0.10548321768E+01 0.10359854600E+01
 0.10122985331E+01 0.98614324709E+00 0.96001278183E+00 0.93608015171E+00 0.91605939085E+00
 0.91972708227E+00 0.91604318025E+00 0.91718828144E+00 0.92197278729E+00 0.92879934693E+00
 0.93595228723E+00 0.94178973659E+00 0.94501350419E+00 0.94497216568E+00 0.94174506357E+00
 0.93600609797E+00 0.92891518858E+00 0.92206394242E+00 0.91725582879E+00 0.91611215759E+00
 0.91975267546E+00 0.92863552656E+00 0.94243243697E+00 0.95997520239E+00 0.97944704485E+00
 0.99874031337E+00 0.10157164102E+01 0.10283680669E+01 0.10350998256E+01 0.10350792625E+01
 0.10283692447E+01 0.10158040910E+01 0.99884954669E+00 0.97949561312E+00 0.95999900741E+00
 0.94249032607E+00 0.92868318107E+00 0.92607761378E+00 0.92866685442E+00 0.93603965684E+00
 0.94704177292E+00 0.95997198775E+00 0.97285537330E+00 0.98373982144E+00 0.99098284883E+00
 0.99349892223E+00 0.99092626694E+00 0.98367327378E+00 0.97283660823E+00 0.96002579016E+00
 0.94714196589E+00 0.93613192985E+00 0.92871229922E+00 0.92607803617E+00 0.92866308643E+00
 0.93604495231E+00 0.94703667310E+00 0.95992329796E+00 0.97275240672E+00 0.98361238847E+00
 0.99088391057E+00 0.99346649982E+00 0.99095518017E+00 0.98371831849E+00 0.97284520459E+00
 0.95997619559E+00 0.94705736258E+00 0.93605833827E+00 0.92867920897E+00 0.91975075828E+00
 0.92869357672E+00 0.94249191962E+00 0.96000114261E+00 0.97950844015E+00 0.99887873396E+00
 0.10158475893E+01 0.10284192017E+01 0.10351286361E+01 0.10351488907E+01 0.10284252978E+01
 0.10157924769E+01 0.99883946164E+00 0.97956194845E+00 0.96008833688E+00 0.94252244494E+00
 0.92868473903E+00 0.91975267427E+00 0.91606608693E+00 0.91717728870E+00 0.92197271463E+00
 0.92883078425E+00 0.93594147226E+00 0.94170361762E+00 0.94494980821E+00 0.94500426181E+00
 0.94179072594E+00 0.93596447980E+00 0.92882422751E+00 0.92200837495E+00 0.91722801424E+00
 0.91607833113E+00 0.90117466239E+00 0.91609314556E+00 0.93610227061E+00 0.96003098214E+00
 0.98616822649E+00 0.10123389485E+01 0.10360428704E+01 0.10548997742E+01 0.10670722146E+01
 0.10713539620E+01 0.10672013159E+01 0.10549679218E+01 0.10360088114E+01 0.10123488957E+01
 0.98625245092E+00 0.96006077728E+00 0.93605815932E+00 0.91608459712E+00 0.90118772804E+00
 0.89163379305E+00 0.88703921010E+00 0.88636817793E+00 0.88806568932E+00 0.89053374412E+00
 0.89256368342E+00 0.89338492440E+00 0.89262910087E+00 0.89051930789E+00 0.88798524198E+00
 0.88639255964E+00 0.88717892926E+00 0.89171905371E+00 0.87155772328E+00 0.89168205417E+00
 0.91725222992E+00 0.94711104059E+00 0.97951923614E+00 0.10123305428E+01 0.10429611715E+01
 0.10686858230E+01 0.10872234338E+01 0.10970078559E+01 0.10971126446E+01 0.10873746965E+01
 0.10686959609E+01 0.10429389975E+01 0.10124202294E+01 0.97960572221E+00 0.94707063270E+00
 0.91721205623E+00 0.89174556640E+00 0.87155802846E+00 0.85692172234E+00 0.84752712979E+00
 0.84236169406E+00 0.83998712018E+00 0.83914041084E+00 0.83899829227E+00 0.83905469683E+00
 0.83918439335E+00 0.83991549612E+00 0.84234770202E+00 0.84770705652E+00 0.85710845039E+00
 0.83270238494E+00 0.85701310539E+00 0.88714015650E+00 0.92205565329E+00 0.95999894758E+00
 0.99884153054E+00 0.10360594232E+01 0.10687583855E+01 0.10942075900E+01 0.11103843545E+01
 0.11160094722E+01 0.11104884947E+01 0.10941979800E+01 0.10686492844E+01 0.10360825829E+01
 0.99898503154E+00 0.96002578916E+00 0.92197349259E+00 0.88717935569E+00 0.85714441556E+00
 0.83265845374E+00 0.81403249704E+00 0.80095015573E+00 0.79241268312E+00 0.78723221168E+00
 0.78454575921E+00 0.78380580104E+00 0.78467205659E+00 0.78727281535E+00 0.79238418566E+00
 0.80106937194E+00 0.81425156201E+00 0.78679104682E+00 0.81415194821E+00 0.84763239837E+00
 0.88643935575E+00 0.92888213109E+00 0.97281263120E+00 0.10157988104E+01 0.10549936872E+01
 0.10873915700E+01 0.11104758408E+01 0.11225344914E+01 0.11225750499E+01 0.11104584212E+01
 0.10872154244E+01 0.10548799850E+01 0.10159079752E+01 0.97292454442E+00 0.92879968906E+00
 0.88635377774E+00 0.84773890953E+00 0.81426425791E+00 0.78669880627E+00 0.76533318200E+00
 0.74976634314E+00 0.73909674100E+00 0.73249969757E+00 0.72945335316E+00 0.72956359068E+00
 0.73265271611E+00 0.73910389426E+00 0.74977206158E+00 0.76547664502E+00 0.73620277882E+00
 0.76543776444E+00 0.80102140120E+00 0.84240393437E+00 0.88810359950E+00 0.93598671333E+00
 0.98365191405E+00 0.10283904715E+01 0.10671692143E+01 0.10971203176E+01 0.11160730673E+01
 0.11226224298E+01 0.11161301124E+01 0.10970413092E+01 0.10670069042E+01 0.10283977399E+01
 0.98379391496E+00 0.93597853587E+00 0.88793490009E+00 0.84234522844E+00 0.80110944927E+00
 0.76543967363E+00 0.73609310560E+00 0.71324320239E+00 0.69641631185E+00 0.68492871004E+00
 0.67831738078E+00 0.67626553893E+00 0.67848195422E+00 0.68499170048E+00 0.69634354186E+00
 0.71325628042E+00 0.68336591218E+00 0.71329868871E+00 0.74978717510E+00 0.79242796911E+00
 0.84003367686E+00 0.89061506627E+00 0.94178111791E+00 0.99091757529E+00 0.10350989216E+01
 0.10713187785E+01 0.10970434006E+01 0.11104868629E+01 0.11105792835E+01 0.10971561059E+01
 0.10712770433E+01 0.10350444145E+01 0.99100318622E+00 0.94184954099E+00 0.89050003269E+00
 0.83988177620E+00 0.79240876736E+00 0.74978117765E+00 0.71317823622E+00 0.68328133250E+00
 0.66011108095E+00 0.64322618799E+00 0.63222028574E+00 0.62687405262E+00 0.62696064651E+00
 0.63231597970E+00 0.64315889937E+00 0.66003215733E+00 0.63062443157E+00 0.66012150555E+00
 0.69641093331E+00 0.73911270244E+00 0.78729900438E+00 0.83925364600E+00 0.89268728412E+00
 0.94504506290E+00 0.99352145625E+00 0.10351134832E+01 0.10670485724E+01 0.10872121530E+01
 0.10942075917E+01 0.10873862478E+01 0.10671459844E+01 0.10350647154E+01 0.99349892296E+00
 0.94509120641E+00 0.89265770918E+00 0.83914283086E+00 0.78725633989E+00 0.73912176807E+00
 0.69631023530E+00 0.65994884624E+00 0.63058301671E+00 0.60814548787E+00 0.59233459456E+00
 0.58297080584E+00 0.57993543665E+00 0.58305891071E+00 0.59233116484E+00 0.60806330587E+00
 0.58011079423E+00 0.60814322158E+00 0.64323755697E+00 0.68498027473E+00 0.73259192660E+00
 0.78465124809E+00 0.83908986330E+00 0.89346218374E+00 0.94508584647E+00 0.99104518884E+00
 0.10284411665E+01 0.10548550516E+01 0.10685896785E+01 0.10686651866E+01 0.10549504709E+01
 0.10283960644E+01 0.99093215159E+00 0.94503664035E+00 0.89343575508E+00 0.83901900711E+00
 0.78461756528E+00 0.73264644732E+00 0.68498750422E+00 0.64310350336E+00 0.60800459690E+00
 0.58010034200E+00 0.55933951456E+00 0.54558930414E+00 0.53878800321E+00 0.53883785824E+00
 0.54564461302E+00 0.55931548540E+00 0.53364292840E+00 0.55935031775E+00 0.59237895776E+00
 0.63230976062E+00 0.67842754212E+00 0.72953505899E+00 0.78382803849E+00 0.83903916692E+00
 0.89263516240E+00 0.94185803629E+00 0.98382467767E+00 0.10158867475E+01 0.10360072998E+01
 0.10428898375E+01 0.10360212223E+01 0.10158200301E+01 0.98368769904E+00 0.94176217586E+00
 0.89259128347E+00 0.83896259447E+00 0.78373660763E+00 0.72953097832E+00 0.67848508802E+00
 0.63229422163E+00 0.59227952863E+00 0.55928624974E+00 0.53363897300E+00 0.51536620540E+00
 0.50445328012E+00 0.50086563963E+00 0.50451878741E+00 0.51540005564E+00 0.49266576044E+00
 0.51539444857E+00 0.54564815809E+00 0.58305823530E+00 0.62696351753E+00 0.67631910633E+00
 0.72955969397E+00 0.78462518636E+00 0.83913753110E+00 0.89051351447E+00 0.93601134967E+00
 0.97292520516E+00 0.99893490620E+00 0.10123772410E+01 0.10123635832E+01 0.99887580958E+00
 0.97283073926E+00 0.93595521287E+00 0.89051351786E+00 0.83909859126E+00 0.78449158094E+00
 0.72942055268E+00 0.67626818210E+00 0.62695998643E+00 0.58302588522E+00 0.54560643860E+00
 0.51538553012E+00 0.49265324881E+00 0.47750607072E+00 0.46996920742E+00 0.47000278982E+00
 0.47755681135E+00 0.45823931500E+00 0.47753976107E+00 0.50450261246E+00 0.53883851555E+00
 0.57996691441E+00 0.62696704174E+00 0.67847966466E+00 0.73266373376E+00 0.78729900359E+00
 0.83993564775E+00 0.88798295845E+00 0.92881530481E+00 0.95999894853E+00 0.97956945948E+00
 0.98624199715E+00 0.97955711025E+00 0.95997198769E+00 0.92880579696E+00 0.88801521701E+00
 0.83995274989E+00 0.78721611601E+00 0.73249334713E+00 0.67832085352E+00 0.62687378626E+00
 0.57991162932E+00 0.53879933986E+00 0.50449242436E+00 0.47754485659E+00 0.45822077305E+00
 0.44662978389E+00 0.44278883265E+00 0.44666301287E+00 0.43106187798E+00 0.44665580655E+00
 0.46999935637E+00 0.50088259676E+00 0.53882543558E+00 0.58302556910E+00 0.63230172984E+00
 0.68503900269E+00 0.73921221318E+00 0.79249685473E+00 0.84239590226E+00 0.88635944805E+00
 0.92194567352E+00 0.94703167626E+00 0.96002295168E+00 0.96003673327E+00 0.94704980286E+00
 0.92193719552E+00 0.88632973949E+00 0.84235877370E+00 0.79243745111E+00 0.73911525523E+00
 0.68492475604E+00 0.63219922624E+00 0.58293747508E+00 0.53874932495E+00 0.50083507396E+00
 0.46998661154E+00 0.44665123647E+00 0.43104523137E+00 0.42324755779E+00 0.42325892723E+00
 0.41152141335E+00 0.42326141063E+00 0.44280221874E+00 0.47000738750E+00 0.50450786506E+00
 0.54562352278E+00 0.59232158264E+00 0.64318686096E+00 0.69641618673E+00 0.74986409314E+00
 0.80113678970E+00 0.84772033581E+00 0.88714540822E+00 0.91718089553E+00 0.93602324743E+00
 0.94246436071E+00 0.93604490957E+00 0.91716072037E+00 0.88703975882E+00 0.84755950444E+00
 0.80099025879E+00 0.74977643274E+00 0.69638307764E+00 0.64317102676E+00 0.59228299371E+00
 0.54555077950E+00 0.50442757112E+00 0.46995321637E+00 0.44277790921E+00 0.42324779443E+00
 0.41151067254E+00 0.40760352159E+00 0.39977669395E+00 0.40760738827E+00 0.42326007153E+00
 0.44666249863E+00 0.47756221128E+00 0.51542042271E+00 0.55934897831E+00 0.60809118573E+00
 0.66003136507E+00 0.71322311106E+00 0.76543642637E+00 0.81423854804E+00 0.85713245546E+00
 0.89175472651E+00 0.91609180586E+00 0.92866467822E+00 0.92866819479E+00 0.91607208002E+00
 0.89166020844E+00 0.85695898847E+00 0.81404541609E+00 0.76529657010E+00 0.71316547443E+00
 0.66002749068E+00 0.60808717539E+00 0.55930992478E+00 0.51535194936E+00 0.47749457379E+00
 0.44661726614E+00 0.42323597399E+00 0.40759456701E+00 0.39977209850E+00 0.40938759415E+00
 0.41355843762E+00 0.42606685236E+00 0.44688969038E+00 0.47588799709E+00 0.51269048092E+00
 0.55658692876E+00 0.60646259515E+00 0.66078569000E+00 0.71763719480E+00 0.77476131077E+00
 0.82963014945E+00 0.87954680023E+00 0.92181900961E+00 0.95399967858E+00 0.97414048491E+00
 0.98099298830E+00 0.97412607736E+00 0.95396495831E+00 0.92175784842E+00 0.87945906781E+00
 0.82952402875E+00 0.77465087422E+00 0.71753645672E+00 0.66070216434E+00 0.60639527956E+00
 0.55653085310E+00 0.51264298797E+00 0.47585012595E+00 0.44686283852E+00 0.42605039043E+00
 0.41355071427E+00 0.41355227693E+00 0.41355514279E+00 0.42258618816E+00 0.44063357393E+00
 0.46760852842E+00 0.50324792282E+00 0.54699780700E+00 0.59790479147E+00 0.65455392713E+00
 0.71507242239E+00 0.77718319622E+00 0.83828166086E+00 0.89553029639E+00 0.94599166866E+00
 0.98682742571E+00 0.10155663353E+01 0.10303927930E+01 0.10303683241E+01 0.10155214476E+01
 0.98681130122E+00 0.94601134234E+00 0.89553795361E+00 0.83822240795E+00 0.77704676667E+00
 0.71490047908E+00 0.65440552607E+00 0.59781425086E+00 0.54695791288E+00 0.50322861840E+00
 0.46758921866E+00 0.44061491453E+00 0.42257537837E+00 0.42605605672E+00 0.42120086439E+00
 0.42606058655E+00 0.44063591434E+00 0.46487182071E+00 0.49858512422E+00 0.54136821786E+00
 0.59246455189E+00 0.65065582959E+00 0.71421015269E+00 0.78089570791E+00 0.84804221621E+00
 0.91264948607E+00 0.97154159817E+00 0.10215510641E+01 0.10597409813E+01 0.10836932065E+01
 0.10918267442E+01 0.10836236735E+01 0.10596678533E+01 0.10215236091E+01 0.97153970572E+00
 0.91261785841E+00 0.84795021486E+00 0.78075691316E+00 0.71406669699E+00 0.65055161123E+00
 0.59241495958E+00 0.54134900259E+00 0.49856277021E+00 0.46484187930E+00 0.44061617529E+00
 0.44687147033E+00 0.43650461996E+00 0.43650061815E+00 0.44687925052E+00 0.46762170590E+00
 0.49860629712E+00 0.53954340020E+00 0.58986387902E+00 0.64857404164E+00 0.71415780635E+00
 0.78454857368E+00 0.85713298283E+00 0.92880617154E+00 0.99613675071E+00 0.10556102610E+01
 0.11038651888E+01 0.11379331054E+01 0.11555550298E+01 0.11555197137E+01 0.11378519969E+01
 0.11037724734E+01 0.10555051245E+01 0.99601503034E+00 0.92869731215E+00 0.85706420103E+00
 0.78450446143E+00 0.71411248785E+00 0.64853128849E+00 0.58983174158E+00 0.53950529792E+00
 0.49855383651E+00 0.46758154574E+00 0.47585012604E+00 0.45941915218E+00 0.45392699545E+00
 0.45940174969E+00 0.47586823459E+00 0.50326630972E+00 0.54140628873E+00 0.58989603936E+00
 0.64797417419E+00 0.71435644795E+00 0.78719349137E+00 0.86406166204E+00 0.94192812701E+00
 0.10172172220E+01 0.10860725314E+01 0.11446860412E+01 0.11895619710E+01 0.12177922747E+01
 0.12274245731E+01 0.12177794521E+01 0.11895355570E+01 0.11446060640E+01 0.10859105171E+01
 0.10170414698E+01 0.94184508674E+00 0.86407368360E+00 0.78720572034E+00 0.71431870997E+00
 0.64791971364E+00 0.58984638851E+00 0.54134333621E+00 0.50320377699E+00 0.51261585870E+00
 0.48972885486E+00 0.47827253996E+00 0.47824601587E+00 0.48970503531E+00 0.51265532139E+00
 0.54698950760E+00 0.59247805251E+00 0.64862447860E+00 0.71441974323E+00 0.78823609841E+00
 0.86786470554E+00 0.95048413002E+00 0.10325872376E+01 0.11101248151E+01 0.11788813910E+01
 0.12348332697E+01 0.12744289489E+01 0.12949576173E+01 0.12949681023E+01 0.12744749840E+01
 0.12348902894E+01 0.11788549059E+01 0.11099928162E+01 0.10324678853E+01 0.95046190080E+00
 0.86786222182E+00 0.78816034409E+00 0.71431485944E+00 0.64856765360E+00 0.59244239073E+00
 0.54692922067E+00 0.55647308135E+00 0.52694765244E+00 0.50925780452E+00 0.50333110626E+00
 0.50920699162E+00 0.52695524490E+00 0.55653632589E+00 0.59782859674E+00 0.65059657585E+00
 0.71419874640E+00 0.78731293551E+00 0.86794720388E+00 0.95351283917E+00 0.10407213417E+01
 0.11255479665E+01 0.12035311226E+01 0.12702062121E+01 0.13214202619E+01 0.13536805397E+01
 0.13646752336E+01 0.13536658297E+01 0.13214792398E+01 0.12703066622E+01 0.12035401512E+01
 0.11254631756E+01 0.10406598564E+01 0.95347754365E+00 0.86783479029E+00 0.78714794868E+00
 0.71412142191E+00 0.65061504926E+00 0.59781551124E+00 0.60633902673E+00 0.57025590826E+00
 0.54630533053E+00 0.53433466588E+00 0.53428999902E+00 0.54627649261E+00 0.57033829869E+00
 0.60640589908E+00 0.65440406642E+00 0.71407463822E+00 0.78454525994E+00 0.86414977894E+00
 0.95055273411E+00 0.10407447938E+01 0.11308913140E+01 0.12164726845E+01 0.12927442999E+01
 0.13551067881E+01 0.13993748239E+01 0.14223010318E+01 0.14222217503E+01 0.13992723484E+01
 0.13551378518E+01 0.12928139152E+01 0.12164374983E+01 0.11308131819E+01 0.10407158070E+01
 0.95049041945E+00 0.86399415202E+00 0.78443957764E+00 0.71412264790E+00 0.65446273693E+00
 0.66070216354E+00 0.61846503220E+00 0.58850123740E+00 0.57062772813E+00 0.56462838966E+00
 0.57055419488E+00 0.58855060042E+00 0.61862149223E+00 0.66074040327E+00 0.71490604639E+00
 0.78074047860E+00 0.85705999962E+00 0.94188480653E+00 0.10325529941E+01 0.11255611348E+01
 0.12165063990E+01 0.13005009928E+01 0.13726705095E+01 0.14283762291E+01 0.14635571303E+01
 0.14754862442E+01 0.14633708462E+01 0.14282679634E+01 0.13727035611E+01 0.13004812596E+01
 0.12163928237E+01 0.11255209482E+01 0.10325959420E+01 0.94184508585E+00 0.85695464178E+00
 0.78075124763E+00 0.71499984383E+00 0.71762120133E+00 0.66999709175E+00 0.63457798318E+00
 0.61123474553E+00 0.59959142535E+00 0.59951233670E+00 0.61117438369E+00 0.63471752806E+00
 0.67016227951E+00 0.71761394490E+00 0.77708618189E+00 0.84794572096E+00 0.92867936265E+00
 0.10170485252E+01 0.11100296513E+01 0.12035686381E+01 0.12927933418E+01 0.13726420721E+01
 0.14382338242E+01 0.14850097375E+01 0.15093009138E+01 0.15092005511E+01 0.14848868191E+01
 0.14382748639E+01 0.13726873783E+01 0.12926735210E+01 0.12034557089E+01 0.11101046918E+01
 0.10171494932E+01 0.92862180170E+00 0.84786577211E+00 0.77712994999E+00 0.77478331746E+00
 0.72289382229E+00 0.68291354072E+00 0.65481598031E+00 0.63816038759E+00 0.63254954515E+00
 0.63802076622E+00 0.65482050484E+00 0.68308549927E+00 0.72297465678E+00 0.77474984142E+00
 0.83829906431E+00 0.91264637190E+00 0.99600354628E+00 0.10858871445E+01 0.11788345492E+01
 0.12702792657E+01 0.13550936578E+01 0.14282272094E+01 0.14848909593E+01 0.15208146161E+01
 0.15330615361E+01 0.15207472386E+01 0.14849712629E+01 0.14284004059E+01 0.13550818998E+01
 0.12701164472E+01 0.11788274758E+01 0.10860429604E+01 0.99602396293E+00 0.91249108141E+00
 0.83822366978E+00 0.82962054745E+00 0.77487921775E+00 0.73156100269E+00 0.69970320362E+00
 0.67891333906E+00 0.66859400347E+00 0.66849582223E+00 0.67881184120E+00 0.69979680574E+00
 0.73167315930E+00 0.77483418360E+00 0.82960699490E+00 0.89562001033E+00 0.97158190716E+00
 0.10554963288E+01 0.11445713727E+01 0.12348673353E+01 0.13214863400E+01 0.13992971802E+01
 0.14633851968E+01 0.15091841522E+01 0.15330163497E+01 0.15329647166E+01 0.15091881762E+01
 0.14635682923E+01 0.13994251175E+01 0.13213824188E+01 0.12347660389E+01 0.11446793040E+01
 0.10555930098E+01 0.97144288506E+00 0.89544239532E+00 0.87945906887E+00 0.82348247817E+00
 0.77831596173E+00 0.74397234106E+00 0.72013163206E+00 0.70613645476E+00 0.70144885329E+00
 0.70603728760E+00 0.72016953654E+00 0.74412324711E+00 0.77832040202E+00 0.82336445486E+00
 0.87949629828E+00 0.94605791839E+00 0.10215450375E+01 0.11037534419E+01 0.11895033911E+01
 0.12744777854E+01 0.13537210274E+01 0.14222880659E+01 0.14754942888E+01 0.15092182731E+01
 0.15206821717E+01 0.15090855296E+01 0.14754862460E+01 0.14224086427E+01 0.13537236004E+01
 0.12743714736E+01 0.11895355580E+01 0.11038944811E+01 0.10215179417E+01 0.94587914008E+00
 0.92167763054E+00 0.86620611154E+00 0.82083262035E+00 0.78551212945E+00 0.75992187764E+00
 0.74342776313E+00 0.73531683820E+00 0.73526888952E+00 0.74342858324E+00 0.76009290375E+00
 0.78565378580E+00 0.82077104850E+00 0.86612010465E+00 0.92175419643E+00 0.98681194915E+00
 0.10596530610E+01 0.11378084906E+01 0.12177272814E+01 0.12949463557E+01 0.13646985460E+01
 0.14223384877E+01 0.14635625369E+01 0.14849714779E+01 0.14848447723E+01 0.14633759850E+01
 0.14223256027E+01 0.13647557537E+01 0.12949150126E+01 0.12177225130E+01 0.11379414516E+01
 0.10597483730E+01 0.98672951936E+00 0.95387831913E+00 0.90071170215E+00 0.85680220940E+00
 0.82212108760E+00 0.79627125915E+00 0.77861453991E+00 0.76836721593E+00 0.76496288379E+00
 0.76832148246E+00 0.77869527004E+00 0.79646262381E+00 0.82221613401E+00 0.85677004575E+00
 0.90072157429E+00 0.95395022340E+00 0.10154984057E+01 0.10835863205E+01 0.11554516955E+01
 0.12273285209E+01 0.12948658353E+01 0.13536343893E+01 0.13993940015E+01 0.14284462918E+01
 0.14383182661E+01 0.14282895892E+01 0.13993188737E+01 0.13537094070E+01 0.12949301853E+01
 0.12273379340E+01 0.11555286481E+01 0.10837159789E+01 0.10155227076E+01 0.97408924036E+00
 0.92499875357E+00 0.88416783119E+00 0.85169623307E+00 0.82713444797E+00 0.80977471253E+00
 0.79878599889E+00 0.79343844466E+00 0.79338962718E+00 0.79873457283E+00 0.80983595123E+00
 0.82725166519E+00 0.85176675391E+00 0.88421506460E+00 0.92506901433E+00 0.97412010520E+00
 0.10303475354E+01 0.10917931475E+01 0.11554882299E+01 0.12176832948E+01 0.12743103089E+01
 0.13213529865E+01 0.13551301939E+01 0.13727630507E+01 0.13727345999E+01 0.13551262038E+01
 0.13214567965E+01 0.12744380518E+01 0.12177321589E+01 0.11555095617E+01 0.10918632792E+01
 0.10304061193E+01 0.98099298816E+00 0.93757153934E+00 0.90131056591E+00 0.87247333719E+00
 0.85064571035E+00 0.83503784889E+00 0.82473578830E+00 0.81890786776E+00 0.81699750109E+00
 0.81884381940E+00 0.82467541417E+00 0.83503373865E+00 0.85069462065E+00 0.87254988501E+00
 0.90138903781E+00 0.93761703438E+00 0.98098493372E+00 0.10303715034E+01 0.10836729597E+01
 0.11379015774E+01 0.11895033899E+01 0.12347579476E+01 0.12701468225E+01 0.12927214662E+01
 0.13005009934E+01 0.12927876837E+01 0.12702639839E+01 0.12348732679E+01 0.11895619707E+01
 0.11379116046E+01 0.10836875403E+01 0.10304040993E+01 0.97412209050E+00 0.93760020168E+00
 0.90717549341E+00 0.88320254906E+00 0.86535705077E+00 0.85282180667E+00 0.84456521501E+00
 0.83964840043E+00 0.83739045239E+00 0.83740201851E+00 0.83964645684E+00 0.84452054406E+00
 0.85279240886E+00 0.86539958845E+00 0.88327363748E+00 0.90720270878E+00 0.93758577103E+00
 0.97410226733E+00 0.10155171026E+01 0.10597148855E+01 0.11038656871E+01 0.11446868883E+01
 0.11788532443E+01 0.12034654974E+01 0.12163870772E+01 0.12164354309E+01 0.12035498192E+01
 0.11788901258E+01 0.11446909256E+01 0.11038928190E+01 0.10597596775E+01 0.10155463779E+01
 0.95393847455E+00 0.92505334857E+00 0.90136680800E+00 0.88322741460E+00 0.87036701215E+00
 0.86200799669E+00 0.85702079502E+00 0.85429604228E+00 0.85303951673E+00 0.85274885675E+00
 0.85314966944E+00 0.85435565638E+00 0.85699343199E+00 0.86201629981E+00 0.87043878909E+00
 0.88325494067E+00 0.90132783372E+00 0.92503247981E+00 0.95392478826E+00 0.98673142887E+00
 0.10214838346E+01 0.10555931499E+01 0.10860807917E+01 0.11101140935E+01 0.11254999300E+01