   6   6   0   0
  0.2185851E+02  0.3190316E-09  0.3190316E-09  0.1487900E-08  0.5000000E-15
  1.000000000000000E-004
  CAR 
 unknown system                          
      8.32645646    -12.92957733  301      3.30471848      1.00000000
    -12.930  0.0000E+00  0.0000E+00
    -12.859  0.0000E+00  0.0000E+00
    -12.788  0.0000E+00  0.0000E+00
    -12.717  0.0000E+00  0.0000E+00
    -12.646  0.0000E+00  0.0000E+00
    -12.575  0.0000E+00  0.0000E+00
    -12.504  0.0000E+00  0.0000E+00
    -12.434  0.0000E+00  0.0000E+00
    -12.363  0.0000E+00  0.0000E+00
    -12.292  0.0000E+00  0.0000E+00
    -12.221  0.0000E+00  0.0000E+00
    -12.150  0.0000E+00  0.0000E+00
    -12.079  0.0000E+00  0.0000E+00
    -12.008  0.0000E+00  0.0000E+00
    -11.938  0.0000E+00  0.0000E+00
    -11.867  0.0000E+00  0.0000E+00
    -11.796  0.0000E+00  0.0000E+00
    -11.725  0.0000E+00  0.0000E+00
    -11.654  0.0000E+00  0.0000E+00
    -11.583  0.0000E+00  0.0000E+00
    -11.513  0.0000E+00  0.0000E+00
    -11.442  0.0000E+00  0.0000E+00
    -11.371  0.0000E+00  0.0000E+00
    -11.300  0.0000E+00  0.0000E+00
    -11.229  0.0000E+00  0.0000E+00
    -11.158  0.0000E+00  0.0000E+00
    -11.087  0.0000E+00  0.0000E+00
    -11.017  0.0000E+00  0.0000E+00
    -10.946  0.0000E+00  0.0000E+00
    -10.875  0.3705E+00  0.8515E-02
    -10.804  0.9499E+00  0.5529E-01
    -10.733  0.1529E+01  0.1431E+00
    -10.662  0.9951E+00  0.2301E+00
    -10.591  0.1061E+01  0.3030E+00
    -10.521  0.1126E+01  0.3805E+00
    -10.450  0.1192E+01  0.4626E+00
    -10.379  0.1258E+01  0.5494E+00
    -10.308  0.1319E+01  0.6408E+00
    -10.237  0.1331E+01  0.7347E+00
    -10.166  0.1343E+01  0.8295E+00
    -10.095  0.1380E+01  0.9256E+00
    -10.025  0.1435E+01  0.1025E+01
     -9.954  0.1490E+01  0.1129E+01
     -9.883  0.1545E+01  0.1237E+01
     -9.812  0.1600E+01  0.1348E+01
     -9.741  0.1655E+01  0.1463E+01
     -9.670  0.3349E+01  0.1616E+01
     -9.599  0.4382E+01  0.1930E+01
     -9.529  0.4593E+01  0.2239E+01
     -9.458  0.5090E+01  0.2582E+01
     -9.387  0.5558E+01  0.2961E+01
     -9.316  0.5980E+01  0.3368E+01
     -9.245  0.6544E+01  0.3812E+01
     -9.174  0.7107E+01  0.4295E+01
     -9.103  0.8478E+01  0.5082E+01
     -9.033  0.8336E+01  0.5677E+01
     -8.962  0.8675E+01  0.6280E+01
     -8.891  0.8525E+01  0.6920E+01
     -8.820  0.6262E+01  0.7616E+01
     -8.749  0.0000E+00  0.8000E+01
     -8.678  0.0000E+00  0.8000E+01
     -8.608  0.0000E+00  0.8000E+01
     -8.537  0.0000E+00  0.8000E+01
     -8.466  0.0000E+00  0.8000E+01
     -8.395  0.0000E+00  0.8000E+01
     -8.324  0.0000E+00  0.8000E+01
     -8.253  0.0000E+00  0.8000E+01
     -8.182  0.0000E+00  0.8000E+01
     -8.112  0.0000E+00  0.8000E+01
     -8.041  0.0000E+00  0.8000E+01
     -7.970  0.0000E+00  0.8000E+01
     -7.899  0.0000E+00  0.8000E+01
     -7.828  0.0000E+00  0.8000E+01
     -7.757  0.0000E+00  0.8000E+01
     -7.686  0.0000E+00  0.8000E+01
     -7.616  0.0000E+00  0.8000E+01
     -7.545  0.0000E+00  0.8000E+01
     -7.474  0.0000E+00  0.8000E+01
     -7.403  0.0000E+00  0.8000E+01
     -7.332  0.0000E+00  0.8000E+01
     -7.261  0.0000E+00  0.8000E+01
     -7.190  0.0000E+00  0.8000E+01
     -7.120  0.0000E+00  0.8000E+01
     -7.049  0.0000E+00  0.8000E+01
     -6.978  0.0000E+00  0.8000E+01
     -6.907  0.0000E+00  0.8000E+01
     -6.836  0.0000E+00  0.8000E+01
     -6.765  0.0000E+00  0.8000E+01
     -6.694  0.0000E+00  0.8000E+01
     -6.624  0.0000E+00  0.8000E+01
     -6.553  0.0000E+00  0.8000E+01
     -6.482  0.0000E+00  0.8000E+01
     -6.411  0.0000E+00  0.8000E+01
     -6.340  0.0000E+00  0.8000E+01
     -6.269  0.0000E+00  0.8000E+01
     -6.198  0.0000E+00  0.8000E+01
     -6.128  0.0000E+00  0.8000E+01
     -6.057  0.0000E+00  0.8000E+01
     -5.986  0.0000E+00  0.8000E+01
     -5.915  0.0000E+00  0.8000E+01
     -5.844  0.0000E+00  0.8000E+01
     -5.773  0.0000E+00  0.8000E+01
     -5.703  0.0000E+00  0.8000E+01
     -5.632  0.0000E+00  0.8000E+01
     -5.561  0.0000E+00  0.8000E+01
     -5.490  0.0000E+00  0.8000E+01
     -5.419  0.0000E+00  0.8000E+01
     -5.348  0.0000E+00  0.8000E+01
     -5.277  0.0000E+00  0.8000E+01
     -5.207  0.0000E+00  0.8000E+01
     -5.136  0.0000E+00  0.8000E+01
     -5.065  0.0000E+00  0.8000E+01
     -4.994  0.0000E+00  0.8000E+01
     -4.923  0.0000E+00  0.8000E+01
     -4.852  0.0000E+00  0.8000E+01
     -4.781  0.0000E+00  0.8000E+01
     -4.711  0.0000E+00  0.8000E+01
     -4.640  0.0000E+00  0.8000E+01
     -4.569  0.0000E+00  0.8000E+01
     -4.498  0.0000E+00  0.8000E+01
     -4.427  0.0000E+00  0.8000E+01
     -4.356  0.0000E+00  0.8000E+01
     -4.285  0.0000E+00  0.8000E+01
     -4.215  0.0000E+00  0.8000E+01
     -4.144  0.0000E+00  0.8000E+01
     -4.073  0.0000E+00  0.8000E+01
     -4.002  0.0000E+00  0.8000E+01
     -3.931  0.0000E+00  0.8000E+01
     -3.860  0.0000E+00  0.8000E+01
     -3.789  0.0000E+00  0.8000E+01
     -3.719  0.0000E+00  0.8000E+01
     -3.648  0.0000E+00  0.8000E+01
     -3.577  0.0000E+00  0.8000E+01
     -3.506  0.0000E+00  0.8000E+01
     -3.435  0.0000E+00  0.8000E+01
     -3.364  0.0000E+00  0.8000E+01
     -3.294  0.0000E+00  0.8000E+01
     -3.223  0.0000E+00  0.8000E+01
     -3.152  0.0000E+00  0.8000E+01
     -3.081  0.0000E+00  0.8000E+01
     -3.010  0.0000E+00  0.8000E+01
     -2.939  0.0000E+00  0.8000E+01
     -2.868  0.0000E+00  0.8000E+01
     -2.798  0.0000E+00  0.8000E+01
     -2.727  0.0000E+00  0.8000E+01
     -2.656  0.0000E+00  0.8000E+01
     -2.585  0.1845E+00  0.8002E+01
     -2.514  0.1065E+01  0.8046E+01
     -2.443  0.2068E+01  0.8156E+01
     -2.372  0.3267E+01  0.8344E+01
     -2.302  0.5108E+01  0.8629E+01
     -2.231  0.5538E+01  0.9006E+01
     -2.160  0.5987E+01  0.9415E+01
     -2.089  0.7521E+01  0.9984E+01
     -2.018  0.6406E+01  0.1048E+02
     -1.947  0.7467E+01  0.1091E+02
     -1.876  0.8151E+01  0.1163E+02
     -1.806  0.2027E+01  0.1197E+02
     -1.735  0.9249E+01  0.1256E+02
     -1.664  0.4714E+01  0.1304E+02
     -1.593  0.2680E+01  0.1326E+02
     -1.522  0.2452E+01  0.1344E+02
     -1.451  0.2225E+01  0.1361E+02
     -1.380  0.1998E+01  0.1376E+02
     -1.310  0.1772E+01  0.1389E+02
     -1.239  0.1670E+01  0.1401E+02
     -1.168  0.1678E+01  0.1413E+02
     -1.097  0.1685E+01  0.1425E+02
     -1.026  0.1693E+01  0.1437E+02
     -0.955  0.1769E+01  0.1449E+02
     -0.884  0.5236E+01  0.1472E+02
     -0.814  0.1074E+02  0.1527E+02
     -0.743  0.1209E+02  0.1616E+02
     -0.672  0.9843E+01  0.1687E+02
     -0.601  0.8177E+01  0.1753E+02
     -0.530  0.4972E+01  0.1800E+02
     -0.459  0.2637E+01  0.1825E+02
     -0.389  0.2372E+01  0.1843E+02
     -0.318  0.2201E+01  0.1859E+02
     -0.247  0.2041E+01  0.1874E+02
     -0.176  0.1881E+01  0.1888E+02
     -0.105  0.1410E+02  0.1911E+02
     -0.034  0.2128E+02  0.2049E+02
      0.037  0.7579E+01  0.2130E+02
      0.107  0.5189E+01  0.2176E+02
      0.178  0.5901E+01  0.2224E+02
      0.249  0.3785E+01  0.2256E+02
      0.320  0.3599E+01  0.2282E+02
      0.391  0.3412E+01  0.2307E+02
      0.462  0.3397E+01  0.2331E+02
      0.533  0.5085E+01  0.2361E+02
      0.603  0.5034E+01  0.2397E+02
      0.674  0.4240E+01  0.2432E+02
      0.745  0.2715E+01  0.2457E+02
      0.816  0.1793E+01  0.2470E+02
      0.887  0.1750E+01  0.2483E+02
      0.958  0.1713E+01  0.2495E+02
      1.029  0.1683E+01  0.2507E+02
      1.099  0.4248E+01  0.2524E+02
      1.170  0.1054E+02  0.2574E+02
      1.241  0.1810E+02  0.2680E+02
      1.312  0.1372E+02  0.2796E+02
      1.383  0.5118E+01  0.2862E+02
      1.454  0.3157E+01  0.2889E+02
      1.525  0.2955E+01  0.2910E+02
      1.595  0.2876E+01  0.2931E+02
      1.666  0.3009E+01  0.2952E+02
      1.737  0.3590E+01  0.2974E+02
      1.808  0.6390E+01  0.3008E+02
      1.879  0.8565E+01  0.3063E+02
      1.950  0.4895E+01  0.3112E+02
      2.020  0.4442E+01  0.3146E+02
      2.091  0.3176E+01  0.3173E+02
      2.162  0.1656E+01  0.3190E+02
      2.233  0.2496E+01  0.3202E+02
      2.304  0.6248E+01  0.3231E+02
      2.375  0.7862E+01  0.3289E+02
      2.446  0.7216E+01  0.3342E+02
      2.516  0.6677E+01  0.3391E+02
      2.587  0.6155E+01  0.3437E+02
      2.658  0.4326E+01  0.3475E+02
      2.729  0.3802E+01  0.3504E+02
      2.800  0.3277E+01  0.3529E+02
      2.871  0.2984E+01  0.3551E+02
      2.942  0.2444E+01  0.3571E+02
      3.012  0.9700E+00  0.3588E+02
      3.083  0.8427E+00  0.3595E+02
      3.154  0.3235E+00  0.3598E+02
      3.225  0.8380E-01  0.3600E+02
      3.296  0.1031E-03  0.3600E+02
      3.367  0.0000E+00  0.3600E+02
      3.438  0.0000E+00  0.3600E+02
      3.508  0.0000E+00  0.3600E+02
      3.579  0.0000E+00  0.3600E+02
      3.650  0.0000E+00  0.3600E+02
      3.721  0.0000E+00  0.3600E+02
      3.792  0.0000E+00  0.3600E+02
      3.863  0.0000E+00  0.3600E+02
      3.934  0.0000E+00  0.3600E+02
      4.004  0.0000E+00  0.3600E+02
      4.075  0.0000E+00  0.3600E+02
      4.146  0.0000E+00  0.3600E+02
      4.217  0.0000E+00  0.3600E+02
      4.288  0.0000E+00  0.3600E+02
      4.359  0.0000E+00  0.3600E+02
      4.430  0.0000E+00  0.3600E+02
      4.500  0.0000E+00  0.3600E+02
      4.571  0.0000E+00  0.3600E+02
      4.642  0.0000E+00  0.3600E+02
      4.713  0.0000E+00  0.3600E+02
      4.784  0.0000E+00  0.3600E+02
      4.855  0.0000E+00  0.3600E+02
      4.925  0.7113E+01  0.3601E+02
      4.996  0.1546E+01  0.3616E+02
      5.067  0.4989E+01  0.3638E+02
      5.138  0.8595E+01  0.3686E+02
      5.209  0.1278E+02  0.3762E+02
      5.280  0.2699E+02  0.3871E+02
      5.351  0.2298E+01  0.3945E+02
      5.421  0.1653E+01  0.3959E+02
      5.492  0.8416E+01  0.3989E+02
      5.563  0.9262E+01  0.4070E+02
      5.634  0.8641E+01  0.4142E+02
      5.705  0.7491E+01  0.4197E+02
      5.776  0.6789E+01  0.4247E+02
      5.847  0.5254E+01  0.4302E+02
      5.917  0.2830E+01  0.4325E+02
      5.988  0.2391E+01  0.4344E+02
      6.059  0.2006E+01  0.4359E+02
      6.130  0.1769E+01  0.4373E+02
      6.201  0.1775E+01  0.4386E+02
      6.272  0.1030E+01  0.4396E+02
      6.343  0.0000E+00  0.4400E+02
      6.413  0.0000E+00  0.4400E+02
      6.484  0.0000E+00  0.4400E+02
      6.555  0.0000E+00  0.4400E+02
      6.626  0.0000E+00  0.4400E+02
      6.697  0.0000E+00  0.4400E+02
      6.768  0.0000E+00  0.4400E+02
      6.839  0.0000E+00  0.4400E+02
      6.909  0.0000E+00  0.4400E+02
      6.980  0.0000E+00  0.4400E+02
      7.051  0.0000E+00  0.4400E+02
      7.122  0.0000E+00  0.4400E+02
      7.193  0.0000E+00  0.4400E+02
      7.264  0.0000E+00  0.4400E+02
      7.335  0.0000E+00  0.4400E+02
      7.405  0.0000E+00  0.4400E+02
      7.476  0.0000E+00  0.4400E+02
      7.547  0.0000E+00  0.4400E+02
      7.618  0.0000E+00  0.4400E+02
      7.689  0.0000E+00  0.4400E+02
      7.760  0.0000E+00  0.4400E+02
      7.830  0.0000E+00  0.4400E+02
      7.901  0.0000E+00  0.4400E+02
      7.972  0.0000E+00  0.4400E+02
      8.043  0.0000E+00  0.4400E+02
      8.114  0.0000E+00  0.4400E+02
      8.185  0.0000E+00  0.4400E+02
      8.256  0.0000E+00  0.4400E+02
      8.326  0.0000E+00  0.4400E+02
