perl: warning: Setting locale failed.
perl: warning: Please check that your locale settings:
	LANGUAGE = (unset),
	LC_ALL = (unset),
	LC_CTYPE = "UTF-8",
	LANG = "en_US.iso885915"
    are supported and installed on your system.
perl: warning: Falling back to the standard locale ("C").
Starting job 28525011 ("jobname") on c16-2 at Thu Nov 7 21:10:50 CET 2019
 running on    4 total cores
 distrk:  each k-point on    4 cores,    1 groups
 distr:  one band on    2 cores,    2 groups
 using from now: INCAR     
 vasp.5.4.4.18Apr17-6-g9f103f2a35 (build Jun 30 2017 11:15:00) complex          
  
 POSCAR found type information on POSCAR  Mo S 
 POSCAR found :  2 types and       6 ions
 scaLAPACK will be used
 LDA part: xc-table for Pade appr. of Perdew
 POSCAR, INCAR and KPOINTS ok, starting setup
 FFT: planning ...
 WAVECAR not read
 WARNING: random wavefunctions but no delay for mixing, default for NELMDL
 entering main loop
       N       E                     dE             d eps       ncg     rms          rms(c)
DAV:   1     0.173225249890E+03    0.17323E+03   -0.12912E+04   880   0.103E+03
DAV:   2    -0.309398215286E+02   -0.20417E+03   -0.19920E+03  1182   0.242E+02
DAV:   3    -0.463620595754E+02   -0.15422E+02   -0.15359E+02  1170   0.686E+01
DAV:   4    -0.468068340030E+02   -0.44477E+00   -0.44419E+00  1256   0.126E+01
DAV:   5    -0.468162376226E+02   -0.94036E-02   -0.94000E-02  1172   0.179E+00    0.973E+00
RMM:   6    -0.444288934849E+02    0.23873E+01   -0.24254E+01   988   0.193E+01    0.339E+00
RMM:   7    -0.436866591084E+02    0.74223E+00   -0.19747E+00   959   0.557E+00    0.179E+00
RMM:   8    -0.436246423003E+02    0.62017E-01   -0.91469E-01  1004   0.336E+00    0.843E-01
RMM:   9    -0.436149252270E+02    0.97171E-02   -0.30968E-01  1034   0.226E+00    0.594E-01
RMM:  10    -0.435975398759E+02    0.17385E-01   -0.71559E-02  1040   0.112E+00    0.802E-02
RMM:  11    -0.435975800519E+02   -0.40176E-04   -0.29231E-03  1108   0.228E-01    0.310E-02
RMM:  12    -0.435977202943E+02   -0.14024E-03   -0.50741E-04  1125   0.103E-01    0.189E-02
RMM:  13    -0.435977290901E+02   -0.87959E-05   -0.29507E-04  1166   0.663E-02    0.184E-02
RMM:  14    -0.435977161806E+02    0.12910E-04   -0.62107E-05   874   0.334E-02    0.307E-03
RMM:  15    -0.435977163145E+02   -0.13390E-06   -0.10637E-05   680   0.148E-02
 Error reading item 'IVDW' from file INCAR
   1 F= -.43597716E+02 E0= -.43597716E+02  d E =0.000000E+00

Currently Loaded Modulefiles:
  1) Anaconda3/5.1.0       3) vesta/3.3.8           5) intel/2016.1
  2) gnuplot/5.0.4         4) imagemagick/6.7.9-0   6) vasp/5.4.1.Feb16

Job script resource usage:
       JobID  MaxVMSize     MaxRSS 
------------ ---------- ---------- 
28525011.ba+    216888K      2386K 

Job step resource usage:
       JobID    JobName  AllocCPUS  MaxVMSize     MaxRSS    Elapsed ExitCode 
------------ ---------- ---------- ---------- ---------- ---------- -------- 
28525011        jobname          4                         00:00:09      0:0 
28525011.0    pmi_proxy          1    279832K       522K   00:00:08      0:0 

Job 28525011 ("jobname") completed on c16-2 at Thu Nov 7 21:10:58 CET 2019
