<?xml version="1.0" encoding="ISO-8859-1"?>
<modeling>
 <generator>
  <i name="program" type="string">vasp </i>
  <i name="version" type="string">5.4.4.18Apr17-6-g9f103f2a35  </i>
  <i name="subversion" type="string">(build Jun 30 2017 11:15:00) complex            parallel </i>
  <i name="platform" type="string">STALLO_VASP_5.4.4 </i>
  <i name="date" type="string">2019 11 08 </i>
  <i name="time" type="string">11:36:35 </i>
 </generator>
 <incar>
  <i type="string" name="PREC">normal    ! low/normal/accurate</i>
  <i type="string" name="ALGO"> Fast      ! Algorithm for electronic re</i>
  <i type="int" name="ISPIN">     1</i>
  <i type="int" name="NELMIN">     4</i>
  <i name="EDIFF">      0.00001000</i>
  <i type="int" name="NSW">     0</i>
  <i name="ENCUT">    350.00000000</i>
  <i type="logical" name="LREAL"> F  </i>
  <i type="int" name="ISMEAR">    -5</i>
  <i name="SIGMA">      0.20000000</i>
  <i type="logical" name="LWAVE"> F  </i>
  <v type="int" name="KPOINT_BSE">    -1     0     0     0</v>
 </incar>
 <structure name="primitive_cell" >
  <crystal>
   <varray name="basis" >
    <v>       3.19031573       0.00000000       0.00000000 </v>
    <v>      -1.59515786       2.76289447       0.00000000 </v>
    <v>       0.00000000       0.00000000      14.87900430 </v>
   </varray>
   <i name="volume">    131.15106795 </i>
   <varray name="rec_basis" >
    <v>       0.31344860       0.18096963       0.00000000 </v>
    <v>       0.00000000       0.36193927       0.00000000 </v>
    <v>       0.00000000       0.00000000       0.06720880 </v>
   </varray>
  </crystal>
  <varray name="positions" >
   <v>       0.33333300      -0.33333300       0.25000000 </v>
   <v>      -0.33333400       0.33333300       0.35517400 </v>
   <v>      -0.33333300       0.33333300       0.14482600 </v>
   <v>       0.33333300      -0.33333300      -0.14482600 </v>
   <v>       0.33333400      -0.33333300      -0.35517400 </v>
   <v>      -0.33333300       0.33333300      -0.25000000 </v>
  </varray>
 </structure>
 <varray name="primitive_index" >
  <v type="int" >        1 </v>
  <v type="int" >        5 </v>
  <v type="int" >        4 </v>
  <v type="int" >        3 </v>
  <v type="int" >        6 </v>
  <v type="int" >        2 </v>
 </varray>
 <kpoints>
  <generation param="Gamma">
   <v type="int" name="divisions">       8        8        2 </v>
   <v name="usershift">      0.00000000       0.00000000       0.00000000 </v>
   <v name="genvec1">      0.12500000       0.00000000       0.00000000 </v>
   <v name="genvec2">      0.00000000       0.12500000       0.00000000 </v>
   <v name="genvec3">      0.00000000       0.00000000       0.50000000 </v>
   <v name="shift">      0.00000000       0.00000000       0.00000000 </v>
  </generation>
  <varray name="kpointlist" >
   <v>       0.00000000       0.00000000       0.00000000 </v>
   <v>       0.12500000      -0.00000000       0.00000000 </v>
   <v>       0.25000000      -0.00000000       0.00000000 </v>
   <v>       0.37500000      -0.00000000       0.00000000 </v>
   <v>       0.50000000      -0.00000000       0.00000000 </v>
   <v>       0.12500000       0.12500000       0.00000000 </v>
   <v>       0.25000000       0.12500000       0.00000000 </v>
   <v>       0.37500000       0.12500000       0.00000000 </v>
   <v>       0.25000000       0.25000000       0.00000000 </v>
   <v>       0.37500000       0.25000000       0.00000000 </v>
   <v>       0.00000000       0.00000000       0.50000000 </v>
   <v>       0.12500000      -0.00000000       0.50000000 </v>
   <v>       0.25000000      -0.00000000       0.50000000 </v>
   <v>       0.37500000      -0.00000000       0.50000000 </v>
   <v>       0.50000000      -0.00000000       0.50000000 </v>
   <v>       0.12500000       0.12500000       0.50000000 </v>
   <v>       0.25000000       0.12500000       0.50000000 </v>
   <v>       0.37500000       0.12500000       0.50000000 </v>
   <v>       0.25000000       0.25000000       0.50000000 </v>
   <v>       0.37500000       0.25000000       0.50000000 </v>
  </varray>
  <varray name="weights" >
   <v>       0.00781250 </v>
   <v>       0.04687500 </v>
   <v>       0.04687500 </v>
   <v>       0.04687500 </v>
   <v>       0.02343750 </v>
   <v>       0.04687500 </v>
   <v>       0.09375000 </v>
   <v>       0.09375000 </v>
   <v>       0.04687500 </v>
   <v>       0.04687500 </v>
   <v>       0.00781250 </v>
   <v>       0.04687500 </v>
   <v>       0.04687500 </v>
   <v>       0.04687500 </v>
   <v>       0.02343750 </v>
   <v>       0.04687500 </v>
   <v>       0.09375000 </v>
   <v>       0.09375000 </v>
   <v>       0.04687500 </v>
   <v>       0.04687500 </v>
  </varray>
  <varray name="tetrahedronlist"  type="int" >
   <v type="int" >        8        2        2        6       12 </v>
   <v type="int" >        8        1        2        2       12 </v>
   <v type="int" >        4        1        2       11       12 </v>
   <v type="int" >        4        2        6       12       16 </v>
   <v type="int" >        8        2       12       12       16 </v>
   <v type="int" >        8        2       11       12       12 </v>
   <v type="int" >        8        3        6        7       16 </v>
   <v type="int" >        8        2        3        6       16 </v>
   <v type="int" >        4        2        3       12       16 </v>
   <v type="int" >        4        3        7       16       17 </v>
   <v type="int" >        8        3       13       16       17 </v>
   <v type="int" >        8        3       12       13       16 </v>
   <v type="int" >        8        4        7        8       17 </v>
   <v type="int" >        8        3        4        7       17 </v>
   <v type="int" >        4        3        4       13       17 </v>
   <v type="int" >        4        4        8       17       18 </v>
   <v type="int" >        8        4       14       17       18 </v>
   <v type="int" >        8        4       13       14       17 </v>
   <v type="int" >        8        5        8        8       18 </v>
   <v type="int" >        8        4        5        8       18 </v>
   <v type="int" >        4        4        5       14       18 </v>
   <v type="int" >        4        5        8       18       18 </v>
   <v type="int" >        4        5       15       18       18 </v>
   <v type="int" >        8        5       14       15       18 </v>
   <v type="int" >        8        4        7        8       18 </v>
   <v type="int" >        4        4        5       15       18 </v>
   <v type="int" >        4        4        7       17       18 </v>
   <v type="int" >        8        4       14       15       18 </v>
   <v type="int" >        8        3        6        7       17 </v>
   <v type="int" >        4        3        4       14       17 </v>
   <v type="int" >        4        3        6       16       17 </v>
   <v type="int" >        8        3       13       14       17 </v>
   <v type="int" >        4        2        2        6       16 </v>
   <v type="int" >        4        2        3       13       16 </v>
   <v type="int" >        4        2        2       12       16 </v>
   <v type="int" >        8        2       12       13       16 </v>
   <v type="int" >        4        1        2       12       12 </v>
   <v type="int" >        4        1       11       12       12 </v>
   <v type="int" >        8        3        6        7       13 </v>
   <v type="int" >        8        2        3        6       13 </v>
   <v type="int" >        4        2        6       12       13 </v>
   <v type="int" >        4        6        7       13       17 </v>
   <v type="int" >        8        6       13       16       17 </v>
   <v type="int" >        8        6       12       13       16 </v>
   <v type="int" >        8        7        7        9       17 </v>
   <v type="int" >        8        6        7        7       17 </v>
   <v type="int" >        4        6        7       16       17 </v>
   <v type="int" >        4        7        9       17       19 </v>
   <v type="int" >        8        7       17       17       19 </v>
   <v type="int" >        8        7       16       17       17 </v>
   <v type="int" >        8        8        9       10       19 </v>
   <v type="int" >        8        7        8        9       19 </v>
   <v type="int" >        4        7        8       17       19 </v>
   <v type="int" >        4        8       10       19       20 </v>
   <v type="int" >        8        8       18       19       20 </v>
   <v type="int" >        8        8       17       18       19 </v>
   <v type="int" >        8        8        9       10       20 </v>
   <v type="int" >        4        8        8       10       20 </v>
   <v type="int" >        4        8        8       18       20 </v>
   <v type="int" >        4        8        9       19       20 </v>
   <v type="int" >        8        8       18       18       20 </v>
   <v type="int" >        4        7        7        9       19 </v>
   <v type="int" >        4        7        8       18       19 </v>
   <v type="int" >        4        7        7       17       19 </v>
   <v type="int" >        8        7       17       18       19 </v>
   <v type="int" >        4        6        7       17       17 </v>
   <v type="int" >        4        3        6       13       17 </v>
   <v type="int" >        4        6       16       17       17 </v>
   <v type="int" >        4        2        6       13       16 </v>
   <v type="int" >        8        4        7        8       14 </v>
   <v type="int" >        8        3        4        7       14 </v>
   <v type="int" >        4        3        7       13       14 </v>
   <v type="int" >        4        7        8       14       18 </v>
   <v type="int" >        8        7       14       17       18 </v>
   <v type="int" >        8        7       13       14       17 </v>
   <v type="int" >        8        8        9       10       18 </v>
   <v type="int" >        8        7        8        9       18 </v>
   <v type="int" >        4        7        9       17       18 </v>
   <v type="int" >        4        9       10       18       20 </v>
   <v type="int" >        8        9       18       19       20 </v>
   <v type="int" >        8        9       17       18       19 </v>
   <v type="int" >        4       10       10       10       20 </v>
   <v type="int" >        8        9       10       10       20 </v>
   <v type="int" >        4        9       10       19       20 </v>
   <v type="int" >        4       10       10       20       20 </v>
   <v type="int" >        4       10       20       20       20 </v>
   <v type="int" >        8       10       19       20       20 </v>
   <v type="int" >        4        9       10       20       20 </v>
   <v type="int" >        4        8        9       18       20 </v>
   <v type="int" >        4        9       19       20       20 </v>
   <v type="int" >        4        7        9       18       19 </v>
   <v type="int" >        4        4        7       14       18 </v>
   <v type="int" >        4        3        7       14       17 </v>
   <v type="int" >        4        5        8        8       15 </v>
   <v type="int" >        8        4        5        8       15 </v>
   <v type="int" >        4        4        8       14       15 </v>
   <v type="int" >        4        8        8       15       18 </v>
   <v type="int" >        8        8       15       18       18 </v>
   <v type="int" >        8        8       14       15       18 </v>
   <v type="int" >        8        8        8       10       18 </v>
   <v type="int" >        4        8       10       18       18 </v>
   <v type="int" >        4        9       10       18       19 </v>
   <v type="int" >        8       10       18       19       20 </v>
   <v type="int" >        4       10       18       18       20 </v>
   <v type="int" >        4        9       10       10       19 </v>
   <v type="int" >        4       10       10       19       20 </v>
   <v type="int" >        4        8       10       18       19 </v>
   <v type="int" >        4        8       10       18       20 </v>
   <v type="int" >        4        5        8       15       18 </v>
   <v type="int" >        4        4        8       15       18 </v>
   <v type="int" >        8        4        5        8       14 </v>
   <v type="int" >        4        5        8       14       15 </v>
   <v type="int" >        4        7        8       14       17 </v>
   <v type="int" >        8        8       14       17       18 </v>
   <v type="int" >        8        7        8        9       17 </v>
   <v type="int" >        4        8        9       17       18 </v>
   <v type="int" >        4        7        9       17       17 </v>
   <v type="int" >        4        9       17       17       19 </v>
   <v type="int" >        4        8        9       17       19 </v>
   <v type="int" >        4        4        8       14       17 </v>
   <v type="int" >        4        5        8       14       18 </v>
   <v type="int" >        8        3        4        7       13 </v>
   <v type="int" >        4        4        7       13       14 </v>
   <v type="int" >        4        6        7       13       16 </v>
   <v type="int" >        8        7       13       16       17 </v>
   <v type="int" >        4        6        7        7       16 </v>
   <v type="int" >        4        7        7       16       17 </v>
   <v type="int" >        4        3        7       13       16 </v>
   <v type="int" >        4        4        7       13       17 </v>
   <v type="int" >        8        2        3        6       12 </v>
   <v type="int" >        4        3        6       12       13 </v>
   <v type="int" >        4        2        6       12       12 </v>
   <v type="int" >        4        6       12       12       16 </v>
   <v type="int" >        4        3        6       12       16 </v>
   <v type="int" >        4        1        2        2       11 </v>
   <v type="int" >        4        2        2       11       12 </v>
  </varray>
  <i name="volumeweight">      0.00130208 </i>
 </kpoints>
 <parameters>
  <separator name="general" >
   <i type="string" name="SYSTEM">unknown system</i>
   <i type="logical" name="LCOMPAT"> F  </i>
  </separator>
  <separator name="electronic" >
   <i type="string" name="PREC">normal</i>
   <i name="ENMAX">    350.00000000</i>
   <i name="ENAUG">    345.27800000</i>
   <i name="EDIFF">      0.00001000</i>
   <i type="int" name="IALGO">    68</i>
   <i type="int" name="IWAVPR">    10</i>
   <i type="int" name="NBANDS">    22</i>
   <i name="NELECT">     36.00000000</i>
   <i type="int" name="TURBO">     0</i>
   <i type="int" name="IRESTART">     0</i>
   <i type="int" name="NREBOOT">     0</i>
   <i type="int" name="NMIN">     0</i>
   <i name="EREF">      0.00000000</i>
   <separator name="electronic smearing" >
    <i type="int" name="ISMEAR">    -5</i>
    <i name="SIGMA">      0.20000000</i>
    <i name="KSPACING">      0.50000000</i>
    <i type="logical" name="KGAMMA"> T  </i>
   </separator>
   <separator name="electronic projectors" >
    <i type="logical" name="LREAL"> F  </i>
    <v name="ROPT">      0.00000000      0.00000000</v>
    <i type="int" name="LMAXPAW">  -100</i>
    <i type="int" name="LMAXMIX">     2</i>
    <i type="logical" name="NLSPLINE"> F  </i>
   </separator>
   <separator name="electronic startup" >
    <i type="int" name="ISTART">     0</i>
    <i type="int" name="ICHARG">     2</i>
    <i type="int" name="INIWAV">     1</i>
   </separator>
   <separator name="electronic spin" >
    <i type="int" name="ISPIN">     1</i>
    <i type="logical" name="LNONCOLLINEAR"> F  </i>
    <v name="MAGMOM">      1.00000000      1.00000000      1.00000000      1.00000000      1.00000000      1.00000000</v>
    <i name="NUPDOWN">     -1.00000000</i>
    <i type="logical" name="LSORBIT"> F  </i>
    <v name="SAXIS">      0.00000000      0.00000000      1.00000000</v>
    <i type="logical" name="LSPIRAL"> F  </i>
    <v name="QSPIRAL">      0.00000000      0.00000000      0.00000000</v>
    <i type="logical" name="LZEROZ"> F  </i>
   </separator>
   <separator name="electronic exchange-correlation" >
    <i type="logical" name="LASPH"> F  </i>
    <i type="logical" name="LMETAGGA"> F  </i>
   </separator>
   <separator name="electronic convergence" >
    <i type="int" name="NELM">    60</i>
    <i type="int" name="NELMDL">     0</i>
    <i type="int" name="NELMIN">     4</i>
    <i name="ENINI">    350.00000000</i>
    <separator name="electronic convergence detail" >
     <i type="logical" name="LDIAG"> T  </i>
     <i type="logical" name="LSUBROT"> F  </i>
     <i name="WEIMIN">      0.00000000</i>
     <i name="EBREAK">      0.00000011</i>
     <i name="DEPER">      0.30000000</i>
     <i type="int" name="NRMM">     4</i>
     <i name="TIME">      0.40000000</i>
    </separator>
   </separator>
   <separator name="electronic mixer" >
    <i name="AMIX">      0.40000000</i>
    <i name="BMIX">      1.00000000</i>
    <i name="AMIN">      0.10000000</i>
    <i name="AMIX_MAG">      1.60000000</i>
    <i name="BMIX_MAG">      1.00000000</i>
    <separator name="electronic mixer details" >
     <i type="int" name="IMIX">     4</i>
     <i type="logical" name="MIXFIRST"> F  </i>
     <i type="int" name="MAXMIX">   -45</i>
     <i name="WC">    100.00000000</i>
     <i type="int" name="INIMIX">     1</i>
     <i type="int" name="MIXPRE">     1</i>
     <i type="int" name="MREMOVE">     5</i>
    </separator>
   </separator>
   <separator name="electronic dipolcorrection" >
    <i type="logical" name="LDIPOL"> F  </i>
    <i type="logical" name="LMONO"> F  </i>
    <i type="int" name="IDIPOL">     0</i>
    <i name="EPSILON">      1.00000000</i>
    <v name="DIPOL">   -100.00000000   -100.00000000   -100.00000000</v>
    <i name="EFIELD">      0.00000000</i>
   </separator>
  </separator>
  <separator name="grids" >
   <i type="int" name="NGX">    16</i>
   <i type="int" name="NGY">    16</i>
   <i type="int" name="NGZ">    70</i>
   <i type="int" name="NGXF">    32</i>
   <i type="int" name="NGYF">    32</i>
   <i type="int" name="NGZF">   140</i>
   <i type="logical" name="ADDGRID"> F  </i>
  </separator>
  <separator name="ionic" >
   <i type="int" name="NSW">     0</i>
   <i type="int" name="IBRION">    -1</i>
   <i type="int" name="MDALGO">     0</i>
   <i type="int" name="ISIF">     2</i>
   <i name="PSTRESS">      0.00000000</i>
   <i name="EDIFFG">      0.00010000</i>
   <i type="int" name="NFREE">     0</i>
   <i name="POTIM">      0.50000000</i>
   <i name="SMASS">     -3.00000000</i>
   <i name="SCALEE">      1.00000000</i>
  </separator>
  <separator name="ionic md" >
   <i name="TEBEG">      0.00010000</i>
   <i name="TEEND">      0.00010000</i>
   <i type="int" name="NBLOCK">     1</i>
   <i type="int" name="KBLOCK">     1</i>
   <i type="int" name="NPACO">   256</i>
   <i name="APACO">     16.00000000</i>
  </separator>
  <separator name="symmetry" >
   <i type="int" name="ISYM">     2</i>
   <i name="SYMPREC">      0.00001000</i>
  </separator>
  <separator name="dos" >
   <i type="int" name="LORBIT">     0</i>
   <v name="RWIGS">     -1.00000000     -1.00000000</v>
   <i type="int" name="NEDOS">   301</i>
   <i name="EMIN">     10.00000000</i>
   <i name="EMAX">    -10.00000000</i>
   <i name="EFERMI">      0.00000000</i>
  </separator>
  <separator name="writing" >
   <i type="int" name="NWRITE">     2</i>
   <i type="logical" name="LWAVE"> F  </i>
   <i type="logical" name="LDOWNSAMPLE"> F  </i>
   <i type="logical" name="LCHARG"> T  </i>
   <i type="logical" name="LPARD"> F  </i>
   <i type="logical" name="LVTOT"> F  </i>
   <i type="logical" name="LVHAR"> F  </i>
   <i type="logical" name="LELF"> F  </i>
   <i type="logical" name="LOPTICS"> F  </i>
   <v name="STM">      0.00000000      0.00000000      0.00000000      0.00000000      0.00000000      0.00000000      0.00000000</v>
  </separator>
  <separator name="performance" >
   <i type="int" name="NPAR">     2</i>
   <i type="int" name="NSIM">     4</i>
   <i type="int" name="NBLK">    -1</i>
   <i type="logical" name="LPLANE"> T  </i>
   <i type="logical" name="LSCALAPACK"> T  </i>
   <i type="logical" name="LSCAAWARE"> F  </i>
   <i type="logical" name="LSCALU"> F  </i>
   <i type="logical" name="LASYNC"> F  </i>
   <i type="logical" name="LORBITALREAL"> F  </i>
  </separator>
  <separator name="miscellaneous" >
   <i type="int" name="IDIOT">     3</i>
   <i type="int" name="ISPECIAL">     0</i>
   <i type="logical" name="LMUSIC"> F  </i>
   <v name="POMASS">     95.94000000     32.06600000</v>
   <v name="DARWINR">      0.00000000      0.00000000</v>
   <v name="DARWINV">      1.00000000      1.00000000</v>
   <i type="logical" name="LCORR"> T  </i>
  </separator>
  <i type="logical" name="GGA_COMPAT"> T  </i>
  <i type="logical" name="LBERRY"> F  </i>
  <i type="int" name="ICORELEVEL">     0</i>
  <i type="logical" name="LDAU"> F  </i>
  <i type="int" name="I_CONSTRAINED_M">     0</i>
  <separator name="electronic exchange-correlation" >
   <i type="string" name="GGA">--</i>
   <i type="int" name="VOSKOWN">     0</i>
   <i type="logical" name="LHFCALC"> F  </i>
   <i type="string" name="PRECFOCK"></i>
   <i type="logical" name="LSYMGRAD"> F  </i>
   <i type="logical" name="LHFONE"> F  </i>
   <i type="logical" name="LRHFCALC"> F  </i>
   <i type="logical" name="LTHOMAS"> F  </i>
   <i type="logical" name="LMODELHF"> F  </i>
   <i name="ENCUT4O">     -1.00000000</i>
   <i type="int" name="EXXOEP">     0</i>
   <i type="int" name="FOURORBIT">     0</i>
   <i name="AEXX">      0.00000000</i>
   <i name="HFALPHA">      0.00000000</i>
   <i name="MCALPHA">      0.00000000</i>
   <i name="ALDAX">      1.00000000</i>
   <i name="AGGAX">      1.00000000</i>
   <i name="ALDAC">      1.00000000</i>
   <i name="AGGAC">      1.00000000</i>
   <i type="int" name="NKREDX">     1</i>
   <i type="int" name="NKREDY">     1</i>
   <i type="int" name="NKREDZ">     1</i>
   <i type="logical" name="SHIFTRED"> F  </i>
   <i type="logical" name="ODDONLY"> F  </i>
   <i type="logical" name="EVENONLY"> F  </i>
   <i type="int" name="LMAXFOCK">     0</i>
   <i type="int" name="NMAXFOCKAE">     0</i>
   <i type="logical" name="LFOCKAEDFT"> F  </i>
   <i name="HFSCREEN">      0.00000000</i>
   <i name="HFSCREENC">      0.00000000</i>
   <i type="int" name="NBANDSGWLOW">     0</i>
  </separator>
  <separator name="vdW DFT" >
   <i type="logical" name="LUSE_VDW"> F  </i>
   <i name="Zab_VDW">     -0.84910000</i>
   <i name="PARAM1">      0.12340000</i>
   <i name="PARAM2">      1.00000000</i>
   <i name="PARAM3">      0.00000000</i>
  </separator>
  <separator name="model GW" >
   <i type="int" name="MODEL_GW">     0</i>
   <i name="MODEL_EPS0">     13.11510680</i>
   <i name="MODEL_ALPHA">      1.00000000</i>
  </separator>
  <separator name="linear response parameters" >
   <i type="logical" name="LEPSILON"> F  </i>
   <i type="logical" name="LRPA"> F  </i>
   <i type="logical" name="LNABLA"> F  </i>
   <i type="logical" name="LVEL"> F  </i>
   <i type="int" name="KINTER">     0</i>
   <i name="CSHIFT">      0.10000000</i>
   <i name="OMEGAMAX">     -1.00000000</i>
   <i name="DEG_THRESHOLD">      0.00200000</i>
   <i name="RTIME">     -0.10000000</i>
   <i name="WPLASMAI">      0.00000000</i>
   <v name="DFIELD">      0.00000000      0.00000000      0.00000000</v>
   <v name="WPLASMA">      0.00000000      0.00000000      0.00000000      0.00000000      0.00000000      0.00000000      0.00000000      0.00000000      0.00000000</v>
  </separator>
  <separator name="orbital magnetization" >
   <i type="logical" name="NUCIND"> F  </i>
   <v name="MAGPOS">      0.00000000      0.00000000      0.00000000</v>
   <i type="logical" name="LNICSALL"> T  </i>
   <i type="logical" name="ORBITALMAG"> F  </i>
   <i type="logical" name="LMAGBLOCH"> F  </i>
   <i type="logical" name="LCHIMAG"> F  </i>
   <i type="logical" name="LGAUGE"> T  </i>
   <i type="int" name="MAGATOM">     0</i>
   <v name="MAGDIPOL">      0.00000000      0.00000000      0.00000000</v>
   <v name="AVECCONST">      0.00000000      0.00000000      0.00000000</v>
  </separator>
  <separator name="response functions" >
   <i type="logical" name="LADDER"> F  </i>
   <i type="logical" name="LRPAFORCE"> F  </i>
   <i type="logical" name="LFXC"> F  </i>
   <i type="logical" name="LHARTREE"> T  </i>
   <i type="int" name="IBSE">     0</i>
   <v type="int" name="KPOINT">    -1     0     0     0</v>
   <i type="logical" name="LTCTE"> F  </i>
   <i type="logical" name="LTETE"> F  </i>
   <i type="logical" name="LTRIPLET"> F  </i>
   <i type="logical" name="LFXCEPS"> F  </i>
   <i type="logical" name="LFXHEG"> F  </i>
   <i type="int" name="NATURALO">     2</i>
   <i type="logical" name="L2ORDER"> F  </i>
   <i type="logical" name="LMP2LT"> F  </i>
   <i type="logical" name="LUSEW"> F  </i>
   <i name="ENCUTGW">     -2.00000000</i>
   <i name="ENCUTGWSOFT">     -2.00000000</i>
   <i name="ENCUTLF">     -1.00000000</i>
   <i type="int" name="LMAXMP2">    -1</i>
   <i name="SCISSOR">      0.00000000</i>
   <i type="int" name="NOMEGA">     0</i>
   <i type="int" name="NOMEGAR">     0</i>
   <i type="int" name="NBANDSGW">    -1</i>
   <i type="int" name="NBANDSO">    -1</i>
   <i type="int" name="NBANDSV">    -1</i>
   <i type="int" name="NELM">     1</i>
   <i type="int" name="NELMHF">     1</i>
   <i type="int" name="DIM">     3</i>
   <i type="int" name="ANTIRES">     0</i>
   <i name="OMEGAMAX">    -30.00000000</i>
   <i name="OMEGAMIN">    -30.00000000</i>
   <i name="OMEGATL">   -200.00000000</i>
   <i type="int" name="OMEGAGRID">   140</i>
   <i name="CSHIFT">     -0.10000000</i>
   <i type="logical" name="SELFENERGY"> F  </i>
   <i type="logical" name="LSPECTRAL"> F  </i>
   <i type="logical" name="LSPECTRALGW"> F  </i>
   <i type="logical" name="LSINGLES"> F  </i>
   <i type="logical" name="LFERMIGW"> F  </i>
   <i type="logical" name="ODDONLYGW"> F  </i>
   <i type="logical" name="EVENONLYGW"> F  </i>
   <i type="int" name="NKREDLFX">     1</i>
   <i type="int" name="NKREDLFY">     1</i>
   <i type="int" name="NKREDLFZ">     1</i>
   <i type="int" name="MAXMEM">  2800</i>
   <i type="int" name="TELESCOPE">     0</i>
   <i type="int" name="TAUPAR">     1</i>
   <i type="int" name="OMEGAPAR">    -1</i>
   <i name="LAMBDA">      1.00000000</i>
  </separator>
  <separator name="External order field" >
   <i name="OFIELD_KAPPA">      0.00000000</i>
   <v name="OFIELD_K">      0.00000000      0.00000000      0.00000000</v>
   <i name="OFIELD_Q6_NEAR">      0.00000000</i>
   <i name="OFIELD_Q6_FAR">      0.00000000</i>
   <i name="OFIELD_A">      0.00000000</i>
  </separator>
 </parameters>
 <atominfo>
  <atoms>       6 </atoms>
  <types>       2 </types>
  <array name="atoms" >
   <dimension dim="1">ion</dimension>
   <field type="string">element</field>
   <field type="int">atomtype</field>
   <set>
    <rc><c>Mo</c><c>   1</c></rc>
    <rc><c>Mo</c><c>   1</c></rc>
    <rc><c>S </c><c>   2</c></rc>
    <rc><c>S </c><c>   2</c></rc>
    <rc><c>S </c><c>   2</c></rc>
    <rc><c>S </c><c>   2</c></rc>
   </set>
  </array>
  <array name="atomtypes" >
   <dimension dim="1">type</dimension>
   <field type="int">atomspertype</field>
   <field type="string">element</field>
   <field>mass</field>
   <field>valence</field>
   <field type="string">pseudopotential</field>
   <set>
    <rc><c>   2</c><c>Mo</c><c>     95.94000000</c><c>      6.00000000</c><c> PAW_PBE Mo 08Apr2002                   </c></rc>
    <rc><c>   4</c><c>S </c><c>     32.06600000</c><c>      6.00000000</c><c>  PAW_PBE S 17Jan2003                   </c></rc>
   </set>
  </array>
 </atominfo>
 <structure name="initialpos" >
  <crystal>
   <varray name="basis" >
    <v>       3.19031573       0.00000000       0.00000000 </v>
    <v>      -1.59515786       2.76289447       0.00000000 </v>
    <v>       0.00000000       0.00000000      14.87900430 </v>
   </varray>
   <i name="volume">    131.15106795 </i>
   <varray name="rec_basis" >
    <v>       0.31344860       0.18096963       0.00000000 </v>
    <v>       0.00000000       0.36193927       0.00000000 </v>
    <v>       0.00000000       0.00000000       0.06720880 </v>
   </varray>
  </crystal>
  <varray name="positions" >
   <v>       0.33333300       0.66666700       0.25000000 </v>
   <v>       0.66666700       0.33333300       0.75000000 </v>
   <v>       0.33333300       0.66666700       0.85517400 </v>
   <v>       0.66666700       0.33333300       0.14482600 </v>
   <v>       0.66666600       0.33333300       0.35517400 </v>
   <v>       0.33333400       0.66666700       0.64482600 </v>
  </varray>
 </structure>
 <calculation>
  <scstep>
   <time name="dav">    0.31    0.32</time>
   <time name="total">    0.34    0.40</time>
   <energy>
    <i name="alphaZ">     90.42577596 </i>
    <i name="ewald">  -1146.88905665 </i>
    <i name="hartreedc">   -535.10238362 </i>
    <i name="XCdc">    -72.59367894 </i>
    <i name="pawpsdc">    813.77302396 </i>
    <i name="pawaedc">   -658.68146406 </i>
    <i name="eentropy">      0.00000000 </i>
    <i name="bandstr">    139.99712061 </i>
    <i name="atom">   1542.29591262 </i>
    <i name="e_fr_energy">    173.22524989 </i>
    <i name="e_wo_entrp">    173.22524989 </i>
    <i name="e_0_energy">    173.22524989 </i>
   </energy>
  </scstep>
  <scstep>
   <time name="dav">    0.39    0.39</time>
   <time name="total">    0.39    0.39</time>
   <energy>
    <i name="e_fr_energy">    -30.93982153 </i>
    <i name="e_wo_entrp">    -30.93982153 </i>
    <i name="e_0_energy">    -30.93982153 </i>
   </energy>
  </scstep>
  <scstep>
   <time name="dav">    0.38    0.39</time>
   <time name="total">    0.39    0.39</time>
   <energy>
    <i name="e_fr_energy">    -46.36205958 </i>
    <i name="e_wo_entrp">    -46.36205958 </i>
    <i name="e_0_energy">    -46.36205958 </i>
   </energy>
  </scstep>
  <scstep>
   <time name="dav">    0.40    0.41</time>
   <time name="total">    0.41    0.41</time>
   <energy>
    <i name="e_fr_energy">    -46.80683400 </i>
    <i name="e_wo_entrp">    -46.80683400 </i>
    <i name="e_0_energy">    -46.80683400 </i>
   </energy>
  </scstep>
  <scstep>
   <time name="dav">    0.38    0.38</time>
   <time name="total">    0.41    0.41</time>
   <energy>
    <i name="e_fr_energy">    -46.81623762 </i>
    <i name="e_wo_entrp">    -46.81623762 </i>
    <i name="e_0_energy">    -46.81623762 </i>
   </energy>
  </scstep>
  <scstep>
   <time name="diag">    0.06    0.07</time>
   <time name="diis">    0.24    0.24</time>
   <time name="orth">    0.01    0.01</time>
   <time name="total">    0.37    0.37</time>
   <energy>
    <i name="e_fr_energy">    -44.42889348 </i>
    <i name="e_wo_entrp">    -44.42889348 </i>
    <i name="e_0_energy">    -44.42889348 </i>
   </energy>
  </scstep>
  <scstep>
   <time name="diag">    0.06    0.06</time>
   <time name="diis">    0.24    0.24</time>
   <time name="orth">    0.01    0.01</time>
   <time name="total">    0.36    0.36</time>
   <energy>
    <i name="e_fr_energy">    -43.68665911 </i>
    <i name="e_wo_entrp">    -43.68665911 </i>
    <i name="e_0_energy">    -43.68665911 </i>
   </energy>
  </scstep>
  <scstep>
   <time name="diag">    0.06    0.06</time>
   <time name="diis">    0.25    0.25</time>
   <time name="orth">    0.01    0.01</time>
   <time name="total">    0.37    0.37</time>
   <energy>
    <i name="e_fr_energy">    -43.62464230 </i>
    <i name="e_wo_entrp">    -43.62464230 </i>
    <i name="e_0_energy">    -43.62464230 </i>
   </energy>
  </scstep>
  <scstep>
   <time name="diag">    0.06    0.06</time>
   <time name="diis">    0.26    0.26</time>
   <time name="orth">    0.01    0.01</time>
   <time name="total">    0.38    0.38</time>
   <energy>
    <i name="e_fr_energy">    -43.61492523 </i>
    <i name="e_wo_entrp">    -43.61492523 </i>
    <i name="e_0_energy">    -43.61492523 </i>
   </energy>
  </scstep>
  <scstep>
   <time name="diag">    0.06    0.07</time>
   <time name="diis">    0.26    0.26</time>
   <time name="orth">    0.01    0.01</time>
   <time name="total">    0.38    0.38</time>
   <energy>
    <i name="e_fr_energy">    -43.59753988 </i>
    <i name="e_wo_entrp">    -43.59753988 </i>
    <i name="e_0_energy">    -43.59753988 </i>
   </energy>
  </scstep>
  <scstep>
   <time name="diag">    0.06    0.07</time>
   <time name="diis">    0.27    0.27</time>
   <time name="orth">    0.01    0.01</time>
   <time name="total">    0.40    0.40</time>
   <energy>
    <i name="e_fr_energy">    -43.59758005 </i>
    <i name="e_wo_entrp">    -43.59758005 </i>
    <i name="e_0_energy">    -43.59758005 </i>
   </energy>
  </scstep>
  <scstep>
   <time name="diag">    0.06    0.07</time>
   <time name="diis">    0.27    0.28</time>
   <time name="orth">    0.01    0.01</time>
   <time name="total">    0.40    0.40</time>
   <energy>
    <i name="e_fr_energy">    -43.59772029 </i>
    <i name="e_wo_entrp">    -43.59772029 </i>
    <i name="e_0_energy">    -43.59772029 </i>
   </energy>
  </scstep>
  <scstep>
   <time name="diag">    0.06    0.06</time>
   <time name="diis">    0.29    0.29</time>
   <time name="orth">    0.01    0.01</time>
   <time name="total">    0.41    0.41</time>
   <energy>
    <i name="e_fr_energy">    -43.59772909 </i>
    <i name="e_wo_entrp">    -43.59772909 </i>
    <i name="e_0_energy">    -43.59772909 </i>
   </energy>
  </scstep>
  <scstep>
   <time name="diag">    0.06    0.06</time>
   <time name="diis">    0.22    0.22</time>
   <time name="orth">    0.01    0.01</time>
   <time name="total">    0.34    0.34</time>
   <energy>
    <i name="e_fr_energy">    -43.59771618 </i>
    <i name="e_wo_entrp">    -43.59771618 </i>
    <i name="e_0_energy">    -43.59771618 </i>
   </energy>
  </scstep>
  <scstep>
   <time name="diag">    0.06    0.07</time>
   <time name="diis">    0.18    0.18</time>
   <time name="orth">    0.01    0.01</time>
   <time name="total">    0.28    0.28</time>
   <energy>
    <i name="alphaZ">     90.42577596 </i>
    <i name="ewald">  -1146.88905665 </i>
    <i name="hartreedc">   -542.93443715 </i>
    <i name="XCdc">    -70.39919566 </i>
    <i name="pawpsdc">    945.04546903 </i>
    <i name="pawaedc">   -793.42424835 </i>
    <i name="eentropy">      0.00000000 </i>
    <i name="bandstr">    -67.71793612 </i>
    <i name="atom">   1542.29591262 </i>
    <i name="e_fr_energy">    -43.59771631 </i>
    <i name="e_wo_entrp">    -43.59771631 </i>
    <i name="e_0_energy">    -43.59771631 </i>
   </energy>
  </scstep>
  <structure>
   <crystal>
    <varray name="basis" >
     <v>       3.19031573       0.00000000       0.00000000 </v>
     <v>      -1.59515786       2.76289447       0.00000000 </v>
     <v>       0.00000000       0.00000000      14.87900430 </v>
    </varray>
    <i name="volume">    131.15106795 </i>
    <varray name="rec_basis" >
     <v>       0.31344860       0.18096963       0.00000000 </v>
     <v>       0.00000000       0.36193927       0.00000000 </v>
     <v>       0.00000000       0.00000000       0.06720880 </v>
    </varray>
   </crystal>
   <varray name="positions" >
    <v>       0.33333300       0.66666700       0.25000000 </v>
    <v>       0.66666700       0.33333300       0.75000000 </v>
    <v>       0.33333300       0.66666700       0.85517400 </v>
    <v>       0.66666700       0.33333300       0.14482600 </v>
    <v>       0.66666600       0.33333300       0.35517400 </v>
    <v>       0.33333400       0.66666700       0.64482600 </v>
   </varray>
  </structure>
  <varray name="forces" >
   <v>       0.00000000       0.00000000      -0.00000000 </v>
   <v>       0.00000000       0.00000000      -0.00000000 </v>
   <v>       0.00000000      -0.00000000      -0.08343670 </v>
   <v>       0.00000000      -0.00000000       0.08343670 </v>
   <v>      -0.00000000      -0.00000000      -0.08343670 </v>
   <v>      -0.00000000       0.00000000       0.08343670 </v>
  </varray>
  <varray name="stress" >
   <v>      -6.18855699       0.00000000       0.00000000 </v>
   <v>       0.00000000      -6.18855699      -0.00000000 </v>
   <v>      -0.00000000      -0.00000000     -17.56099656 </v>
  </varray>
  <energy>
   <i name="e_fr_energy">    -44.92900333 </i>
   <i name="e_wo_entrp">    -44.92900333 </i>
   <i name="e_0_energy">      0.00000000 </i>
  </energy>
  <time name="totalsc">    6.19    6.34</time>
  <eigenvalues>
   <array>
    <dimension dim="1">band</dimension>
    <dimension dim="2">kpoint</dimension>
    <dimension dim="3">spin</dimension>
    <field>eigene</field>
    <field>occ</field>
    <set>
     <set comment="spin 1">
      <set comment="kpoint 1">
       <r>  -10.9296    1.0000 </r>
       <r>  -10.9106    1.0000 </r>
       <r>   -9.7290    1.0000 </r>
       <r>   -9.6951    1.0000 </r>
       <r>   -2.5230    1.0000 </r>
       <r>   -2.3615    1.0000 </r>
       <r>    0.5201    1.0000 </r>
       <r>    0.5201    1.0000 </r>
       <r>    0.5207    1.0000 </r>
       <r>    0.5207    1.0000 </r>
       <r>    1.1065    1.0000 </r>
       <r>    1.6253    1.0000 </r>
       <r>    1.6254    1.0000 </r>
       <r>    1.6276    1.0000 </r>
       <r>    1.6276    1.0000 </r>
       <r>    1.6750    1.0000 </r>
       <r>    2.9224    1.0000 </r>
       <r>    3.2984    1.0000 </r>
       <r>    5.8769    0.0000 </r>
       <r>    5.8893    0.0000 </r>
       <r>    5.9067    0.0000 </r>
       <r>    6.0642    0.0000 </r>
      </set>
      <set comment="kpoint 2">
       <r>  -10.7152    1.0000 </r>
       <r>  -10.6966    1.0000 </r>
       <r>   -9.6254    1.0000 </r>
       <r>   -9.5939    1.0000 </r>
       <r>   -2.2772    1.0000 </r>
       <r>   -2.1182    1.0000 </r>
       <r>    0.0557    1.0000 </r>
       <r>    0.0585    1.0000 </r>
       <r>    0.4570    1.0000 </r>
       <r>    0.6733    1.0000 </r>
       <r>    0.7542    1.0000 </r>
       <r>    0.7554    1.0000 </r>
       <r>    1.2892    1.0000 </r>
       <r>    1.2919    1.0000 </r>
       <r>    1.9312    1.0000 </r>
       <r>    2.2152    1.0000 </r>
       <r>    2.8434    1.0000 </r>
       <r>    3.0857    1.0000 </r>
       <r>    5.5180    0.0000 </r>
       <r>    5.6647    0.0000 </r>
       <r>    5.7074    0.0000 </r>
       <r>    5.7844    0.0000 </r>
      </set>
      <set comment="kpoint 3">
       <r>  -10.1455    1.0000 </r>
       <r>  -10.1288    1.0000 </r>
       <r>   -9.3530    1.0000 </r>
       <r>   -9.3286    1.0000 </r>
       <r>   -1.8872    1.0000 </r>
       <r>   -1.7763    1.0000 </r>
       <r>   -0.6910    1.0000 </r>
       <r>   -0.6474    1.0000 </r>
       <r>   -0.4607    1.0000 </r>
       <r>   -0.3591    1.0000 </r>
       <r>    0.6537    1.0000 </r>
       <r>    0.6573    1.0000 </r>
       <r>    1.3402    1.0000 </r>
       <r>    1.3437    1.0000 </r>
       <r>    1.7047    1.0000 </r>
       <r>    1.9135    1.0000 </r>
       <r>    2.3700    1.0000 </r>
       <r>    2.4185    1.0000 </r>
       <r>    5.1188    0.0000 </r>
       <r>    5.4386    0.0000 </r>
       <r>    5.4390    0.0000 </r>
       <r>    5.4535    0.0000 </r>
      </set>
      <set comment="kpoint 4">
       <r>   -9.4679    1.0000 </r>
       <r>   -9.4561    1.0000 </r>
       <r>   -9.0394    1.0000 </r>
       <r>   -9.0251    1.0000 </r>
       <r>   -2.2847    1.0000 </r>
       <r>   -2.2500    1.0000 </r>
       <r>   -1.2970    1.0000 </r>
       <r>   -1.2540    1.0000 </r>
       <r>   -0.8459    1.0000 </r>
       <r>   -0.7609    1.0000 </r>
       <r>    0.1562    1.0000 </r>
       <r>    0.1603    1.0000 </r>
       <r>    1.3427    1.0000 </r>
       <r>    1.4503    1.0000 </r>
       <r>    1.9284    1.0000 </r>
       <r>    1.9370    1.0000 </r>
       <r>    2.1739    1.0000 </r>
       <r>    2.2246    1.0000 </r>
       <r>    5.2595    0.0000 </r>
       <r>    5.2686    0.0000 </r>
       <r>    5.4545    0.0000 </r>
       <r>    5.6329    0.0000 </r>
      </set>
      <set comment="kpoint 5">
       <r>   -9.1370    1.0000 </r>
       <r>   -9.1305    1.0000 </r>
       <r>   -8.8921    1.0000 </r>
       <r>   -8.8856    1.0000 </r>
       <r>   -2.6132    1.0000 </r>
       <r>   -2.5863    1.0000 </r>
       <r>   -1.6523    1.0000 </r>
       <r>   -1.6278    1.0000 </r>
       <r>   -0.9677    1.0000 </r>
       <r>   -0.8918    1.0000 </r>
       <r>   -0.0246    1.0000 </r>
       <r>   -0.0203    1.0000 </r>
       <r>    1.2473    1.0000 </r>
       <r>    1.2667    1.0000 </r>
       <r>    2.1538    1.0000 </r>
       <r>    2.1659    1.0000 </r>
       <r>    2.4776    1.0000 </r>
       <r>    2.4814    1.0000 </r>
       <r>    5.2841    0.0000 </r>
       <r>    5.2879    0.0000 </r>
       <r>    5.7734    0.0000 </r>
       <r>    5.8327    0.0000 </r>
      </set>
      <set comment="kpoint 6">
       <r>  -10.3218    1.0000 </r>
       <r>  -10.3044    1.0000 </r>
       <r>   -9.4359    1.0000 </r>
       <r>   -9.4092    1.0000 </r>
       <r>   -1.9204    1.0000 </r>
       <r>   -1.7806    1.0000 </r>
       <r>   -0.5131    1.0000 </r>
       <r>   -0.5005    1.0000 </r>
       <r>   -0.0646    1.0000 </r>
       <r>    0.0776    1.0000 </r>
       <r>    0.4646    1.0000 </r>
       <r>    0.4907    1.0000 </r>
       <r>    1.0935    1.0000 </r>
       <r>    1.0952    1.0000 </r>
       <r>    2.0964    1.0000 </r>
       <r>    2.2989    1.0000 </r>
       <r>    2.5523    1.0000 </r>
       <r>    2.6279    1.0000 </r>
       <r>    5.0626    0.0000 </r>
       <r>    5.3356    0.0000 </r>
       <r>    5.5323    0.0000 </r>
       <r>    5.6091    0.0000 </r>
      </set>
      <set comment="kpoint 7">
       <r>   -9.6865    1.0000 </r>
       <r>   -9.6725    1.0000 </r>
       <r>   -9.1331    1.0000 </r>
       <r>   -9.1148    1.0000 </r>
       <r>   -1.9389    1.0000 </r>
       <r>   -1.8858    1.0000 </r>
       <r>   -0.9505    1.0000 </r>
       <r>   -0.9192    1.0000 </r>
       <r>   -0.7079    1.0000 </r>
       <r>   -0.6343    1.0000 </r>
       <r>   -0.0660    1.0000 </r>
       <r>    0.0088    1.0000 </r>
       <r>    1.1910    1.0000 </r>
       <r>    1.1968    1.0000 </r>
       <r>    1.7879    1.0000 </r>
       <r>    1.8743    1.0000 </r>
       <r>    2.3027    1.0000 </r>
       <r>    2.3125    1.0000 </r>
       <r>    4.9962    0.0000 </r>
       <r>    5.2125    0.0000 </r>
       <r>    5.5441    0.0000 </r>
       <r>    5.6444    0.0000 </r>
      </set>
      <set comment="kpoint 8">
       <r>   -9.1528    1.0000 </r>
       <r>   -9.1451    1.0000 </r>
       <r>   -8.8841    1.0000 </r>
       <r>   -8.8757    1.0000 </r>
       <r>   -2.3259    1.0000 </r>
       <r>   -2.2990    1.0000 </r>
       <r>   -1.7016    1.0000 </r>
       <r>   -1.6925    1.0000 </r>
       <r>   -0.8373    1.0000 </r>
       <r>   -0.7667    1.0000 </r>
       <r>   -0.0666    1.0000 </r>
       <r>   -0.0241    1.0000 </r>
       <r>    1.2007    1.0000 </r>
       <r>    1.2170    1.0000 </r>
       <r>    1.3291    1.0000 </r>
       <r>    1.3674    1.0000 </r>
       <r>    2.6250    1.0000 </r>
       <r>    2.6433    1.0000 </r>
       <r>    5.2706    0.0000 </r>
       <r>    5.3347    0.0000 </r>
       <r>    5.7834    0.0000 </r>
       <r>    5.8551    0.0000 </r>
      </set>
      <set comment="kpoint 9">
       <r>   -9.1683    1.0000 </r>
       <r>   -9.1596    1.0000 </r>
       <r>   -8.8759    1.0000 </r>
       <r>   -8.8659    1.0000 </r>
       <r>   -1.9666    1.0000 </r>
       <r>   -1.9381    1.0000 </r>
       <r>   -1.7529    1.0000 </r>
       <r>   -1.7418    1.0000 </r>
       <r>   -0.4875    1.0000 </r>
       <r>   -0.4630    1.0000 </r>
       <r>   -0.1386    1.0000 </r>
       <r>   -0.0503    1.0000 </r>
       <r>    0.2154    1.0000 </r>
       <r>    0.2381    1.0000 </r>
       <r>    1.4770    1.0000 </r>
       <r>    1.4877    1.0000 </r>
       <r>    2.6009    1.0000 </r>
       <r>    2.6107    1.0000 </r>
       <r>    5.1856    0.0000 </r>
       <r>    5.3137    0.0000 </r>
       <r>    5.8565    0.0000 </r>
       <r>    6.0892    0.0000 </r>
      </set>
      <set comment="kpoint 10">
       <r>   -8.9306    1.0000 </r>
       <r>   -8.9275    1.0000 </r>
       <r>   -8.7533    1.0000 </r>
       <r>   -8.7501    1.0000 </r>
       <r>   -2.1372    1.0000 </r>
       <r>   -2.1263    1.0000 </r>
       <r>   -1.7913    1.0000 </r>
       <r>   -1.7751    1.0000 </r>
       <r>   -0.7773    1.0000 </r>
       <r>   -0.7401    1.0000 </r>
       <r>   -0.1063    1.0000 </r>
       <r>   -0.0854    1.0000 </r>
       <r>    0.1076    1.0000 </r>
       <r>    0.1585    1.0000 </r>
       <r>    1.0764    1.0000 </r>
       <r>    1.1163    1.0000 </r>
       <r>    2.9624    1.0000 </r>
       <r>    2.9835    1.0000 </r>
       <r>    4.9234    0.0000 </r>
       <r>    4.9322    0.0000 </r>
       <r>    6.1551    0.0000 </r>
       <r>    6.3265    0.0000 </r>
      </set>
      <set comment="kpoint 11">
       <r>  -10.9202    1.0000 </r>
       <r>  -10.9202    1.0000 </r>
       <r>   -9.7120    1.0000 </r>
       <r>   -9.7120    1.0000 </r>
       <r>   -2.4450    1.0000 </r>
       <r>   -2.4450    1.0000 </r>
       <r>    0.5203    1.0000 </r>
       <r>    0.5203    1.0000 </r>
       <r>    0.5203    1.0000 </r>
       <r>    0.5203    1.0000 </r>
       <r>    1.3633    1.0000 </r>
       <r>    1.3633    1.0000 </r>
       <r>    1.6262    1.0000 </r>
       <r>    1.6262    1.0000 </r>
       <r>    1.6262    1.0000 </r>
       <r>    1.6262    1.0000 </r>
       <r>    3.1410    1.0000 </r>
       <r>    3.1410    1.0000 </r>
       <r>    5.8783    0.0000 </r>
       <r>    5.8879    0.0000 </r>
       <r>    5.9526    0.0000 </r>
       <r>    6.0732    0.0000 </r>
      </set>
      <set comment="kpoint 12">
       <r>  -10.7061    1.0000 </r>
       <r>  -10.7061    1.0000 </r>
       <r>   -9.6096    1.0000 </r>
       <r>   -9.6095    1.0000 </r>
       <r>   -2.2007    1.0000 </r>
       <r>   -2.2007    1.0000 </r>
       <r>    0.0568    1.0000 </r>
       <r>    0.0568    1.0000 </r>
       <r>    0.5718    1.0000 </r>
       <r>    0.5718    1.0000 </r>
       <r>    0.7549    1.0000 </r>
       <r>    0.7549    1.0000 </r>
       <r>    1.2906    1.0000 </r>
       <r>    1.2906    1.0000 </r>
       <r>    2.0434    1.0000 </r>
       <r>    2.0434    1.0000 </r>
       <r>    2.9905    1.0000 </r>
       <r>    2.9905    1.0000 </r>
       <r>    5.5737    0.0000 </r>
       <r>    5.5765    0.0000 </r>
       <r>    5.7013    0.0000 </r>
       <r>    5.7288    0.0000 </r>
      </set>
      <set comment="kpoint 13">
       <r>  -10.1373    1.0000 </r>
       <r>  -10.1373    1.0000 </r>
       <r>   -9.3407    1.0000 </r>
       <r>   -9.3407    1.0000 </r>
       <r>   -1.8336    1.0000 </r>
       <r>   -1.8336    1.0000 </r>
       <r>   -0.6748    1.0000 </r>
       <r>   -0.6748    1.0000 </r>
       <r>   -0.4019    1.0000 </r>
       <r>   -0.4019    1.0000 </r>
       <r>    0.6555    1.0000 </r>
       <r>    0.6555    1.0000 </r>
       <r>    1.3420    1.0000 </r>
       <r>    1.3420    1.0000 </r>
       <r>    1.8013    1.0000 </r>
       <r>    1.8013    1.0000 </r>
       <r>    2.3997    1.0000 </r>
       <r>    2.3998    1.0000 </r>
       <r>    5.2602    0.0000 </r>
       <r>    5.2602    0.0000 </r>
       <r>    5.4459    0.0000 </r>
       <r>    5.4470    0.0000 </r>
      </set>
      <set comment="kpoint 14">
       <r>   -9.4621    1.0000 </r>
       <r>   -9.4621    1.0000 </r>
       <r>   -9.0321    1.0000 </r>
       <r>   -9.0321    1.0000 </r>
       <r>   -2.2676    1.0000 </r>
       <r>   -2.2676    1.0000 </r>
       <r>   -1.2774    1.0000 </r>
       <r>   -1.2774    1.0000 </r>
       <r>   -0.8014    1.0000 </r>
       <r>   -0.8014    1.0000 </r>
       <r>    0.1581    1.0000 </r>
       <r>    0.1581    1.0000 </r>
       <r>    1.3944    1.0000 </r>
       <r>    1.3944    1.0000 </r>
       <r>    1.9326    1.0000 </r>
       <r>    1.9327    1.0000 </r>
       <r>    2.2012    1.0000 </r>
       <r>    2.2012    1.0000 </r>
       <r>    5.2639    0.0000 </r>
       <r>    5.2639    0.0000 </r>
       <r>    5.5374    0.0000 </r>
       <r>    5.5374    0.0000 </r>
      </set>
      <set comment="kpoint 15">
       <r>   -9.1338    1.0000 </r>
       <r>   -9.1338    1.0000 </r>
       <r>   -8.8888    1.0000 </r>
       <r>   -8.8888    1.0000 </r>
       <r>   -2.5999    1.0000 </r>
       <r>   -2.5999    1.0000 </r>
       <r>   -1.6409    1.0000 </r>
       <r>   -1.6409    1.0000 </r>
       <r>   -0.9287    1.0000 </r>
       <r>   -0.9287    1.0000 </r>
       <r>   -0.0225    1.0000 </r>
       <r>   -0.0225    1.0000 </r>
       <r>    1.2568    1.0000 </r>
       <r>    1.2568    1.0000 </r>
       <r>    2.1598    1.0000 </r>
       <r>    2.1598    1.0000 </r>
       <r>    2.4796    1.0000 </r>
       <r>    2.4796    1.0000 </r>
       <r>    5.2860    0.0000 </r>
       <r>    5.2860    0.0000 </r>
       <r>    5.8012    0.0000 </r>
       <r>    5.8015    0.0000 </r>
      </set>
      <set comment="kpoint 16">
       <r>  -10.3132    1.0000 </r>
       <r>  -10.3132    1.0000 </r>
       <r>   -9.4224    1.0000 </r>
       <r>   -9.4224    1.0000 </r>
       <r>   -1.8533    1.0000 </r>
       <r>   -1.8533    1.0000 </r>
       <r>   -0.5085    1.0000 </r>
       <r>   -0.5085    1.0000 </r>
       <r>    0.0133    1.0000 </r>
       <r>    0.0133    1.0000 </r>
       <r>    0.4767    1.0000 </r>
       <r>    0.4767    1.0000 </r>
       <r>    1.0944    1.0000 </r>
       <r>    1.0944    1.0000 </r>
       <r>    2.1823    1.0000 </r>
       <r>    2.1824    1.0000 </r>
       <r>    2.6019    1.0000 </r>
       <r>    2.6019    1.0000 </r>
       <r>    5.1828    0.0000 </r>
       <r>    5.1888    0.0000 </r>
       <r>    5.5449    0.0000 </r>
       <r>    5.5828    0.0000 </r>
      </set>
      <set comment="kpoint 17">
       <r>   -9.6796    1.0000 </r>
       <r>   -9.6796    1.0000 </r>
       <r>   -9.1238    1.0000 </r>
       <r>   -9.1238    1.0000 </r>
       <r>   -1.9127    1.0000 </r>
       <r>   -1.9127    1.0000 </r>
       <r>   -0.9367    1.0000 </r>
       <r>   -0.9367    1.0000 </r>
       <r>   -0.6710    1.0000 </r>
       <r>   -0.6710    1.0000 </r>
       <r>   -0.0259    1.0000 </r>
       <r>   -0.0259    1.0000 </r>
       <r>    1.1937    1.0000 </r>
       <r>    1.1937    1.0000 </r>
       <r>    1.8291    1.0000 </r>
       <r>    1.8291    1.0000 </r>
       <r>    2.3082    1.0000 </r>
       <r>    2.3082    1.0000 </r>
       <r>    5.1029    0.0000 </r>
       <r>    5.1029    0.0000 </r>
       <r>    5.5550    0.0000 </r>
       <r>    5.5773    0.0000 </r>
      </set>
      <set comment="kpoint 18">
       <r>   -9.1490    1.0000 </r>
       <r>   -9.1490    1.0000 </r>
       <r>   -8.8798    1.0000 </r>
       <r>   -8.8798    1.0000 </r>
       <r>   -2.3126    1.0000 </r>
       <r>   -2.3126    1.0000 </r>
       <r>   -1.6972    1.0000 </r>
       <r>   -1.6972    1.0000 </r>
       <r>   -0.8027    1.0000 </r>
       <r>   -0.8027    1.0000 </r>
       <r>   -0.0439    1.0000 </r>
       <r>   -0.0439    1.0000 </r>
       <r>    1.2081    1.0000 </r>
       <r>    1.2081    1.0000 </r>
       <r>    1.3482    1.0000 </r>
       <r>    1.3482    1.0000 </r>
       <r>    2.6344    1.0000 </r>
       <r>    2.6344    1.0000 </r>
       <r>    5.3030    0.0000 </r>
       <r>    5.3030    0.0000 </r>
       <r>    5.8118    0.0000 </r>
       <r>    5.8156    0.0000 </r>
      </set>
      <set comment="kpoint 19">
       <r>   -9.1640    1.0000 </r>
       <r>   -9.1640    1.0000 </r>
       <r>   -8.8709    1.0000 </r>
       <r>   -8.8709    1.0000 </r>
       <r>   -1.9525    1.0000 </r>
       <r>   -1.9525    1.0000 </r>
       <r>   -1.7472    1.0000 </r>
       <r>   -1.7472    1.0000 </r>
       <r>   -0.4791    1.0000 </r>
       <r>   -0.4790    1.0000 </r>
       <r>   -0.0902    1.0000 </r>
       <r>   -0.0902    1.0000 </r>
       <r>    0.2269    1.0000 </r>
       <r>    0.2269    1.0000 </r>
       <r>    1.4813    1.0000 </r>
       <r>    1.4813    1.0000 </r>
       <r>    2.6058    1.0000 </r>
       <r>    2.6058    1.0000 </r>
       <r>    5.2494    0.0000 </r>
       <r>    5.2496    0.0000 </r>
       <r>    5.9139    0.0000 </r>
       <r>    6.1876    0.0000 </r>
      </set>
      <set comment="kpoint 20">
       <r>   -8.9291    1.0000 </r>
       <r>   -8.9291    1.0000 </r>
       <r>   -8.7517    1.0000 </r>
       <r>   -8.7517    1.0000 </r>
       <r>   -2.1318    1.0000 </r>
       <r>   -2.1318    1.0000 </r>
       <r>   -1.7830    1.0000 </r>
       <r>   -1.7830    1.0000 </r>
       <r>   -0.7597    1.0000 </r>
       <r>   -0.7597    1.0000 </r>
       <r>   -0.0986    1.0000 </r>
       <r>   -0.0986    1.0000 </r>
       <r>    0.1379    1.0000 </r>
       <r>    0.1379    1.0000 </r>
       <r>    1.0949    1.0000 </r>
       <r>    1.0949    1.0000 </r>
       <r>    2.9729    1.0000 </r>
       <r>    2.9729    1.0000 </r>
       <r>    4.9280    0.0000 </r>
       <r>    4.9280    0.0000 </r>
       <r>    6.2293    0.0000 </r>
       <r>    6.2300    0.0000 </r>
      </set>
     </set>
    </set>
   </array>
  </eigenvalues>
  <separator name="orbital magnetization" >
   <v name="MAGDIPOLOUT">      0.00000000      0.00000000      0.00000000</v>
  </separator>
  <dos>
   <i name="efermi">      3.30471848 </i>
   <total>
    <array>
     <dimension dim="1">gridpoints</dimension>
     <dimension dim="2">spin</dimension>
     <field>energy</field>
     <field>total</field>
     <field>integrated</field>
     <set>
      <set comment="spin 1">
       <r>   -12.9296     0.0000     0.0000 </r>
       <r>   -12.8587     0.0000     0.0000 </r>
       <r>   -12.7879     0.0000     0.0000 </r>
       <r>   -12.7170     0.0000     0.0000 </r>
       <r>   -12.6462     0.0000     0.0000 </r>
       <r>   -12.5753     0.0000     0.0000 </r>
       <r>   -12.5045     0.0000     0.0000 </r>
       <r>   -12.4336     0.0000     0.0000 </r>
       <r>   -12.3627     0.0000     0.0000 </r>
       <r>   -12.2919     0.0000     0.0000 </r>
       <r>   -12.2210     0.0000     0.0000 </r>
       <r>   -12.1502     0.0000     0.0000 </r>
       <r>   -12.0793     0.0000     0.0000 </r>
       <r>   -12.0085     0.0000     0.0000 </r>
       <r>   -11.9376     0.0000     0.0000 </r>
       <r>   -11.8668     0.0000     0.0000 </r>
       <r>   -11.7959     0.0000     0.0000 </r>
       <r>   -11.7251     0.0000     0.0000 </r>
       <r>   -11.6542     0.0000     0.0000 </r>
       <r>   -11.5834     0.0000     0.0000 </r>
       <r>   -11.5125     0.0000     0.0000 </r>
       <r>   -11.4417     0.0000     0.0000 </r>
       <r>   -11.3708     0.0000     0.0000 </r>
       <r>   -11.2999     0.0000     0.0000 </r>
       <r>   -11.2291     0.0000     0.0000 </r>
       <r>   -11.1582     0.0000     0.0000 </r>
       <r>   -11.0874     0.0000     0.0000 </r>
       <r>   -11.0165     0.0000     0.0000 </r>
       <r>   -10.9457     0.0000     0.0000 </r>
       <r>   -10.8748     0.3705     0.0085 </r>
       <r>   -10.8040     0.9499     0.0553 </r>
       <r>   -10.7331     1.5293     0.1431 </r>
       <r>   -10.6623     0.9951     0.2301 </r>
       <r>   -10.5914     1.0608     0.3030 </r>
       <r>   -10.5206     1.1264     0.3805 </r>
       <r>   -10.4497     1.1921     0.4626 </r>
       <r>   -10.3789     1.2578     0.5494 </r>
       <r>   -10.3080     1.3192     0.6408 </r>
       <r>   -10.2371     1.3313     0.7347 </r>
       <r>   -10.1663     1.3431     0.8295 </r>
       <r>   -10.0954     1.3804     0.9256 </r>
       <r>   -10.0246     1.4353     1.0253 </r>
       <r>    -9.9537     1.4902     1.1290 </r>
       <r>    -9.8829     1.5451     1.2365 </r>
       <r>    -9.8120     1.6000     1.3479 </r>
       <r>    -9.7412     1.6549     1.4632 </r>
       <r>    -9.6703     3.3490     1.6164 </r>
       <r>    -9.5995     4.3822     1.9299 </r>
       <r>    -9.5286     4.5928     2.2388 </r>
       <r>    -9.4578     5.0896     2.5816 </r>
       <r>    -9.3869     5.5577     2.9608 </r>
       <r>    -9.3161     5.9803     3.3679 </r>
       <r>    -9.2452     6.5436     3.8116 </r>
       <r>    -9.1743     7.1070     4.2952 </r>
       <r>    -9.1035     8.4780     5.0822 </r>
       <r>    -9.0326     8.3358     5.6774 </r>
       <r>    -8.9618     8.6749     6.2796 </r>
       <r>    -8.8909     8.5253     6.9199 </r>
       <r>    -8.8201     6.2621     7.6157 </r>
       <r>    -8.7492     0.0000     8.0000 </r>
       <r>    -8.6784     0.0000     8.0000 </r>
       <r>    -8.6075     0.0000     8.0000 </r>
       <r>    -8.5367     0.0000     8.0000 </r>
       <r>    -8.4658     0.0000     8.0000 </r>
       <r>    -8.3950     0.0000     8.0000 </r>
       <r>    -8.3241     0.0000     8.0000 </r>
       <r>    -8.2532     0.0000     8.0000 </r>
       <r>    -8.1824     0.0000     8.0000 </r>
       <r>    -8.1115     0.0000     8.0000 </r>
       <r>    -8.0407     0.0000     8.0000 </r>
       <r>    -7.9698     0.0000     8.0000 </r>
       <r>    -7.8990     0.0000     8.0000 </r>
       <r>    -7.8281     0.0000     8.0000 </r>
       <r>    -7.7573     0.0000     8.0000 </r>
       <r>    -7.6864     0.0000     8.0000 </r>
       <r>    -7.6156     0.0000     8.0000 </r>
       <r>    -7.5447     0.0000     8.0000 </r>
       <r>    -7.4739     0.0000     8.0000 </r>
       <r>    -7.4030     0.0000     8.0000 </r>
       <r>    -7.3322     0.0000     8.0000 </r>
       <r>    -7.2613     0.0000     8.0000 </r>
       <r>    -7.1904     0.0000     8.0000 </r>
       <r>    -7.1196     0.0000     8.0000 </r>
       <r>    -7.0487     0.0000     8.0000 </r>
       <r>    -6.9779     0.0000     8.0000 </r>
       <r>    -6.9070     0.0000     8.0000 </r>
       <r>    -6.8362     0.0000     8.0000 </r>
       <r>    -6.7653     0.0000     8.0000 </r>
       <r>    -6.6945     0.0000     8.0000 </r>
       <r>    -6.6236     0.0000     8.0000 </r>
       <r>    -6.5528     0.0000     8.0000 </r>
       <r>    -6.4819     0.0000     8.0000 </r>
       <r>    -6.4111     0.0000     8.0000 </r>
       <r>    -6.3402     0.0000     8.0000 </r>
       <r>    -6.2694     0.0000     8.0000 </r>
       <r>    -6.1985     0.0000     8.0000 </r>
       <r>    -6.1276     0.0000     8.0000 </r>
       <r>    -6.0568     0.0000     8.0000 </r>
       <r>    -5.9859     0.0000     8.0000 </r>
       <r>    -5.9151     0.0000     8.0000 </r>
       <r>    -5.8442     0.0000     8.0000 </r>
       <r>    -5.7734     0.0000     8.0000 </r>
       <r>    -5.7025     0.0000     8.0000 </r>
       <r>    -5.6317     0.0000     8.0000 </r>
       <r>    -5.5608     0.0000     8.0000 </r>
       <r>    -5.4900     0.0000     8.0000 </r>
       <r>    -5.4191     0.0000     8.0000 </r>
       <r>    -5.3483     0.0000     8.0000 </r>
       <r>    -5.2774     0.0000     8.0000 </r>
       <r>    -5.2066     0.0000     8.0000 </r>
       <r>    -5.1357     0.0000     8.0000 </r>
       <r>    -5.0648     0.0000     8.0000 </r>
       <r>    -4.9940     0.0000     8.0000 </r>
       <r>    -4.9231     0.0000     8.0000 </r>
       <r>    -4.8523     0.0000     8.0000 </r>
       <r>    -4.7814     0.0000     8.0000 </r>
       <r>    -4.7106     0.0000     8.0000 </r>
       <r>    -4.6397     0.0000     8.0000 </r>
       <r>    -4.5689     0.0000     8.0000 </r>
       <r>    -4.4980     0.0000     8.0000 </r>
       <r>    -4.4272     0.0000     8.0000 </r>
       <r>    -4.3563     0.0000     8.0000 </r>
       <r>    -4.2855     0.0000     8.0000 </r>
       <r>    -4.2146     0.0000     8.0000 </r>
       <r>    -4.1438     0.0000     8.0000 </r>
       <r>    -4.0729     0.0000     8.0000 </r>
       <r>    -4.0020     0.0000     8.0000 </r>
       <r>    -3.9312     0.0000     8.0000 </r>
       <r>    -3.8603     0.0000     8.0000 </r>
       <r>    -3.7895     0.0000     8.0000 </r>
       <r>    -3.7186     0.0000     8.0000 </r>
       <r>    -3.6478     0.0000     8.0000 </r>
       <r>    -3.5769     0.0000     8.0000 </r>
       <r>    -3.5061     0.0000     8.0000 </r>
       <r>    -3.4352     0.0000     8.0000 </r>
       <r>    -3.3644     0.0000     8.0000 </r>
       <r>    -3.2935     0.0000     8.0000 </r>
       <r>    -3.2227     0.0000     8.0000 </r>
       <r>    -3.1518     0.0000     8.0000 </r>
       <r>    -3.0809     0.0000     8.0000 </r>
       <r>    -3.0101     0.0000     8.0000 </r>
       <r>    -2.9392     0.0000     8.0000 </r>
       <r>    -2.8684     0.0000     8.0000 </r>
       <r>    -2.7975     0.0000     8.0000 </r>
       <r>    -2.7267     0.0000     8.0000 </r>
       <r>    -2.6558     0.0000     8.0000 </r>
       <r>    -2.5850     0.1845     8.0017 </r>
       <r>    -2.5141     1.0646     8.0459 </r>
       <r>    -2.4433     2.0684     8.1558 </r>
       <r>    -2.3724     3.2672     8.3437 </r>
       <r>    -2.3016     5.1085     8.6287 </r>
       <r>    -2.2307     5.5375     9.0062 </r>
       <r>    -2.1599     5.9871     9.4149 </r>
       <r>    -2.0890     7.5210     9.9842 </r>
       <r>    -2.0181     6.4060    10.4775 </r>
       <r>    -1.9473     7.4671    10.9069 </r>
       <r>    -1.8764     8.1513    11.6318 </r>
       <r>    -1.8056     2.0274    11.9722 </r>
       <r>    -1.7347     9.2489    12.5616 </r>
       <r>    -1.6639     4.7141    13.0420 </r>
       <r>    -1.5930     2.6799    13.2620 </r>
       <r>    -1.5222     2.4525    13.4438 </r>
       <r>    -1.4513     2.2253    13.6095 </r>
       <r>    -1.3805     1.9984    13.7592 </r>
       <r>    -1.3096     1.7717    13.8927 </r>
       <r>    -1.2388     1.6704    14.0129 </r>
       <r>    -1.1679     1.6779    14.1315 </r>
       <r>    -1.0971     1.6854    14.2506 </r>
       <r>    -1.0262     1.6930    14.3703 </r>
       <r>    -0.9553     1.7690    14.4908 </r>
       <r>    -0.8845     5.2357    14.7187 </r>
       <r>    -0.8136    10.7358    15.2733 </r>
       <r>    -0.7428    12.0871    16.1600 </r>
       <r>    -0.6719     9.8431    16.8700 </r>
       <r>    -0.6011     8.1771    17.5349 </r>
       <r>    -0.5302     4.9722    18.0009 </r>
       <r>    -0.4594     2.6365    18.2519 </r>
       <r>    -0.3885     2.3717    18.4288 </r>
       <r>    -0.3177     2.2005    18.5905 </r>
       <r>    -0.2468     2.0405    18.7407 </r>
       <r>    -0.1760     1.8808    18.8796 </r>
       <r>    -0.1051    14.1033    19.1065 </r>
       <r>    -0.0343    21.2805    20.4949 </r>
       <r>     0.0366     7.5794    21.3008 </r>
       <r>     0.1075     5.1890    21.7558 </r>
       <r>     0.1783     5.9011    22.2392 </r>
       <r>     0.2492     3.7846    22.5628 </r>
       <r>     0.3200     3.5985    22.8244 </r>
       <r>     0.3909     3.4124    23.0728 </r>
       <r>     0.4617     3.3971    23.3084 </r>
       <r>     0.5326     5.0845    23.6086 </r>
       <r>     0.6034     5.0345    23.9738 </r>
       <r>     0.6743     4.2404    24.3209 </r>
       <r>     0.7451     2.7153    24.5673 </r>
       <r>     0.8160     1.7930    24.7037 </r>
       <r>     0.8868     1.7498    24.8291 </r>
       <r>     0.9577     1.7132    24.9518 </r>
       <r>     1.0286     1.6834    25.0721 </r>
       <r>     1.0994     4.2485    25.2370 </r>
       <r>     1.1703    10.5446    25.7434 </r>
       <r>     1.2411    18.0951    26.7990 </r>
       <r>     1.3120    13.7206    27.9631 </r>
       <r>     1.3828     5.1180    28.6183 </r>
       <r>     1.4537     3.1575    28.8896 </r>
       <r>     1.5245     2.9553    29.1036 </r>
       <r>     1.5954     2.8763    29.3102 </r>
       <r>     1.6662     3.0094    29.5154 </r>
       <r>     1.7371     3.5903    29.7430 </r>
       <r>     1.8079     6.3901    30.0779 </r>
       <r>     1.8788     8.5653    30.6304 </r>
       <r>     1.9496     4.8948    31.1198 </r>
       <r>     2.0205     4.4421    31.4554 </r>
       <r>     2.0914     3.1759    31.7302 </r>
       <r>     2.1622     1.6556    31.8979 </r>
       <r>     2.2331     2.4959    32.0200 </r>
       <r>     2.3039     6.2482    32.3100 </r>
       <r>     2.3748     7.8617    32.8901 </r>
       <r>     2.4456     7.2161    33.4211 </r>
       <r>     2.5165     6.6773    33.9143 </r>
       <r>     2.5873     6.1545    34.3673 </r>
       <r>     2.6582     4.3265    34.7548 </r>
       <r>     2.7290     3.8023    35.0428 </r>
       <r>     2.7999     3.2775    35.2936 </r>
       <r>     2.8707     2.9843    35.5107 </r>
       <r>     2.9416     2.4438    35.7076 </r>
       <r>     3.0124     0.9700    35.8804 </r>
       <r>     3.0833     0.8427    35.9457 </r>
       <r>     3.1542     0.3235    35.9844 </r>
       <r>     3.2250     0.0838    35.9979 </r>
       <r>     3.2959     0.0001    36.0000 </r>
       <r>     3.3667     0.0000    36.0000 </r>
       <r>     3.4376     0.0000    36.0000 </r>
       <r>     3.5084     0.0000    36.0000 </r>
       <r>     3.5793     0.0000    36.0000 </r>
       <r>     3.6501     0.0000    36.0000 </r>
       <r>     3.7210     0.0000    36.0000 </r>
       <r>     3.7918     0.0000    36.0000 </r>
       <r>     3.8627     0.0000    36.0000 </r>
       <r>     3.9335     0.0000    36.0000 </r>
       <r>     4.0044     0.0000    36.0000 </r>
       <r>     4.0752     0.0000    36.0000 </r>
       <r>     4.1461     0.0000    36.0000 </r>
       <r>     4.2170     0.0000    36.0000 </r>
       <r>     4.2878     0.0000    36.0000 </r>
       <r>     4.3587     0.0000    36.0000 </r>
       <r>     4.4295     0.0000    36.0000 </r>
       <r>     4.5004     0.0000    36.0000 </r>
       <r>     4.5712     0.0000    36.0000 </r>
       <r>     4.6421     0.0000    36.0000 </r>
       <r>     4.7129     0.0000    36.0000 </r>
       <r>     4.7838     0.0000    36.0000 </r>
       <r>     4.8546     0.0000    36.0000 </r>
       <r>     4.9255     7.1131    36.0148 </r>
       <r>     4.9963     1.5464    36.1563 </r>
       <r>     5.0672     4.9890    36.3815 </r>
       <r>     5.1381     8.5954    36.8623 </r>
       <r>     5.2089    12.7804    37.6202 </r>
       <r>     5.2798    26.9944    38.7136 </r>
       <r>     5.3506     2.2976    39.4508 </r>
       <r>     5.4215     1.6535    39.5876 </r>
       <r>     5.4923     8.4162    39.8869 </r>
       <r>     5.5632     9.2623    40.7012 </r>
       <r>     5.6340     8.6407    41.4163 </r>
       <r>     5.7049     7.4913    41.9681 </r>
       <r>     5.7757     6.7892    42.4703 </r>
       <r>     5.8466     5.2539    43.0175 </r>
       <r>     5.9174     2.8303    43.2529 </r>
       <r>     5.9883     2.3913    43.4367 </r>
       <r>     6.0591     2.0061    43.5924 </r>
       <r>     6.1300     1.7694    43.7251 </r>
       <r>     6.2009     1.7747    43.8578 </r>
       <r>     6.2717     1.0305    43.9634 </r>
       <r>     6.3426     0.0000    44.0000 </r>
       <r>     6.4134     0.0000    44.0000 </r>
       <r>     6.4843     0.0000    44.0000 </r>
       <r>     6.5551     0.0000    44.0000 </r>
       <r>     6.6260     0.0000    44.0000 </r>
       <r>     6.6968     0.0000    44.0000 </r>
       <r>     6.7677     0.0000    44.0000 </r>
       <r>     6.8385     0.0000    44.0000 </r>
       <r>     6.9094     0.0000    44.0000 </r>
       <r>     6.9802     0.0000    44.0000 </r>
       <r>     7.0511     0.0000    44.0000 </r>
       <r>     7.1219     0.0000    44.0000 </r>
       <r>     7.1928     0.0000    44.0000 </r>
       <r>     7.2637     0.0000    44.0000 </r>
       <r>     7.3345     0.0000    44.0000 </r>
       <r>     7.4054     0.0000    44.0000 </r>
       <r>     7.4762     0.0000    44.0000 </r>
       <r>     7.5471     0.0000    44.0000 </r>
       <r>     7.6179     0.0000    44.0000 </r>
       <r>     7.6888     0.0000    44.0000 </r>
       <r>     7.7596     0.0000    44.0000 </r>
       <r>     7.8305     0.0000    44.0000 </r>
       <r>     7.9013     0.0000    44.0000 </r>
       <r>     7.9722     0.0000    44.0000 </r>
       <r>     8.0430     0.0000    44.0000 </r>
       <r>     8.1139     0.0000    44.0000 </r>
       <r>     8.1847     0.0000    44.0000 </r>
       <r>     8.2556     0.0000    44.0000 </r>
       <r>     8.3265     0.0000    44.0000 </r>
      </set>
     </set>
    </array>
   </total>
  </dos>
 </calculation>
 <structure name="finalpos" >
  <crystal>
   <varray name="basis" >
    <v>       3.19031573       0.00000000       0.00000000 </v>
    <v>      -1.59515786       2.76289447       0.00000000 </v>
    <v>       0.00000000       0.00000000      14.87900430 </v>
   </varray>
   <i name="volume">    131.15106795 </i>
   <varray name="rec_basis" >
    <v>       0.31344860       0.18096963       0.00000000 </v>
    <v>       0.00000000       0.36193927       0.00000000 </v>
    <v>       0.00000000       0.00000000       0.06720880 </v>
   </varray>
  </crystal>
  <varray name="positions" >
   <v>       0.33333300       0.66666700       0.25000000 </v>
   <v>       0.66666700       0.33333300       0.75000000 </v>
   <v>       0.33333300       0.66666700       0.85517400 </v>
   <v>       0.66666700       0.33333300       0.14482600 </v>
   <v>       0.66666600       0.33333300       0.35517400 </v>
   <v>       0.33333400       0.66666700       0.64482600 </v>
  </varray>
 </structure>
</modeling>
