unknown system                          
   1.00000000000000     
     3.190316    0.000000    0.000000
    -1.595158    2.762894    0.000000
     0.000000    0.000000   26.879004
   Mo   S 
     1     2
Direct
  0.333333  0.666667  0.138389
  0.666667  0.333333  0.080169
  0.666666  0.333333  0.196608
 
   24   24  192
 0.32814     0.33723     0.36413     0.40708     0.46338     0.52937     0.59980     0.66883     0.73226     0.78797    
 0.83325     0.86287     0.87149     0.85808     0.82696     0.78401     0.73226     0.67180     0.60337     0.53143    
 0.46339     0.40613     0.36353     0.33719     0.33765     0.33725     0.36099     0.40669     0.46955     0.54537    
 0.63048     0.71871     0.80200     0.87484     0.93529     0.98088      1.0062      1.0060     0.97932     0.93036    
 0.86611     0.79343     0.71602     0.63449     0.55079     0.47182     0.40669     0.36127     0.36564     0.35010    
 0.36395     0.40758     0.47429     0.55586     0.64882     0.75043     0.85287     0.94658      1.0264      1.0897    
  1.1322      1.1488      1.1369      1.0961      1.0279     0.93997     0.84455     0.74917     0.65362     0.55876    
 0.47321     0.40729     0.40913     0.37567     0.37290     0.40677     0.47353     0.56022     0.65860     0.76808    
 0.88452     0.99729      1.0983      1.1838      1.2470      1.2797      1.2806      1.2531      1.1956      1.1064    
 0.99579     0.88100     0.76972     0.66005     0.55588     0.46955     0.46339     0.41242     0.39000     0.40529    
 0.46339     0.55191     0.65518     0.77038     0.89759      1.0266      1.1464      1.2544      1.3452      1.4023    
  1.4158      1.3939      1.3452      1.2655      1.1532      1.0247     0.89752     0.77351     0.65151     0.54352    
 0.52447     0.45618     0.41609     0.40869     0.44785     0.52989     0.63417     0.75125     0.88520      1.0294    
  1.1667      1.2921      1.4086      1.5009      1.5429      1.5305      1.4824      1.4068      1.2980      1.1633    
  1.0245     0.89069     0.75599     0.62707     0.59084     0.50245     0.44744     0.41991     0.43447     0.50086    
 0.60074     0.71427     0.84559     0.99857      1.1537      1.2937      1.4245      1.5467      1.6306      1.6492    
  1.6112      1.5377      1.4307      1.2912      1.1407     0.99867     0.85918     0.71663     0.66149     0.55002    
 0.47899     0.43612     0.42647     0.46999     0.56059     0.66981     0.79099     0.93856      1.1049      1.2612    
  1.4000      1.5340      1.6502      1.7111      1.7031      1.6450      1.5481      1.4104      1.2483      1.0931    
 0.95041     0.80448     0.73226     0.60030     0.50956     0.45336     0.42372     0.43952     0.51265     0.61840    
 0.73226     0.86443      1.0263      1.1950      1.3452      1.4820      1.6106      1.7028      1.7297      1.6977    
  1.6237      1.5051      1.3452      1.1768      1.0258     0.88141     0.79489     0.65211     0.54113     0.47034    
 0.42629     0.41524     0.45994     0.55423     0.66574     0.78531     0.93008      1.0970      1.2579      1.4010    
  1.5339      1.6437      1.6980      1.6897      1.6381      1.5484      1.4116      1.2449      1.0851     0.94077    
 0.84071     0.69884     0.57381     0.48683     0.43211     0.40257     0.41571     0.48415     0.58709     0.70008    
 0.82754     0.97875      1.1380      1.2858      1.4227      1.5449      1.6243      1.6397      1.6043      1.5360    
  1.4296      1.2835      1.1253     0.97992     0.86574     0.73203     0.60350     0.50227     0.43622     0.39680    
 0.38779     0.42517     0.50643     0.60965     0.72463     0.85722      1.0029      1.1450      1.2783      1.4045    
  1.5055      1.5519      1.5392      1.4866      1.4031      1.2844      1.1412     0.99904     0.87149     0.74710    
 0.62430     0.51618     0.43735     0.38868     0.36796     0.38256     0.43734     0.52213     0.62420     0.74140    
 0.87143      1.0021      1.1243      1.2401      1.3452      1.4172      1.4371      1.4087      1.3452      1.2509    
  1.1301     0.99887     0.86091     0.74487     0.63169     0.52657     0.43976     0.37908     0.34759     0.34786    
 0.38150     0.44439     0.52898     0.63076     0.74628     0.86657     0.98058      1.0842      1.1773      1.2526    
  1.2955      1.2971      1.2593      1.1885      1.0915     0.97845     0.83437     0.72846     0.62461     0.52869    
 0.44440     0.37636     0.33237     0.31895     0.33616     0.37921     0.44381     0.52716     0.62532     0.73215    
 0.84016     0.94110      1.0274      1.0945      1.1401      1.1599      1.1475      1.1012      1.0273     0.93590    
 0.79087     0.69996     0.60589     0.51937     0.44489     0.38070     0.33053     0.30444     0.30652     0.33188    
 0.37645     0.43980     0.51818     0.60489     0.69731     0.79356     0.88310     0.95178     0.99580      1.0198    
  1.0227     0.99718     0.94382     0.87268     0.73226     0.66014     0.57983     0.50211     0.43736     0.38388    
 0.33826     0.30722     0.29842     0.30926     0.33504     0.37782     0.43734     0.50442     0.57334     0.64922    
 0.73226     0.80695     0.85811     0.88651     0.89759     0.88715     0.85076     0.79589     0.66452     0.61058    
 0.54873     0.48357     0.42754     0.38447     0.34877     0.32101     0.30855     0.31137     0.32312     0.34552    
 0.38510     0.43686     0.48832     0.53904     0.59833     0.66353     0.71844     0.75389     0.77288     0.77512    
 0.75460     0.71393     0.59448     0.55548     0.51307     0.46603     0.42258     0.39008     0.36531     0.34461    
 0.33294     0.33329     0.33881     0.34576     0.36263     0.39531     0.43479     0.47096     0.50732     0.55014    
 0.59353     0.62736     0.64986     0.66148     0.65624     0.63108     0.52657     0.50074     0.47521     0.44807    
 0.42217     0.40403     0.39303     0.38325     0.37543     0.37499     0.37931     0.38019     0.37903     0.38633    
 0.40551     0.42920     0.45248     0.47750     0.50380     0.52601     0.54230     0.55441     0.55880     0.54891    
 0.46338     0.45113     0.44029     0.43111     0.42374     0.42227     0.42790     0.43455     0.43736     0.43929    
 0.44327     0.44442     0.43735     0.42586     0.41836     0.41812     0.42372     0.43408     0.44699     0.45750    
 0.46339     0.46781     0.47218     0.47179     0.40813     0.40873     0.41207     0.41929     0.42946     0.44394    
 0.46483     0.48893     0.50881     0.52094     0.52750     0.52959     0.52408     0.50860     0.48564     0.46051    
 0.43865     0.42447     0.41872     0.41670     0.41315     0.40845     0.40639     0.40728     0.36500     0.37445    
 0.39043     0.41327     0.44116     0.47227     0.50688     0.54456     0.58070     0.60866     0.62487     0.62986    
 0.62517     0.61102     0.58669     0.55215     0.51042     0.46854     0.43405     0.40927     0.39087     0.37577    
 0.36519     0.36159     0.33760     0.34995     0.37421     0.40969     0.45420     0.50392     0.55524     0.60618    
 0.65487     0.69743     0.72822     0.74281     0.74063     0.72475     0.69861     0.66290     0.61644     0.56070    
 0.50221     0.44913     0.40599     0.37303     0.34986     0.33761     0.48228     0.49710     0.54016     0.60713    
 0.69219     0.78899     0.89077     0.99123      1.0859      1.1713      1.2420      1.2890      1.3037      1.2839    
  1.2353      1.1670      1.0859     0.99448     0.89464     0.79120     0.69221     0.60615     0.53953     0.49704    
 0.49754     0.49716     0.53362     0.60274     0.69675     0.80880     0.93341      1.0632      1.1890      1.3033    
  1.4011      1.4757      1.5169      1.5167      1.4740      1.3959      1.2940      1.1800      1.0604     0.93764    
 0.81452     0.69918     0.60273     0.53385     0.54173     0.51916     0.53998     0.60366     0.70098     0.82125    
 0.95943      1.1117      1.2684      1.4170      1.5484      1.6550      1.7267      1.7539      1.7319      1.6619    
  1.5500      1.4100      1.2595      1.1103     0.96443     0.82430     0.69986     0.60334     0.60929     0.56145    
 0.55852     0.60677     0.70093     0.82583     0.97199      1.1383      1.3192      1.5003      1.6684      1.8136    
  1.9223      1.9798      1.9808      1.9288      1.8261      1.6770      1.4987      1.3154      1.1400     0.97350    
 0.82126     0.69675     0.69221     0.61983     0.58981     0.61228     0.69219     0.81570     0.96608      1.1407    
  1.3391      1.5476      1.7491      1.9341      2.0887      2.1883      2.2164      2.1793      2.0887      1.9457    
  1.7564      1.5456      1.3391      1.1441     0.96223     0.80684     0.78384     0.68704     0.63233     0.62447    
 0.67820     0.78961     0.93734      1.1125      1.3198      1.5506      1.7812      1.9989      2.1979      2.3528    
  2.4281      2.4149      2.3330      2.1959      2.0052      1.7776      1.5454      1.3257      1.1175     0.92978    
 0.88132     0.75632     0.67998     0.64485     0.66617     0.75466     0.89190      1.0586      1.2606      1.5016    
  1.7569      2.0006      2.2296      2.4339      2.5725      2.6096      2.5519      2.4243      2.2362      1.9980    
  1.7431      1.5017      1.2750      1.0610     0.98347     0.82603     0.72653     0.66960     0.65933     0.71694    
 0.83728     0.99234      1.1774      1.4085      1.6755      1.9412      2.1887      2.4203      2.6113      2.7126    
  2.7042      2.6059      2.4355      2.1998      1.9275      1.6628      1.4211      1.1917      1.0859     0.89835    
 0.77134     0.69485     0.65802     0.68008     0.77458     0.91758      1.0859      1.2923      1.5484      1.8256    
  2.0887      2.3326      2.5512      2.7039      2.7516      2.6983      2.5652      2.3572      2.0887      1.8062    
  1.5478      1.3104      1.1786     0.97236     0.81756     0.72028     0.66330     0.65153     0.70918     0.83146    
 0.98683      1.1684      1.3956      1.6628      1.9339      2.1868      2.4186      2.6038      2.6987      2.6898    
  2.5979      2.4339      2.1981      1.9201      1.6501      1.4070      1.2499      1.0398     0.86527     0.74636    
 0.67386     0.63796     0.65646     0.74355     0.87942      1.0411      1.2359      1.4734      1.7330      1.9863    
  2.2237      2.4303      2.5659      2.6002      2.5445      2.4208      2.2310      1.9838      1.7194      1.4746    
  1.2920      1.0893     0.90865     0.77192     0.68449     0.63466     0.62509     0.67278     0.77641     0.91522    
  1.0814      1.2830      1.5135      1.7499      1.9783      2.1906      2.3576      2.4394      2.4259      2.3376    
  2.1892      1.9847      1.7458      1.5093      1.3037      1.1132     0.93912     0.79461     0.69259     0.63109    
 0.60596     0.62455     0.69259     0.80098     0.93902      1.1072      1.3036      1.5126      1.7184      1.9150    
  2.0887      2.2070      2.2429      2.1980      2.0887      1.9265      1.7245      1.5092      1.2869      1.1109    
 0.94999     0.81024     0.70053     0.62631     0.58851     0.58875     0.62882     0.70544     0.81280     0.94897    
  1.1124      1.2929      1.4753      1.6491      1.8067      1.9321      2.0026      2.0042      1.9392      1.8186    
  1.6570      1.4731      1.2432      1.0855     0.93947     0.81246     0.70744     0.62688     0.57636     0.56100    
 0.58029     0.62985     0.70684     0.81083     0.94016      1.0894      1.2494      1.4073      1.5495      1.6643    
  1.7425      1.7740      1.7503      1.6714      1.5495      1.4017      1.1743      1.0410     0.91122     0.79799    
 0.70591     0.63143     0.57600     0.54786     0.55000     0.57735     0.62697     0.70059     0.79671     0.91010    
  1.0382      1.1773      1.3121      1.4225      1.4987      1.5404      1.5434      1.5001      1.4141      1.3010    
  1.0859     0.98087     0.87167     0.77180     0.69259     0.63134     0.58251     0.55074     0.54203     0.55287    
 0.57915     0.62502     0.69259     0.77416     0.86479     0.96934      1.0859      1.1942      1.2739      1.3213    
  1.3391      1.3219      1.2662      1.1826     0.98675     0.90926     0.82558     0.74294     0.67537     0.62665    
 0.58971     0.56310     0.55213     0.55511     0.56536     0.58636     0.62734     0.68516     0.74792     0.81537    
 0.89629     0.98559      1.0629      1.1153      1.1434      1.1457      1.1160      1.0583     0.88521     0.83182    
 0.77502     0.71568     0.66378     0.62756     0.60318     0.58535     0.57695     0.57889     0.58307     0.58654    
 0.60040     0.63310     0.67666     0.72091     0.76902     0.82616     0.88414     0.93009     0.96052     0.97502    
 0.96719     0.93402     0.78603     0.75450     0.72250     0.68918     0.65887     0.63947     0.63063     0.62535    
 0.62251     0.62547     0.62995     0.62741     0.62085     0.62357     0.64103     0.66633     0.69394     0.72499    
 0.75773     0.78544     0.80556     0.81972     0.82432     0.81248     0.69219     0.68170     0.67239     0.66427    
 0.65802     0.65899     0.66935     0.68269     0.69259     0.70006     0.70630     0.70545     0.69259     0.67352    
 0.65923     0.65454     0.65802     0.66749     0.67950     0.68840     0.69219     0.69494     0.69878     0.69910    
 0.60827     0.61596     0.62807     0.64421     0.66256     0.68487     0.71443     0.74855     0.77880     0.79963    
 0.81122     0.81345     0.80301     0.77869     0.74512     0.70979     0.67916     0.65723     0.64361     0.63296    
 0.62059     0.60856     0.60242     0.60338     0.54108     0.56015     0.59025     0.62931     0.67331     0.71943    
 0.76855     0.82122     0.87258     0.91410     0.93970     0.94803     0.94003     0.91666     0.87899     0.82928    
 0.77226     0.71541     0.66573     0.62508     0.59072     0.56155     0.54127     0.53423     0.49747     0.51893    
 0.55989     0.61694     0.68492     0.75784     0.83155     0.90463     0.97537      1.0384      1.0853      1.1087    
  1.1063      1.0816      1.0396     0.98382     0.91554     0.83741     0.75606     0.67953     0.61302     0.55868    
 0.51889     0.49751     0.71669     0.73742     0.79720     0.88965      1.0075      1.1445      1.2944      1.4505    
  1.6058      1.7514      1.8743      1.9573      1.9848      1.9518      1.8670      1.7466      1.6058      1.4542    
  1.2987      1.1469      1.0076     0.88862     0.79653     0.73733     0.73788     0.73751     0.78638     0.87955    
  1.0088      1.1682      1.3533      1.5567      1.7659      1.9670      2.1455      2.2834      2.3598      2.3596    
  2.2816      2.1399      1.9571      1.7563      1.5537      1.3578      1.1743      1.0115     0.87955     0.78657    
 0.79886     0.76976     0.79701     0.88051      1.0121      1.1829      1.3903      1.6311      1.8927      2.1550    
  2.3979      2.6000      2.7370      2.7875      2.7426      2.6075      2.3997      2.1476      1.8832      1.6295    
  1.3955      1.1861      1.0109     0.88017     0.89194     0.83044     0.82730     0.88922      1.0133      1.1877    
  1.4069      1.6720      1.9753      2.2949      2.6052      2.8806      3.0902      3.2028      3.2040      3.0972    
  2.8941      2.6143      2.2931      1.9712      1.6738      1.4085      1.1829      1.0089      1.0076     0.91261    
 0.87542     0.90453      1.0076      1.1755      1.3973      1.6745      2.0066      2.3731      2.7442      3.0935    
  3.3873      3.5803      3.6410      3.5707      3.3872      3.1059      2.7520      2.3710      2.0066      1.6781    
  1.3932      1.1661      1.1391      1.0070     0.93715     0.92873     0.99756      1.1453      1.3575      1.6318    
  1.9759      2.3762      2.7971      3.2083      3.5830      3.8727      4.0205      4.0064      3.8514      3.5809    
  3.2150      2.7933      2.3708      1.9822      1.6373      1.3494      1.2844      1.1064      1.0043     0.96113    
 0.98949      1.1046      1.2958      1.5518      1.8843      2.2962      2.7526      3.2101      3.6446      4.0220    
  4.2762      4.3532      4.2542      4.0118      3.6518      3.2072      2.7377      2.2963      1.8998      1.5544    
  1.4423      1.2094      1.0697     0.99584     0.98482      1.0594      1.2215      1.4518      1.7536      2.1461    
  2.6128      3.1012      3.5731      4.0073      4.3532      4.5379      4.5289      4.3474      4.0237      3.5850    
  3.0864      2.5991      2.1595      1.7689      1.6058      1.3184      1.1327      1.0277     0.98198      1.0119    
  1.1361      1.3390      1.6057      1.9553      2.3980      2.8936      3.3872      3.8510      4.2535      4.5285    
  4.6187      4.5226      4.2685      3.8773      3.3872      2.8727      2.3974      1.9747      1.7591      1.4307    
  1.1968      1.0564     0.98078     0.96813      1.0444      1.2117      1.4462      1.7481      2.1395      2.6085    
  3.1026      3.5788      4.0104      4.3471      4.5230      4.5134      4.3406      4.0267      3.5908      3.0878    
  2.5949      2.1518      1.8827      1.5342      1.2617      1.0829     0.97990     0.93409     0.96128      1.0800    
  1.2769      1.5356      1.8676      2.2809      2.7437      3.2098      3.6488      4.0230      4.2692      4.3412    
  4.2462      4.0127      3.6567      3.2072      2.7292      2.2823      1.9605      1.6120      1.3199      1.1074    
 0.97569     0.90558     0.89534     0.96320      1.1123      1.3270      1.6036      1.9508      2.3561      2.7833    
  3.2012      3.5827      3.8777      4.0279      4.0134      3.8563      3.5814      3.2082      2.7789      2.3516    
  1.9848      1.6516      1.3605      1.1287     0.96876     0.87494     0.83917     0.86787     0.96876      1.1356    
  1.3605      1.6450      1.9847      2.3552      2.7280      3.0823      3.3872      3.5928      3.6589      3.5831    
  3.3873      3.0947      2.7347      2.3515      1.9551      1.6491      1.3751      1.1436     0.96560     0.84675    
 0.78690     0.78708     0.84930     0.97085      1.1463      1.3739      1.6506      1.9616      2.2831      2.5937    
  2.8732      3.0914      3.2122      3.2139      3.0989      2.8861      2.6022      2.2806      1.8755      1.6080    
  1.3610      1.1459     0.96860     0.83382     0.74950     0.72266     0.75354     0.83692     0.96801      1.1442    
  1.3616      1.6122      1.8822      2.1521      2.3991      2.6009      2.7371      2.7893      2.7453      2.6084    
  2.3991      2.1462      1.7545      1.5355      1.3227      1.1323     0.97125     0.83859     0.74004     0.68877    
 0.69096     0.74139     0.83392     0.96568      1.1309      1.3214      1.5326      1.7577      1.9765      2.1610    
  2.2932      2.3654      2.3685      2.2946      2.1520      1.9646      1.6058      1.4398      1.2686      1.1074    
 0.96875     0.85200     0.75591     0.69175     0.67156     0.69399     0.75243     0.84544     0.96876      1.1098    
  1.2612      1.4276      1.6057      1.7715      1.8986      1.9776      2.0066      1.9781      1.8903      1.7593    
  1.4459      1.3301      1.2054      1.0793     0.96603     0.87020     0.78812     0.72481     0.69321     0.69634    
 0.72724     0.78467     0.87102     0.97638      1.0846      1.1946      1.3163      1.4445      1.5564      1.6350    
  1.6775      1.6799      1.6357      1.5515      1.2886      1.2156      1.1366      1.0514     0.96917     0.89803    
 0.83625     0.78355     0.75008     0.74304     0.75644     0.78474     0.83334     0.90395     0.98282      1.0570    
  1.1303      1.2096      1.2873      1.3497      1.3914      1.4102      1.3984      1.3539      1.1414      1.1044    
  1.0653      1.0216     0.97598     0.93566     0.90125     0.86885     0.84276     0.83237     0.83703     0.84780    
 0.86400     0.89376     0.93731     0.98393      1.0268      1.0681      1.1078      1.1407      1.1647      1.1813    
  1.1861      1.1720      1.0075      1.0013     0.99618     0.99012     0.98194     0.97609     0.97500     0.97371    
 0.96875     0.96515     0.96749     0.97087     0.96876     0.96398     0.96419     0.97130     0.98198     0.99365    
  1.0038      1.0084      1.0076      1.0069      1.0097      1.0113     0.89088     0.90851     0.93260     0.96044    
 0.98833      1.0171      1.0501      1.0852      1.1147      1.1340      1.1446      1.1470      1.1378      1.1147    
  1.0816      1.0451      1.0109     0.98260     0.95982     0.93782     0.91342     0.89115     0.87920     0.88024    
 0.79818     0.82907     0.87589     0.93391     0.99717      1.0621      1.1298      1.2008      1.2696      1.3257    
  1.3611      1.3729      1.3615      1.3285      1.2764      1.2094      1.1337      1.0577     0.98901     0.92938    
 0.87640     0.83054     0.79835     0.78701     0.73779     0.76947     0.82876     0.90952      1.0047      1.1079    
  1.2153      1.3252      1.4341      1.5328      1.6077      1.6466      1.6441      1.6037      1.5339      1.4430    
  1.3369      1.2217      1.1061     0.99895     0.90533     0.82750     0.76945     0.73784      1.0417      1.0680    
  1.1449      1.2682      1.4337      1.6383      1.8773      2.1415      2.4164      2.6812      2.9070      3.0602    
  3.1125      3.0542      2.8990      2.6760      2.4165      2.1455      1.8820      1.6410      1.4337      1.2670    
  1.1441      1.0679      1.0685      1.0681      1.1300      1.2528      1.4340      1.6732      1.9698      2.3148    
  2.6881      3.0608      3.3984      3.6599      3.8043      3.8040      3.6579      3.3923      3.0503      2.6779    
  2.3117      1.9746      1.6798      1.4369      1.2528      1.1302      1.1467      1.1100      1.1446      1.2538    
  1.4371      1.6943      2.0295      2.4406      2.9079      3.3954      3.8592      4.2495      4.5135      4.6092    
  4.5196      4.2576      3.8613      3.3874      2.8975      2.4387      2.0351      1.6978      1.4358      1.2535    
  1.2706      1.1898      1.1864      1.2677      1.4388      1.6995      2.0545      2.5097      3.0528      3.6464    
  4.2394      4.7732      5.1812      5.4019      5.4031      5.1889      4.7878      4.2492      3.6443      3.0482    
  2.5115      2.0562      1.6943      1.4340      1.4337      1.3008      1.2523      1.2920      1.4338      1.6812    
  2.0369      2.5121      3.1061      3.7850      4.4933      5.1695      5.7389      6.1163      6.2413      6.1059    
  5.7388      5.1829      4.5016      3.7825      3.1061      2.5162      2.0326      1.6709      1.6325      1.4345    
  1.3372      1.3281      1.4243      1.6393      1.9743      2.4412      3.0531      3.7881      4.5866      5.3830    
  6.1069      6.6629      6.9542      6.9389      6.6398      6.1045      5.3902      4.5826      3.7824      3.0602    
  2.4472      1.9655      1.8666      1.5851      1.4325      1.3740      1.4165      1.5832      1.8790      2.3097    
  2.8988      3.6477      4.5021      5.3848      6.2280      6.9482      7.4307      7.5867      7.4068      6.9371    
  6.2358      5.3818      4.4861      3.6479      2.9155      2.3124      2.1327      1.7514      1.5309      1.4228    
  1.4109      1.5197      1.7644      2.1431      2.6750      3.3859      4.2477      5.1777      6.0961      6.9323    
  7.5838      7.9332      7.9234      7.5776      6.9500      6.1090      5.1618      4.2328      3.4003      2.6914    
  2.4165      1.9335      1.6312      1.4684      1.4048      1.4512      1.6348      1.9557      2.4164      3.0484    
  3.8595      4.7873      5.7388      6.6394      7.4061      7.9231      8.0975      7.9167      7.4223      6.6679    
  5.7388      4.7647      3.8587      3.0692      2.6895      2.1232      1.7353      1.5097      1.3973      1.3836    
  1.4968      1.7513      2.1399      2.6775      3.3919      4.2586      5.1947      6.1146      6.9433      7.5802    
  7.9171      7.9067      7.5732      6.9609      6.1277      5.1788      4.2440      3.4052      2.9159      2.2993    
  1.8396      1.5472      1.3867      1.3228      1.3666      1.5441      1.8560      2.3007      2.8995      3.6571    
  4.5208      5.4095      6.2498      6.9569      7.4231      7.5709      7.3983      6.9458      6.2582      5.4067    
  4.5052      3.6586      3.0636      2.4341      1.9320      1.5808      1.3704      1.2656      1.2545      1.3570    
  1.5863      1.9398      2.4249      3.0530      3.8002      4.6047      5.4002      6.1189      6.6683      6.9545    
  6.9388      6.6452      6.1174      5.4077      4.5999      3.7953      3.1125      2.5051      1.9964      1.6090    
  1.3514      1.2065      1.1547      1.1987      1.3514      1.6166      1.9964      2.4980      3.1125      3.7993    
  4.5039      5.1727      5.7388      6.1174      6.2435      6.1068      5.7389      5.1862      4.5110      3.7951    
  3.0577      2.5024      2.0195      1.6278      1.3396      1.1548      1.0648      1.0648      1.1573      1.3452    
  1.6309      2.0182      2.5040      3.0648      3.6595      4.2426      4.7652      5.1673      5.3873      5.3890    
  5.1753      4.7792      4.2519      3.6568      2.9080      2.4298      1.9970      1.6304      1.3396      1.1285    
  1.0013     0.96080      1.0054      1.1318      1.3391      1.6285      1.9974      2.4343      2.9154      3.4055    
  3.8605      4.2348      4.4856      4.5782      4.4943      4.2429      3.8607      3.3991      2.6843      2.3006    
  1.9351      1.6130      1.3455      1.1335     0.98269     0.90557     0.90780     0.98404      1.1287      1.3397    
  1.6112      1.9335      2.2976      2.6880      3.0711      3.4019      3.6446      3.7766      3.7798      3.6460    
  3.3923      3.0584      2.4164      2.1329      1.8470      1.5809      1.3514      1.1602      1.0080     0.90866    
 0.87654     0.91100      1.0044      1.1534      1.3514      1.5832      1.8391      2.1200      2.4164      2.6942    
  2.9143      3.0553      3.1061      3.0556      2.9053      2.6811      2.1366      1.9460      1.7445      1.5434    
  1.3601      1.2014      1.0660     0.96302     0.91016     0.91344     0.96559      1.0625      1.2024      1.3711    
  1.5489      1.7330      1.9313      2.1350      2.3144      2.4448      2.5156      2.5180      2.4454      2.3094    
  1.8712      1.7580      1.6354      1.5044      1.3752      1.2575      1.1516      1.0612      1.0019     0.98577    
  1.0085      1.0624      1.1486      1.2639      1.3897      1.5104      1.6287      1.7515      1.8696      1.9659    
  2.0308      2.0580      2.0382      1.9705      1.6350      1.5830      1.5262      1.4618      1.3920      1.3244    
  1.2609      1.2000      1.1505      1.1271      1.1319      1.1557      1.1947      1.2529      1.3262      1.4006    
  1.4675      1.5292      1.5866      1.6342      1.6696      1.6926      1.6977      1.6773      1.4337      1.4284    
  1.4237      1.4166      1.4047      1.3921      1.3813      1.3682      1.3514      1.3392      1.3386      1.3453    
  1.3514      1.3578      1.3697      1.3870      1.4048      1.4205      1.4319      1.4360      1.4338      1.4320    
  1.4345      1.4366      1.2695      1.2964      1.3322      1.3732      1.4147      1.4570      1.5030      1.5496    
  1.5885      1.6147      1.6290      1.6317      1.6188      1.5887      1.5458      1.4975      1.4502      1.4085    
  1.3726      1.3379      1.3017      1.2698      1.2524      1.2536      1.1460      1.1883      1.2528      1.3336    
  1.4248      1.5228      1.6282      1.7397      1.8480      1.9382      1.9969      2.0171      1.9974      1.9414    
  1.8555      1.7489      1.6323      1.5180      1.4160      1.3287      1.2533      1.1899      1.1461      1.1307    
  1.0684      1.1097      1.1880      1.2974      1.4320      1.5867      1.7577      1.9409      2.1269      2.2978    
  2.4295      2.4996      2.4970      2.4251      2.2990      2.1365      1.9535      1.7646      1.5847      1.4258    
  1.2929      1.1866      1.1097      1.0684      1.4579      1.4910      1.5922      1.7658      2.0172      2.3491    
  2.7568      3.2231      3.7176      4.1965      4.6037      4.8788      4.9739      4.8722      4.5949      4.1908    
  3.7177      3.2276      2.7621      2.3521      2.0171      1.7644      1.5913      1.4909      1.4916      1.4911    
  1.5746      1.7496      2.0266      2.4162      2.9216      3.5274      4.1956      4.8696      5.4802      5.9500    
  6.2072      6.2067      5.9477      5.4736      4.8584      4.1846      3.5241      2.9269      2.4234      2.0296    
  1.7495      1.5748      1.5942      1.5429      1.5918      1.7506      2.0331      2.4550      3.0298      3.7532    
  4.5886      5.4690      6.3090      7.0130      7.4856      7.6544      7.4920      7.0218      6.3114      5.4604    
  4.5773      3.7511      3.0358      2.4587      2.0317      1.7503      1.7685      1.6466      1.6428      1.7651    
  2.0317      2.4606      3.0720      3.8767      4.8493      5.9210      6.9950      7.9589      8.6915      9.0867    
  9.0880      8.6997      7.9748      7.0057      5.9185      4.8440      3.8786      3.0740      2.4549      2.0265    
  2.0171      1.8017      1.7277      1.7922      2.0172      2.4248      3.0376      3.8792      4.9432      6.1681    
  7.4516      8.6730      9.6937      10.369      10.598      10.358      9.6937      8.6876      7.4604      6.1653    
  4.9432      3.8837      3.0330      2.4136      2.3428      2.0053      1.8454      1.8355      1.9943      2.3503    
  2.9266      3.7537      4.8492      6.1712      7.6160      9.0572      10.355      11.343      11.866      11.850    
  11.318      10.352      9.0651      7.6116      6.1651      4.8571      3.7603      2.9170      2.7453      2.2539    