unknown system                          
   1.00000000000000     
     3.190316    0.000000    0.000000
    -1.595158    2.762894    0.000000
     0.000000    0.000000   26.879004
   Mo   S 
     1     2
Direct
  0.333333  0.666667  0.138389
  0.666667  0.333333  0.080169
  0.666666  0.333333  0.196608
 
   24   24  192
 0.32813825470E+00 0.33722897625E+00 0.36413414936E+00 0.40707636256E+00 0.46338246972E+00
 0.52937451121E+00 0.59980442069E+00 0.66882516508E+00 0.73225894980E+00 0.78797270553E+00
 0.83324970705E+00 0.86287289748E+00 0.87149325647E+00 0.85807910643E+00 0.82696346542E+00
 0.78400684361E+00 0.73226048570E+00 0.67179947786E+00 0.60336501314E+00 0.53142612476E+00
 0.46339354402E+00 0.40612650544E+00 0.36353132713E+00 0.33718636699E+00 0.33765290100E+00
 0.33724783978E+00 0.36098967115E+00 0.40669232081E+00 0.46954903250E+00 0.54536693552E+00
 0.63047736926E+00 0.71870663889E+00 0.80199662705E+00 0.87483784955E+00 0.93529306818E+00
 0.98088116636E+00 0.10061825644E+01 0.10059622550E+01 0.97931756966E+00 0.93035610819E+00
 0.86610827476E+00 0.79343163284E+00 0.71602488883E+00 0.63449214258E+00 0.55078978834E+00
 0.47182100489E+00 0.40668575527E+00 0.36127161601E+00 0.36563850495E+00 0.35009655905E+00
 0.36394946350E+00 0.40758275247E+00 0.47428507475E+00 0.55585976835E+00 0.64881506957E+00
 0.75042699952E+00 0.85287109695E+00 0.94658200943E+00 0.10263556321E+01 0.10896843367E+01
 0.11321714857E+01 0.11487607338E+01 0.11369259691E+01 0.10960707785E+01 0.10278586511E+01
 0.93996567204E+00 0.84454616783E+00 0.74917088524E+00 0.65361884569E+00 0.55875608304E+00
 0.47320831596E+00 0.40728769916E+00 0.40913432227E+00 0.37566530062E+00 0.37289874124E+00
 0.40676739208E+00 0.47352662582E+00 0.56022318537E+00 0.65860412557E+00 0.76807996860E+00
 0.88452218436E+00 0.99729256594E+00 0.10983084842E+01 0.11838017987E+01 0.12470315718E+01
 0.12797082074E+01 0.12806128490E+01 0.12530546385E+01 0.11955559275E+01 0.11064007714E+01
 0.99579473619E+00 0.88099816164E+00 0.76971628334E+00 0.66004699868E+00 0.55588367525E+00
 0.46955053772E+00 0.46339353569E+00 0.41241648773E+00 0.38999975528E+00 0.40529351311E+00
 0.46338963165E+00 0.55191181359E+00 0.65518158797E+00 0.77038218799E+00 0.89758500040E+00
 0.10266098592E+01 0.11463737552E+01 0.12544411667E+01 0.13451889575E+01 0.14022796671E+01
 0.14158162642E+01 0.13938690490E+01 0.13452158274E+01 0.12654603266E+01 0.11532066203E+01
 0.10246838851E+01 0.89751706545E+00 0.77350999501E+00 0.65151167557E+00 0.54352172551E+00
 0.52447380201E+00 0.45618261998E+00 0.41609190144E+00 0.40869014879E+00 0.44784684442E+00
 0.52988653213E+00 0.63417352840E+00 0.75124625942E+00 0.88519969690E+00 0.10294226798E+01
 0.11666800932E+01 0.12920738298E+01 0.14085604987E+01 0.15009279072E+01 0.15428631000E+01
 0.15305259799E+01 0.14823770369E+01 0.14067851118E+01 0.12979724517E+01 0.11632580034E+01
 0.10245330931E+01 0.89068747522E+00 0.75598779987E+00 0.62707329922E+00 0.59083998578E+00
 0.50244796648E+00 0.44744245784E+00 0.41990959941E+00 0.43446525907E+00 0.50085702609E+00
 0.60073537340E+00 0.71426988528E+00 0.84558567055E+00 0.99856795863E+00 0.11537445143E+01
 0.12936760926E+01 0.14245325051E+01 0.15467089038E+01 0.16305973979E+01 0.16491609672E+01
 0.16111912531E+01 0.15376946319E+01 0.14307481827E+01 0.12911555521E+01 0.11406815904E+01
 0.99866713998E+00 0.85917837808E+00 0.71662684476E+00 0.66148572726E+00 0.55001689894E+00
 0.47899165993E+00 0.43611526477E+00 0.42647430902E+00 0.46999071803E+00 0.56058603591E+00
 0.66980786461E+00 0.79099326730E+00 0.93856351828E+00 0.11049372320E+01 0.12612137024E+01
 0.14000466423E+01 0.15339545806E+01 0.16501802934E+01 0.17111313139E+01 0.17031283903E+01
 0.16449540575E+01 0.15481438068E+01 0.14104173909E+01 0.12483450563E+01 0.10930791989E+01
 0.95041484169E+00 0.80448275314E+00 0.73226048925E+00 0.60029954933E+00 0.50955593999E+00
 0.45336042820E+00 0.42372383510E+00 0.43952297761E+00 0.51264592752E+00 0.61840134311E+00
 0.73225939173E+00 0.86442909547E+00 0.10262526049E+01 0.11950448265E+01 0.13452275358E+01
 0.14820330990E+01 0.16105824273E+01 0.17028452507E+01 0.17297061849E+01 0.16976743109E+01
 0.16237162870E+01 0.15050972042E+01 0.13452158503E+01 0.11767802924E+01 0.10257514859E+01
 0.88140958219E+00 0.79488907417E+00 0.65211367316E+00 0.54113333514E+00 0.47033815137E+00
 0.42629319358E+00 0.41523805747E+00 0.45993858269E+00 0.55423079716E+00 0.66573740841E+00
 0.78530959646E+00 0.93008207233E+00 0.10970263867E+01 0.12578676496E+01 0.14009588117E+01
 0.15339275569E+01 0.16436560701E+01 0.16979596431E+01 0.16896645078E+01 0.16381433336E+01
 0.15483605345E+01 0.14115528212E+01 0.12449094323E+01 0.10850531648E+01 0.94077181685E+00
 0.84071391145E+00 0.69884250853E+00 0.57380772294E+00 0.48683159396E+00 0.43210713765E+00
 0.40256934025E+00 0.41571465092E+00 0.48415166662E+00 0.58709271395E+00 0.70007547599E+00
 0.82753677971E+00 0.97875383906E+00 0.11380156942E+01 0.12858038391E+01 0.14226627492E+01
 0.15449452044E+01 0.16243328695E+01 0.16397311328E+01 0.16043219505E+01 0.15360462170E+01
 0.14295667166E+01 0.12834852756E+01 0.11252827389E+01 0.97991954231E+00 0.86573557915E+00
 0.73203150837E+00 0.60350290991E+00 0.50227415940E+00 0.43622246692E+00 0.39679830429E+00
 0.38779090453E+00 0.42516953394E+00 0.50643461079E+00 0.60964665083E+00 0.72462987345E+00
 0.85722137670E+00 0.10028951546E+01 0.11450021210E+01 0.12782828079E+01 0.14044554326E+01
 0.15054574045E+01 0.15519248012E+01 0.15391878894E+01 0.14865900042E+01 0.14031346266E+01
 0.12843568603E+01 0.11412397185E+01 0.99904319341E+00 0.87149328575E+00 0.74710192913E+00
 0.62430179803E+00 0.51617851878E+00 0.43735434511E+00 0.38868062358E+00 0.36795652074E+00
 0.38255675498E+00 0.43734397915E+00 0.52212964387E+00 0.62419869275E+00 0.74139802776E+00
 0.87143042159E+00 0.10020831826E+01 0.11242652611E+01 0.12401409625E+01 0.13452275666E+01
 0.14172049006E+01 0.14370575540E+01 0.14086683749E+01 0.13451890111E+01 0.12508682725E+01
 0.11300643337E+01 0.99887157843E+00 0.86091189602E+00 0.74487075612E+00 0.63168743008E+00
 0.52657171518E+00 0.43975616639E+00 0.37907700194E+00 0.34758853034E+00 0.34785949644E+00
 0.38149584784E+00 0.44439093668E+00 0.52898373044E+00 0.63076405122E+00 0.74628148581E+00
 0.86656803824E+00 0.98057945534E+00 0.10841831392E+01 0.11773159923E+01 0.12525901854E+01
 0.12955017313E+01 0.12970651417E+01 0.12592817105E+01 0.11884998748E+01 0.10915099878E+01
 0.97845362711E+00 0.83437307403E+00 0.72845709563E+00 0.62461273435E+00 0.52868832503E+00
 0.44439546660E+00 0.37636360470E+00 0.33236635379E+00 0.31895141298E+00 0.33616111189E+00
 0.37921308521E+00 0.44380612287E+00 0.52715811224E+00 0.62532204871E+00 0.73215093090E+00
 0.84016388057E+00 0.94109971665E+00 0.10273759704E+01 0.10944881020E+01 0.11400961745E+01
 0.11598632115E+01 0.11474971292E+01 0.11011809341E+01 0.10273395011E+01 0.93589503706E+00
 0.79087237209E+00 0.69995974306E+00 0.60589391962E+00 0.51936855354E+00 0.44489363267E+00
 0.38070151406E+00 0.33053009845E+00 0.30443754025E+00 0.30651728748E+00 0.33187856141E+00
 0.37644884470E+00 0.43980107252E+00 0.51818481222E+00 0.60488986605E+00 0.69731125908E+00
 0.79356300994E+00 0.88309659247E+00 0.95177695167E+00 0.99580375879E+00 0.10198415702E+01
 0.10227080083E+01 0.99718442646E+00 0.94381780350E+00 0.87267558018E+00 0.73225896397E+00
 0.66014105847E+00 0.57982942316E+00 0.50211339861E+00 0.43735855308E+00 0.38388094481E+00
 0.33825918738E+00 0.30722091404E+00 0.29841851168E+00 0.30925601773E+00 0.33503777076E+00
 0.37781849557E+00 0.43734396823E+00 0.50441653524E+00 0.57334229103E+00 0.64921681981E+00
 0.73225940233E+00 0.80694541264E+00 0.85811072169E+00 0.88651366569E+00 0.89758502915E+00
 0.88715276829E+00 0.85076394611E+00 0.79589173768E+00 0.66452004472E+00 0.61058249538E+00
 0.54872832210E+00 0.48356710732E+00 0.42754288459E+00 0.38447361131E+00 0.34877495761E+00
 0.32100949901E+00 0.30855415465E+00 0.31137150074E+00 0.32312114053E+00 0.34551539750E+00
 0.38509609990E+00 0.43686028863E+00 0.48832138728E+00 0.53904344354E+00 0.59832838580E+00
 0.66352842817E+00 0.71843961482E+00 0.75389345299E+00 0.77287859957E+00 0.77512212062E+00
 0.75459674235E+00 0.71393498869E+00 0.59448251937E+00 0.55547808777E+00 0.51306676312E+00
 0.46602749321E+00 0.42257985201E+00 0.39008171725E+00 0.36530755837E+00 0.34460523159E+00
 0.33293726831E+00 0.33329432950E+00 0.33881160589E+00 0.34576291287E+00 0.36263461466E+00
 0.39531194963E+00 0.43478700007E+00 0.47095622267E+00 0.50732402357E+00 0.55013688269E+00
 0.59353226814E+00 0.62735662786E+00 0.64985968041E+00 0.66147654525E+00 0.65624417285E+00
 0.63107932645E+00 0.52656634741E+00 0.50074039543E+00 0.47521159972E+00 0.44807261022E+00
 0.42216506757E+00 0.40402823806E+00 0.39302529720E+00 0.38324746444E+00 0.37543439079E+00
 0.37499368741E+00 0.37930717442E+00 0.38019495042E+00 0.37902796708E+00 0.38633369149E+00
 0.40551293185E+00 0.42919928130E+00 0.45248264605E+00 0.47749631680E+00 0.50380062462E+00
 0.52601322031E+00 0.54230212205E+00 0.55440720287E+00 0.55880335840E+00 0.54891246841E+00
 0.46338247023E+00 0.45112816544E+00 0.44028924384E+00 0.43110657577E+00 0.42373583543E+00
 0.42226916508E+00 0.42790176499E+00 0.43455208516E+00 0.43735854357E+00 0.43928990530E+00
 0.44327211773E+00 0.44442125424E+00 0.43735432467E+00 0.42586193433E+00 0.41835670750E+00
 0.41811504513E+00 0.42372383526E+00 0.43408399452E+00 0.44699029734E+00 0.45750324495E+00
 0.46338964051E+00 0.46781474209E+00 0.47217790721E+00 0.47178657625E+00 0.40813361061E+00
 0.40872920112E+00 0.41207321391E+00 0.41929021793E+00 0.42945974662E+00 0.44393636562E+00
 0.46483483277E+00 0.48892948366E+00 0.50880900988E+00 0.52094012067E+00 0.52749566379E+00
 0.52958999123E+00 0.52408023489E+00 0.50860252269E+00 0.48563892796E+00 0.46051317411E+00
 0.43864984241E+00 0.42447343606E+00 0.41871693974E+00 0.41669971420E+00 0.41315229029E+00
 0.40844714606E+00 0.40639010230E+00 0.40728304184E+00 0.36500014193E+00 0.37444893256E+00
 0.39042711596E+00 0.41326587222E+00 0.44115522674E+00 0.47226800844E+00 0.50687885368E+00
 0.54455859357E+00 0.58069539892E+00 0.60865813720E+00 0.62487007426E+00 0.62986180817E+00
 0.62516778691E+00 0.61102394367E+00 0.58669216269E+00 0.55215097277E+00 0.51042193192E+00
 0.46854249534E+00 0.43405144236E+00 0.40927499677E+00 0.39086574080E+00 0.37577114630E+00
 0.36519065388E+00 0.36159162303E+00 0.33759946040E+00 0.34994688440E+00 0.37421386312E+00
 0.40968679189E+00 0.45420271681E+00 0.50391903718E+00 0.55524300626E+00 0.60617769348E+00
 0.65487315146E+00 0.69743055522E+00 0.72822200017E+00 0.74281004628E+00 0.74062791828E+00
 0.72474553553E+00 0.69860743771E+00 0.66289624164E+00 0.61643786570E+00 0.56070113926E+00
 0.50221290375E+00 0.44913065351E+00 0.40598544409E+00 0.37302795887E+00 0.34986148673E+00
 0.33761471722E+00 0.48227796981E+00 0.49709629123E+00 0.54016349444E+00 0.60713440042E+00
 0.69219338493E+00 0.78899432668E+00 0.89077064744E+00 0.99122662198E+00 0.10858944357E+01
 0.11713384186E+01 0.12420151731E+01 0.12889801677E+01 0.13036879339E+01 0.12838808897E+01
 0.12352634336E+01 0.11670200268E+01 0.10858798199E+01 0.99447859922E+00 0.89464280303E+00
 0.79119597304E+00 0.69220881531E+00 0.60614731447E+00 0.53953136071E+00 0.49703624197E+00
 0.49753729121E+00 0.49715759162E+00 0.53362409373E+00 0.60274492720E+00 0.69675302830E+00
 0.80879600264E+00 0.93341051733E+00 0.10632369068E+01 0.11890087701E+01 0.13033202040E+01
 0.14011289978E+01 0.14756528353E+01 0.15169442879E+01 0.15167296052E+01 0.14740072158E+01
 0.13958624400E+01 0.12940454941E+01 0.11799644906E+01 0.10604244085E+01 0.93764209637E+00
 0.81452040821E+00 0.69917750966E+00 0.60272786569E+00 0.53384776928E+00 0.54173260722E+00
 0.51915589278E+00 0.53998339713E+00 0.60366169238E+00 0.70098434024E+00 0.82124996022E+00
 0.95942555928E+00 0.11116691844E+01 0.12683592686E+01 0.14170025453E+01 0.15483950852E+01
 0.16549844015E+01 0.17267349530E+01 0.17538589611E+01 0.17318771453E+01 0.16618505363E+01
 0.15500213068E+01 0.14099901895E+01 0.12595133473E+01 0.11102676140E+01 0.96443362182E+00
 0.82429525387E+00 0.69986411018E+00 0.60333851053E+00 0.60929014870E+00 0.56145076699E+00
 0.55851960396E+00 0.60676630653E+00 0.70092641851E+00 0.82582926941E+00 0.97198868058E+00
 0.11383441819E+01 0.13192057707E+01 0.15002933466E+01 0.16683769349E+01 0.18135997106E+01
 0.19223342402E+01 0.19797609322E+01 0.19807653368E+01 0.19288072794E+01 0.18261141370E+01
 0.16769596994E+01 0.14986840061E+01 0.13154305924E+01 0.11400316757E+01 0.97350197022E+00
 0.82126201439E+00 0.69675491174E+00 0.69220880697E+00 0.61982937573E+00 0.58980755774E+00
 0.61227615233E+00 0.69219107661E+00 0.81569923611E+00 0.96607872598E+00 0.11407193330E+01
 0.13391281214E+01 0.15476277440E+01 0.17491239991E+01 0.19340558944E+01 0.20887364270E+01
 0.21882842024E+01 0.22163615280E+01 0.21793049310E+01 0.20887001267E+01 0.19457164952E+01
 0.17563789439E+01 0.15456016385E+01 0.13390755063E+01 0.11440704041E+01 0.96223238301E+00
 0.80683779604E+00 0.78383963614E+00 0.68703805844E+00 0.63232737073E+00 0.62446666450E+00
 0.67819550279E+00 0.78961307932E+00 0.93734090375E+00 0.11124605294E+01 0.13198375390E+01
 0.15505712764E+01 0.17812394144E+01 0.19989446516E+01 0.21978698619E+01 0.23528189878E+01
 0.24280724506E+01 0.24149196187E+01 0.23330136939E+01 0.21959114569E+01 0.20051996107E+01
 0.17776375945E+01 0.15454268665E+01 0.13257105661E+01 0.11175143570E+01 0.92978472363E+00
 0.88131651569E+00 0.75632153544E+00 0.67997504825E+00 0.64485430102E+00 0.66617435779E+00
 0.75465811379E+00 0.89189776678E+00 0.10585769575E+01 0.12605991272E+01 0.15016078559E+01
 0.17569457871E+01 0.20006319002E+01 0.22295769555E+01 0.24338802688E+01 0.25724924675E+01
 0.26095967844E+01 0.25518843850E+01 0.24243326840E+01 0.22362096395E+01 0.19979528826E+01
 0.17430526541E+01 0.15017172416E+01 0.12750408862E+01 0.10610350653E+01 0.98346724064E+00
 0.82602763442E+00 0.72652943424E+00 0.66959805746E+00 0.65933159705E+00 0.71694155625E+00
 0.83727977182E+00 0.99234233077E+00 0.11773658655E+01 0.14085324627E+01 0.16754684285E+01
 0.19412499034E+01 0.21887290015E+01 0.24202696919E+01 0.26113211881E+01 0.27126230692E+01
 0.27041522207E+01 0.26058611216E+01 0.24354536525E+01 0.21997857012E+01 0.19275235827E+01
 0.16628055016E+01 0.14211111528E+01 0.11916961056E+01 0.10858798235E+01 0.89835298009E+00
 0.77134273188E+00 0.69484692127E+00 0.65802036757E+00 0.68008238981E+00 0.77458197071E+00
 0.91758353174E+00 0.10858649990E+01 0.12922877137E+01 0.15483543966E+01 0.18255934490E+01
 0.20887128841E+01 0.23326413773E+01 0.25512347461E+01 0.27038519931E+01 0.27515669307E+01
 0.26983467805E+01 0.25652106788E+01 0.23571868440E+01 0.20887001495E+01 0.18061545157E+01
 0.15478200729E+01 0.13103612551E+01 0.11786366049E+01 0.97236046845E+00 0.81755691022E+00
 0.72027736618E+00 0.66330455324E+00 0.65152873946E+00 0.70918303540E+00 0.83146430443E+00
 0.98683313601E+00 0.11684199497E+01 0.13955727240E+01 0.16628255071E+01 0.19338724555E+01
 0.21868452227E+01 0.24186146669E+01 0.26038415605E+01 0.26986517642E+01 0.26897759360E+01
 0.25978706175E+01 0.24338925348E+01 0.21981030847E+01 0.19201143716E+01 0.16501243894E+01
 0.14069779809E+01 0.12498994801E+01 0.10398359243E+01 0.86527252548E+00 0.74636359068E+00
 0.67386121245E+00 0.63796326827E+00 0.65645652234E+00 0.74355435779E+00 0.87942176039E+00
 0.10411323126E+01 0.12358625353E+01 0.14733776075E+01 0.17329933418E+01 0.19862619087E+01
 0.22236639842E+01 0.24303408476E+01 0.25658707887E+01 0.26002002336E+01 0.25445301595E+01
 0.24208257389E+01 0.22309975807E+01 0.19837985949E+01 0.17194423833E+01 0.14746178894E+01
 0.12920002111E+01 0.10892992315E+01 0.90864970229E+00 0.77192345570E+00 0.68449120865E+00
 0.63465502490E+00 0.62508997699E+00 0.67278271498E+00 0.77641078181E+00 0.91521978417E+00
 0.10814267057E+01 0.12829533543E+01 0.15134708555E+01 0.17498847677E+01 0.19782522146E+01
 0.21905617138E+01 0.23575775001E+01 0.24394003690E+01 0.24258705912E+01 0.23375625932E+01
 0.21892219763E+01 0.19847374162E+01 0.17458492828E+01 0.15093305816E+01 0.13036879632E+01
 0.11132409356E+01 0.93911557067E+00 0.79461152437E+00 0.69258845356E+00 0.63108503724E+00
 0.60596467287E+00 0.62454853692E+00 0.69258501351E+00 0.80098111121E+00 0.93902337275E+00
 0.11071626684E+01 0.13036298527E+01 0.15126203998E+01 0.17183573082E+01 0.19149870559E+01
 0.20887129148E+01 0.22070092326E+01 0.22429032643E+01 0.21979573872E+01 0.20887364805E+01
 0.19264602882E+01 0.17245337322E+01 0.15091744218E+01 0.12869020636E+01 0.11108875915E+01
 0.94999467203E+00 0.81023635608E+00 0.70052804227E+00 0.62631060827E+00 0.58850590570E+00
 0.58875188246E+00 0.62881817482E+00 0.70544193788E+00 0.81279895271E+00 0.94897229931E+00
 0.11123533887E+01 0.12929315957E+01 0.14753461407E+01 0.16491308095E+01 0.18066985434E+01
 0.19320975095E+01 0.20026004556E+01 0.20042228748E+01 0.19391593695E+01 0.18186015353E+01
 0.16569529695E+01 0.14730736782E+01 0.12431537799E+01 0.10855263569E+01 0.93947093365E+00
 0.81246304910E+00 0.70744106845E+00 0.62688216915E+00 0.57636476819E+00 0.56099943189E+00
 0.58029312557E+00 0.62985279674E+00 0.70683965554E+00 0.81083041759E+00 0.94016196862E+00
 0.10894364261E+01 0.12493599967E+01 0.14072989016E+01 0.15494930021E+01 0.16643475047E+01
 0.17424809474E+01 0.17739927042E+01 0.17502626130E+01 0.16714102165E+01 0.15494577829E+01
 0.14017396676E+01 0.11743349735E+01 0.10410207593E+01 0.91121705663E+00 0.79798581507E+00
 0.70590824712E+00 0.63143147577E+00 0.57599911137E+00 0.54785854335E+00 0.54999733055E+00
 0.57734885457E+00 0.62696585361E+00 0.70058645419E+00 0.79670880300E+00 0.91009703908E+00
 0.10382453931E+01 0.11772591938E+01 0.13121010679E+01 0.14225403924E+01 0.14987209535E+01
 0.15404376357E+01 0.15434427473E+01 0.15001470780E+01 0.14141156368E+01 0.13010439330E+01
 0.10858944499E+01 0.98086861302E+00 0.87166670542E+00 0.77179538758E+00 0.69259290505E+00
 0.63134442893E+00 0.58250920800E+00 0.55073735411E+00 0.54202758268E+00 0.55287283132E+00
 0.57915454452E+00 0.62502426634E+00 0.69258500258E+00 0.77416351646E+00 0.86478573698E+00
 0.96934454107E+00 0.10858650096E+01 0.11942492776E+01 0.12739254384E+01 0.13213218631E+01
 0.13391281502E+01 0.13219349961E+01 0.12661580490E+01 0.11826357067E+01 0.98675183256E+00
 0.90926039090E+00 0.82558310380E+00 0.74293821539E+00 0.67536679752E+00 0.62664708459E+00
 0.58971224863E+00 0.56309545529E+00 0.55213458449E+00 0.55511068981E+00 0.56536464279E+00
 0.58635521707E+00 0.62734257766E+00 0.68515761595E+00 0.74791956180E+00 0.81537293422E+00
 0.89629193658E+00 0.98558658399E+00 0.10629421704E+01 0.11153420681E+01 0.11434261097E+01
 0.11457426490E+01 0.11160344106E+01 0.10582610723E+01 0.88520694403E+00 0.83181514658E+00
 0.77502342848E+00 0.71567521060E+00 0.66378456631E+00 0.62755889488E+00 0.60318096369E+00
 0.58534703926E+00 0.57694548683E+00 0.57888604504E+00 0.58306706230E+00 0.58653737130E+00
 0.60040096468E+00 0.63309968501E+00 0.67665627406E+00 0.72090920860E+00 0.76901826465E+00
 0.82615882490E+00 0.88413520364E+00 0.93009417477E+00 0.96051501632E+00 0.97502193195E+00
 0.96719053335E+00 0.93402117546E+00 0.78603260479E+00 0.75450433319E+00 0.72249812669E+00
 0.68918282511E+00 0.65887225157E+00 0.63947180730E+00 0.63063021863E+00 0.62535319817E+00
 0.62251065799E+00 0.62547320270E+00 0.62995348268E+00 0.62741338363E+00 0.62085445775E+00
 0.62357400537E+00 0.64103460367E+00 0.66632624032E+00 0.69393746893E+00 0.72499120491E+00
 0.75772945612E+00 0.78543768286E+00 0.80555595236E+00 0.81972471141E+00 0.82432129407E+00
 0.81247798028E+00 0.69219338543E+00 0.68170048334E+00 0.67239215284E+00 0.66427041566E+00
 0.65801658134E+00 0.65898593239E+00 0.66934828139E+00 0.68268964194E+00 0.69259289554E+00
 0.70006365664E+00 0.70630247968E+00 0.70545420754E+00 0.69258843312E+00 0.67352385265E+00
 0.65922518182E+00 0.65453603206E+00 0.65802036772E+00 0.66749491575E+00 0.67950065603E+00
 0.68839989226E+00 0.69219108546E+00 0.69493554260E+00 0.69878310401E+00 0.69910003159E+00
 0.60826845731E+00 0.61595903887E+00 0.62806974864E+00 0.64420577376E+00 0.66255642057E+00
 0.68486784216E+00 0.71443155561E+00 0.74854706963E+00 0.77880146653E+00 0.79962909026E+00
 0.81121939331E+00 0.81344854360E+00 0.80301441421E+00 0.77868948738E+00 0.74511993013E+00
 0.70979485024E+00 0.67916417554E+00 0.65723344051E+00 0.64361064680E+00 0.63295705289E+00
 0.62059177245E+00 0.60855589765E+00 0.60241804766E+00 0.60337794183E+00 0.54107764000E+00
 0.56015387868E+00 0.59024774596E+00 0.62931340150E+00 0.67330628873E+00 0.71942679161E+00
 0.76854556396E+00 0.82121789192E+00 0.87258083415E+00 0.91410397683E+00 0.93969536048E+00
 0.94802613319E+00 0.94002971253E+00 0.91665939897E+00 0.87899441273E+00 0.82928308108E+00
 0.77225687680E+00 0.71540847597E+00 0.66573461982E+00 0.62508063761E+00 0.59072169625E+00
 0.56155284071E+00 0.54127050322E+00 0.53423474656E+00 0.49746830135E+00 0.51893154849E+00
 0.55989146897E+00 0.61694028393E+00 0.68492053547E+00 0.75783805900E+00 0.83155272481E+00
 0.90463276538E+00 0.97536857314E+00 0.10383962092E+01 0.10852639212E+01 0.11086566245E+01
 0.11063440858E+01 0.10815519360E+01 0.10395735132E+01 0.98382422988E+00 0.91554179121E+00
 0.83741100869E+00 0.75605913245E+00 0.67952892326E+00 0.61301982396E+00 0.55867993381E+00
 0.51889348020E+00 0.49750582974E+00 0.71668676759E+00 0.73741571119E+00 0.79719860999E+00
 0.88964757495E+00 0.10075383463E+01 0.11445187815E+01 0.12944184914E+01 0.14505394929E+01
 0.16057671566E+01 0.17513862510E+01 0.18743497358E+01 0.19572969316E+01 0.19847597914E+01
 0.19518073229E+01 0.18670121720E+01 0.17466380704E+01 0.16057535201E+01 0.14541569270E+01
 0.12986898968E+01 0.11469146980E+01 0.10075677481E+01 0.88861997436E+00 0.79652799073E+00
 0.73732849113E+00 0.73787847703E+00 0.73751402238E+00 0.78638022985E+00 0.87954942673E+00
 0.10088433678E+01 0.11681685274E+01 0.13533023913E+01 0.15567025669E+01 0.17659231885E+01
 0.19670212194E+01 0.21455278330E+01 0.22833938556E+01 0.23598215762E+01 0.23596027854E+01
 0.22816387235E+01 0.21398826311E+01 0.19571264349E+01 0.17563258189E+01 0.15537392132E+01
 0.13578001190E+01 0.11742667989E+01 0.10114672746E+01 0.87954508020E+00 0.78656506690E+00
 0.79885899157E+00 0.76975671141E+00 0.79700756118E+00 0.88050864604E+00 0.10120656623E+01
 0.11828907572E+01 0.13902817826E+01 0.16311094586E+01 0.18926795557E+01 0.21550488598E+01
 0.23979144675E+01 0.26000343354E+01 0.27369831633E+01 0.27874965319E+01 0.27425818394E+01
 0.26074911890E+01 0.23997197776E+01 0.21475615876E+01 0.18831705175E+01 0.16294998024E+01
 0.13955256008E+01 0.11861098657E+01 0.10108906039E+01 0.88017177820E+00 0.89193887099E+00
 0.83043688599E+00 0.82729592934E+00 0.88922167584E+00 0.10132899646E+01 0.11877416235E+01
 0.14069202582E+01 0.16720476835E+01 0.19753495877E+01 0.22948899277E+01 0.26051517113E+01
 0.28806434264E+01 0.30901745810E+01 0.32028374753E+01 0.32039528782E+01 0.30971837409E+01
 0.28940852186E+01 0.26143182192E+01 0.22930999450E+01 0.19712297342E+01 0.16737929055E+01
 0.14085173543E+01 0.11828676803E+01 0.10088517840E+01 0.10075677397E+01 0.91260654856E+00
 0.87541680940E+00 0.90452546084E+00 0.10075564971E+01 0.11755298806E+01 0.13972534093E+01
 0.16744660715E+01 0.20065889134E+01 0.23731276244E+01 0.27442250956E+01 0.30934746895E+01
 0.33872936092E+01 0.35803433135E+01 0.36409774302E+01 0.35706712293E+01 0.33871857522E+01
 0.31059122557E+01 0.27519675374E+01 0.23709621323E+01 0.20065826266E+01 0.16781334084E+01
 0.13931946077E+01 0.11660574131E+01 0.11390610039E+01 0.10070278222E+01 0.93715480713E+00
 0.92872887348E+00 0.99756447715E+00 0.11452844916E+01 0.13575070877E+01 0.16318052663E+01
 0.19758542902E+01 0.23761930079E+01 0.27971107356E+01 0.32083099382E+01 0.35830389319E+01
 0.38726986814E+01 0.40205164665E+01 0.40063739466E+01 0.38513783402E+01 0.35808737548E+01
 0.32150062948E+01 0.27932959317E+01 0.23707678400E+01 0.19822488945E+01 0.16372767862E+01
 0.13493964523E+01 0.12843879126E+01 0.11063762970E+01 0.10042979963E+01 0.96113322146E+00
 0.98948867216E+00 0.11046134426E+01 0.12957930022E+01 0.15517807589E+01 0.18843319256E+01
 0.22962221311E+01 0.27525594203E+01 0.32100832345E+01 0.36446040252E+01 0.40219957640E+01
 0.42762456575E+01 0.43531610433E+01 0.42541653299E+01 0.40117953452E+01 0.36517556135E+01
 0.32072293259E+01 0.27376655507E+01 0.22963421264E+01 0.18998035077E+01 0.15543659232E+01
 0.14423013572E+01 0.12094189078E+01 0.10696612425E+01 0.99584203082E+00 0.98481812479E+00
 0.10593561218E+01 0.12214842201E+01 0.14518474465E+01 0.17535734694E+01 0.21460898493E+01
 0.26128156956E+01 0.31011616562E+01 0.35731319698E+01 0.40073484846E+01 0.43531815036E+01
 0.45379087320E+01 0.45288579240E+01 0.43474134447E+01 0.40237276414E+01 0.35850290860E+01
 0.30863972951E+01 0.25991437477E+01 0.21594938787E+01 0.17688848148E+01 0.16057535237E+01
 0.13184226979E+01 0.11326949606E+01 0.10277423257E+01 0.98197687292E+00 0.10118601977E+01
 0.11361080427E+01 0.13390083088E+01 0.16057340925E+01 0.19552968537E+01 0.23979944442E+01
 0.28935536397E+01 0.33871956913E+01 0.38509726061E+01 0.42534708987E+01 0.45285393113E+01
 0.46187138661E+01 0.45226336095E+01 0.42684673204E+01 0.38773119328E+01 0.33871857748E+01
 0.28726864493E+01 0.23973887893E+01 0.19746563447E+01 0.17591388669E+01 0.14307487044E+01
 0.11968484473E+01 0.10563739644E+01 0.98077533529E+00 0.96813428483E+00 0.10444475809E+01
 0.12117313684E+01 0.14462343335E+01 0.17481335739E+01 0.21395375252E+01 0.26084681874E+01
 0.31025628001E+01 0.35787741259E+01 0.40104203387E+01 0.43470806485E+01 0.45229602154E+01
 0.45133989359E+01 0.43405835412E+01 0.40267284381E+01 0.35908314382E+01 0.30878484439E+01
 0.25949137070E+01 0.21518334539E+01 0.18827166062E+01 0.15342281564E+01 0.12617298318E+01
 0.10829449917E+01 0.97989503605E+00 0.93409469046E+00 0.96128163989E+00 0.10799977078E+01
 0.12769286552E+01 0.15355800411E+01 0.18675956307E+01 0.22808894552E+01 0.27437292137E+01
 0.32098448762E+01 0.36488455195E+01 0.40229978544E+01 0.42691753288E+01 0.43412492211E+01
 0.42462392646E+01 0.40127395138E+01 0.36566818702E+01 0.32071950821E+01 0.27292084439E+01
 0.22822654502E+01 0.19604902678E+01 0.16120205260E+01 0.13198843412E+01 0.11074311532E+01
 0.97569190489E+00 0.90557952404E+00 0.89534038176E+00 0.96320021230E+00 0.11123368459E+01
 0.13269867282E+01 0.16035740086E+01 0.19507906099E+01 0.23561220989E+01 0.27832791995E+01
 0.32012386751E+01 0.35827454449E+01 0.38777354377E+01 0.40278869962E+01 0.40133895791E+01
 0.38563155387E+01 0.35813668737E+01 0.32082015202E+01 0.27788903465E+01 0.23516233080E+01
 0.19847598207E+01 0.16515563465E+01 0.13605241452E+01 0.11287210145E+01 0.96876399695E+00
 0.87494156636E+00 0.83917364226E+00 0.86787247434E+00 0.96875707124E+00 0.11356218717E+01
 0.13604706744E+01 0.16450428131E+01 0.19847431079E+01 0.23552409863E+01 0.27280247925E+01
 0.30822602153E+01 0.33871957219E+01 0.35927893786E+01 0.36589060305E+01 0.35830908475E+01
 0.33872936624E+01 0.30946575331E+01 0.27346521881E+01 0.23514698067E+01 0.19550540671E+01
 0.16490729601E+01 0.13750740142E+01 0.11435571627E+01 0.96560014505E+00 0.84674522557E+00
 0.78690299864E+00 0.78707927136E+00 0.84930201700E+00 0.97084855026E+00 0.11463227316E+01
 0.13739255939E+01 0.16506017397E+01 0.19615630022E+01 0.22830556323E+01 0.25937245109E+01
 0.28732308881E+01 0.30913955784E+01 0.32122494337E+01 0.32139207580E+01 0.30988912409E+01
 0.28860518408E+01 0.26022005473E+01 0.22806010013E+01 0.18754612068E+01 0.16080288697E+01
 0.13609760343E+01 0.11459313330E+01 0.96859711196E+00 0.83381631260E+00 0.74950165905E+00
 0.72266421859E+00 0.75354182010E+00 0.83692257962E+00 0.96800971877E+00 0.11441565525E+01
 0.13615821344E+01 0.16121802360E+01 0.18821886156E+01 0.21521150377E+01 0.23991059138E+01
 0.26008834440E+01 0.27371460194E+01 0.27893337845E+01 0.27453365735E+01 0.26083939387E+01
 0.23991340554E+01 0.21461545560E+01 0.17544627467E+01 0.15354781134E+01 0.13226938438E+01
 0.11323439089E+01 0.97125251524E+00 0.83858973516E+00 0.74004368193E+00 0.68876883026E+00
 0.69095992032E+00 0.74139308914E+00 0.83392281218E+00 0.96568259833E+00 0.11308965376E+01
 0.13213803005E+01 0.15325802973E+01 0.17577113287E+01 0.19764532341E+01 0.21610219310E+01
 0.22932224043E+01 0.23654163021E+01 0.23685447315E+01 0.22946475374E+01 0.21520491269E+01
 0.19646481772E+01 0.16057671708E+01 0.14398012664E+01 0.12685673832E+01 0.11073581652E+01
 0.96875175302E+00 0.85200222851E+00 0.75591201301E+00 0.69175295645E+00 0.67155588637E+00
 0.69398835047E+00 0.75243037491E+00 0.84543999876E+00 0.96875706031E+00 0.11097588273E+01
 0.12612242441E+01 0.14276286499E+01 0.16057341031E+01 0.17715339630E+01 0.18986339337E+01
 0.19776031013E+01 0.20065889421E+01 0.19781356209E+01 0.18903485818E+01 0.17592683182E+01
 0.14458889146E+01 0.13300716489E+01 0.12053892930E+01 0.10793364495E+01 0.96603494884E+00
 0.87020354180E+00 0.78811927765E+00 0.72481464992E+00 0.69320726814E+00 0.69634247339E+00
 0.72723810187E+00 0.78467157753E+00 0.87102369287E+00 0.97638029264E+00 0.10845715842E+01
 0.11945799908E+01 0.13162778393E+01 0.14444890444E+01 0.15563546442E+01 0.16350083734E+01
 0.16774748961E+01 0.16798637689E+01 0.16356833572E+01 0.15515020068E+01 0.12885882108E+01
 0.12156100339E+01 0.11365947963E+01 0.10514356200E+01 0.96916913157E+00 0.89803166011E+00
 0.83624602688E+00 0.78354539589E+00 0.75008171464E+00 0.74304343990E+00 0.75644339449E+00
 0.78473682031E+00 0.83334335688E+00 0.90394659677E+00 0.98281635645E+00 0.10570250890E+01
 0.11302777594E+01 0.12095519454E+01 0.12873213193E+01 0.13497301180E+01 0.13914231224E+01
 0.14101624554E+01 0.13984430882E+01 0.13539291026E+01 0.11413774390E+01 0.11044241844E+01
 0.10653332780E+01 0.10216307219E+01 0.97597625477E+00 0.93565904679E+00 0.90124972099E+00
 0.86884772012E+00 0.84275596675E+00 0.83237190066E+00 0.83703436326E+00 0.84779709413E+00
 0.86399839957E+00 0.89375526039E+00 0.93731276298E+00 0.98392985780E+00 0.10267987416E+01
 0.10680703611E+01 0.11078315221E+01 0.11407255915E+01 0.11647291393E+01 0.11812813824E+01