   3   3   0   0
  0.7897505E+02  0.3190316E-09  0.3190316E-09  0.2687900E-08  0.5000000E-15
  1.000000000000000E-004
  CAR 
 unknown system                          
      6.17549113    -19.50426664  301     -3.39021864      1.00000000
    -19.504  0.0000E+00  0.0000E+00
    -19.419  0.0000E+00  0.0000E+00
    -19.333  0.0000E+00  0.0000E+00
    -19.247  0.0000E+00  0.0000E+00
    -19.162  0.0000E+00  0.0000E+00
    -19.076  0.0000E+00  0.0000E+00
    -18.991  0.0000E+00  0.0000E+00
    -18.905  0.0000E+00  0.0000E+00
    -18.819  0.0000E+00  0.0000E+00
    -18.734  0.0000E+00  0.0000E+00
    -18.648  0.0000E+00  0.0000E+00
    -18.563  0.0000E+00  0.0000E+00
    -18.477  0.0000E+00  0.0000E+00
    -18.391  0.0000E+00  0.0000E+00
    -18.306  0.0000E+00  0.0000E+00
    -18.220  0.0000E+00  0.0000E+00
    -18.135  0.0000E+00  0.0000E+00
    -18.049  0.0000E+00  0.0000E+00
    -17.963  0.0000E+00  0.0000E+00
    -17.878  0.0000E+00  0.0000E+00
    -17.792  0.0000E+00  0.0000E+00
    -17.707  0.0000E+00  0.0000E+00
    -17.621  0.0000E+00  0.0000E+00
    -17.535  0.0000E+00  0.0000E+00
    -17.450  0.2227E+00  0.6056E-02
    -17.364  0.5733E+00  0.4013E-01
    -17.279  0.4839E+00  0.9934E-01
    -17.193  0.5238E+00  0.1425E+00
    -17.107  0.5637E+00  0.1890E+00
    -17.022  0.6036E+00  0.2390E+00
    -16.936  0.6435E+00  0.2923E+00
    -16.851  0.6652E+00  0.3487E+00
    -16.765  0.6727E+00  0.4060E+00
    -16.679  0.6933E+00  0.4641E+00
    -16.594  0.7267E+00  0.5249E+00
    -16.508  0.7600E+00  0.5886E+00
    -16.423  0.7934E+00  0.6550E+00
    -16.337  0.8267E+00  0.7244E+00
    -16.251  0.1801E+01  0.8182E+00
    -16.166  0.2129E+01  0.1010E+01
    -16.080  0.2427E+01  0.1204E+01
    -15.995  0.2737E+01  0.1426E+01
    -15.909  0.2980E+01  0.1670E+01
    -15.824  0.3322E+01  0.1939E+01
    -15.738  0.1762E+02  0.2247E+01
    -15.652  0.4204E+01  0.2710E+01
    -15.567  0.4307E+01  0.3071E+01
    -15.481  0.4021E+01  0.3456E+01
    -15.396  0.2820E+01  0.3851E+01
    -15.310  0.0000E+00  0.4000E+01
    -15.224  0.0000E+00  0.4000E+01
    -15.139  0.0000E+00  0.4000E+01
    -15.053  0.0000E+00  0.4000E+01
    -14.968  0.0000E+00  0.4000E+01
    -14.882  0.0000E+00  0.4000E+01
    -14.796  0.0000E+00  0.4000E+01
    -14.711  0.0000E+00  0.4000E+01
    -14.625  0.0000E+00  0.4000E+01
    -14.540  0.0000E+00  0.4000E+01
    -14.454  0.0000E+00  0.4000E+01
    -14.368  0.0000E+00  0.4000E+01
    -14.283  0.0000E+00  0.4000E+01
    -14.197  0.0000E+00  0.4000E+01
    -14.112  0.0000E+00  0.4000E+01
    -14.026  0.0000E+00  0.4000E+01
    -13.940  0.0000E+00  0.4000E+01
    -13.855  0.0000E+00  0.4000E+01
    -13.769  0.0000E+00  0.4000E+01
    -13.684  0.0000E+00  0.4000E+01
    -13.598  0.0000E+00  0.4000E+01
    -13.512  0.0000E+00  0.4000E+01
    -13.427  0.0000E+00  0.4000E+01
    -13.341  0.0000E+00  0.4000E+01
    -13.256  0.0000E+00  0.4000E+01
    -13.170  0.0000E+00  0.4000E+01
    -13.084  0.0000E+00  0.4000E+01
    -12.999  0.0000E+00  0.4000E+01
    -12.913  0.0000E+00  0.4000E+01
    -12.828  0.0000E+00  0.4000E+01
    -12.742  0.0000E+00  0.4000E+01
    -12.656  0.0000E+00  0.4000E+01
    -12.571  0.0000E+00  0.4000E+01
    -12.485  0.0000E+00  0.4000E+01
    -12.400  0.0000E+00  0.4000E+01
    -12.314  0.0000E+00  0.4000E+01
    -12.228  0.0000E+00  0.4000E+01
    -12.143  0.0000E+00  0.4000E+01
    -12.057  0.0000E+00  0.4000E+01
    -11.972  0.0000E+00  0.4000E+01
    -11.886  0.0000E+00  0.4000E+01
    -11.800  0.0000E+00  0.4000E+01
    -11.715  0.0000E+00  0.4000E+01
    -11.629  0.0000E+00  0.4000E+01
    -11.544  0.0000E+00  0.4000E+01
    -11.458  0.0000E+00  0.4000E+01
    -11.372  0.0000E+00  0.4000E+01
    -11.287  0.0000E+00  0.4000E+01
    -11.201  0.0000E+00  0.4000E+01
    -11.116  0.0000E+00  0.4000E+01
    -11.030  0.0000E+00  0.4000E+01
    -10.944  0.0000E+00  0.4000E+01
    -10.859  0.0000E+00  0.4000E+01
    -10.773  0.0000E+00  0.4000E+01
    -10.688  0.0000E+00  0.4000E+01
    -10.602  0.0000E+00  0.4000E+01
    -10.516  0.0000E+00  0.4000E+01
    -10.431  0.0000E+00  0.4000E+01
    -10.345  0.0000E+00  0.4000E+01
    -10.260  0.0000E+00  0.4000E+01
    -10.174  0.0000E+00  0.4000E+01
    -10.088  0.0000E+00  0.4000E+01
    -10.003  0.0000E+00  0.4000E+01
     -9.917  0.0000E+00  0.4000E+01
     -9.832  0.0000E+00  0.4000E+01
     -9.746  0.0000E+00  0.4000E+01
     -9.660  0.0000E+00  0.4000E+01
     -9.575  0.0000E+00  0.4000E+01
     -9.489  0.0000E+00  0.4000E+01
     -9.404  0.0000E+00  0.4000E+01
     -9.318  0.0000E+00  0.4000E+01
     -9.232  0.0000E+00  0.4000E+01
     -9.147  0.0000E+00  0.4000E+01
     -9.061  0.4977E+00  0.4020E+01
     -8.976  0.1048E+01  0.4085E+01
     -8.890  0.1834E+01  0.4209E+01
     -8.804  0.2636E+01  0.4409E+01
     -8.719  0.2852E+01  0.4650E+01
     -8.633  0.3798E+01  0.4970E+01
     -8.548  0.3115E+01  0.5266E+01
     -8.462  0.5495E+01  0.5548E+01
     -8.376  0.2593E+01  0.5988E+01
     -8.291  0.5237E+01  0.6190E+01
     -8.205  0.2527E+01  0.6517E+01
     -8.120  0.1304E+01  0.6647E+01
     -8.034  0.1173E+01  0.6753E+01
     -7.948  0.1042E+01  0.6847E+01
     -7.863  0.9114E+00  0.6931E+01
     -7.777  0.8333E+00  0.7004E+01
     -7.692  0.8406E+00  0.7076E+01
     -7.606  0.8478E+00  0.7148E+01
     -7.520  0.8551E+00  0.7221E+01
     -7.435  0.2116E+01  0.7318E+01
     -7.349  0.5059E+01  0.7625E+01
     -7.264  0.5143E+01  0.8168E+01
     -7.178  0.4898E+01  0.8594E+01
     -7.092  0.3033E+01  0.8934E+01
     -7.007  0.1334E+01  0.9117E+01
     -6.921  0.1169E+01  0.9223E+01
     -6.836  0.1073E+01  0.9319E+01
     -6.750  0.9772E+00  0.9407E+01
     -6.664  0.8813E+00  0.9486E+01
     -6.579  0.1756E+02  0.1020E+02
     -6.493  0.3610E+01  0.1068E+02
     -6.408  0.2182E+01  0.1093E+02
     -6.322  0.2175E+01  0.1121E+02
     -6.236  0.1815E+01  0.1138E+02
     -6.151  0.1703E+01  0.1153E+02
     -6.065  0.1591E+01  0.1167E+02
     -5.980  0.4352E+01  0.1187E+02
     -5.894  0.2252E+01  0.1209E+02
     -5.808  0.1542E+01  0.1226E+02
     -5.723  0.8739E+00  0.1235E+02
     -5.637  0.8669E+00  0.1242E+02
     -5.552  0.8598E+00  0.1250E+02
     -5.466  0.8527E+00  0.1257E+02
     -5.380  0.4540E+01  0.1280E+02
     -5.295  0.8733E+01  0.1339E+02
     -5.209  0.6232E+01  0.1406E+02
     -5.124  0.1678E+01  0.1437E+02
     -5.038  0.1488E+01  0.1451E+02
     -4.952  0.1442E+01  0.1463E+02
     -4.867  0.1507E+01  0.1476E+02
     -4.781  0.1691E+01  0.1489E+02
     -4.696  0.5670E+01  0.1511E+02
     -4.610  0.2788E+01  0.1548E+02
     -4.524  0.2278E+01  0.1568E+02
     -4.439  0.2301E+01  0.1589E+02
     -4.353  0.2844E+00  0.1600E+02
     -4.268  0.2059E+01  0.1607E+02
     -4.182  0.4062E+01  0.1637E+02
     -4.096  0.3620E+01  0.1670E+02
     -4.011  0.3283E+01  0.1700E+02
     -3.925  0.3000E+01  0.1726E+02
     -3.840  0.2016E+01  0.1746E+02
     -3.754  0.1703E+01  0.1762E+02
     -3.668  0.1390E+01  0.1775E+02
     -3.583  0.1078E+01  0.1786E+02
     -3.497  0.5926E+00  0.1798E+02
     -3.412  0.0000E+00  0.1800E+02
     -3.326  0.0000E+00  0.1800E+02
     -3.240  0.0000E+00  0.1800E+02
     -3.155  0.0000E+00  0.1800E+02
     -3.069  0.0000E+00  0.1800E+02
     -2.984  0.0000E+00  0.1800E+02
     -2.898  0.0000E+00  0.1800E+02
     -2.812  0.0000E+00  0.1800E+02
     -2.727  0.0000E+00  0.1800E+02
     -2.641  0.0000E+00  0.1800E+02
     -2.556  0.0000E+00  0.1800E+02
     -2.470  0.0000E+00  0.1800E+02
     -2.384  0.0000E+00  0.1800E+02
     -2.299  0.0000E+00  0.1800E+02
     -2.213  0.0000E+00  0.1800E+02
     -2.128  0.0000E+00  0.1800E+02
     -2.042  0.0000E+00  0.1800E+02
     -1.956  0.0000E+00  0.1800E+02
     -1.871  0.0000E+00  0.1800E+02
     -1.785  0.0000E+00  0.1800E+02
     -1.700  0.0000E+00  0.1800E+02
     -1.614  0.0000E+00  0.1800E+02
     -1.528  0.7773E+00  0.1808E+02
     -1.443  0.1002E+01  0.1816E+02
     -1.357  0.6870E+01  0.1856E+02
     -1.272  0.8076E+01  0.1923E+02
     -1.186  0.9083E+00  0.1974E+02
     -1.100  0.7537E+00  0.1981E+02
     -1.015  0.6007E+01  0.2007E+02
     -0.929  0.5205E+01  0.2068E+02
     -0.844  0.4568E+01  0.2111E+02
     -0.758  0.4988E+01  0.2152E+02
     -0.672  0.3792E+01  0.2198E+02
     -0.587  0.2865E+01  0.2226E+02
     -0.501  0.2067E+01  0.2247E+02
     -0.416  0.2627E+01  0.2269E+02
     -0.330  0.3068E+01  0.2292E+02
     -0.244  0.2052E+01  0.2315E+02
     -0.159  0.2552E+01  0.2334E+02
     -0.073  0.2010E+01  0.2358E+02
      0.012  0.1949E+01  0.2375E+02
      0.098  0.1889E+01  0.2391E+02
      0.184  0.2187E+01  0.2408E+02
      0.269  0.1729E+01  0.2425E+02
      0.355  0.1444E+01  0.2439E+02
      0.440  0.1041E+01  0.2449E+02
      0.526  0.1005E+01  0.2458E+02
      0.612  0.1101E+01  0.2467E+02
      0.697  0.1198E+01  0.2477E+02
      0.783  0.5578E+01  0.2503E+02
      0.868  0.1980E+01  0.2544E+02
      0.954  0.1640E+01  0.2560E+02
      1.040  0.1301E+01  0.2573E+02
      1.125  0.1082E+01  0.2582E+02
      1.211  0.1279E+01  0.2592E+02
      1.296  0.0000E+00  0.2600E+02
      1.382  0.0000E+00  0.2600E+02
      1.468  0.0000E+00  0.2600E+02
      1.553  0.0000E+00  0.2600E+02
      1.639  0.0000E+00  0.2600E+02
      1.724  0.0000E+00  0.2600E+02
      1.810  0.0000E+00  0.2600E+02
      1.896  0.0000E+00  0.2600E+02
      1.981  0.3942E-01  0.2600E+02
      2.067  0.1586E+00  0.2601E+02
      2.152  0.2777E+00  0.2603E+02
      2.238  0.3969E+00  0.2606E+02
      2.324  0.3161E+00  0.2609E+02
      2.409  0.3355E+00  0.2612E+02
      2.495  0.3550E+00  0.2615E+02
      2.580  0.3745E+00  0.2618E+02
      2.666  0.3940E+00  0.2622E+02
      2.752  0.4135E+00  0.2625E+02
      2.837  0.4669E+00  0.2629E+02
      2.923  0.6039E+00  0.2633E+02
      3.008  0.7132E+00  0.2639E+02
      3.094  0.8225E+00  0.2646E+02
      3.180  0.9490E+00  0.2653E+02
      3.265  0.1112E+01  0.2662E+02
      3.351  0.1671E+01  0.2672E+02
      3.436  0.1729E+01  0.2687E+02
      3.522  0.1786E+01  0.2702E+02
      3.608  0.2164E+01  0.2721E+02
      3.693  0.2214E+01  0.2740E+02
      3.779  0.2152E+01  0.2759E+02
      3.864  0.1412E+01  0.2774E+02
      3.950  0.1304E+01  0.2785E+02
      4.036  0.8089E+00  0.2794E+02
      4.121  0.3143E+00  0.2799E+02
      4.207  0.0000E+00  0.2800E+02
      4.292  0.0000E+00  0.2800E+02
      4.378  0.0000E+00  0.2800E+02
      4.464  0.0000E+00  0.2800E+02
      4.549  0.0000E+00  0.2800E+02
      4.635  0.0000E+00  0.2800E+02
      4.720  0.0000E+00  0.2800E+02
      4.806  0.0000E+00  0.2800E+02
      4.892  0.0000E+00  0.2800E+02
      4.977  0.0000E+00  0.2800E+02
      5.063  0.0000E+00  0.2800E+02
      5.148  0.0000E+00  0.2800E+02
      5.234  0.0000E+00  0.2800E+02
      5.319  0.0000E+00  0.2800E+02
      5.405  0.0000E+00  0.2800E+02
      5.491  0.0000E+00  0.2800E+02
      5.576  0.0000E+00  0.2800E+02
      5.662  0.0000E+00  0.2800E+02
      5.747  0.0000E+00  0.2800E+02
      5.833  0.0000E+00  0.2800E+02
      5.919  0.0000E+00  0.2800E+02
      6.004  0.0000E+00  0.2800E+02
      6.090  0.0000E+00  0.2800E+02
      6.175  0.0000E+00  0.2800E+02
