    3    3    1    1
  0.7897505E+02  0.3190316E-09  0.3190316E-09  0.2687900E-08  0.5000000E-15
  1.000000000000000E-004
  CAR 
 unknown system                          
     18     10     14
 
  0.0000000E+00  0.0000000E+00  0.0000000E+00  0.1562500E-01
    1      -17.504267   1.000000
    2      -16.299331   1.000000
    3       -8.984093   1.000000
    4       -6.022586   1.000000
    5       -6.022458   1.000000
    6       -5.161762   1.000000
    7       -4.908722   1.000000
    8       -4.908512   1.000000
    9       -3.439795   1.000000
   10       -0.672483   0.000000
   11       -0.672011   0.000000
   12       -0.452021   0.000000
   13       -0.451614   0.000000
   14        1.952815   0.000000
 
  0.1250000E+00  0.0000000E+00  0.0000000E+00  0.9375000E-01
    1      -17.290307   1.000000
    2      -16.197064   1.000000
    3       -8.737056   1.000000
    4       -6.484400   1.000000
    5       -5.963460   1.000000
    6       -5.783126   1.000000
    7       -5.241683   1.000000
    8       -4.474509   1.000000
    9       -3.574590   1.000000
   10       -0.945071   0.000000
   11       -0.885301   0.000000
   12       -0.679669   0.000000
   13       -0.316157   0.000000
   14        2.319818   0.000000
 
  0.2500000E+00  0.0000000E+00  0.0000000E+00  0.9375000E-01
    1      -16.723069   1.000000
    2      -15.928572   1.000000
    3       -8.367485   1.000000
    4       -7.213024   1.000000
    5       -6.943971   1.000000
    6       -5.879662   1.000000
    7       -5.192819   1.000000
    8       -4.724010   1.000000
    9       -4.143616   1.000000
   10       -1.260436   0.000000
   11       -1.087409   0.000000
   12       -0.554379   0.000000
   13        0.305722   0.000000
   14        3.152057   0.000000
 
  0.3750000E+00  0.0000000E+00  0.0000000E+00  0.9375000E-01
    1      -16.049964   1.000000
    2      -15.620567   1.000000
    3       -8.808039   1.000000
    4       -7.809852   1.000000
    5       -7.338870   1.000000
    6       -6.378194   1.000000
    7       -5.134455   1.000000
    8       -4.598320   1.000000
    9       -4.336986   1.000000
   10       -1.263047   0.000000
   11       -0.986212   0.000000
   12        0.166196   0.000000
   13        0.707697   0.000000
   14        3.766492   0.000000
 
  0.5000000E+00  0.0000000E+00  0.0000000E+00  0.4687500E-01
    1      -15.722810   1.000000
    2      -15.478041   1.000000
    3       -9.142521   1.000000
    4       -8.183065   1.000000
    5       -7.465142   1.000000
    6       -6.562386   1.000000
    7       -5.276598   1.000000
    8       -4.374577   1.000000
    9       -4.057475   1.000000
   10       -1.247541   0.000000
   11       -0.737267   0.000000
   12        0.463214   0.000000
   13        0.820414   0.000000
   14        2.812967   0.000000
 
  0.1250000E+00  0.1250000E+00  0.0000000E+00  0.9375000E-01
    1      -16.898449   1.000000
    2      -16.010125   1.000000
    3       -8.386919   1.000000
    4       -7.050152   1.000000
    5       -6.527349   1.000000
    6       -6.058447   1.000000
    7       -5.444865   1.000000
    8       -4.340160   1.000000
    9       -3.947290   1.000000
   10       -1.341483   0.000000
   11       -0.960704   0.000000
   12       -0.956715   0.000000
   13        0.281426   0.000000
   14        2.914667   0.000000
 
  0.2500000E+00  0.1250000E+00  0.0000000E+00  0.1875000E+00
    1      -16.266982   1.000000
    2      -15.712355   1.000000
    3       -8.451573   1.000000
    4       -7.472249   1.000000
    5       -7.212111   1.000000
    6       -6.565221   1.000000
    7       -5.343771   1.000000
    8       -4.702001   1.000000
    9       -4.231447   1.000000
   10       -1.422494   0.000000
   11       -0.976094   0.000000
   12       -0.485456   0.000000
   13        0.789340   0.000000
   14        3.913679   0.000000
 
  0.3750000E+00  0.1250000E+00  0.0000000E+00  0.1875000E+00
    1      -15.738052   1.000000
    2      -15.469097   1.000000
    3       -8.853295   1.000000
    4       -8.235330   1.000000
    5       -7.336530   1.000000
    6       -6.581041   1.000000
    7       -5.327805   1.000000
    8       -5.184168   1.000000
    9       -3.903697   1.000000
   10       -1.226903   0.000000
   11       -0.719019   0.000000
   12        0.145634   0.000000
   13        0.823321   0.000000
   14        3.343874   0.000000
 
  0.2500000E+00  0.2500000E+00  0.0000000E+00  0.9375000E-01
    1      -15.753059   1.000000
    2      -15.460383   1.000000
    3       -8.491297   1.000000
    4       -8.284525   1.000000
    5       -7.008827   1.000000
    6       -6.628125   1.000000
    7       -6.310036   1.000000
    8       -5.049261   1.000000
    9       -3.931768   1.000000
   10       -1.280945   0.000000
   11       -0.665529   0.000000
   12       -0.351568   0.000000
   13        1.105929   0.000000
   14        4.175491   0.000000
 
  0.3750000E+00  0.2500000E+00  0.0000000E+00  0.9375000E-01
    1      -15.518893   1.000000
    2      -15.341785   1.000000
    3       -8.669696   1.000000
    4       -8.321701   1.000000
    5       -7.292451   1.000000
    6       -6.631310   1.000000
    7       -6.397586   1.000000
    8       -5.438566   1.000000
    9       -3.563756   1.000000
   10       -1.602183   0.000000
   11       -0.286812   0.000000
   12       -0.112616   0.000000
   13        1.244175   0.000000
   14        3.591262   0.000000
