       N       E                     dE             d eps       ncg     rms          rms(c)
DAV:   1     0.855299975427E+02    0.85530E+02   -0.40457E+03   312   0.435E+02
DAV:   2    -0.141703807494E+02   -0.99700E+02   -0.95520E+02   484   0.136E+02
DAV:   3    -0.231387534774E+02   -0.89684E+01   -0.88796E+01   388   0.516E+01
DAV:   4    -0.232766450663E+02   -0.13789E+00   -0.13721E+00   346   0.733E+00
DAV:   5    -0.232805530152E+02   -0.39079E-02   -0.39056E-02   372   0.112E+00    0.695E+00
RMM:   6    -0.221286315238E+02    0.11519E+01   -0.52227E+00   293   0.113E+01    0.261E+00
RMM:   7    -0.217520644445E+02    0.37657E+00   -0.57386E-01   291   0.324E+00    0.159E+00
RMM:   8    -0.216884271204E+02    0.63637E-01   -0.23370E-01   307   0.245E+00    0.340E-01
RMM:   9    -0.216838773493E+02    0.45498E-02   -0.82001E-03   332   0.514E-01    0.858E-02
RMM:  10    -0.216833148482E+02    0.56250E-03   -0.14865E-03   344   0.194E-01    0.408E-02
RMM:  11    -0.216833167363E+02   -0.18881E-05   -0.16354E-03   312   0.172E-01    0.481E-02
RMM:  12    -0.216832390028E+02    0.77733E-04   -0.45924E-04   305   0.114E-01    0.138E-02
RMM:  13    -0.216835988105E+02   -0.35981E-03   -0.10557E-04   286   0.531E-02    0.137E-02
RMM:  14    -0.216836635303E+02   -0.64720E-04   -0.16799E-05   233   0.213E-02    0.522E-03
RMM:  15    -0.216838053389E+02   -0.14181E-03   -0.13649E-05   203   0.159E-02    0.307E-03
RMM:  16    -0.216838462168E+02   -0.40878E-04   -0.21606E-06   158   0.762E-03    0.197E-03
RMM:  17    -0.216838850279E+02   -0.38811E-04   -0.25888E-06   158   0.789E-03    0.178E-03
RMM:  18    -0.216838875152E+02   -0.24873E-05   -0.29982E-07    86   0.394E-03
   1 F= -.22274797E+02 E0= -.22274797E+02  d E =0.000000E+00
