perl: warning: Setting locale failed.
perl: warning: Please check that your locale settings:
	LANGUAGE = (unset),
	LC_ALL = (unset),
	LC_CTYPE = "UTF-8",
	LANG = "en_US.iso885915"
    are supported and installed on your system.
perl: warning: Falling back to the standard locale ("C").
Starting job 28532684 ("jobname") on c15-31 at Fri Nov 8 11:57:04 CET 2019
 running on    4 total cores
 distrk:  each k-point on    4 cores,    1 groups
 distr:  one band on    2 cores,    2 groups
 using from now: INCAR     
 vasp.5.4.4.18Apr17-6-g9f103f2a35 (build Jun 30 2017 11:15:00) complex          
  
 POSCAR found type information on POSCAR  Mo S 
 POSCAR found :  2 types and       3 ions
 scaLAPACK will be used
 LDA part: xc-table for Pade appr. of Perdew
 POSCAR, INCAR and KPOINTS ok, starting setup
 FFT: planning ...
 WAVECAR not read
 entering main loop
       N       E                     dE             d eps       ncg     rms          rms(c)
DAV:   1     0.855299975427E+02    0.85530E+02   -0.40457E+03   312   0.435E+02
DAV:   2    -0.141703807494E+02   -0.99700E+02   -0.95520E+02   484   0.136E+02
DAV:   3    -0.231387534774E+02   -0.89684E+01   -0.88796E+01   388   0.516E+01
DAV:   4    -0.232766450663E+02   -0.13789E+00   -0.13721E+00   346   0.733E+00
DAV:   5    -0.232805530152E+02   -0.39079E-02   -0.39056E-02   372   0.112E+00    0.695E+00
RMM:   6    -0.221286315238E+02    0.11519E+01   -0.52227E+00   293   0.113E+01    0.261E+00
RMM:   7    -0.217520644445E+02    0.37657E+00   -0.57386E-01   291   0.324E+00    0.159E+00
RMM:   8    -0.216884271204E+02    0.63637E-01   -0.23370E-01   307   0.245E+00    0.340E-01
RMM:   9    -0.216838773493E+02    0.45498E-02   -0.82001E-03   332   0.514E-01    0.858E-02
RMM:  10    -0.216833148482E+02    0.56250E-03   -0.14865E-03   344   0.194E-01    0.408E-02
RMM:  11    -0.216833167363E+02   -0.18881E-05   -0.16354E-03   312   0.172E-01    0.481E-02
RMM:  12    -0.216832390028E+02    0.77733E-04   -0.45924E-04   305   0.114E-01    0.138E-02
RMM:  13    -0.216835988105E+02   -0.35981E-03   -0.10557E-04   286   0.531E-02    0.137E-02
RMM:  14    -0.216836635303E+02   -0.64720E-04   -0.16799E-05   233   0.213E-02    0.522E-03
RMM:  15    -0.216838053389E+02   -0.14181E-03   -0.13649E-05   203   0.159E-02    0.307E-03
RMM:  16    -0.216838462168E+02   -0.40878E-04   -0.21606E-06   158   0.762E-03    0.197E-03
RMM:  17    -0.216838850279E+02   -0.38811E-04   -0.25888E-06   158   0.789E-03    0.178E-03
RMM:  18    -0.216838875152E+02   -0.24873E-05   -0.29982E-07    86   0.394E-03
   1 F= -.22274797E+02 E0= -.22274797E+02  d E =0.000000E+00

Currently Loaded Modulefiles:
  1) Anaconda3/5.1.0       3) vesta/3.3.8           5) intel/2016.1
  2) gnuplot/5.0.4         4) imagemagick/6.7.9-0   6) vasp/5.4.1.Feb16

Job script resource usage:
       JobID  MaxVMSize     MaxRSS 
------------ ---------- ---------- 
28532684.ba+    216888K      2402K 

Job step resource usage:
       JobID    JobName  AllocCPUS  MaxVMSize     MaxRSS    Elapsed ExitCode 
------------ ---------- ---------- ---------- ---------- ---------- -------- 
28532684        jobname          4                         00:00:06      0:0 
28532684.0    pmi_proxy          1    279832K       524K   00:00:04      0:0 

Job 28532684 ("jobname") completed on c15-31 at Fri Nov 8 11:57:08 CET 2019
