<?xml version="1.0" encoding="ISO-8859-1"?>
<modeling>
 <generator>
  <i name="program" type="string">vasp </i>
  <i name="version" type="string">5.4.4.18Apr17-6-g9f103f2a35  </i>
  <i name="subversion" type="string">(build Jun 30 2017 11:15:00) complex            parallel </i>
  <i name="platform" type="string">STALLO_VASP_5.4.4 </i>
  <i name="date" type="string">2019 11 08 </i>
  <i name="time" type="string">11:57:05 </i>
 </generator>
 <incar>
  <i type="string" name="PREC">normal    ! low/normal/accurate</i>
  <i type="string" name="ALGO"> Fast      ! Algorithm for electronic re</i>
  <i type="int" name="ISPIN">     1</i>
  <i type="int" name="NELMIN">     4</i>
  <i name="EDIFF">      0.00001000</i>
  <i type="int" name="NSW">     0</i>
  <i name="ENCUT">    200.00000000</i>
  <i type="logical" name="LREAL"> F  </i>
  <i type="int" name="ISMEAR">    -5</i>
  <i name="SIGMA">      0.20000000</i>
  <i type="logical" name="LWAVE"> F  </i>
  <v type="int" name="KPOINT_BSE">    -1     0     0     0</v>
 </incar>
 <structure name="primitive_cell" >
  <crystal>
   <varray name="basis" >
    <v>       3.19031573       0.00000000       0.00000000 </v>
    <v>      -1.59515786       2.76289447       0.00000000 </v>
    <v>       0.00000000       0.00000000      26.87900430 </v>
   </varray>
   <i name="volume">    236.92513614 </i>
   <varray name="rec_basis" >
    <v>       0.31344860       0.18096963       0.00000000 </v>
    <v>       0.00000000       0.36193927       0.00000000 </v>
    <v>       0.00000000       0.00000000       0.03720376 </v>
   </varray>
  </crystal>
  <varray name="positions" >
   <v>       0.33333300      -0.33333300       0.13838872 </v>
   <v>      -0.33333400       0.33333300       0.19660830 </v>
   <v>      -0.33333300       0.33333300       0.08016914 </v>
  </varray>
 </structure>
 <varray name="primitive_index" >
  <v type="int" >        1 </v>
  <v type="int" >        3 </v>
  <v type="int" >        2 </v>
 </varray>
 <kpoints>
  <generation param="Gamma">
   <v type="int" name="divisions">       8        8        1 </v>
   <v name="usershift">      0.00000000       0.00000000       0.00000000 </v>
   <v name="genvec1">      0.12500000       0.00000000       0.00000000 </v>
   <v name="genvec2">      0.00000000       0.12500000       0.00000000 </v>
   <v name="genvec3">      0.00000000       0.00000000       1.00000000 </v>
   <v name="shift">      0.00000000       0.00000000       0.00000000 </v>
  </generation>
  <varray name="kpointlist" >
   <v>       0.00000000       0.00000000       0.00000000 </v>
   <v>       0.12500000       0.00000000       0.00000000 </v>
   <v>       0.25000000       0.00000000       0.00000000 </v>
   <v>       0.37500000       0.00000000       0.00000000 </v>
   <v>       0.50000000       0.00000000       0.00000000 </v>
   <v>       0.12500000       0.12500000       0.00000000 </v>
   <v>       0.25000000       0.12500000       0.00000000 </v>
   <v>       0.37500000       0.12500000       0.00000000 </v>
   <v>       0.25000000       0.25000000       0.00000000 </v>
   <v>       0.37500000       0.25000000       0.00000000 </v>
  </varray>
  <varray name="weights" >
   <v>       0.01562500 </v>
   <v>       0.09375000 </v>
   <v>       0.09375000 </v>
   <v>       0.09375000 </v>
   <v>       0.04687500 </v>
   <v>       0.09375000 </v>
   <v>       0.18750000 </v>
   <v>       0.18750000 </v>
   <v>       0.09375000 </v>
   <v>       0.09375000 </v>
  </varray>
  <varray name="tetrahedronlist"  type="int" >
   <v type="int" >       12        2        2        2        6 </v>
   <v type="int" >       12        1        2        2        2 </v>
   <v type="int" >        6        1        1        2        2 </v>
   <v type="int" >        6        2        2        6        6 </v>
   <v type="int" >       12        3        6        6        7 </v>
   <v type="int" >       12        2        3        6        6 </v>
   <v type="int" >       12        2        2        3        6 </v>
   <v type="int" >       12        3        6        7        7 </v>
   <v type="int" >       12        3        3        6        7 </v>
   <v type="int" >       12        2        3        3        6 </v>
   <v type="int" >       12        4        7        7        8 </v>
   <v type="int" >       12        3        4        7        7 </v>
   <v type="int" >       12        3        3        4        7 </v>
   <v type="int" >       12        4        7        8        8 </v>
   <v type="int" >       12        4        4        7        8 </v>
   <v type="int" >       12        3        4        4        7 </v>
   <v type="int" >       12        5        8        8        8 </v>
   <v type="int" >       12        4        5        8        8 </v>
   <v type="int" >       12        4        4        5        8 </v>
   <v type="int" >        6        5        5        8        8 </v>
   <v type="int" >       12        4        5        5        8 </v>
   <v type="int" >       12        7        7        7        9 </v>
   <v type="int" >       12        6        7        7        7 </v>
   <v type="int" >        6        6        6        7        7 </v>
   <v type="int" >        6        7        7        9        9 </v>
   <v type="int" >       12        8        9        9       10 </v>
   <v type="int" >       12        7        8        9        9 </v>
   <v type="int" >       12        7        7        8        9 </v>
   <v type="int" >       12        8        9       10       10 </v>
   <v type="int" >       12        8        8        9       10 </v>
   <v type="int" >       12        7        8        8        9 </v>
   <v type="int" >        6        8        8       10       10 </v>
   <v type="int" >       12        8        8        8       10 </v>
   <v type="int" >        6       10       10       10       10 </v>
   <v type="int" >       12        9       10       10       10 </v>
   <v type="int" >        6        9        9       10       10 </v>
  </varray>
  <i name="volumeweight">      0.00260417 </i>
 </kpoints>
 <parameters>
  <separator name="general" >
   <i type="string" name="SYSTEM">unknown system</i>
   <i type="logical" name="LCOMPAT"> F  </i>
  </separator>
  <separator name="electronic" >
   <i type="string" name="PREC">normal</i>
   <i name="ENMAX">    200.00000000</i>
   <i name="ENAUG">    345.27800000</i>
   <i name="EDIFF">      0.00001000</i>
   <i type="int" name="IALGO">    68</i>
   <i type="int" name="IWAVPR">    10</i>
   <i type="int" name="NBANDS">    14</i>
   <i name="NELECT">     18.00000000</i>
   <i type="int" name="TURBO">     0</i>
   <i type="int" name="IRESTART">     0</i>
   <i type="int" name="NREBOOT">     0</i>
   <i type="int" name="NMIN">     0</i>
   <i name="EREF">      0.00000000</i>
   <separator name="electronic smearing" >
    <i type="int" name="ISMEAR">    -5</i>
    <i name="SIGMA">      0.20000000</i>
    <i name="KSPACING">      0.50000000</i>
    <i type="logical" name="KGAMMA"> T  </i>
   </separator>
   <separator name="electronic projectors" >
    <i type="logical" name="LREAL"> F  </i>
    <v name="ROPT">      0.00000000      0.00000000</v>
    <i type="int" name="LMAXPAW">  -100</i>
    <i type="int" name="LMAXMIX">     2</i>
    <i type="logical" name="NLSPLINE"> F  </i>
   </separator>
   <separator name="electronic startup" >
    <i type="int" name="ISTART">     0</i>
    <i type="int" name="ICHARG">     2</i>
    <i type="int" name="INIWAV">     1</i>
   </separator>
   <separator name="electronic spin" >
    <i type="int" name="ISPIN">     1</i>
    <i type="logical" name="LNONCOLLINEAR"> F  </i>
    <v name="MAGMOM">      1.00000000      1.00000000      1.00000000</v>
    <i name="NUPDOWN">     -1.00000000</i>
    <i type="logical" name="LSORBIT"> F  </i>
    <v name="SAXIS">      0.00000000      0.00000000      1.00000000</v>
    <i type="logical" name="LSPIRAL"> F  </i>
    <v name="QSPIRAL">      0.00000000      0.00000000      0.00000000</v>
    <i type="logical" name="LZEROZ"> F  </i>
   </separator>
   <separator name="electronic exchange-correlation" >
    <i type="logical" name="LASPH"> F  </i>
    <i type="logical" name="LMETAGGA"> F  </i>
   </separator>
   <separator name="electronic convergence" >
    <i type="int" name="NELM">    60</i>
    <i type="int" name="NELMDL">    -5</i>
    <i type="int" name="NELMIN">     4</i>
    <i name="ENINI">    200.00000000</i>
    <separator name="electronic convergence detail" >
     <i type="logical" name="LDIAG"> T  </i>
     <i type="logical" name="LSUBROT"> F  </i>
     <i name="WEIMIN">      0.00000000</i>
     <i name="EBREAK">      0.00000018</i>
     <i name="DEPER">      0.30000000</i>
     <i type="int" name="NRMM">     4</i>
     <i name="TIME">      0.40000000</i>
    </separator>
   </separator>
   <separator name="electronic mixer" >
    <i name="AMIX">      0.40000000</i>
    <i name="BMIX">      1.00000000</i>
    <i name="AMIN">      0.10000000</i>
    <i name="AMIX_MAG">      1.60000000</i>
    <i name="BMIX_MAG">      1.00000000</i>
    <separator name="electronic mixer details" >
     <i type="int" name="IMIX">     4</i>
     <i type="logical" name="MIXFIRST"> F  </i>
     <i type="int" name="MAXMIX">   -45</i>
     <i name="WC">    100.00000000</i>
     <i type="int" name="INIMIX">     1</i>
     <i type="int" name="MIXPRE">     1</i>
     <i type="int" name="MREMOVE">     5</i>
    </separator>
   </separator>
   <separator name="electronic dipolcorrection" >
    <i type="logical" name="LDIPOL"> F  </i>
    <i type="logical" name="LMONO"> F  </i>
    <i type="int" name="IDIPOL">     0</i>
    <i name="EPSILON">      1.00000000</i>
    <v name="DIPOL">   -100.00000000   -100.00000000   -100.00000000</v>
    <i name="EFIELD">      0.00000000</i>
   </separator>
  </separator>
  <separator name="grids" >
   <i type="int" name="NGX">    12</i>
   <i type="int" name="NGY">    12</i>
   <i type="int" name="NGZ">    96</i>
   <i type="int" name="NGXF">    24</i>
   <i type="int" name="NGYF">    24</i>
   <i type="int" name="NGZF">   192</i>
   <i type="logical" name="ADDGRID"> F  </i>
  </separator>
  <separator name="ionic" >
   <i type="int" name="NSW">     0</i>
   <i type="int" name="IBRION">    -1</i>
   <i type="int" name="MDALGO">     0</i>
   <i type="int" name="ISIF">     2</i>
   <i name="PSTRESS">      0.00000000</i>
   <i name="EDIFFG">      0.00010000</i>
   <i type="int" name="NFREE">     0</i>
   <i name="POTIM">      0.50000000</i>
   <i name="SMASS">     -3.00000000</i>
   <i name="SCALEE">      1.00000000</i>
  </separator>
  <separator name="ionic md" >
   <i name="TEBEG">      0.00010000</i>
   <i name="TEEND">      0.00010000</i>
   <i type="int" name="NBLOCK">     1</i>
   <i type="int" name="KBLOCK">     1</i>
   <i type="int" name="NPACO">   256</i>
   <i name="APACO">     16.00000000</i>
  </separator>
  <separator name="symmetry" >
   <i type="int" name="ISYM">     2</i>
   <i name="SYMPREC">      0.00001000</i>
  </separator>
  <separator name="dos" >
   <i type="int" name="LORBIT">     0</i>
   <v name="RWIGS">     -1.00000000     -1.00000000</v>
   <i type="int" name="NEDOS">   301</i>
   <i name="EMIN">     10.00000000</i>
   <i name="EMAX">    -10.00000000</i>
   <i name="EFERMI">      0.00000000</i>
  </separator>
  <separator name="writing" >
   <i type="int" name="NWRITE">     2</i>
   <i type="logical" name="LWAVE"> F  </i>
   <i type="logical" name="LDOWNSAMPLE"> F  </i>
   <i type="logical" name="LCHARG"> T  </i>
   <i type="logical" name="LPARD"> F  </i>
   <i type="logical" name="LVTOT"> F  </i>
   <i type="logical" name="LVHAR"> F  </i>
   <i type="logical" name="LELF"> F  </i>
   <i type="logical" name="LOPTICS"> F  </i>
   <v name="STM">      0.00000000      0.00000000      0.00000000      0.00000000      0.00000000      0.00000000      0.00000000</v>
  </separator>
  <separator name="performance" >
   <i type="int" name="NPAR">     2</i>
   <i type="int" name="NSIM">     4</i>
   <i type="int" name="NBLK">    -1</i>
   <i type="logical" name="LPLANE"> T  </i>
   <i type="logical" name="LSCALAPACK"> T  </i>
   <i type="logical" name="LSCAAWARE"> F  </i>
   <i type="logical" name="LSCALU"> F  </i>
   <i type="logical" name="LASYNC"> F  </i>
   <i type="logical" name="LORBITALREAL"> F  </i>
  </separator>
  <separator name="miscellaneous" >
   <i type="int" name="IDIOT">     3</i>
   <i type="int" name="ISPECIAL">     0</i>
   <i type="logical" name="LMUSIC"> F  </i>
   <v name="POMASS">     95.94000000     32.06600000</v>
   <v name="DARWINR">      0.00000000      0.00000000</v>
   <v name="DARWINV">      1.00000000      1.00000000</v>
   <i type="logical" name="LCORR"> T  </i>
  </separator>
  <i type="logical" name="GGA_COMPAT"> T  </i>
  <i type="logical" name="LBERRY"> F  </i>
  <i type="int" name="ICORELEVEL">     0</i>
  <i type="logical" name="LDAU"> F  </i>
  <i type="int" name="I_CONSTRAINED_M">     0</i>
  <separator name="electronic exchange-correlation" >
   <i type="string" name="GGA">--</i>
   <i type="int" name="VOSKOWN">     0</i>
   <i type="logical" name="LHFCALC"> F  </i>
   <i type="string" name="PRECFOCK"></i>
   <i type="logical" name="LSYMGRAD"> F  </i>
   <i type="logical" name="LHFONE"> F  </i>
   <i type="logical" name="LRHFCALC"> F  </i>
   <i type="logical" name="LTHOMAS"> F  </i>
   <i type="logical" name="LMODELHF"> F  </i>
   <i name="ENCUT4O">     -1.00000000</i>
   <i type="int" name="EXXOEP">     0</i>
   <i type="int" name="FOURORBIT">     0</i>
   <i name="AEXX">      0.00000000</i>
   <i name="HFALPHA">      0.00000000</i>
   <i name="MCALPHA">      0.00000000</i>
   <i name="ALDAX">      1.00000000</i>
   <i name="AGGAX">      1.00000000</i>
   <i name="ALDAC">      1.00000000</i>
   <i name="AGGAC">      1.00000000</i>
   <i type="int" name="NKREDX">     1</i>
   <i type="int" name="NKREDY">     1</i>
   <i type="int" name="NKREDZ">     1</i>
   <i type="logical" name="SHIFTRED"> F  </i>
   <i type="logical" name="ODDONLY"> F  </i>
   <i type="logical" name="EVENONLY"> F  </i>
   <i type="int" name="LMAXFOCK">     0</i>
   <i type="int" name="NMAXFOCKAE">     0</i>
   <i type="logical" name="LFOCKAEDFT"> F  </i>
   <i name="HFSCREEN">      0.00000000</i>
   <i name="HFSCREENC">      0.00000000</i>
   <i type="int" name="NBANDSGWLOW">     0</i>
  </separator>
  <separator name="vdW DFT" >
   <i type="logical" name="LUSE_VDW"> F  </i>
   <i name="Zab_VDW">     -0.84910000</i>
   <i name="PARAM1">      0.12340000</i>
   <i name="PARAM2">      1.00000000</i>
   <i name="PARAM3">      0.00000000</i>
  </separator>
  <separator name="model GW" >
   <i type="int" name="MODEL_GW">     0</i>
   <i name="MODEL_EPS0">     47.38502723</i>
   <i name="MODEL_ALPHA">      1.00000000</i>
  </separator>
  <separator name="linear response parameters" >
   <i type="logical" name="LEPSILON"> F  </i>
   <i type="logical" name="LRPA"> F  </i>
   <i type="logical" name="LNABLA"> F  </i>
   <i type="logical" name="LVEL"> F  </i>
   <i type="int" name="KINTER">     0</i>
   <i name="CSHIFT">      0.10000000</i>
   <i name="OMEGAMAX">     -1.00000000</i>
   <i name="DEG_THRESHOLD">      0.00200000</i>
   <i name="RTIME">     -0.10000000</i>
   <i name="WPLASMAI">      0.00000000</i>
   <v name="DFIELD">      0.00000000      0.00000000      0.00000000</v>
   <v name="WPLASMA">      0.00000000      0.00000000      0.00000000      0.00000000      0.00000000      0.00000000      0.00000000      0.00000000      0.00000000</v>
  </separator>
  <separator name="orbital magnetization" >
   <i type="logical" name="NUCIND"> F  </i>
   <v name="MAGPOS">      0.00000000      0.00000000      0.00000000</v>
   <i type="logical" name="LNICSALL"> T  </i>
   <i type="logical" name="ORBITALMAG"> F  </i>
   <i type="logical" name="LMAGBLOCH"> F  </i>
   <i type="logical" name="LCHIMAG"> F  </i>
   <i type="logical" name="LGAUGE"> T  </i>
   <i type="int" name="MAGATOM">     0</i>
   <v name="MAGDIPOL">      0.00000000      0.00000000      0.00000000</v>
   <v name="AVECCONST">      0.00000000      0.00000000      0.00000000</v>
  </separator>
  <separator name="response functions" >
   <i type="logical" name="LADDER"> F  </i>
   <i type="logical" name="LRPAFORCE"> F  </i>
   <i type="logical" name="LFXC"> F  </i>
   <i type="logical" name="LHARTREE"> T  </i>
   <i type="int" name="IBSE">     0</i>
   <v type="int" name="KPOINT">    -1     0     0     0</v>
   <i type="logical" name="LTCTE"> F  </i>
   <i type="logical" name="LTETE"> F  </i>
   <i type="logical" name="LTRIPLET"> F  </i>
   <i type="logical" name="LFXCEPS"> F  </i>
   <i type="logical" name="LFXHEG"> F  </i>
   <i type="int" name="NATURALO">     2</i>
   <i type="logical" name="L2ORDER"> F  </i>
   <i type="logical" name="LMP2LT"> F  </i>
   <i type="logical" name="LUSEW"> F  </i>
   <i name="ENCUTGW">     -2.00000000</i>
   <i name="ENCUTGWSOFT">     -2.00000000</i>
   <i name="ENCUTLF">     -1.00000000</i>
   <i type="int" name="LMAXMP2">    -1</i>
   <i name="SCISSOR">      0.00000000</i>
   <i type="int" name="NOMEGA">     0</i>
   <i type="int" name="NOMEGAR">     0</i>
   <i type="int" name="NBANDSGW">    -1</i>
   <i type="int" name="NBANDSO">    -1</i>
   <i type="int" name="NBANDSV">    -1</i>
   <i type="int" name="NELM">     1</i>
   <i type="int" name="NELMHF">     1</i>
   <i type="int" name="DIM">     3</i>
   <i type="int" name="ANTIRES">     0</i>
   <i name="OMEGAMAX">    -30.00000000</i>
   <i name="OMEGAMIN">    -30.00000000</i>
   <i name="OMEGATL">   -200.00000000</i>
   <i type="int" name="OMEGAGRID">   140</i>
   <i name="CSHIFT">     -0.10000000</i>
   <i type="logical" name="SELFENERGY"> F  </i>
   <i type="logical" name="LSPECTRAL"> F  </i>
   <i type="logical" name="LSPECTRALGW"> F  </i>
   <i type="logical" name="LSINGLES"> F  </i>
   <i type="logical" name="LFERMIGW"> F  </i>
   <i type="logical" name="ODDONLYGW"> F  </i>
   <i type="logical" name="EVENONLYGW"> F  </i>
   <i type="int" name="NKREDLFX">     1</i>
   <i type="int" name="NKREDLFY">     1</i>
   <i type="int" name="NKREDLFZ">     1</i>
   <i type="int" name="MAXMEM">  2800</i>
   <i type="int" name="TELESCOPE">     0</i>
   <i type="int" name="TAUPAR">     1</i>
   <i type="int" name="OMEGAPAR">    -1</i>
   <i name="LAMBDA">      1.00000000</i>
  </separator>
  <separator name="External order field" >
   <i name="OFIELD_KAPPA">      0.00000000</i>
   <v name="OFIELD_K">      0.00000000      0.00000000      0.00000000</v>
   <i name="OFIELD_Q6_NEAR">      0.00000000</i>
   <i name="OFIELD_Q6_FAR">      0.00000000</i>
   <i name="OFIELD_A">      0.00000000</i>
  </separator>
 </parameters>
 <atominfo>
  <atoms>       3 </atoms>
  <types>       2 </types>
  <array name="atoms" >
   <dimension dim="1">ion</dimension>
   <field type="string">element</field>
   <field type="int">atomtype</field>
   <set>
    <rc><c>Mo</c><c>   1</c></rc>
    <rc><c>S </c><c>   2</c></rc>
    <rc><c>S </c><c>   2</c></rc>
   </set>
  </array>
  <array name="atomtypes" >
   <dimension dim="1">type</dimension>
   <field type="int">atomspertype</field>
   <field type="string">element</field>
   <field>mass</field>
   <field>valence</field>
   <field type="string">pseudopotential</field>
   <set>
    <rc><c>   1</c><c>Mo</c><c>     95.94000000</c><c>      6.00000000</c><c> PAW_PBE Mo 08Apr2002                   </c></rc>
    <rc><c>   2</c><c>S </c><c>     32.06600000</c><c>      6.00000000</c><c>  PAW_PBE S 17Jan2003                   </c></rc>
   </set>
  </array>
 </atominfo>
 <structure name="initialpos" >
  <crystal>
   <varray name="basis" >
    <v>       3.19031573       0.00000000       0.00000000 </v>
    <v>      -1.59515786       2.76289447       0.00000000 </v>
    <v>       0.00000000       0.00000000      26.87900430 </v>
   </varray>
   <i name="volume">    236.92513614 </i>
   <varray name="rec_basis" >
    <v>       0.31344860       0.18096963       0.00000000 </v>
    <v>       0.00000000       0.36193927       0.00000000 </v>
    <v>       0.00000000       0.00000000       0.03720376 </v>
   </varray>
  </crystal>
  <varray name="positions" >
   <v>       0.33333300       0.66666700       0.13838872 </v>
   <v>       0.66666700       0.33333300       0.08016914 </v>
   <v>       0.66666600       0.33333300       0.19660830 </v>
  </varray>
 </structure>
 <calculation>
  <scstep>
   <time name="dav">    0.08    0.09</time>
   <time name="total">    0.10    0.13</time>
   <energy>
    <i name="alphaZ">     12.51390764 </i>
    <i name="ewald">   4286.25630342 </i>
    <i name="hartreedc">  -4967.71356793 </i>
    <i name="XCdc">    -36.31055933 </i>
    <i name="pawpsdc">    406.88651198 </i>
    <i name="pawaedc">   -329.34073203 </i>
    <i name="eentropy">      0.00000000 </i>
    <i name="bandstr">    -57.44896981 </i>
    <i name="atom">    770.68710360 </i>
    <i name="e_fr_energy">     85.52999754 </i>
    <i name="e_wo_entrp">     85.52999754 </i>
    <i name="e_0_energy">     85.52999754 </i>
   </energy>
  </scstep>
  <scstep>
   <time name="dav">    0.11    0.12</time>
   <time name="total">    0.11    0.12</time>
   <energy>
    <i name="e_fr_energy">    -14.17038075 </i>
    <i name="e_wo_entrp">    -14.17038075 </i>
    <i name="e_0_energy">    -14.17038075 </i>
   </energy>
  </scstep>
  <scstep>
   <time name="dav">    0.09    0.09</time>
   <time name="total">    0.09    0.09</time>
   <energy>
    <i name="e_fr_energy">    -23.13875348 </i>
    <i name="e_wo_entrp">    -23.13875348 </i>
    <i name="e_0_energy">    -23.13875348 </i>
   </energy>
  </scstep>
  <scstep>
   <time name="dav">    0.08    0.08</time>
   <time name="total">    0.08    0.09</time>
   <energy>
    <i name="e_fr_energy">    -23.27664507 </i>
    <i name="e_wo_entrp">    -23.27664507 </i>
    <i name="e_0_energy">    -23.27664507 </i>
   </energy>
  </scstep>
  <scstep>
   <time name="dav">    0.09    0.09</time>
   <time name="total">    0.10    0.10</time>
   <energy>
    <i name="e_fr_energy">    -23.28055302 </i>
    <i name="e_wo_entrp">    -23.28055302 </i>
    <i name="e_0_energy">    -23.28055302 </i>
   </energy>
  </scstep>
  <scstep>
   <time name="diag">    0.02    0.02</time>
   <time name="diis">    0.05    0.05</time>
   <time name="orth">    0.00    0.00</time>
   <time name="total">    0.09    0.10</time>
   <energy>
    <i name="e_fr_energy">    -22.12863152 </i>
    <i name="e_wo_entrp">    -22.12863152 </i>
    <i name="e_0_energy">    -22.12863152 </i>
   </energy>
  </scstep>
  <scstep>
   <time name="diag">    0.01    0.02</time>
   <time name="diis">    0.05    0.05</time>
   <time name="orth">    0.00    0.00</time>
   <time name="total">    0.09    0.09</time>
   <energy>
    <i name="e_fr_energy">    -21.75206444 </i>
    <i name="e_wo_entrp">    -21.75206444 </i>
    <i name="e_0_energy">    -21.75206444 </i>
   </energy>
  </scstep>
  <scstep>
   <time name="diag">    0.01    0.02</time>
   <time name="diis">    0.06    0.06</time>
   <time name="orth">    0.00    0.00</time>
   <time name="total">    0.10    0.10</time>
   <energy>
    <i name="e_fr_energy">    -21.68842712 </i>
    <i name="e_wo_entrp">    -21.68842712 </i>
    <i name="e_0_energy">    -21.68842712 </i>
   </energy>
  </scstep>
  <scstep>
   <time name="diag">    0.01    0.02</time>
   <time name="diis">    0.06    0.06</time>
   <time name="orth">    0.00    0.00</time>
   <time name="total">    0.10    0.10</time>
   <energy>
    <i name="e_fr_energy">    -21.68387735 </i>
    <i name="e_wo_entrp">    -21.68387735 </i>
    <i name="e_0_energy">    -21.68387735 </i>
   </energy>
  </scstep>
  <scstep>
   <time name="diag">    0.02    0.02</time>
   <time name="diis">    0.06    0.06</time>
   <time name="orth">    0.00    0.00</time>
   <time name="total">    0.10    0.10</time>
   <energy>
    <i name="e_fr_energy">    -21.68331485 </i>
    <i name="e_wo_entrp">    -21.68331485 </i>
    <i name="e_0_energy">    -21.68331485 </i>
   </energy>
  </scstep>
  <scstep>
   <time name="diag">    0.02    0.02</time>
   <time name="diis">    0.06    0.06</time>
   <time name="orth">    0.00    0.00</time>
   <time name="total">    0.10    0.10</time>
   <energy>
    <i name="e_fr_energy">    -21.68331674 </i>
    <i name="e_wo_entrp">    -21.68331674 </i>
    <i name="e_0_energy">    -21.68331674 </i>
   </energy>
  </scstep>
  <scstep>
   <time name="diag">    0.02    0.02</time>
   <time name="diis">    0.06    0.06</time>
   <time name="orth">    0.00    0.00</time>
   <time name="total">    0.10    0.10</time>
   <energy>
    <i name="e_fr_energy">    -21.68323900 </i>
    <i name="e_wo_entrp">    -21.68323900 </i>
    <i name="e_0_energy">    -21.68323900 </i>
   </energy>
  </scstep>
  <scstep>
   <time name="diag">    0.02    0.02</time>
   <time name="diis">    0.05    0.05</time>
   <time name="orth">    0.00    0.00</time>
   <time name="total">    0.09    0.09</time>
   <energy>
    <i name="e_fr_energy">    -21.68359881 </i>
    <i name="e_wo_entrp">    -21.68359881 </i>
    <i name="e_0_energy">    -21.68359881 </i>
   </energy>
  </scstep>
  <scstep>
   <time name="diag">    0.01    0.02</time>
   <time name="diis">    0.05    0.05</time>
   <time name="orth">    0.00    0.00</time>
   <time name="total">    0.09    0.09</time>
   <energy>
    <i name="e_fr_energy">    -21.68366353 </i>
    <i name="e_wo_entrp">    -21.68366353 </i>
    <i name="e_0_energy">    -21.68366353 </i>
   </energy>
  </scstep>
  <scstep>
   <time name="diag">    0.01    0.02</time>
   <time name="diis">    0.04    0.04</time>
   <time name="orth">    0.00    0.00</time>
   <time name="total">    0.08    0.08</time>
   <energy>
    <i name="e_fr_energy">    -21.68380534 </i>
    <i name="e_wo_entrp">    -21.68380534 </i>
    <i name="e_0_energy">    -21.68380534 </i>
   </energy>
  </scstep>
  <scstep>
   <time name="diag">    0.01    0.02</time>
   <time name="diis">    0.04    0.04</time>
   <time name="orth">    0.00    0.00</time>
   <time name="total">    0.08    0.08</time>
   <energy>
    <i name="e_fr_energy">    -21.68384622 </i>
    <i name="e_wo_entrp">    -21.68384622 </i>
    <i name="e_0_energy">    -21.68384622 </i>
   </energy>
  </scstep>
  <scstep>
   <time name="diag">    0.01    0.02</time>
   <time name="diis">    0.04    0.04</time>
   <time name="orth">    0.00    0.00</time>
   <time name="total">    0.08    0.08</time>
   <energy>
    <i name="e_fr_energy">    -21.68388503 </i>
    <i name="e_wo_entrp">    -21.68388503 </i>
    <i name="e_0_energy">    -21.68388503 </i>
   </energy>
  </scstep>
  <scstep>
   <time name="diag">    0.02    0.02</time>
   <time name="diis">    0.03    0.03</time>
   <time name="orth">    0.00    0.00</time>
   <time name="total">    0.07    0.07</time>
   <energy>
    <i name="alphaZ">     12.51390764 </i>
    <i name="ewald">   4286.25630342 </i>
    <i name="hartreedc">  -4980.11909328 </i>
    <i name="XCdc">    -35.10741453 </i>
    <i name="pawpsdc">    481.51757391 </i>
    <i name="pawaedc">   -405.70580569 </i>
    <i name="eentropy">      0.00000000 </i>
    <i name="bandstr">   -151.72646258 </i>
    <i name="atom">    770.68710360 </i>
    <i name="e_fr_energy">    -21.68388752 </i>
    <i name="e_wo_entrp">    -21.68388752 </i>
    <i name="e_0_energy">    -21.68388752 </i>
   </energy>
  </scstep>
  <structure>
   <crystal>
    <varray name="basis" >
     <v>       3.19031573       0.00000000       0.00000000 </v>
     <v>      -1.59515786       2.76289447       0.00000000 </v>
     <v>       0.00000000       0.00000000      26.87900430 </v>
    </varray>
    <i name="volume">    236.92513614 </i>
    <varray name="rec_basis" >
     <v>       0.31344860       0.18096963       0.00000000 </v>
     <v>       0.00000000       0.36193927       0.00000000 </v>
     <v>       0.00000000       0.00000000       0.03720376 </v>
    </varray>
   </crystal>
   <varray name="positions" >
    <v>       0.33333300       0.66666700       0.13838872 </v>
    <v>       0.66666700       0.33333300       0.08016914 </v>
    <v>       0.66666600       0.33333300       0.19660830 </v>
   </varray>
  </structure>
  <varray name="forces" >
   <v>      -0.00000000       0.00000000      -0.00000000 </v>
   <v>      -0.00000000      -0.00000000       0.13116293 </v>
   <v>       0.00000000      -0.00000000      -0.13116293 </v>
  </varray>
  <varray name="stress" >
   <v>     -17.97561998      -0.00000000       0.00000000 </v>
   <v>      -0.00000000     -17.97561998       0.00000000 </v>
   <v>       0.00000000       0.00000000     -20.89374007 </v>
  </varray>
  <energy>
   <i name="e_fr_energy">    -22.27479658 </i>
   <i name="e_wo_entrp">    -22.27479658 </i>
   <i name="e_0_energy">      0.00000000 </i>
  </energy>
  <time name="totalsc">    1.91    2.09</time>
  <eigenvalues>
   <array>
    <dimension dim="1">band</dimension>
    <dimension dim="2">kpoint</dimension>
    <dimension dim="3">spin</dimension>
    <field>eigene</field>
    <field>occ</field>
    <set>
     <set comment="spin 1">
      <set comment="kpoint 1">
       <r>  -17.5043    1.0000 </r>
       <r>  -16.2993    1.0000 </r>
       <r>   -8.9841    1.0000 </r>
       <r>   -6.0226    1.0000 </r>
       <r>   -6.0225    1.0000 </r>
       <r>   -5.1618    1.0000 </r>
       <r>   -4.9087    1.0000 </r>
       <r>   -4.9085    1.0000 </r>
       <r>   -3.4398    1.0000 </r>
       <r>   -0.6725    0.0000 </r>
       <r>   -0.6720    0.0000 </r>
       <r>   -0.4520    0.0000 </r>
       <r>   -0.4516    0.0000 </r>
       <r>    1.9528    0.0000 </r>
      </set>
      <set comment="kpoint 2">
       <r>  -17.2903    1.0000 </r>
       <r>  -16.1971    1.0000 </r>
       <r>   -8.7371    1.0000 </r>
       <r>   -6.4844    1.0000 </r>
       <r>   -5.9635    1.0000 </r>
       <r>   -5.7831    1.0000 </r>
       <r>   -5.2417    1.0000 </r>
       <r>   -4.4745    1.0000 </r>
       <r>   -3.5746    1.0000 </r>
       <r>   -0.9451    0.0000 </r>
       <r>   -0.8853    0.0000 </r>
       <r>   -0.6797    0.0000 </r>
       <r>   -0.3162    0.0000 </r>
       <r>    2.3198    0.0000 </r>
      </set>
      <set comment="kpoint 3">
       <r>  -16.7231    1.0000 </r>
       <r>  -15.9286    1.0000 </r>
       <r>   -8.3675    1.0000 </r>
       <r>   -7.2130    1.0000 </r>
       <r>   -6.9440    1.0000 </r>
       <r>   -5.8797    1.0000 </r>
       <r>   -5.1928    1.0000 </r>
       <r>   -4.7240    1.0000 </r>
       <r>   -4.1436    1.0000 </r>
       <r>   -1.2604    0.0000 </r>
       <r>   -1.0874    0.0000 </r>
       <r>   -0.5544    0.0000 </r>
       <r>    0.3057    0.0000 </r>
       <r>    3.1521    0.0000 </r>
      </set>
      <set comment="kpoint 4">
       <r>  -16.0500    1.0000 </r>
       <r>  -15.6206    1.0000 </r>
       <r>   -8.8080    1.0000 </r>
       <r>   -7.8099    1.0000 </r>
       <r>   -7.3389    1.0000 </r>
       <r>   -6.3782    1.0000 </r>
       <r>   -5.1345    1.0000 </r>
       <r>   -4.5983    1.0000 </r>
       <r>   -4.3370    1.0000 </r>
       <r>   -1.2630    0.0000 </r>
       <r>   -0.9862    0.0000 </r>
       <r>    0.1662    0.0000 </r>
       <r>    0.7077    0.0000 </r>
       <r>    3.7665    0.0000 </r>
      </set>
      <set comment="kpoint 5">
       <r>  -15.7228    1.0000 </r>
       <r>  -15.4780    1.0000 </r>
       <r>   -9.1425    1.0000 </r>
       <r>   -8.1831    1.0000 </r>
       <r>   -7.4651    1.0000 </r>
       <r>   -6.5624    1.0000 </r>
       <r>   -5.2766    1.0000 </r>
       <r>   -4.3746    1.0000 </r>
       <r>   -4.0575    1.0000 </r>
       <r>   -1.2475    0.0000 </r>
       <r>   -0.7373    0.0000 </r>
       <r>    0.4632    0.0000 </r>
       <r>    0.8204    0.0000 </r>
       <r>    2.8130    0.0000 </r>
      </set>
      <set comment="kpoint 6">
       <r>  -16.8984    1.0000 </r>
       <r>  -16.0101    1.0000 </r>
       <r>   -8.3869    1.0000 </r>
       <r>   -7.0502    1.0000 </r>
       <r>   -6.5273    1.0000 </r>
       <r>   -6.0584    1.0000 </r>
       <r>   -5.4449    1.0000 </r>
       <r>   -4.3402    1.0000 </r>
       <r>   -3.9473    1.0000 </r>
       <r>   -1.3415    0.0000 </r>
       <r>   -0.9607    0.0000 </r>
       <r>   -0.9567    0.0000 </r>
       <r>    0.2814    0.0000 </r>
       <r>    2.9147    0.0000 </r>
      </set>
      <set comment="kpoint 7">
       <r>  -16.2670    1.0000 </r>
       <r>  -15.7124    1.0000 </r>
       <r>   -8.4516    1.0000 </r>
       <r>   -7.4722    1.0000 </r>
       <r>   -7.2121    1.0000 </r>
       <r>   -6.5652    1.0000 </r>
       <r>   -5.3438    1.0000 </r>
       <r>   -4.7020    1.0000 </r>
       <r>   -4.2314    1.0000 </r>
       <r>   -1.4225    0.0000 </r>
       <r>   -0.9761    0.0000 </r>
       <r>   -0.4855    0.0000 </r>
       <r>    0.7893    0.0000 </r>
       <r>    3.9137    0.0000 </r>
      </set>
      <set comment="kpoint 8">
       <r>  -15.7381    1.0000 </r>
       <r>  -15.4691    1.0000 </r>
       <r>   -8.8533    1.0000 </r>
       <r>   -8.2353    1.0000 </r>
       <r>   -7.3365    1.0000 </r>
       <r>   -6.5810    1.0000 </r>
       <r>   -5.3278    1.0000 </r>
       <r>   -5.1842    1.0000 </r>
       <r>   -3.9037    1.0000 </r>
       <r>   -1.2269    0.0000 </r>
       <r>   -0.7190    0.0000 </r>
       <r>    0.1456    0.0000 </r>
       <r>    0.8233    0.0000 </r>
       <r>    3.3439    0.0000 </r>
      </set>
      <set comment="kpoint 9">
       <r>  -15.7531    1.0000 </r>
       <r>  -15.4604    1.0000 </r>
       <r>   -8.4913    1.0000 </r>
       <r>   -8.2845    1.0000 </r>
       <r>   -7.0088    1.0000 </r>
       <r>   -6.6281    1.0000 </r>
       <r>   -6.3100    1.0000 </r>
       <r>   -5.0493    1.0000 </r>
       <r>   -3.9318    1.0000 </r>
       <r>   -1.2809    0.0000 </r>
       <r>   -0.6655    0.0000 </r>
       <r>   -0.3516    0.0000 </r>
       <r>    1.1059    0.0000 </r>
       <r>    4.1755    0.0000 </r>
      </set>
      <set comment="kpoint 10">
       <r>  -15.5189    1.0000 </r>
       <r>  -15.3418    1.0000 </r>
       <r>   -8.6697    1.0000 </r>
       <r>   -8.3217    1.0000 </r>
       <r>   -7.2925    1.0000 </r>
       <r>   -6.6313    1.0000 </r>
       <r>   -6.3976    1.0000 </r>
       <r>   -5.4386    1.0000 </r>
       <r>   -3.5638    1.0000 </r>
       <r>   -1.6022    0.0000 </r>
       <r>   -0.2868    0.0000 </r>
       <r>   -0.1126    0.0000 </r>
       <r>    1.2442    0.0000 </r>
       <r>    3.5913    0.0000 </r>
      </set>
     </set>
    </set>
   </array>
  </eigenvalues>
  <separator name="orbital magnetization" >
   <v name="MAGDIPOLOUT">      0.00000000      0.00000000      0.00000000</v>
  </separator>
  <dos>
   <i name="efermi">     -3.39021864 </i>
   <total>
    <array>
     <dimension dim="1">gridpoints</dimension>
     <dimension dim="2">spin</dimension>
     <field>energy</field>
     <field>total</field>
     <field>integrated</field>
     <set>
      <set comment="spin 1">
       <r>   -19.5043     0.0000     0.0000 </r>
       <r>   -19.4187     0.0000     0.0000 </r>
       <r>   -19.3331     0.0000     0.0000 </r>
       <r>   -19.2475     0.0000     0.0000 </r>
       <r>   -19.1619     0.0000     0.0000 </r>
       <r>   -19.0763     0.0000     0.0000 </r>
       <r>   -18.9907     0.0000     0.0000 </r>
       <r>   -18.9051     0.0000     0.0000 </r>
       <r>   -18.8195     0.0000     0.0000 </r>
       <r>   -18.7339     0.0000     0.0000 </r>
       <r>   -18.6483     0.0000     0.0000 </r>
       <r>   -18.5627     0.0000     0.0000 </r>
       <r>   -18.4771     0.0000     0.0000 </r>
       <r>   -18.3915     0.0000     0.0000 </r>
       <r>   -18.3059     0.0000     0.0000 </r>
       <r>   -18.2203     0.0000     0.0000 </r>
       <r>   -18.1347     0.0000     0.0000 </r>
       <r>   -18.0491     0.0000     0.0000 </r>
       <r>   -17.9635     0.0000     0.0000 </r>
       <r>   -17.8779     0.0000     0.0000 </r>
       <r>   -17.7923     0.0000     0.0000 </r>
       <r>   -17.7067     0.0000     0.0000 </r>
       <r>   -17.6211     0.0000     0.0000 </r>
       <r>   -17.5355     0.0000     0.0000 </r>
       <r>   -17.4499     0.2227     0.0061 </r>
       <r>   -17.3643     0.5733     0.0401 </r>
       <r>   -17.2787     0.4839     0.0993 </r>
       <r>   -17.1931     0.5238     0.1425 </r>
       <r>   -17.1075     0.5637     0.1890 </r>
       <r>   -17.0219     0.6036     0.2390 </r>
       <r>   -16.9363     0.6435     0.2923 </r>
       <r>   -16.8507     0.6652     0.3487 </r>
       <r>   -16.7651     0.6727     0.4060 </r>
       <r>   -16.6795     0.6933     0.4641 </r>
       <r>   -16.5939     0.7267     0.5249 </r>
       <r>   -16.5083     0.7600     0.5886 </r>
       <r>   -16.4227     0.7934     0.6550 </r>
       <r>   -16.3371     0.8267     0.7244 </r>
       <r>   -16.2515     1.8007     0.8182 </r>
       <r>   -16.1659     2.1290     1.0095 </r>
       <r>   -16.0803     2.4265     1.2045 </r>
       <r>   -15.9947     2.7370     1.4258 </r>
       <r>   -15.9091     2.9802     1.6695 </r>
       <r>   -15.8235     3.3219     1.9393 </r>
       <r>   -15.7379    17.6204     2.2474 </r>
       <r>   -15.6523     4.2039     2.7103 </r>
       <r>   -15.5667     4.3073     3.0715 </r>
       <r>   -15.4811     4.0207     3.4561 </r>
       <r>   -15.3955     2.8205     3.8505 </r>
       <r>   -15.3099     0.0000     4.0000 </r>
       <r>   -15.2243     0.0000     4.0000 </r>
       <r>   -15.1387     0.0000     4.0000 </r>
       <r>   -15.0531     0.0000     4.0000 </r>
       <r>   -14.9675     0.0000     4.0000 </r>
       <r>   -14.8819     0.0000     4.0000 </r>
       <r>   -14.7963     0.0000     4.0000 </r>
       <r>   -14.7107     0.0000     4.0000 </r>
       <r>   -14.6251     0.0000     4.0000 </r>
       <r>   -14.5395     0.0000     4.0000 </r>
       <r>   -14.4539     0.0000     4.0000 </r>
       <r>   -14.3683     0.0000     4.0000 </r>
       <r>   -14.2827     0.0000     4.0000 </r>
       <r>   -14.1971     0.0000     4.0000 </r>
       <r>   -14.1115     0.0000     4.0000 </r>
       <r>   -14.0259     0.0000     4.0000 </r>
       <r>   -13.9403     0.0000     4.0000 </r>
       <r>   -13.8547     0.0000     4.0000 </r>
       <r>   -13.7691     0.0000     4.0000 </r>
       <r>   -13.6835     0.0000     4.0000 </r>
       <r>   -13.5979     0.0000     4.0000 </r>
       <r>   -13.5123     0.0000     4.0000 </r>
       <r>   -13.4267     0.0000     4.0000 </r>
       <r>   -13.3411     0.0000     4.0000 </r>
       <r>   -13.2555     0.0000     4.0000 </r>
       <r>   -13.1699     0.0000     4.0000 </r>
       <r>   -13.0843     0.0000     4.0000 </r>
       <r>   -12.9987     0.0000     4.0000 </r>
       <r>   -12.9131     0.0000     4.0000 </r>
       <r>   -12.8275     0.0000     4.0000 </r>
       <r>   -12.7419     0.0000     4.0000 </r>
       <r>   -12.6563     0.0000     4.0000 </r>
       <r>   -12.5707     0.0000     4.0000 </r>
       <r>   -12.4851     0.0000     4.0000 </r>
       <r>   -12.3995     0.0000     4.0000 </r>
       <r>   -12.3139     0.0000     4.0000 </r>
       <r>   -12.2283     0.0000     4.0000 </r>
       <r>   -12.1427     0.0000     4.0000 </r>
       <r>   -12.0571     0.0000     4.0000 </r>
       <r>   -11.9715     0.0000     4.0000 </r>
       <r>   -11.8859     0.0000     4.0000 </r>
       <r>   -11.8003     0.0000     4.0000 </r>
       <r>   -11.7147     0.0000     4.0000 </r>
       <r>   -11.6291     0.0000     4.0000 </r>
       <r>   -11.5435     0.0000     4.0000 </r>
       <r>   -11.4579     0.0000     4.0000 </r>
       <r>   -11.3723     0.0000     4.0000 </r>
       <r>   -11.2867     0.0000     4.0000 </r>
       <r>   -11.2011     0.0000     4.0000 </r>
       <r>   -11.1155     0.0000     4.0000 </r>
       <r>   -11.0299     0.0000     4.0000 </r>
       <r>   -10.9443     0.0000     4.0000 </r>
       <r>   -10.8587     0.0000     4.0000 </r>
       <r>   -10.7731     0.0000     4.0000 </r>
       <r>   -10.6875     0.0000     4.0000 </r>
       <r>   -10.6020     0.0000     4.0000 </r>
       <r>   -10.5164     0.0000     4.0000 </r>
       <r>   -10.4308     0.0000     4.0000 </r>
       <r>   -10.3452     0.0000     4.0000 </r>
       <r>   -10.2596     0.0000     4.0000 </r>
       <r>   -10.1740     0.0000     4.0000 </r>
       <r>   -10.0884     0.0000     4.0000 </r>
       <r>   -10.0028     0.0000     4.0000 </r>
       <r>    -9.9172     0.0000     4.0000 </r>
       <r>    -9.8316     0.0000     4.0000 </r>
       <r>    -9.7460     0.0000     4.0000 </r>
       <r>    -9.6604     0.0000     4.0000 </r>
       <r>    -9.5748     0.0000     4.0000 </r>
       <r>    -9.4892     0.0000     4.0000 </r>
       <r>    -9.4036     0.0000     4.0000 </r>
       <r>    -9.3180     0.0000     4.0000 </r>
       <r>    -9.2324     0.0000     4.0000 </r>
       <r>    -9.1468     0.0000     4.0000 </r>
       <r>    -9.0612     0.4977     4.0202 </r>
       <r>    -8.9756     1.0476     4.0854 </r>
       <r>    -8.8900     1.8343     4.2087 </r>
       <r>    -8.8044     2.6361     4.4086 </r>
       <r>    -8.7188     2.8523     4.6500 </r>
       <r>    -8.6332     3.7981     4.9698 </r>
       <r>    -8.5476     3.1149     5.2657 </r>
       <r>    -8.4620     5.4945     5.5480 </r>
       <r>    -8.3764     2.5932     5.9885 </r>
       <r>    -8.2908     5.2370     6.1902 </r>
       <r>    -8.2052     2.5269     6.5173 </r>
       <r>    -8.1196     1.3036     6.6466 </r>
       <r>    -8.0340     1.1729     6.7526 </r>
       <r>    -7.9484     1.0421     6.8474 </r>
       <r>    -7.8628     0.9114     6.9310 </r>
       <r>    -7.7772     0.8333     7.0043 </r>
       <r>    -7.6916     0.8406     7.0759 </r>
       <r>    -7.6060     0.8478     7.1482 </r>
       <r>    -7.5204     0.8551     7.2211 </r>
       <r>    -7.4348     2.1159     7.3183 </r>
       <r>    -7.3492     5.0586     7.6254 </r>
       <r>    -7.2636     5.1428     8.1677 </r>
       <r>    -7.1780     4.8976     8.5943 </r>
       <r>    -7.0924     3.0335     8.9338 </r>
       <r>    -7.0068     1.3341     9.1165 </r>
       <r>    -6.9212     1.1690     9.2229 </r>
       <r>    -6.8356     1.0731     9.3188 </r>
       <r>    -6.7500     0.9772     9.4066 </r>
       <r>    -6.6644     0.8813     9.4861 </r>
       <r>    -6.5788    17.5596    10.1960 </r>
       <r>    -6.4932     3.6104    10.6807 </r>
       <r>    -6.4076     2.1820    10.9313 </r>
       <r>    -6.3220     2.1753    11.2138 </r>
       <r>    -6.2364     1.8155    11.3755 </r>
       <r>    -6.1508     1.7031    11.5261 </r>
       <r>    -6.0652     1.5907    11.6671 </r>
       <r>    -5.9796     4.3521    11.8695 </r>
       <r>    -5.8940     2.2517    12.0887 </r>
       <r>    -5.8084     1.5420    12.2600 </r>
       <r>    -5.7228     0.8739    12.3483 </r>
       <r>    -5.6372     0.8669    12.4228 </r>
       <r>    -5.5516     0.8598    12.4967 </r>
       <r>    -5.4660     0.8527    12.5700 </r>
       <r>    -5.3804     4.5403    12.8045 </r>
       <r>    -5.2948     8.7334    13.3887 </r>
       <r>    -5.2092     6.2320    14.0586 </r>
       <r>    -5.1236     1.6779    14.3720 </r>
       <r>    -5.0380     1.4881    14.5067 </r>
       <r>    -4.9524     1.4415    14.6321 </r>
       <r>    -4.8668     1.5074    14.7558 </r>
       <r>    -4.7812     1.6908    14.8927 </r>
       <r>    -4.6956     5.6701    15.1148 </r>
       <r>    -4.6100     2.7883    15.4769 </r>
       <r>    -4.5244     2.2783    15.6798 </r>
       <r>    -4.4388     2.3011    15.8891 </r>
       <r>    -4.3532     0.2844    15.9981 </r>
       <r>    -4.2676     2.0585    16.0714 </r>
       <r>    -4.1820     4.0616    16.3748 </r>
       <r>    -4.0964     3.6202    16.7003 </r>
       <r>    -4.0108     3.2834    16.9965 </r>
       <r>    -3.9252     3.0004    17.2629 </r>
       <r>    -3.8396     2.0160    17.4633 </r>
       <r>    -3.7540     1.7033    17.6225 </r>
       <r>    -3.6684     1.3905    17.7549 </r>
       <r>    -3.5828     1.0777    17.8605 </r>
       <r>    -3.4972     0.5926    17.9830 </r>
       <r>    -3.4116     0.0000    18.0000 </r>
       <r>    -3.3260     0.0000    18.0000 </r>
       <r>    -3.2404     0.0000    18.0000 </r>
       <r>    -3.1548     0.0000    18.0000 </r>
       <r>    -3.0692     0.0000    18.0000 </r>
       <r>    -2.9836     0.0000    18.0000 </r>
       <r>    -2.8980     0.0000    18.0000 </r>
       <r>    -2.8124     0.0000    18.0000 </r>
       <r>    -2.7268     0.0000    18.0000 </r>
       <r>    -2.6412     0.0000    18.0000 </r>
       <r>    -2.5556     0.0000    18.0000 </r>
       <r>    -2.4700     0.0000    18.0000 </r>
       <r>    -2.3844     0.0000    18.0000 </r>
       <r>    -2.2988     0.0000    18.0000 </r>
       <r>    -2.2132     0.0000    18.0000 </r>
       <r>    -2.1276     0.0000    18.0000 </r>
       <r>    -2.0420     0.0000    18.0000 </r>
       <r>    -1.9564     0.0000    18.0000 </r>
       <r>    -1.8708     0.0000    18.0000 </r>
       <r>    -1.7852     0.0000    18.0000 </r>
       <r>    -1.6996     0.0000    18.0000 </r>
       <r>    -1.6140     0.0000    18.0000 </r>
       <r>    -1.5284     0.7773    18.0814 </r>
       <r>    -1.4428     1.0020    18.1576 </r>
       <r>    -1.3572     6.8703    18.5558 </r>
       <r>    -1.2716     8.0760    19.2253 </r>
       <r>    -1.1860     0.9083    19.7398 </r>
       <r>    -1.1004     0.7537    19.8110 </r>
       <r>    -1.0148     6.0069    20.0651 </r>
       <r>    -0.9292     5.2054    20.6762 </r>
       <r>    -0.8436     4.5675    21.1078 </r>
       <r>    -0.7580     4.9883    21.5167 </r>
       <r>    -0.6724     3.7919    21.9792 </r>
       <r>    -0.5868     2.8645    22.2620 </r>
       <r>    -0.5012     2.0674    22.4718 </r>
       <r>    -0.4156     2.6271    22.6890 </r>
       <r>    -0.3300     3.0684    22.9250 </r>
       <r>    -0.2444     2.0522    23.1477 </r>
       <r>    -0.1588     2.5523    23.3447 </r>
       <r>    -0.0732     2.0099    23.5799 </r>
       <r>     0.0123     1.9494    23.7494 </r>
       <r>     0.0979     1.8889    23.9136 </r>
       <r>     0.1835     2.1874    24.0828 </r>
       <r>     0.2691     1.7294    24.2504 </r>
       <r>     0.3547     1.4442    24.3883 </r>
       <r>     0.4403     1.0414    24.4947 </r>
       <r>     0.5259     1.0046    24.5780 </r>
       <r>     0.6115     1.1013    24.6682 </r>
       <r>     0.6971     1.1979    24.7666 </r>
       <r>     0.7827     5.5776    25.0340 </r>
       <r>     0.8683     1.9801    25.4448 </r>
       <r>     0.9539     1.6404    25.5998 </r>
       <r>     1.0395     1.3008    25.7257 </r>
       <r>     1.1251     1.0817    25.8236 </r>
       <r>     1.2107     1.2791    25.9247 </r>
       <r>     1.2963     0.0000    26.0000 </r>
       <r>     1.3819     0.0000    26.0000 </r>
       <r>     1.4675     0.0000    26.0000 </r>
       <r>     1.5531     0.0000    26.0000 </r>
       <r>     1.6387     0.0000    26.0000 </r>
       <r>     1.7243     0.0000    26.0000 </r>
       <r>     1.8099     0.0000    26.0000 </r>
       <r>     1.8955     0.0000    26.0000 </r>
       <r>     1.9811     0.0394    26.0006 </r>
       <r>     2.0667     0.1586    26.0090 </r>
       <r>     2.1523     0.2777    26.0277 </r>
       <r>     2.2379     0.3969    26.0566 </r>
       <r>     2.3235     0.3161    26.0949 </r>
       <r>     2.4091     0.3355    26.1228 </r>
       <r>     2.4947     0.3550    26.1524 </r>
       <r>     2.5803     0.3745    26.1836 </r>
       <r>     2.6659     0.3940    26.2165 </r>
       <r>     2.7515     0.4135    26.2510 </r>
       <r>     2.8371     0.4669    26.2877 </r>
       <r>     2.9227     0.6039    26.3336 </r>
       <r>     3.0083     0.7132    26.3900 </r>
       <r>     3.0939     0.8225    26.4557 </r>
       <r>     3.1795     0.9490    26.5310 </r>
       <r>     3.2651     1.1118    26.6192 </r>
       <r>     3.3507     1.6710    26.7241 </r>
       <r>     3.4363     1.7286    26.8696 </r>
       <r>     3.5219     1.7863    27.0200 </r>
       <r>     3.6075     2.1636    27.2119 </r>
       <r>     3.6931     2.2143    27.3992 </r>
       <r>     3.7787     2.1521    27.5903 </r>
       <r>     3.8643     1.4116    27.7428 </r>
       <r>     3.9499     1.3036    27.8530 </r>
       <r>     4.0355     0.8089    27.9434 </r>
       <r>     4.1211     0.3143    27.9915 </r>
       <r>     4.2067     0.0000    28.0000 </r>
       <r>     4.2923     0.0000    28.0000 </r>
       <r>     4.3779     0.0000    28.0000 </r>
       <r>     4.4635     0.0000    28.0000 </r>
       <r>     4.5491     0.0000    28.0000 </r>
       <r>     4.6347     0.0000    28.0000 </r>
       <r>     4.7203     0.0000    28.0000 </r>
       <r>     4.8059     0.0000    28.0000 </r>
       <r>     4.8915     0.0000    28.0000 </r>
       <r>     4.9771     0.0000    28.0000 </r>
       <r>     5.0627     0.0000    28.0000 </r>
       <r>     5.1483     0.0000    28.0000 </r>
       <r>     5.2339     0.0000    28.0000 </r>
       <r>     5.3195     0.0000    28.0000 </r>
       <r>     5.4051     0.0000    28.0000 </r>
       <r>     5.4907     0.0000    28.0000 </r>
       <r>     5.5763     0.0000    28.0000 </r>
       <r>     5.6619     0.0000    28.0000 </r>
       <r>     5.7475     0.0000    28.0000 </r>
       <r>     5.8331     0.0000    28.0000 </r>
       <r>     5.9187     0.0000    28.0000 </r>
       <r>     6.0043     0.0000    28.0000 </r>
       <r>     6.0899     0.0000    28.0000 </r>
       <r>     6.1755     0.0000    28.0000 </r>
      </set>
     </set>
    </array>
   </total>
  </dos>
 </calculation>
 <structure name="finalpos" >
  <crystal>
   <varray name="basis" >
    <v>       3.19031573       0.00000000       0.00000000 </v>
    <v>      -1.59515786       2.76289447       0.00000000 </v>
    <v>       0.00000000       0.00000000      26.87900430 </v>
   </varray>
   <i name="volume">    236.92513614 </i>
   <varray name="rec_basis" >
    <v>       0.31344860       0.18096963       0.00000000 </v>
    <v>       0.00000000       0.36193927       0.00000000 </v>
    <v>       0.00000000       0.00000000       0.03720376 </v>
   </varray>
  </crystal>
  <varray name="positions" >
   <v>       0.33333300       0.66666700       0.13838872 </v>
   <v>       0.66666700       0.33333300       0.08016914 </v>
   <v>       0.66666600       0.33333300       0.19660830 </v>
  </varray>
 </structure>
</modeling>
