unknown system                          
   1.00000000000000     
     3.190316    0.000000    0.000000
    -1.595158    2.762894    0.000000
     0.000000    0.000000   20.879004
   Mo   S 
     1     2
Direct
  0.333333  0.666667  0.178157
  0.666667  0.333333  0.103207
  0.666666  0.333333  0.253108
 
   24   24  168
 0.28767     0.29188     0.30333     0.32314     0.35322     0.39311     0.43957     0.48866     0.53686     0.58099    
 0.61798     0.64342     0.65123     0.63810     0.60889     0.57355     0.53686     0.49528     0.44617     0.39558    
 0.35321     0.32308     0.30313     0.29131     0.29169     0.29206     0.30252     0.32351     0.35640     0.40164    
 0.45788     0.52201     0.58843     0.64991     0.70123     0.74056     0.76475     0.76639     0.74030     0.69213    
 0.63502     0.57776     0.52039     0.46170     0.40573     0.35881     0.32425     0.30212     0.30343     0.29666    
 0.30307     0.32384     0.35890     0.40710     0.46829     0.54211     0.62413     0.70505     0.77537     0.83005    
 0.86768     0.88555     0.87766     0.83943     0.77448     0.69515     0.61475     0.53990     0.47109     0.40928    
 0.35877     0.32349     0.32427     0.30804     0.30589     0.32249     0.35889     0.41025     0.47446     0.55398    
 0.64665     0.74260     0.83135     0.90563     0.95883     0.98645     0.98956     0.96941     0.92103     0.84150    
 0.74234     0.64335     0.55482     0.47564     0.40696     0.35574     0.35321     0.32769     0.31440     0.32019    
 0.35322     0.40710     0.47343     0.55604     0.65779     0.76664     0.86859     0.96019      1.0360      1.0808    
  1.0879      1.0701      1.0360     0.97472     0.87885     0.76558     0.65778     0.56021     0.47079     0.39879    
 0.38754     0.35250     0.33054     0.32138     0.34266     0.39516     0.46211     0.54229     0.64810     0.77149    
 0.88719     0.98828      1.0827      1.1574      1.1854      1.1679      1.1307      1.0794     0.99641     0.88258    
 0.76411     0.65483     0.54907     0.45329     0.42803     0.37781     0.35111     0.33027     0.33302     0.37664    
 0.44368     0.51763     0.61489     0.74556     0.88005     0.99084      1.0895      1.1864      1.2519      1.2584    
  1.2235      1.1731      1.0986     0.98725     0.86071     0.74465     0.63319     0.51963     0.47847     0.40404    
 0.37006     0.34524     0.33007     0.35539     0.41989     0.49229     0.57376     0.69311     0.84036     0.96985    
  1.0703      1.1677      1.2579      1.3017      1.2897      1.2500      1.1888      1.0860     0.95133     0.82350    
 0.71083     0.59269     0.53686     0.43619     0.38508     0.35924     0.33455     0.33602     0.38752     0.46293    
 0.53686     0.63335     0.77314     0.92088      1.0360      1.1299      1.2223      1.2892      1.3034      1.2812    
  1.2416      1.1641      1.0360     0.89452     0.77418     0.65997     0.59140     0.47549     0.40028     0.36708    
 0.34173     0.32447     0.35031     0.41939     0.49568     0.57620     0.69249     0.84042     0.97516      1.0795    
  1.1725      1.2500      1.2818      1.2693      1.2417      1.1938      1.0946     0.95500     0.82270     0.70961    
 0.62943     0.51443     0.42043     0.37098     0.34561     0.32252     0.32258     0.36862     0.44103     0.51631    
 0.61008     0.73893     0.87782     0.99617      1.0982      1.1892      1.2428      1.2422      1.2132      1.1763    
  1.1085     0.99188     0.85741     0.73955     0.64786     0.54216     0.44350     0.37707     0.34448     0.32322    
 0.31135     0.33075     0.38435     0.45229     0.53142     0.63654     0.76146     0.88011     0.98529      1.0853    
  1.1649      1.1942      1.1755      1.1373      1.0840     0.99502     0.87466     0.75475     0.65123     0.55332    
 0.46100     0.38706     0.34247     0.31897     0.30632     0.31122     0.34246     0.39410     0.45975     0.54537    
 0.65123     0.75970     0.85727     0.94932      1.0360      1.0951      1.1077      1.0827      1.0360     0.96563    
 0.86738     0.75639     0.64254     0.55010     0.46615     0.39565     0.34417     0.31241     0.29711     0.29747    
 0.31499     0.34872     0.39765     0.46515     0.55248     0.64943     0.74094     0.82168     0.89468     0.95618    
 0.99286     0.99543     0.96587     0.90996     0.83207     0.73930     0.62036     0.53705     0.45970     0.39662    
 0.34808     0.31139     0.28871     0.28350     0.29358     0.31444     0.34689     0.39563     0.46213     0.54231    
 0.62824     0.70921     0.77553     0.82468     0.85953     0.87802     0.87097     0.83367     0.77329     0.70048    
 0.58398     0.51616     0.44688     0.38953     0.34820     0.31544     0.28929     0.27686     0.27974     0.29132    
 0.31032     0.34259     0.38909     0.44553     0.51219     0.58880     0.66166     0.71291     0.74144     0.75820    
 0.76306     0.74440     0.70093     0.64503     0.53686     0.48714     0.43080     0.37894     0.34248     0.31701    
 0.29488     0.28005     0.27776     0.28282     0.29119     0.30981     0.34246     0.38067     0.42048     0.47176    
 0.53686     0.59664     0.63303     0.65006     0.65779     0.65153     0.62383     0.58199     0.48504     0.45102    
 0.41101     0.36863     0.33573     0.31482     0.29848     0.28585     0.28250     0.28572     0.28825     0.29474    
 0.31560     0.34639     0.37337     0.39792     0.43399     0.48136     0.52238     0.54671     0.55899     0.56104    
 0.54686     0.51802     0.43459     0.41221     0.38748     0.35868     0.33286     0.31580     0.30382     0.29373    
 0.28990     0.29341     0.29607     0.29510     0.30134     0.32224     0.34810     0.36704     0.38254     0.40420    
 0.43052     0.45294     0.46845     0.47678     0.47357     0.45713     0.39000     0.37645     0.36323     0.34811    
 0.33332     0.32352     0.31778     0.31205     0.30783     0.30934     0.31337     0.31239     0.30786     0.31035    
 0.32450     0.34318     0.35823     0.36909     0.37862     0.38798     0.39742     0.40595     0.40908     0.40286    
 0.35322     0.34709     0.34215     0.33792     0.33453     0.33435     0.33784     0.34143     0.34248     0.34312    
 0.34570     0.34714     0.34247     0.33264     0.32507     0.32596     0.33455     0.34480     0.35116     0.35279    
 0.35322     0.35562     0.35859     0.35811     0.32423     0.32422     0.32595     0.33028     0.33693     0.34616    
 0.35871     0.37334     0.38610     0.39369     0.39666     0.39762     0.39614     0.38799     0.37102     0.35032    
 0.33501     0.32959     0.33031     0.33051     0.32785     0.32484     0.32388     0.32423     0.30322     0.30721    
 0.31431     0.32591     0.34204     0.36124     0.38260     0.40626     0.43070     0.45100     0.46219     0.46414    
 0.46089     0.45439     0.44109     0.41700     0.38497     0.35437     0.33308     0.32137     0.31429     0.30821    
 0.30348     0.30177     0.29110     0.29645     0.30686     0.32383     0.34839     0.37878     0.41186     0.44593    
 0.48029     0.51239     0.53670     0.54774     0.54454     0.53162     0.51408     0.49187     0.46073     0.42008    
 0.37746     0.34298     0.32034     0.30607     0.29632     0.29096     0.38114     0.38836     0.40877     0.44364    
 0.49486     0.56135     0.63846     0.72015     0.80029     0.87295     0.93247     0.97237     0.98510     0.96674    
 0.92282     0.86502     0.80027     0.72719     0.64549     0.56399     0.49486     0.44359     0.40856     0.38775    
 0.38814     0.38853     0.40731     0.44472     0.50173     0.57797     0.67066     0.77455     0.88122     0.98014    
  1.0629      1.1251      1.1615      1.1632      1.1248      1.0533     0.96436     0.86995     0.77287     0.67470    
 0.58226     0.50426     0.44552     0.40692     0.40886     0.39675     0.40850     0.44507     0.50563     0.58785    
 0.69001     0.80973     0.93978      1.0674      1.1793      1.2668      1.3258      1.3513      1.3363      1.2768    
  1.1784      1.0570     0.92987     0.80735     0.69292     0.59012     0.50550     0.44470     0.44483     0.41582    
 0.41357     0.44297     0.50433     0.59113     0.69938     0.82953     0.97688      1.1281      1.2687      1.3872    
  1.4728      1.5175      1.5208      1.4840      1.4035      1.2794      1.1278     0.97336     0.83039     0.70062    
 0.58768     0.50100     0.49486     0.44775     0.42680     0.43981     0.49486     0.58370     0.69536     0.83165    
 0.99317      1.1645      1.3275      1.4746      1.5954      1.6694      1.6862      1.6581      1.5954      1.4900    
  1.3384      1.1634     0.99318     0.83609     0.69261     0.57492     0.55548     0.48937     0.45098     0.44129    
 0.47897     0.56355     0.67512     0.80984     0.97835      1.1696      1.3539      1.5201      1.6716      1.7894    
  1.8399      1.8213      1.7611      1.6682      1.5287      1.3490      1.1618     0.98551     0.81706     0.66581    
 0.62628     0.53539     0.48316     0.45286     0.46400     0.53417     0.64289     0.76997     0.93002      1.1312    
  1.3396      1.5228      1.6882      1.8410      1.9437      1.9623      1.9136      1.8269      1.6978      1.5190    
  1.3192      1.1303     0.94939     0.77206     0.70936     0.58515     0.51670     0.47343     0.45734     0.50114    
 0.60195     0.72408     0.86576      1.0548      1.2782      1.4848      1.6585      1.8212      1.9618      2.0326    
  2.0199      1.9534      1.8435      1.6751      1.4652      1.2604      1.0736     0.88575     0.80027     0.64222    
 0.54824     0.49552     0.46063     0.47089     0.55078     0.67051     0.80027     0.96262      1.1770      1.4034    
  1.5954      1.7602      1.9123      2.0194      2.0471      2.0109      1.9328      1.7965      1.5954      1.3754    
  1.1781     0.99080     0.88394     0.70578     0.58068     0.51300     0.46915     0.45088     0.49523     0.60087    
 0.72709     0.86779      1.0537      1.2779      1.4901      1.6680      1.8262      1.9534      2.0115      1.9983    
  1.9446      1.8487      1.6840      1.4687      1.2591      1.0718     0.94458     0.76573     0.61735     0.52716    
 0.47626     0.44356     0.45190     0.52470     0.63917     0.76769     0.92405      1.1233      1.3365      1.5278    
  1.6971      1.8439      1.9341      1.9452      1.9027      1.8302      1.7080      1.5233      1.3149      1.1240    
 0.97707     0.80870     0.65432     0.54310     0.47939     0.44161     0.42905     0.46491     0.55090     0.66368    
 0.79733     0.96505      1.1579      1.3455      1.5163      1.6742      1.7974      1.8493      1.8294      1.7681    
  1.6727      1.5266      1.3398      1.1508     0.98510     0.82768     0.68108     0.56112     0.48176     0.43647    
 0.41605     0.42824     0.48176     0.56862     0.67979     0.81926     0.98510      1.1561      1.3147      1.4627    
  1.5954      1.6848      1.7075      1.6717      1.5954      1.4800      1.3255      1.1526     0.97142     0.82429    
 0.68942     0.57430     0.48693     0.42998     0.40158     0.40189     0.43259     0.49172     0.57643     0.68834    
 0.82679     0.97875      1.1255      1.2580      1.3756      1.4703      1.5249      1.5276      1.4806      1.3918    
  1.2690      1.1237     0.93493     0.80330     0.67974     0.57533     0.49227     0.42936     0.39022     0.37947    
 0.39527     0.43254     0.49104     0.57427     0.68225     0.80887     0.94335      1.0714      1.1794      1.2616    
  1.3179      1.3442      1.3300      1.2711      1.1771      1.0621     0.87605     0.76752     0.65794     0.56377    
 0.49114     0.43357     0.39001     0.36868     0.37171     0.39217     0.42823     0.48525     0.56324     0.65646    
 0.76338     0.88119     0.99255      1.0757      1.1269      1.1556      1.1607      1.1300      1.0631     0.97502    
 0.80029     0.71805     0.62834     0.54516     0.48177     0.43472     0.39665     0.37204     0.36659     0.37494    
 0.39281     0.42721     0.48176     0.54690     0.61740     0.70184     0.80027     0.88992     0.94924     0.98052    
 0.99317     0.98198     0.93948     0.87449     0.71639     0.65789     0.59201     0.52472     0.47019     0.43206    
 0.40298     0.38197     0.37461     0.37796     0.38444     0.39908     0.43296     0.48142     0.52967     0.57819    
 0.63992     0.71244     0.77494     0.81458     0.83483     0.83695     0.81470     0.77039     0.63326     0.59382    
 0.55072     0.50408     0.46280     0.43380     0.41345     0.39802     0.39145     0.39432     0.39788     0.39942    
 0.41085     0.44059     0.47886     0.51295     0.54558     0.58534     0.62887     0.66541     0.69017     0.70183    
 0.69552     0.66984     0.55808     0.53397     0.50943     0.48368     0.46023     0.44461     0.43585     0.42915    
 0.42513     0.42721     0.43142     0.42988     0.42473     0.42801     0.44562     0.47065     0.49446     0.51569    
 0.53623     0.55590     0.57349     0.58663     0.58991     0.57921     0.49486     0.48364     0.47368     0.46567    
 0.46062     0.46132     0.46799     0.47613     0.48177     0.48586     0.48980     0.49006     0.48176     0.46688    
 0.45450     0.45241     0.46063     0.47299     0.48322     0.48964     0.49486     0.50091     0.50533     0.50351    
 0.44479     0.44406     0.44614     0.45289     0.46465     0.48168     0.50414     0.52964     0.55265     0.56813    
 0.57538     0.57640     0.57075     0.55470     0.52722     0.49523     0.46984     0.45687     0.45292     0.45094    
 0.44790     0.44547     0.44513     0.44548     0.40865     0.41496     0.42671     0.44608     0.47356     0.50738    
 0.54564     0.58704     0.62822     0.66225     0.68233     0.68726     0.68096     0.66586     0.63923     0.59839    
 0.54812     0.50008     0.46407     0.44127     0.42667     0.41601     0.40892     0.40650     0.38752     0.39656    
 0.41459     0.44363     0.48499     0.53640     0.59344     0.65255     0.71088     0.76359     0.80293     0.82176    
 0.81837     0.79753     0.76536     0.72312     0.66821     0.60213     0.53501     0.47929     0.43997     0.41375    
 0.39638     0.38735     0.50437     0.51675     0.55229     0.61163     0.69568     0.80179     0.92317      1.0512    
  1.1765      1.2897      1.3815      1.4422      1.4621      1.4362      1.3712      1.2812      1.1765      1.0587    
 0.93068     0.80460     0.69570     0.61161     0.55207     0.51609     0.51652     0.51692     0.54916     0.61262    
 0.70675     0.82918     0.97485      1.1359      1.3008      1.4547      1.5847      1.6818      1.7370      1.7389    
  1.6815      1.5744      1.4379      1.2888      1.1342     0.97916     0.83371     0.70942     0.61348     0.54876    
 0.55238     0.53193     0.55201     0.61300     0.71225     0.84492      1.0068      1.1930      1.3935      1.5914    
  1.7679      1.9082      2.0022      2.0403      2.0134      1.9188      1.7669      1.5803      1.3830      1.1904    
  1.0098     0.84729     0.71210     0.61260     0.61291     0.56463     0.56224     0.61094     0.70948     0.84836    
  1.0206      1.2243      1.4526      1.6883      1.9116      2.1038      2.2452      2.3203      2.3238      2.2572    
  2.1212      1.9231      1.6880      1.4488      1.2252      1.0219     0.84470     0.70594     0.69570     0.61686    
 0.58468     0.60842     0.69569     0.83522      1.0124      1.2265      1.4766      1.7442      2.0064      2.2481    
  2.4490      2.5767      2.6120      2.5647      2.4490      2.2644      2.0178      1.7429      1.4766      1.2313    
  1.0095     0.82592     0.79558     0.68468     0.62258     0.61229     0.67365     0.80416     0.97957      1.1930    
  1.4540      1.7496      2.0456      2.3243      2.5796      2.7781      2.8721      2.8524      2.7480      2.5759    
  2.3335      2.0404      1.7413      1.4617      1.2008     0.96971     0.91025     0.76144     0.67275     0.62912    
 0.65239     0.76017     0.92796      1.1312      1.3831      1.6915      2.0191      2.3271      2.6147      2.8735    
  3.0485      3.0918      3.0165      2.8585      2.6249      2.3231      1.9974      1.6906      1.4037      1.1333    
  1.0397     0.84487     0.72746     0.65807     0.64093     0.71086     0.86276      1.0555      1.2845      1.5780    
  1.9218      2.2589      2.5656      2.8524      3.0913      3.2162      3.2027      3.0825      2.8762      2.5832    
  2.2381      1.9028      1.5980      1.3056      1.1765     0.93659     0.78177     0.69082     0.64170     0.66461    
 0.78442     0.96663      1.1765      1.4361      1.7655      2.1210      2.4491      2.7470      3.0152      3.2021    
  3.2577      3.1931      3.0370      2.7855      2.4490      2.0913      1.7666      1.4660      1.3014      1.0332    
 0.83688     0.71986     0.64963     0.63024     0.70100     0.85829      1.0557      1.2841      1.5749      1.9200    
  2.2637      2.5752      2.8575      3.0824      3.1937      3.1797      3.0730      2.8815      2.5922      2.2410    
  1.9000      1.5941      1.3943      1.1213     0.89435     0.74522     0.65713     0.61065     0.63126     0.74265    
 0.91756      1.1234      1.3724      1.6799      2.0136      2.3313      2.6236      2.8764      3.0383      3.0737    
  3.0050      2.8618      2.6351      2.3264      1.9906      1.6807      1.4472      1.1846     0.94826     0.77105    
 0.66081     0.59818     0.58482     0.64544     0.77943     0.95831      1.1726      1.4344      1.7332      2.0341    
  2.3190      2.5818      2.7865      2.8823      2.8612      2.7555      2.5803      2.3300      2.0280      1.7257    
  1.4621      1.2141     0.98606     0.79663     0.66365     0.58403     0.55133     0.57523     0.66365     0.80467    
 0.98472      1.2051      1.4621      1.7313      1.9905      2.2345      2.4491      2.5936      2.6352      2.5795    
  2.4490      2.2530      2.0019      1.7275      1.4412      1.2105     0.99816     0.81397     0.66924     0.57066    
 0.52011     0.52036     0.57331     0.67431     0.81626     0.99697      1.2131      1.4490      1.6823      1.8989    
  2.0915      2.2436      2.3295      2.3323      2.2545      2.1087      1.9106      1.6803      1.3840      1.1789    
 0.98468     0.81506     0.67488     0.56642     0.49753     0.47650     0.50278     0.56974     0.67361     0.81391    
 0.98726      1.1848      1.3931      1.5937      1.7680      1.9041      1.9961      2.0352      2.0089      1.9142    
  1.7656      1.5838      1.2929      1.1231     0.95216     0.79947     0.67365     0.57080     0.49354     0.45421    
 0.45739     0.49583     0.56523     0.66746     0.79884     0.95054      1.1188      1.2984      1.4679      1.6002    
  1.6870      1.7347      1.7401      1.6902      1.5868      1.4493      1.1765      1.0461     0.90606     0.77333    
 0.66365     0.57556     0.50424     0.45774     0.44477     0.46079     0.50025     0.56774     0.66365     0.77506    
 0.89442      1.0290      1.1765      1.3100      1.4036      1.4564      1.4766      1.4579      1.3932      1.2937    
  1.0473     0.95320     0.84889     0.74271     0.65109     0.57932     0.52155     0.47915     0.46044     0.46393    
 0.48171     0.51749     0.58035     0.66293     0.74786     0.83425     0.93419      1.0430      1.1364      1.1981    
  1.2300      1.2322      1.1982      1.1316     0.91774     0.85412     0.78435     0.71038     0.64285     0.58991    
 0.54863     0.51634     0.49880     0.49805     0.50551     0.51777     0.54590     0.59711     0.65984     0.71982    
 0.77899     0.84510     0.91296     0.96924      1.0069      1.0232      1.0125     0.97397     0.79834     0.75998    
 0.71970     0.67819     0.64015     0.61173     0.59205     0.57625     0.56551     0.56415     0.56856     0.57045    
 0.57155     0.58376     0.61279     0.65120     0.68971     0.72639     0.76231     0.79597     0.82441     0.84363    
 0.84706     0.83044     0.69568     0.67860     0.66266     0.64979     0.64170     0.64130     0.64829     0.65728    
 0.66365     0.66816     0.67235     0.67257     0.66365     0.64755     0.63399     0.63179     0.64170     0.65760    
 0.67282     0.68496     0.69569     0.70589     0.71193     0.70861     0.61286     0.61294     0.61745     0.62915    
 0.64873     0.67612     0.71045     0.74785     0.78116     0.80406     0.81513     0.81624     0.80690     0.78341    
 0.74530     0.70095     0.66351     0.64048     0.62919     0.62254     0.61701     0.61361     0.61307     0.61342    
 0.55216     0.56374     0.58461     0.61738     0.66253     0.71756     0.77904     0.84368     0.90593     0.95667    
 0.98734     0.99582     0.98593     0.96054     0.91763     0.85571     0.78165     0.70980     0.65244     0.61225    
 0.58455     0.56484     0.55245     0.54828     0.51585     0.53176     0.56333     0.61246     0.67999     0.76252    
 0.85371     0.94758      1.0386      1.1190      1.1785      1.2078      1.2041      1.1727      1.1209      1.0516    
 0.96423     0.86294     0.76103     0.67395     0.60860     0.56244     0.53152     0.51564     0.67277     0.69272    
 0.75025     0.84454     0.97462      1.1358      1.3192      1.5135      1.7056      1.8806      2.0229      2.1170    
  2.1484      2.1106      2.0119      1.8715      1.7056      1.5216      1.3273      1.1388     0.97465     0.84454    
 0.75002     0.69200     0.69247     0.69290     0.74404     0.84384     0.98948      1.1762      1.3969      1.6412    
  1.8937      2.1334      2.3390      2.4930      2.5790      2.5810      2.4926      2.3280      2.1155      1.8810    
  1.6395      1.4015      1.1811     0.99232     0.84475     0.74362     0.75037     0.71852     0.74996     0.84424    
 0.99642      1.1990      1.4458      1.7300      2.0383      2.3475      2.6290      2.8564      3.0083      3.0671    
  3.0203      2.8677      2.6280      2.3357      2.0271      1.7272      1.4490      1.2015     0.99625     0.84382    
 0.84592     0.77189     0.76932     0.84379     0.99236      1.2027      1.4656      1.7783      2.1315      2.5026    
  2.8615      3.1753      3.4093      3.5345      3.5383      3.4222      3.1939      2.8737      2.5022      2.1274    
  1.7792      1.4670      1.1988     0.98860     0.97465     0.85376     0.80688     0.84475     0.97464      1.1826    
  1.4516      1.7805      2.1676      2.5900      3.0152      3.4137      3.7466      3.9623      4.0280      3.9496    
  3.7466      3.4311      3.0274      2.5886      2.1676      1.7857      1.4486      1.1727      1.1292     0.95861    
 0.86559     0.85464     0.94689      1.1384      1.4019      1.7299      2.1329      2.5957      3.0755      3.5408    
  3.9663      4.2958      4.4602      4.4391      4.2636      3.9623      3.5505      3.0700      2.5869      2.1412    
  1.7383      1.3914      1.3055      1.0781     0.94150     0.88077     0.91978      1.0767      1.3244      1.6362    
  2.0273      2.5059      3.0287      3.5437      4.0322      4.4622      4.7525      4.8353      4.7184      4.4462    
  4.0431      3.5395      3.0056      2.5050      2.0493      1.6385      1.5014      1.2083      1.0256     0.92246    
 0.90413      1.0078      1.2273      1.5182      1.8765      2.3334      2.8722      3.4252      3.9513      4.4396    
  4.8350      5.0447      5.0304      4.8256      4.4650      3.9701      3.4030      2.8520      2.3546      1.8989    
  1.7056      1.3488      1.1115     0.97069     0.90352     0.94271      1.1143      1.3808      1.7056      2.1136    
  2.6266      3.1938      3.7466      4.2626      4.7169      5.0298      5.1292      5.0202      4.7402      4.3037    
  3.7466      3.1621      2.6277      2.1455      1.8930      1.4932      1.1988      1.0167     0.91287     0.89223    
 0.99668      1.2216      1.5171      1.8745      2.3285      2.8690      3.4291      3.9607      4.4446      4.8253    
  5.0208      5.0058      4.8152      4.4702      3.9789      3.4049      2.8476      2.3490      2.0366      1.6233    
  1.2866      1.0593     0.92375     0.86014     0.89621      1.0566      1.3113      1.6254      2.0132      2.4909    
  3.0204      3.5463      4.0404      4.4647      4.7416      4.8161      4.7061      4.4492      4.0527      3.5411    
  2.9959      2.4917      2.1223      1.7178      1.3658      1.1010     0.93170     0.83839     0.82413     0.91531    
  1.1100      1.3766      1.7049      2.1086      2.5749      3.0605      3.5332      3.9677      4.3047      4.4716    
  4.4491      4.2716      3.9661      3.5448      3.0540      2.5669      2.1484      1.7637      1.4205      1.1391    
 0.93874     0.81742     0.77008     0.80796     0.93874      1.1478      1.4192      1.7541      2.1484      2.5729    
  2.9958      3.3979      3.7466      3.9812      4.0540      3.9662      3.7466      3.4176      3.0079      2.5688    
  2.1158      1.7599      1.4385      1.1634     0.94759     0.79950     0.72323     0.72341     0.80219     0.95299    
  1.1659      1.4372      1.7627      2.1242      2.4934      2.8464      3.1622      3.4089      3.5463      3.5492    
  3.4204      3.1807      2.8589      2.4913      2.0255      1.7117      1.4191      1.1646     0.95461     0.79315    
 0.69074     0.65827     0.69617     0.79661     0.95330      1.1633      1.4217      1.7181      2.0353      2.3486    
  2.6292      2.8534      3.0043      3.0644      3.0178      2.8642      2.6267      2.3380      1.8839      1.6252    
  1.3700      1.1422     0.95223     0.79773     0.68352     0.62488     0.62820     0.68591     0.79190     0.94571    
  1.1414      1.3682      1.6207      1.8899      2.1474      2.3569      2.5012      2.5799      2.5855      2.5045    
  2.3428      2.1277      1.7056      1.5068      1.2991      1.1035     0.93874     0.80459     0.69773     0.62858    
 0.60795     0.63178     0.69359     0.79646     0.93874      1.1052      1.2866      1.4887      1.7056      1.9036    
  2.0491      2.1357      2.1676      2.1370      2.0380      1.8863      1.5095      1.3665      1.2116      1.0567    
 0.92139     0.81239     0.72470     0.66104     0.63141     0.63506     0.66373     0.72050     0.81358     0.93389    
  1.0621      1.1960      1.3463      1.5049      1.6417      1.7355      1.7843      1.7866      1.7355      1.6367    
  1.3135      1.2182      1.1142      1.0067     0.90856     0.82960     0.76726     0.71923     0.69204     0.68824    
 0.69902     0.72067     0.76439     0.83725     0.92659      1.0168      1.1086      1.2085      1.3083      1.3909    
  1.4459      1.4684      1.4518      1.3959      1.1322      1.0766      1.0173     0.95719     0.90274     0.86123    
 0.83182     0.80915     0.79406     0.79079     0.79538     0.79916     0.80411     0.82304     0.86237     0.91453    
 0.96953      1.0245      1.0790      1.1296      1.1711      1.1977      1.2013      1.1775     0.97462     0.95215    
 0.93072     0.91359     0.90353     0.90396     0.91425     0.92787     0.93874     0.94651     0.95202     0.95116    
 0.93874     0.91758     0.89907     0.89381     0.90352     0.92196     0.94158     0.95892     0.97464     0.98857    
 0.99608     0.99143     0.84586     0.84958     0.86014     0.88078     0.91250     0.95505      1.0068      1.0621    
  1.1117      1.1470      1.1647      1.1659      1.1501      1.1142      1.0594     0.99658     0.94156     0.90371    
 0.88085     0.86557     0.85392     0.84667     0.84433     0.84469     0.75012     0.77094     0.80683     0.86005    
 0.93059      1.0151      1.1087      1.2061      1.2989      1.3748      1.4218      1.4359      1.4204      1.3789    
  1.3114      1.2189      1.1114      1.0068     0.91983     0.85457     0.80675     0.77210     0.75043     0.74311    
 0.69176     0.71834     0.77049     0.84905     0.95361      1.0792      1.2177      1.3606      1.4990      1.6209    
  1.7113      1.7569      1.7531      1.7051      1.6228      1.5128      1.3783      1.2275      1.0776     0.94715    
 0.84494     0.76955     0.71807     0.69152     0.90418     0.93403      1.0204      1.1607      1.3524      1.5896    
  1.8623      2.1566      2.4538      2.7296      2.9566      3.1073      3.1586      3.1004      2.9447      2.7199    
  2.4539      2.1654      1.8709      1.5928      1.3524      1.1607      1.0201     0.93326     0.93377     0.93425    
  1.0095      1.1563      1.3704      1.6463      1.9764      2.3487      2.7420      3.1244      3.4591      3.7117    
  3.8515      3.8535      3.7113      3.4473      3.1054      2.7286      2.3469      1.9813      1.6514      1.3734    
  1.1572      1.0090      1.0205     0.97441      1.0201      1.1567      1.3785      1.6779      2.0494      2.4862    
  2.9703      3.4671      3.9296      4.3092      4.5631      4.6582      4.5759      4.3213      3.9286      3.4546    
  2.9583      2.4832      2.0528      1.6806      1.3783      1.1562      1.1622      1.0558      1.0530      1.1598    
  1.3734      1.6817      2.0778      2.5609      3.1193      3.7202      4.3139      4.8413      5.2386      5.4524    
  5.4565      5.2523      4.8612      4.3270      3.7196      3.1148      2.5617      2.0793      1.6776      1.3694    
  1.3524      1.1775      1.1124      1.1679      1.3524      1.6531      2.0556      2.5631      3.1751      3.8610    
  4.5694      5.2429      5.8080      6.1791      6.2989      6.1655      5.8081      5.2615      4.5824      3.8594    
  3.1751      2.5687      2.0524      1.6425      1.5825      1.3323      1.2000      1.1883      1.3198      1.5924    
  1.9818      2.4860      3.1206      3.8669      4.6659      5.4585      6.1833      6.7426      7.0310      7.0084    
  6.7082      6.1790      5.4689      4.6600      3.8575      3.1296      2.4950      1.9705      1.8476      1.5104    