unknown system                          
   1.00000000000000     
     3.190316    0.000000    0.000000
    -1.595158    2.762894    0.000000
     0.000000    0.000000   20.879004
   Mo   S 
     1     2
Direct
  0.333333  0.666667  0.178157
  0.666667  0.333333  0.103207
  0.666666  0.333333  0.253108
 
   24   24  168
 0.28766769203E+00 0.29188088775E+00 0.30332763740E+00 0.32314416896E+00 0.35322477534E+00
 0.39310642746E+00 0.43956579478E+00 0.48866319053E+00 0.53685688111E+00 0.58099063217E+00
 0.61797661062E+00 0.64342001081E+00 0.65123412703E+00 0.63809847265E+00 0.60888808778E+00
 0.57354934479E+00 0.53685744461E+00 0.49527999282E+00 0.44617158115E+00 0.39557988859E+00
 0.35321423700E+00 0.32308385661E+00 0.30312592743E+00 0.29131392314E+00 0.29168541235E+00
 0.29206431344E+00 0.30252366413E+00 0.32351284581E+00 0.35639992166E+00 0.40163702844E+00
 0.45788496277E+00 0.52201098109E+00 0.58843156890E+00 0.64990905893E+00 0.70123366763E+00
 0.74055913700E+00 0.76475429761E+00 0.76638679875E+00 0.74030497526E+00 0.69213071710E+00
 0.63502424789E+00 0.57776018137E+00 0.52038513294E+00 0.46170311134E+00 0.40573169270E+00
 0.35881057658E+00 0.32424996229E+00 0.30212475629E+00 0.30342618497E+00 0.29666357422E+00
 0.30306927281E+00 0.32384035613E+00 0.35889503712E+00 0.40710199502E+00 0.46829142129E+00
 0.54211162166E+00 0.62412597746E+00 0.70505121504E+00 0.77537174923E+00 0.83005432605E+00
 0.86768266556E+00 0.88554890069E+00 0.87765663138E+00 0.83942565381E+00 0.77448236777E+00
 0.69514501213E+00 0.61474634108E+00 0.53989785221E+00 0.47109327587E+00 0.40927580541E+00
 0.35876854040E+00 0.32349315257E+00 0.32427166057E+00 0.30803530907E+00 0.30588965512E+00
 0.32249011239E+00 0.35889140576E+00 0.41024580697E+00 0.47446445975E+00 0.55397519239E+00
 0.64664795916E+00 0.74259764124E+00 0.83134995577E+00 0.90563497102E+00 0.95882834024E+00
 0.98644762663E+00 0.98956358915E+00 0.96941079008E+00 0.92103125559E+00 0.84149610588E+00
 0.74233734005E+00 0.64334870956E+00 0.55482341183E+00 0.47563881209E+00 0.40695970164E+00
 0.35573765728E+00 0.35321422255E+00 0.32769255875E+00 0.31439981800E+00 0.32018850253E+00
 0.35321653789E+00 0.40710164343E+00 0.47343295656E+00 0.55604083411E+00 0.65778620371E+00
 0.76664021695E+00 0.86858731452E+00 0.96018604696E+00 0.10360331918E+01 0.10807744249E+01
 0.10879494583E+01 0.10701496718E+01 0.10360253996E+01 0.97471667217E+00 0.87884725200E+00
 0.76558245961E+00 0.65778345519E+00 0.56020654725E+00 0.47079303206E+00 0.39878926367E+00
 0.38754028911E+00 0.35249938508E+00 0.33054069415E+00 0.32137881201E+00 0.34266253282E+00
 0.39516165742E+00 0.46211048497E+00 0.54228608623E+00 0.64809627593E+00 0.77148810080E+00
 0.88719033448E+00 0.98827909774E+00 0.10826631516E+01 0.11573674748E+01 0.11854360751E+01
 0.11679328595E+01 0.11307075410E+01 0.10794414315E+01 0.99641469088E+00 0.88258197600E+00
 0.76411380176E+00 0.65483269394E+00 0.54906575230E+00 0.45329204911E+00 0.42803113501E+00
 0.37781206818E+00 0.35111288780E+00 0.33027009185E+00 0.33301823102E+00 0.37663741811E+00
 0.44367529061E+00 0.51762860819E+00 0.61489256745E+00 0.74555567134E+00 0.88004995363E+00
 0.99084314626E+00 0.10895426717E+01 0.11863586567E+01 0.12518648325E+01 0.12584292964E+01
 0.12234537217E+01 0.11730691105E+01 0.10985975212E+01 0.98724681706E+00 0.86070679704E+00
 0.74465342814E+00 0.63318704977E+00 0.51962834666E+00 0.47846695035E+00 0.40404354151E+00
 0.37005639812E+00 0.34524042755E+00 0.33007211579E+00 0.35538903010E+00 0.41988548580E+00
 0.49229405877E+00 0.57375989481E+00 0.69310814956E+00 0.84036193290E+00 0.96984815275E+00
 0.10702783622E+01 0.11676579691E+01 0.12579035189E+01 0.13017380754E+01 0.12897488498E+01
 0.12499887291E+01 0.11887538799E+01 0.10859583356E+01 0.95133269883E+00 0.82349523727E+00
 0.71082976468E+00 0.59268814536E+00 0.53685745223E+00 0.43619086935E+00 0.38507671381E+00
 0.35924050251E+00 0.33454896407E+00 0.33602374029E+00 0.38751666590E+00 0.46293362509E+00
 0.53685970520E+00 0.63334603641E+00 0.77314494052E+00 0.92088478055E+00 0.10360309082E+01
 0.11298544382E+01 0.12222562588E+01 0.12892326674E+01 0.13034186101E+01 0.12812413196E+01
 0.12415941703E+01 0.11640677278E+01 0.10360254327E+01 0.89452289063E+00 0.77418211849E+00
 0.65997334247E+00 0.59140067632E+00 0.47548932735E+00 0.40027560857E+00 0.36708040002E+00
 0.34172615874E+00 0.32446998159E+00 0.35031202755E+00 0.41938713850E+00 0.49568355907E+00
 0.57619534515E+00 0.69249157999E+00 0.84042009606E+00 0.97515935612E+00 0.10794783370E+01
 0.11725003380E+01 0.12500044402E+01 0.12817634182E+01 0.12693302752E+01 0.12417062590E+01
 0.11938237832E+01 0.10945719565E+01 0.95500388612E+00 0.82270264751E+00 0.70961057535E+00
 0.62943299064E+00 0.51443109031E+00 0.42043447414E+00 0.37097850571E+00 0.34561163042E+00
 0.32251772758E+00 0.32257805048E+00 0.36862203782E+00 0.44102726454E+00 0.51631048232E+00
 0.61007867593E+00 0.73892621432E+00 0.87781636497E+00 0.99617415573E+00 0.10982319814E+01
 0.11892233882E+01 0.12428011625E+01 0.12422187651E+01 0.12131795092E+01 0.11762682172E+01
 0.11084943624E+01 0.99187970193E+00 0.85741202361E+00 0.73954820400E+00 0.64785503901E+00
 0.54215777265E+00 0.44350380164E+00 0.37706714758E+00 0.34447997787E+00 0.32321592714E+00
 0.31135024894E+00 0.33075477135E+00 0.38435414535E+00 0.45229030026E+00 0.53142312340E+00
 0.63653541069E+00 0.76146193259E+00 0.88010532989E+00 0.98528933181E+00 0.10853165718E+01
 0.11649315810E+01 0.11942275704E+01 0.11754738513E+01 0.11373148173E+01 0.10839600684E+01
 0.99501636430E+00 0.87466408239E+00 0.75474520036E+00 0.65123416886E+00 0.55331595465E+00
 0.46100092119E+00 0.38705958128E+00 0.34246576456E+00 0.31896878329E+00 0.30632122419E+00
 0.31122432476E+00 0.34245788173E+00 0.39409525599E+00 0.45974917686E+00 0.54537017941E+00
 0.65123478191E+00 0.75969831348E+00 0.85727146148E+00 0.94931512095E+00 0.10360309486E+01
 0.10950843603E+01 0.11076831270E+01 0.10827098581E+01 0.10360332653E+01 0.96563350124E+00
 0.86738242052E+00 0.75638990874E+00 0.64253602119E+00 0.55009719168E+00 0.46615260317E+00
 0.39564934037E+00 0.34417322074E+00 0.31241492949E+00 0.29711164425E+00 0.29747292745E+00
 0.31499331684E+00 0.34872488377E+00 0.39764718792E+00 0.46515288473E+00 0.55247909708E+00
 0.64943256474E+00 0.74093851659E+00 0.82168474221E+00 0.89468021629E+00 0.95617574836E+00
 0.99285547006E+00 0.99543467247E+00 0.96587301435E+00 0.90996345545E+00 0.83206667308E+00
 0.73930364084E+00 0.62036050185E+00 0.53704924378E+00 0.45970089059E+00 0.39662397137E+00
 0.34808071296E+00 0.31138858774E+00 0.28870718550E+00 0.28350242365E+00 0.29357713302E+00
 0.31443538194E+00 0.34688666071E+00 0.39563487006E+00 0.46213307090E+00 0.54230798724E+00
 0.62823970898E+00 0.70921461290E+00 0.77552883451E+00 0.82467722274E+00 0.85952566988E+00
 0.87802246352E+00 0.87097120688E+00 0.83366610446E+00 0.77328817244E+00 0.70047687879E+00
 0.58398196066E+00 0.51615911689E+00 0.44687948455E+00 0.38953031184E+00 0.34819935575E+00
 0.31544099204E+00 0.28928558182E+00 0.27685611952E+00 0.27973553090E+00 0.29131812272E+00
 0.31031576695E+00 0.34259294142E+00 0.38909363966E+00 0.44552510133E+00 0.51219090445E+00
 0.58879878637E+00 0.66165793794E+00 0.71291254833E+00 0.74143611132E+00 0.75820064969E+00
 0.76306061671E+00 0.74440117093E+00 0.70093163726E+00 0.64503266692E+00 0.53685689886E+00
 0.48713797306E+00 0.43080366910E+00 0.37894120337E+00 0.34248067321E+00 0.31701177732E+00
 0.29488455422E+00 0.28005037083E+00 0.27775781871E+00 0.28281525928E+00 0.29119326342E+00
 0.30980629176E+00 0.34245786148E+00 0.38066863627E+00 0.42048238096E+00 0.47176120901E+00
 0.53685971537E+00 0.59664399233E+00 0.63303303348E+00 0.65006486064E+00 0.65778624169E+00
 0.65153121574E+00 0.62382574266E+00 0.58198906357E+00 0.48504327870E+00 0.45102219006E+00
 0.41101080940E+00 0.36862682980E+00 0.33573015615E+00 0.31481544955E+00 0.29848034842E+00
 0.28585443401E+00 0.28250148024E+00 0.28572395450E+00 0.28825065503E+00 0.29473703236E+00
 0.31559732536E+00 0.34638781511E+00 0.37337024905E+00 0.39791588269E+00 0.43399313369E+00
 0.48135753101E+00 0.52237682670E+00 0.54670574615E+00 0.55899186491E+00 0.56103954875E+00
 0.54685986472E+00 0.51801957838E+00 0.43458531327E+00 0.41221133417E+00 0.38747691139E+00
 0.35867662483E+00 0.33286238974E+00 0.31579833915E+00 0.30382459640E+00 0.29373212022E+00
 0.28990405834E+00 0.29340518568E+00 0.29607154283E+00 0.29509932873E+00 0.30134075096E+00
 0.32223509900E+00 0.34810343753E+00 0.36703505832E+00 0.38253618564E+00 0.40420075122E+00
 0.43051534704E+00 0.45294259730E+00 0.46845246262E+00 0.47678057724E+00 0.47357218485E+00
 0.45712816476E+00 0.38999521128E+00 0.37644606489E+00 0.36322561922E+00 0.34810865143E+00
 0.33332066670E+00 0.32351646530E+00 0.31778126114E+00 0.31205014106E+00 0.30782951015E+00
 0.30933845231E+00 0.31337149778E+00 0.31238551259E+00 0.30786462711E+00 0.31034818726E+00
 0.32450067333E+00 0.34317594641E+00 0.35823309872E+00 0.36909088178E+00 0.37862037198E+00
 0.38797671784E+00 0.39741948851E+00 0.40594678167E+00 0.40908492908E+00 0.40286315244E+00
 0.35322477661E+00 0.34708705258E+00 0.34214815155E+00 0.33792034820E+00 0.33452746184E+00
 0.33434780484E+00 0.33784288239E+00 0.34143416008E+00 0.34248066045E+00 0.34312395395E+00
 0.34569683848E+00 0.34714130796E+00 0.34246573159E+00 0.33263933926E+00 0.32506674254E+00
 0.32595892111E+00 0.33454896078E+00 0.34480108127E+00 0.35115868751E+00 0.35278622210E+00
 0.35321655360E+00 0.35561952309E+00 0.35859478934E+00 0.35811252224E+00 0.32423465260E+00
 0.32421574826E+00 0.32594709778E+00 0.33027746879E+00 0.33692674263E+00 0.34616353655E+00
 0.35871443911E+00 0.37333723751E+00 0.38610271036E+00 0.39368772161E+00 0.39666178665E+00
 0.39762385181E+00 0.39614298008E+00 0.38798976802E+00 0.37101630280E+00 0.35031955195E+00
 0.33501040959E+00 0.32959347567E+00 0.33030789385E+00 0.33050887543E+00 0.32784992628E+00
 0.32484403931E+00 0.32387817923E+00 0.32423184605E+00 0.30321955210E+00 0.30720701269E+00
 0.31431395793E+00 0.32590928319E+00 0.34204005713E+00 0.36124268350E+00 0.38260449900E+00
 0.40626258048E+00 0.43069557046E+00 0.45099907279E+00 0.46219283320E+00 0.46414028540E+00
 0.46089284550E+00 0.45438863807E+00 0.44108744891E+00 0.41699863880E+00 0.38496863175E+00
 0.35437164976E+00 0.33308053110E+00 0.32137280421E+00 0.31429171958E+00 0.30820575579E+00
 0.30347762075E+00 0.30176686274E+00 0.29109973685E+00 0.29644965860E+00 0.30685986985E+00
 0.32383079234E+00 0.34838998071E+00 0.37877612316E+00 0.41186417681E+00 0.44592680954E+00
 0.48028577048E+00 0.51238663301E+00 0.53670207146E+00 0.54773770010E+00 0.54454186201E+00
 0.53162008963E+00 0.51408395600E+00 0.49186521986E+00 0.46073029307E+00 0.42007545126E+00
 0.37746494295E+00 0.34298437381E+00 0.32034046911E+00 0.30606634112E+00 0.29631642814E+00
 0.29096036499E+00 0.38113879366E+00 0.38835551838E+00 0.40876720967E+00 0.44364203106E+00
 0.49486258048E+00 0.56134805793E+00 0.63845786561E+00 0.72014881474E+00 0.80029070137E+00
 0.87294845761E+00 0.93246582630E+00 0.97236774832E+00 0.98509652482E+00 0.96674018801E+00
 0.92281771538E+00 0.86501792429E+00 0.80027009476E+00 0.72718517797E+00 0.64549275829E+00
 0.56398541380E+00 0.49486066619E+00 0.44359024477E+00 0.40855616363E+00 0.38774732327E+00
 0.38814386591E+00 0.38853380376E+00 0.40731188046E+00 0.44472385870E+00 0.50173182133E+00
 0.57796640254E+00 0.67065694638E+00 0.77454518831E+00 0.88121918542E+00 0.98014375148E+00
 0.10629124739E+01 0.11250644626E+01 0.11614504363E+01 0.11631995745E+01 0.11248186973E+01
 0.10532579470E+01 0.96436415152E+00 0.86994891060E+00 0.77287183962E+00 0.67470255939E+00
 0.58226135436E+00 0.50425751423E+00 0.44551658676E+00 0.40691526621E+00 0.40886053771E+00
 0.39675079620E+00 0.40849786197E+00 0.44507261661E+00 0.50563336375E+00 0.58785231598E+00
 0.69001257444E+00 0.80972641157E+00 0.93978387331E+00 0.10674026400E+01 0.11792702941E+01
 0.12668302710E+01 0.13257760707E+01 0.13512985400E+01 0.13363446531E+01 0.12767658150E+01
 0.11783565203E+01 0.10569567338E+01 0.92987319279E+00 0.80734763503E+00 0.69291833602E+00
 0.59012398715E+00 0.50550387359E+00 0.44470338937E+00 0.44482762326E+00 0.41581973977E+00
 0.41356669137E+00 0.44296715334E+00 0.50432896294E+00 0.59113227840E+00 0.69937877555E+00
 0.82953031505E+00 0.97688165312E+00 0.11280877794E+01 0.12686783665E+01 0.13871718734E+01
 0.14727586441E+01 0.15175386091E+01 0.15208383201E+01 0.14839680825E+01 0.14034881368E+01
 0.12794407002E+01 0.11278138155E+01 0.97335729974E+00 0.83038958955E+00 0.70061642402E+00
 0.58767686775E+00 0.50099719164E+00 0.49486065175E+00 0.44774733973E+00 0.42679539755E+00
 0.43980557011E+00 0.49485609303E+00 0.58369517300E+00 0.69536482843E+00 0.83164735278E+00
 0.99317363572E+00 0.11645115374E+01 0.13275425442E+01 0.14746079165E+01 0.15954377532E+01
 0.16693530419E+01 0.16862141744E+01 0.16581136466E+01 0.15954301003E+01 0.14899688511E+01
 0.13383660587E+01 0.11633635601E+01 0.99317579864E+00 0.83609396154E+00 0.69261397567E+00
 0.57492306080E+00 0.55548460435E+00 0.48937232502E+00 0.45098217450E+00 0.44128556694E+00
 0.47896515170E+00 0.56355275806E+00 0.67511697635E+00 0.80983777612E+00 0.97835221976E+00
 0.11696118135E+01 0.13539113703E+01 0.15200835631E+01 0.16716292095E+01 0.17893660463E+01
 0.18398646928E+01 0.18213246480E+01 0.17611233595E+01 0.16682042123E+01 0.15286815881E+01
 0.13490151425E+01 0.11618045033E+01 0.98551495081E+00 0.81705818619E+00 0.66580523375E+00
 0.62627743652E+00 0.53538748529E+00 0.48315993898E+00 0.45286078751E+00 0.46400417601E+00
 0.53417018808E+00 0.64288808297E+00 0.76997472807E+00 0.93002355304E+00 0.11311969882E+01
 0.13396074112E+01 0.15227551171E+01 0.16882479464E+01 0.18409822319E+01 0.19436597607E+01
 0.19623004107E+01 0.19135612774E+01 0.18269033150E+01 0.16978486952E+01 0.15189710633E+01
 0.13191507281E+01 0.11302609192E+01 0.94939289364E+00 0.77205866568E+00 0.70936198575E+00
 0.58514535652E+00 0.51669559194E+00 0.47342964079E+00 0.45734422729E+00 0.50113664465E+00
 0.60195212743E+00 0.72408212372E+00 0.86576162654E+00 0.10548028657E+01 0.12782098077E+01
 0.14847875581E+01 0.16584927680E+01 0.18211668120E+01 0.19617903077E+01 0.20326110145E+01
 0.20199216065E+01 0.19534224611E+01 0.18435167931E+01 0.16751071740E+01 0.14652039169E+01
 0.12603801073E+01 0.10735701950E+01 0.88574919560E+00 0.80027010239E+00 0.64221504745E+00
 0.54823923099E+00 0.49551703370E+00 0.46063381307E+00 0.47089190711E+00 0.55077865509E+00
 0.67051294721E+00 0.80027343640E+00 0.96261754217E+00 0.11769746784E+01 0.14033519689E+01
 0.15954401112E+01 0.17602189444E+01 0.19122916928E+01 0.20193734193E+01 0.20471255728E+01
 0.20109113517E+01 0.19327766016E+01 0.17964576307E+01 0.15954301335E+01 0.13754173230E+01
 0.11780521544E+01 0.99080106704E+00 0.88394071437E+00 0.70578215239E+00 0.58067937717E+00
 0.51300371470E+00 0.46915108352E+00 0.45087802511E+00 0.49523360597E+00 0.60086829161E+00
 0.72709143034E+00 0.86778720616E+00 0.10536670818E+01 0.12778660929E+01 0.14900793116E+01
 0.16679913692E+01 0.18261619394E+01 0.19533896790E+01 0.20114627543E+01 0.19982844882E+01
 0.19445873559E+01 0.18487482403E+01 0.16839782009E+01 0.14687021768E+01 0.12590527913E+01
 0.10717842103E+01 0.94458329458E+00 0.76572912455E+00 0.61734830108E+00 0.52716288556E+00
 0.47626270808E+00 0.44355932728E+00 0.45189809389E+00 0.52470416887E+00 0.63916819189E+00
 0.76769147971E+00 0.92404773996E+00 0.11233355386E+01 0.13365066333E+01 0.15278430445E+01
 0.16971082307E+01 0.18438750071E+01 0.19340572728E+01 0.19451768452E+01 0.19026788854E+01
 0.18301541839E+01 0.17079797549E+01 0.15232854485E+01 0.13148834855E+01 0.11240055384E+01
 0.97706924857E+00 0.80869667097E+00 0.65431979422E+00 0.54310264706E+00 0.47939167916E+00
 0.44160515574E+00 0.42905266242E+00 0.46490725535E+00 0.55090109067E+00 0.66368476455E+00
 0.79733044938E+00 0.96505368540E+00 0.11579423238E+01 0.13455069908E+01 0.15163042853E+01
 0.16741656862E+01 0.17973814558E+01 0.18493190573E+01 0.18294434913E+01 0.17681168024E+01
 0.16727403685E+01 0.15266302664E+01 0.13397597864E+01 0.11508476532E+01 0.98509656665E+00
 0.82768270578E+00 0.68108351641E+00 0.56112163242E+00 0.48176355859E+00 0.43647441599E+00
 0.41604889121E+00 0.42824201699E+00 0.48175873353E+00 0.56861788492E+00 0.67978511148E+00
 0.81926313413E+00 0.98510248903E+00 0.11560918590E+01 0.13147410534E+01 0.14626779694E+01
 0.15954401516E+01 0.16847945645E+01 0.17074632773E+01 0.16716514775E+01 0.15954378267E+01
 0.14799998791E+01 0.13254717091E+01 0.11525753454E+01 0.97141517204E+00 0.82429195734E+00
 0.68942140372E+00 0.57429540752E+00 0.48692964978E+00 0.42998235920E+00 0.40158119805E+00
 0.40189090700E+00 0.43259469272E+00 0.49171874055E+00 0.57643152840E+00 0.68834396385E+00
 0.82678911367E+00 0.97875480249E+00 0.11254978686E+01 0.12579906938E+01 0.13755659436E+01
 0.14703364729E+01 0.15249174687E+01 0.15276317612E+01 0.14805971083E+01 0.13917814012E+01
 0.12689926458E+01 0.11237153263E+01 0.93493019430E+00 0.80330276650E+00 0.67974091960E+00
 0.57532681412E+00 0.49226878219E+00 0.42936400955E+00 0.39021580808E+00 0.37947007624E+00
 0.39527143272E+00 0.43254138003E+00 0.49103598897E+00 0.57426918279E+00 0.68224948229E+00
 0.80886924851E+00 0.94334897260E+00 0.10713801322E+01 0.11794390492E+01 0.12615963889E+01
 0.13179277750E+01 0.13442008482E+01 0.13300069133E+01 0.12711255309E+01 0.11771103571E+01
 0.10620992974E+01 0.87604930142E+00 0.76752294651E+00 0.65793673016E+00 0.56376619402E+00
 0.49113586632E+00 0.43357181315E+00 0.39000878635E+00 0.36868057163E+00 0.37170858482E+00
 0.39216962670E+00 0.42823080864E+00 0.48524581404E+00 0.56324013538E+00 0.65645658673E+00
 0.76338094545E+00 0.88118970843E+00 0.99255183340E+00 0.10757269295E+01 0.11268864718E+01
 0.11555907549E+01 0.11606706414E+01 0.11299512499E+01 0.10630921058E+01 0.97502001541E+00
 0.80029071913E+00 0.71805200532E+00 0.62833864226E+00 0.54516032025E+00 0.48177422309E+00
 0.43472375695E+00 0.39664885811E+00 0.37203923248E+00 0.36658951531E+00 0.37494015523E+00
 0.39280708634E+00 0.42721489695E+00 0.48175871329E+00 0.54690444474E+00 0.61740263196E+00
 0.70183626440E+00 0.80027344657E+00 0.88991723117E+00 0.94923889470E+00 0.98052065711E+00
 0.99317367370E+00 0.98197669251E+00 0.93947952197E+00 0.87449026931E+00 0.71638890775E+00
 0.65789065075E+00 0.59200650681E+00 0.52472400572E+00 0.47018898442E+00 0.43206435294E+00
 0.40298477177E+00 0.38196686599E+00 0.37461170408E+00 0.37796079926E+00 0.38443974387E+00
 0.39908360341E+00 0.43296067096E+00 0.48141567064E+00 0.52967381635E+00 0.57818558210E+00
 0.63991958626E+00 0.71243832355E+00 0.77494438283E+00 0.81457865086E+00 0.83482919952E+00
 0.83694712328E+00 0.81469609088E+00 0.77038873701E+00 0.63325978497E+00 0.59381574853E+00
 0.55072038188E+00 0.50407839971E+00 0.46279621538E+00 0.43379789088E+00 0.41344705139E+00
 0.39801510732E+00 0.39145076309E+00 0.39431934661E+00 0.39787824132E+00 0.39941885477E+00
 0.41085081885E+00 0.44059144776E+00 0.47886175643E+00 0.51294665418E+00 0.54558057570E+00
 0.58533868419E+00 0.62887086292E+00 0.66540643761E+00 0.69016673535E+00 0.70182590867E+00
 0.69551505368E+00 0.66984376071E+00 0.55808264329E+00 0.53396907111E+00 0.50943131709E+00
 0.48367513180E+00 0.46023375148E+00 0.44461015617E+00 0.43585357023E+00 0.42915036557E+00
 0.42512593398E+00 0.42720555965E+00 0.43141967696E+00 0.42987567193E+00 0.42473041282E+00
 0.42801072321E+00 0.44561503040E+00 0.47064676476E+00 0.49445994145E+00 0.51569444762E+00
 0.53622589932E+00 0.55589792477E+00 0.57348800852E+00 0.58662948010E+00 0.58990800741E+00
 0.57920889626E+00 0.49486258175E+00 0.48364447732E+00 0.47367610904E+00 0.46567051890E+00
 0.46062080730E+00 0.46132149895E+00 0.46799430717E+00 0.47612657264E+00 0.48177421033E+00
 0.48585736007E+00 0.48980443094E+00 0.49005991280E+00 0.48176352563E+00 0.46688495723E+00
 0.45449714385E+00 0.45240597649E+00 0.46063380978E+00 0.47298975339E+00 0.48321950812E+00
 0.48964364009E+00 0.49485610874E+00 0.50091391660E+00 0.50532899942E+00 0.50351295761E+00
 0.44479444107E+00 0.44406241677E+00 0.44613610504E+00 0.45289167769E+00 0.46464525057E+00
 0.48167677426E+00 0.50413572871E+00 0.52963633496E+00 0.55264511097E+00 0.56813407491E+00
 0.57538414411E+00 0.57640043200E+00 0.57075260612E+00 0.55469871750E+00 0.52722019737E+00
 0.49523333447E+00 0.46983599278E+00 0.45687349497E+00 0.45291810423E+00 0.45093876671E+00
 0.44789973133E+00 0.44547161060E+00 0.44512995442E+00 0.44547973188E+00 0.40864632947E+00
 0.41496005509E+00 0.42670741657E+00 0.44607877573E+00 0.47355521971E+00 0.50737562400E+00
 0.54564316526E+00 0.58703684164E+00 0.62821774871E+00 0.66224727480E+00 0.68232613390E+00
 0.68725905819E+00 0.68096264581E+00 0.66585856594E+00 0.63923474711E+00 0.59839242485E+00
 0.54811835402E+00 0.50008213492E+00 0.46406550157E+00 0.44127163348E+00 0.42667450423E+00
 0.41601380766E+00 0.40892312137E+00 0.40649869142E+00 0.38751848511E+00 0.39655597922E+00
 0.41458735353E+00 0.44363238741E+00 0.48498511221E+00 0.53639744547E+00 0.59344303245E+00
 0.65254827525E+00 0.71088256303E+00 0.76358506495E+00 0.80293003546E+00 0.82175687929E+00
 0.81836708224E+00 0.79753061137E+00 0.76535643151E+00 0.72312250362E+00 0.66821146318E+00
 0.60213153366E+00 0.53501480134E+00 0.47928910396E+00 0.43996855662E+00 0.41374531492E+00
 0.39637809139E+00 0.38734790894E+00 0.50437082576E+00 0.51674910233E+00 0.55228674200E+00
 0.61163333402E+00 0.69568030370E+00 0.80178513274E+00 0.92317297634E+00 0.10511749017E+01
 0.11765165344E+01 0.12896961709E+01 0.13814708400E+01 0.14422197884E+01 0.14620799274E+01
 0.14362310323E+01 0.13711799274E+01 0.12812239623E+01 0.11764954333E+01 0.10586951415E+01
 0.93068155833E+00 0.80459859856E+00 0.69570110916E+00 0.61161317662E+00 0.55207171984E+00
 0.51608755615E+00 0.51651633029E+00 0.51692112036E+00 0.54916011661E+00 0.61262010418E+00
 0.70674973307E+00 0.82917812402E+00 0.97484799599E+00 0.11359256301E+01 0.13007708451E+01
 0.14547195947E+01 0.15847097953E+01 0.16817917528E+01 0.17369962504E+01 0.17388667290E+01
 0.16815341422E+01 0.15744181778E+01 0.14379301080E+01 0.12888341217E+01 0.11342110213E+01
 0.97916437030E+00 0.83371432666E+00 0.70941688300E+00 0.61347887161E+00 0.54876292859E+00
 0.55238479309E+00 0.53192752186E+00 0.55200933273E+00 0.61299891342E+00 0.71224672528E+00
 0.84492119979E+00 0.10067709176E+01 0.11929896759E+01 0.13934772083E+01 0.15913562505E+01
 0.17678688895E+01 0.19082474056E+01 0.20021997396E+01 0.20403026585E+01 0.20134424029E+01
 0.19188230815E+01 0.17669249789E+01 0.15802912768E+01 0.13829597303E+01 0.11904270190E+01
 0.10097966960E+01 0.84729446420E+00 0.71210042119E+00 0.61260236807E+00 0.61290726656E+00
 0.56463006556E+00 0.56224298392E+00 0.61094040609E+00 0.70948003806E+00 0.84836265769E+00
 0.10205966892E+01 0.12243482075E+01 0.14525504776E+01 0.16882773293E+01 0.19116387959E+01
 0.21037736691E+01 0.22452350522E+01 0.23203024896E+01 0.23238286364E+01 0.22571937737E+01
 0.21211572725E+01 0.19230893913E+01 0.16879578391E+01 0.14487506871E+01 0.12252138307E+01
 0.10218942956E+01 0.84469509568E+00 0.70594100514E+00 0.69570109471E+00 0.61685871208E+00
 0.58467789334E+00 0.60841778546E+00 0.69568938277E+00 0.83521732574E+00 0.10123536921E+01
 0.12265065632E+01 0.14765822261E+01 0.17442065584E+01 0.20063551171E+01 0.22481278582E+01
 0.24490408515E+01 0.25766665736E+01 0.26119942590E+01 0.25647340099E+01 0.24490407234E+01
 0.22644339675E+01 0.20178110387E+01 0.17429471680E+01 0.14765918997E+01 0.12312828458E+01
 0.10094836364E+01 0.82592244703E+00 0.79557731846E+00 0.68467819775E+00 0.62257512150E+00
 0.61228561695E+00 0.67364722958E+00 0.80415538398E+00 0.97956547445E+00 0.11930113729E+01
 0.14540177162E+01 0.17495706354E+01 0.20455702134E+01 0.23243227751E+01 0.25795554432E+01
 0.27780617478E+01 0.28721210569E+01 0.28523783537E+01 0.27479732217E+01 0.25758764715E+01
 0.23334624251E+01 0.20403763012E+01 0.17412889952E+01 0.14616765956E+01 0.12007535785E+01
 0.96971434250E+00 0.91025051892E+00 0.76143981410E+00 0.67274649710E+00 0.62911593761E+00
 0.65238715493E+00 0.76017232771E+00 0.92795757156E+00 0.11311615410E+01 0.13831215428E+01
 0.16915272413E+01 0.20190879386E+01 0.23271271299E+01 0.26147279640E+01 0.28734747900E+01
 0.30485456194E+01 0.30918428858E+01 0.30165323093E+01 0.28584956394E+01 0.26249439769E+01
 0.23231358919E+01 0.19973799904E+01 0.16905571919E+01 0.14037038480E+01 0.11333345412E+01
 0.10397281379E+01 0.84487076189E+00 0.72746259910E+00 0.65806853205E+00 0.64092779991E+00
 0.71086344432E+00 0.86276216245E+00 0.10554841708E+01 0.12844627358E+01 0.15780144390E+01
 0.19217574467E+01 0.22589238270E+01 0.25655634157E+01 0.28523660361E+01 0.30913340103E+01
 0.32161609511E+01 0.32027123792E+01 0.30825134467E+01 0.28761573912E+01 0.25832116986E+01
 0.22381038674E+01 0.19028282756E+01 0.15979530117E+01 0.13056193742E+01 0.11764954409E+01
 0.93658844158E+00 0.78177253814E+00 0.69081923574E+00 0.64169955876E+00 0.66460959810E+00
 0.78442468485E+00 0.96663493672E+00 0.11764964931E+01 0.14361123027E+01 0.17655016727E+01
 0.21210360520E+01 0.24490532566E+01 0.27470079333E+01 0.30151814410E+01 0.32021294713E+01
 0.32577353024E+01 0.31931360521E+01 0.30369633513E+01 0.27855378474E+01 0.24490407566E+01
 0.20913198634E+01 0.17666119139E+01 0.14660446758E+01 0.13013591365E+01 0.10331672538E+01
 0.83688032989E+00 0.71985674856E+00 0.64963356632E+00 0.63023680630E+00 0.70099503995E+00
 0.85828724861E+00 0.10557002717E+01 0.12841082983E+01 0.15748800130E+01 0.19200384340E+01
 0.22636876558E+01 0.25752101502E+01 0.28575455075E+01 0.30824444165E+01 0.31937213067E+01
 0.31796693048E+01 0.30730129846E+01 0.28815348008E+01 0.25922323030E+01 0.22409632706E+01
 0.18999932113E+01 0.15941245937E+01 0.13943250466E+01 0.11213000064E+01 0.89435460307E+00
 0.74522212744E+00 0.65713018807E+00 0.61065208870E+00 0.63126297526E+00 0.74265086627E+00
 0.91756248586E+00 0.11233508231E+01 0.13724427341E+01 0.16799222775E+01 0.20136077570E+01
 0.23312863613E+01 0.26235808657E+01 0.28763754216E+01 0.30383265611E+01 0.30736722742E+01
 0.30049694867E+01 0.28617945398E+01 0.26351393795E+01 0.23264280140E+01 0.19906103945E+01
 0.16806576771E+01 0.14472069678E+01 0.11846149668E+01 0.94825812890E+00 0.77105371598E+00
 0.66081374793E+00 0.59817563042E+00 0.58482439688E+00 0.64543765147E+00 0.77943457561E+00
 0.95831063507E+00 0.11725527708E+01 0.14343989314E+01 0.17332373691E+01 0.20341480173E+01
 0.23190051894E+01 0.25817589011E+01 0.27865272036E+01 0.28823089679E+01 0.28611936369E+01
 0.27554540831E+01 0.25802794207E+01 0.23299843106E+01 0.20280214923E+01 0.17257090889E+01
 0.14620799692E+01 0.12140823041E+01 0.98605832355E+00 0.79663334441E+00 0.66365375109E+00
 0.58402618544E+00 0.55133315577E+00 0.57522502569E+00 0.66365003021E+00 0.80466985334E+00
 0.98472138778E+00 0.12051246025E+01 0.14620918151E+01 0.17312958608E+01 0.19904626371E+01
 0.22345180979E+01 0.24490532971E+01 0.25935648552E+01 0.26351590127E+01 0.25795423504E+01
 0.24490409251E+01 0.22529754073E+01 0.20018866788E+01 0.17275330965E+01 0.14411820144E+01
 0.12105099975E+01 0.99815872801E+00 0.81396577961E+00 0.66924479303E+00 0.57065686381E+00
 0.52011079612E+00 0.52035927416E+00 0.57330924245E+00 0.67431244096E+00 0.81625513007E+00
 0.99697032363E+00 0.12131212159E+01 0.14490231966E+01 0.16822653429E+01 0.18988654531E+01
 0.20914549452E+01 0.22436052034E+01 0.23294702169E+01 0.23323062461E+01 0.22544532069E+01
 0.21087161815E+01 0.19105905158E+01 0.16803251873E+01 0.13840066818E+01 0.11789111827E+01
 0.98468065317E+00 0.81506109434E+00 0.67488361634E+00 0.56642052822E+00 0.49753308155E+00
 0.47650105455E+00 0.50278159040E+00 0.56973956038E+00 0.67360966622E+00 0.81391204906E+00
 0.98725723237E+00 0.11848339826E+01 0.13930520330E+01 0.15937099099E+01 0.17680375172E+01
 0.19040957542E+01 0.19961211111E+01 0.20352436831E+01 0.20088909601E+01 0.19142382093E+01
 0.17656461779E+01 0.15838333126E+01 0.12929027878E+01 0.11231467052E+01 0.95215976954E+00
 0.79947420734E+00 0.67365432891E+00 0.57080216963E+00 0.49353709603E+00 0.45420509787E+00
 0.45738628429E+00 0.49582633152E+00 0.56522767826E+00 0.66745746833E+00 0.79884204530E+00
 0.95054135531E+00 0.11188389781E+01 0.12984263363E+01 0.14678622508E+01 0.16001880872E+01
 0.16870154141E+01 0.17347322578E+01 0.17400500809E+01 0.16901898614E+01 0.15868444056E+01
 0.14493312418E+01 0.11765165521E+01 0.10460982975E+01 0.90605565232E+00 0.77332688225E+00
 0.66365127142E+00 0.57555774588E+00 0.50424106016E+00 0.45774037687E+00 0.44476785454E+00
 0.46078542225E+00 0.50024577024E+00 0.56774130380E+00 0.66365000996E+00 0.77506439529E+00
 0.89441738596E+00 0.10289593810E+01 0.11764965032E+01 0.13100354925E+01 0.14035526021E+01
 0.14564332836E+01 0.14765822641E+01 0.14578621461E+01 0.13931641578E+01 0.12937363569E+01
 0.10472701155E+01 0.95319894322E+00 0.84888826324E+00 0.74271151076E+00 0.65108611277E+00
 0.57931914881E+00 0.52155152735E+00 0.47915189356E+00 0.46044130989E+00 0.46392705310E+00
 0.48171113904E+00 0.51749228910E+00 0.58035463202E+00 0.66292889630E+00 0.74786093061E+00
 0.83424727577E+00 0.93418681277E+00 0.10430325138E+01 0.11363716126E+01 0.11981278391E+01
 0.12299648853E+01 0.12321576817E+01 0.11981997721E+01 0.11315920681E+01 0.91773658676E+00
 0.85412005004E+00 0.78435136971E+00 0.71037632988E+00 0.64284902006E+00 0.58991156758E+00
 0.54862643035E+00 0.51634144603E+00 0.49880465620E+00 0.49804896702E+00 0.50550529752E+00
 0.51776771745E+00 0.54589677446E+00 0.59710559490E+00 0.65984448671E+00 0.71982493463E+00
 0.77898829651E+00 0.84510044549E+00 0.91296294280E+00 0.96923892740E+00 0.10069172901E+01
 0.10231960715E+01 0.10125204049E+01 0.97397150416E+00 0.79834264208E+00 0.75997789852E+00
 0.71969632208E+00 0.67818596995E+00 0.64014520620E+00 0.61173461776E+00 0.59204878530E+00
 0.57624628293E+00 0.56550950627E+00 0.56415306703E+00 0.56855773399E+00 0.57045097950E+00
 0.57154927468E+00 0.58375724685E+00 0.61278933018E+00 0.65120393077E+00 0.68971044022E+00
 0.72638798265E+00 0.76230957731E+00 0.79596608074E+00 0.82441173066E+00 0.84362607192E+00