    3    3    1    1
  0.6134603E+02  0.3190316E-09  0.3190316E-09  0.2087900E-08  0.5000000E-15
  1.000000000000000E-004
  CAR 
 unknown system                          
     18     10     14
 
  0.0000000E+00  0.0000000E+00  0.0000000E+00  0.1562500E-01
    1      -16.753643   1.000000
    2      -15.545320   1.000000
    3       -8.263175   1.000000
    4       -5.301649   1.000000
    5       -5.301388   1.000000
    6       -4.441265   1.000000
    7       -4.194701   1.000000
    8       -4.194232   1.000000
    9       -2.719444   1.000000
   10        0.054439   0.000000
   11        0.055223   0.000000
   12        0.276617   0.000000
   13        0.277310   0.000000
   14        2.661415   0.000000
 
  0.1250000E+00  0.0000000E+00  0.0000000E+00  0.9375000E-01
    1      -16.539575   1.000000
    2      -15.442848   1.000000
    3       -8.018216   1.000000
    4       -5.765816   1.000000
    5       -5.248338   1.000000
    6       -5.067423   1.000000
    7       -4.530722   1.000000
    8       -3.762673   1.000000
    9       -2.857960   1.000000
   10       -0.227485   0.000000
   11       -0.161102   0.000000
   12        0.040094   0.000000
   13        0.408856   0.000000
   14        3.022035   0.000000
 
  0.2500000E+00  0.0000000E+00  0.0000000E+00  0.9375000E-01
    1      -15.971033   1.000000
    2      -15.173965   1.000000
    3       -7.652824   1.000000
    4       -6.494198   1.000000
    5       -6.230586   1.000000
    6       -5.167080   1.000000
    7       -4.481260   1.000000
    8       -4.015186   1.000000
    9       -3.426763   1.000000
   10       -0.552163   0.000000
   11       -0.377031   0.000000
   12        0.166348   0.000000
   13        1.024183   0.000000
   14        3.854269   0.000000
 
  0.3750000E+00 -0.5551115E-16  0.0000000E+00  0.9375000E-01
    1      -15.296124   1.000000
    2      -14.865382   1.000000
    3       -8.092005   1.000000
    4       -7.099520   1.000000
    5       -6.625561   1.000000
    6       -5.666107   1.000000
    7       -4.424314   1.000000
    8       -3.891723   1.000000
    9       -3.620869   1.000000
   10       -0.559649   0.000000
   11       -0.279772   0.000000
   12        0.884703   0.000000
   13        1.415966   0.000000
   14        4.441467   0.000000
 
  0.5000000E+00  0.0000000E+00  0.0000000E+00  0.4687500E-01
    1      -14.967820   1.000000
    2      -14.722021   1.000000
    3       -8.424851   1.000000
    4       -7.465265   1.000000
    5       -6.750692   1.000000
    6       -5.846040   1.000000
    7       -4.562351   1.000000
    8       -3.664336   1.000000
    9       -3.339243   1.000000
   10       -0.537871   0.000000
   11       -0.023243   0.000000
   12        1.184811   0.000000
   13        1.532476   0.000000
   14        3.487178   0.000000
 
  0.1250000E+00  0.1250000E+00  0.0000000E+00  0.9375000E-01
    1      -16.146927   1.000000
    2      -15.255775   1.000000
    3       -7.671210   1.000000
    4       -6.331545   1.000000
    5       -5.811860   1.000000
    6       -5.344991   1.000000
    7       -4.728634   1.000000
    8       -3.628233   1.000000
    9       -3.231110   1.000000
   10       -0.627249   0.000000
   11       -0.249650   0.000000
   12       -0.237673   0.000000
   13        1.003046   0.000000
   14        3.616479   0.000000
 
  0.2500000E+00  0.1250000E+00  0.0000000E+00  0.1875000E+00
    1      -15.513508   1.000000
    2      -14.957084   1.000000
    3       -7.735286   1.000000
    4       -6.757504   1.000000
    5       -6.494277   1.000000
    6       -5.850289   1.000000
    7       -4.629751   1.000000
    8       -3.991123   1.000000
    9       -3.514623   1.000000
   10       -0.710805   0.000000
   11       -0.264183   0.000000
   12        0.232860   0.000000
   13        1.508646   0.000000
   14        4.619739   0.000000
 
  0.3750000E+00  0.1250000E+00  0.0000000E+00  0.1875000E+00
    1      -14.983127   1.000000
    2      -14.713131   1.000000
    3       -8.137298   1.000000
    4       -7.521305   1.000000
    5       -6.623131   1.000000
    6       -5.867836   1.000000
    7       -4.614385   1.000000
    8       -4.472235   1.000000
    9       -3.187850   1.000000
   10       -0.518944   0.000000
   11       -0.008706   0.000000
   12        0.856624   0.000000
   13        1.542696   0.000000
   14        4.012228   0.000000
 
  0.2500000E+00  0.2500000E+00  0.0000000E+00  0.9375000E-01
    1      -14.998138   1.000000
    2      -14.704225   1.000000
    3       -7.776442   1.000000
    4       -7.571012   1.000000
    5       -6.297050   1.000000
    6       -5.916003   1.000000
    7       -5.596903   1.000000
    8       -4.339231   1.000000
    9       -3.217728   1.000000
   10       -0.569867   0.000000
   11        0.041946   0.000000
   12        0.358613   0.000000
   13        1.826948   0.000000
   14        4.843265   0.000000
 
  0.3750000E+00  0.2500000E+00  0.0000000E+00  0.9375000E-01
    1      -14.763159   1.000000
    2      -14.585202   1.000000
    3       -7.955970   1.000000
    4       -7.607204   1.000000
    5       -6.580654   1.000000
    6       -5.918759   1.000000
    7       -5.690269   1.000000
    8       -4.724983   1.000000
    9       -2.850318   1.000000
   10       -0.896151   0.000000
   11        0.419213   0.000000
   12        0.591242   0.000000
   13        1.969912   0.000000
   14        4.256207   0.000000
