unknown system                          
   1.00000000000000     
     3.190316    0.000000    0.000000
    -1.595158    2.762894    0.000000
     0.000000    0.000000   20.879004
   Mo   S 
     1     2
Direct
  0.333333  0.666667  0.178157
  0.666667  0.333333  0.103207
  0.666666  0.333333  0.253108
 
   12   12   84
 0.22200E-02 0.10114E-01 0.33697     0.57724E-03 0.78192     0.15304E-01 0.48167E-02 0.28475E-02 0.90013E-02 0.41330E-03
 0.19956E-01 0.60064E-02 0.32291E-02 0.15486E-02 0.14315E-02 0.27086E-02 0.16464E-01 0.76768E-02 0.68854E-01 0.41275E-02
 0.22318     0.32330E-02 0.21633E-02 0.32647E-02 0.66810E-03 0.33196E-02 0.22998E-02 0.16799E-02 0.22810E-01 0.13815E-01
 0.80423E-02 0.12618E-01 0.16174E-01 0.99935E-02 0.44323E-01 0.10282E-01 0.11642E-02 0.15550E-03 0.11639E-02 0.34938E-02
 0.42874E-02 0.20120E-02 0.10092E-01 0.34084E-02 0.51213E-01 0.12467     0.38789E-01 0.13532E-02 0.22767E-01 0.67323E-02
 0.19130E-02 0.60487E-03 0.29637E-01 0.14058E-01 0.15363E-01 0.65112E-01 0.14042     0.79144E-02 0.91602E-01 0.29747E-01
 0.12683E-02 0.10378E-02 0.10234E-03 0.10179E-03 0.35111E-03 0.18176E-01 0.12346E-01 0.12711     0.84564E-02 0.84460E-02
 0.46136E-02 0.96907E-02 0.35333E-01 0.24443E-02 0.82715E-03 0.74484E-04 0.11499E-02 0.18563E-01 0.53514E-01 0.82968E-01
 0.63285E-01 0.40831E-02 0.46365E-01 0.15987E-01 0.89796E-02 0.99902     0.50764E-03 0.16338E-03 0.10636E-02 0.14229E-02
 0.52548E-01 0.23520E-02 0.11554E-01 0.55286E-02 0.10311E-01 0.79248     0.90261E-02 0.33581     0.23086     0.22786E-03
 0.87316E-02 0.57340E-03 0.47106E-03 0.82397E-03 0.56239     0.16714E-02 0.99701     0.99358     0.10879E-01 0.61654E-03
 0.23313     0.97243E-02 0.14286E-02 0.10402E-03 0.24187E-03 0.84372E-04 0.66392E-02 0.76159E-02 0.80202     0.13358E-02
 0.15590E-02 0.14038     0.61482E-02 0.37177E-03 0.51885E-02 0.74158E-03 0.30351E-03 0.25308E-03 0.38758E-02 0.25184E-03
 0.14082E-01 0.99927     0.28486E-02 0.17570E-02 0.11247E-02 0.13666E-02 0.38151E-02 0.13503E-02 0.86512E-02 0.39246E-03
 0.38084E-01 0.48496E-03 0.59756E-03 0.22220E-02 0.35222E-02 0.75608E-02 0.24498E-01 0.38122E-02 0.17242     0.75649    
 0.29061E-01 0.62795E-01 0.26934E-01 0.27541E-02 0.12248     0.63488E-02 0.47030E-02 0.32045E-02 0.53934E-02 0.78366E-01
 0.63339E-01 0.56460E-01 0.91003     0.37398E-01 0.79355     0.66762E-01 0.11342E-01 0.86670E-02 0.25555E-02 0.21455    
 0.59366E-02 0.99547E-02 0.80566E-01 0.27024     0.92265E-01 0.13938     0.15094     0.77922E-01 0.11349     0.62941    
 0.23549E-01 0.71080E-03 0.76043E-01 0.12257E-01 0.10081     0.21110E-01 0.11734     0.60001E-01 0.26996     0.71226    
 0.64501     0.11051E-01 0.96692     0.70891E-02 0.65121E-01 0.27390E-02 0.50411E-01 0.39192     0.14744     0.30573    
 0.99852     0.14070     0.65886     0.10954     0.10015E-01 0.26394E-01 0.46182E-03 0.14053E-02 0.21657E-02 0.71667    
 0.87580E-01 0.72328     0.15036     0.80185E-01 0.62424E-01 0.17695     0.95488     0.10148E-01 0.18937     0.27451E-03
 0.98473     0.24456E-01 0.10529     0.93205     0.56160     0.55966E-01 0.47615     0.11015     0.43588E-01 0.63937E-01
 0.16020E-02 0.77537E-02 0.93983E-03 0.28450E-02 0.16292     0.15980E-01 0.65386E-01 0.95931E-01 0.82483E-01 0.57205    
 0.34340E-01 0.74960E-01 0.83028E-02 0.46955E-03 0.16757E-02 0.51809E-01 0.14176E-02 0.19371E-01 0.23279     0.13098E-01
 0.30578     0.32766     0.97816     0.28336E-02 0.81029E-02 0.68324E-02 0.73540E-02 0.29171E-03 0.13492E-01 0.39928E-03
 0.78050E-01 0.62404     0.12889     0.83454E-02 0.48823E-02 0.19220E-01 0.45695E-02 0.12219E-02 0.48251E-02 0.10166    
 0.11385E-02 0.57021E-02 0.30768E-02 0.10123E-02 0.12974E-01 0.44876E-01 0.44199E-02 0.30725E-02 0.28995E-02 0.64753E-01
 0.10516E-01 0.70085E-02 0.74266     0.24081E-02 0.63753E-01 0.11573E-01 0.16038E-02 0.38463E-02 0.40078E-02 0.77970E-02
 0.25874E-01 0.17133E-01 0.21535     0.66784     0.13698     0.83972     0.80249E-01 0.12899E-01 0.43825E-01 0.73291E-02
 0.63619E-02 0.52915E-02 0.15547E-01 0.93097     0.17848     0.22730     0.77108     0.18738     0.62249     0.89128    
 0.43896E-01 0.20269E-01 0.79796E-02 0.17175E-01 0.13423E-01 0.41775E-01 0.23038     0.96719     0.33696     0.99556    
 0.38908     0.28043     0.26251     0.46235     0.93687     0.26801E-02 0.57376E-01 0.33971E-01 0.99365     0.13413    
 0.98276     0.28613     0.96687     0.64423     0.86077     0.61116E-01 0.40065     0.15181E-01 0.14046E-01 0.95024E-02
 0.11392     0.92107     0.38785     0.95517     0.72422     0.40022     0.88050     0.28011     0.58206E-01 0.92995    
 0.20620E-02 0.47039E-01 0.11105E-01 0.76516     0.29473     0.63979     0.40993     0.94448     0.28238     0.99992    
 0.58839     0.47960E-01 0.16788     0.13399E-02 0.95100E-01 0.79251E-01 0.26821     0.78585     0.90094     0.27003    
 0.90572     0.33574     0.16019     0.14033     0.87090E-02 0.98724     0.37411E-02 0.13844E-01 0.23093     0.79408E-01
 0.22483     0.93713     0.29658     0.52761     0.10035     0.93003E-01 0.20573E-01 0.22293E-02 0.43509E-02 0.25952E-01
 0.63380E-02 0.71536     0.24522     0.69097E-01 0.36725     0.36757     0.17834     0.98824E-02 0.11627E-01 0.10003E-01
 0.12450E-01 0.15284E-02 0.14172     0.18469E-02 0.36942E-01 0.26823     0.15804     0.36807E-01 0.12228E-01 0.14767E-01
 0.71272E-02 0.42592E-02 0.15304E-01 0.54383     0.55105E-02 0.94211     0.55506E-02 0.33777E-02 0.20131E-01 0.43420E-01
 0.61853E-02 0.53015E-02 0.66200E-02 0.17049     0.33987E-01 0.37365E-01 0.34425     0.12067E-01 0.39505E-01 0.20460    
 0.36912E-02 0.57360E-02 0.57494E-02 0.10909E-01 0.35380E-01 0.51179E-01 0.29435     0.56224     0.36512     0.81227    
 0.17733     0.41121E-01 0.45933E-01 0.10652E-01 0.98419E-02 0.89092E-02 0.31755E-01 0.41203     0.36549     0.52137    
 0.78419     0.52778     0.70805     0.80358     0.11411     0.36078E-01 0.18541E-01 0.18569E-01 0.25185E-01 0.11474    
 0.45434     0.84238     0.70468     0.94197     0.72004     0.60335     0.46826     0.33440     0.33435     0.79301E-02
 0.39600E-01 0.71668E-01 0.74173     0.46978     0.94664     0.73080     0.93338     0.82818     0.81238     0.22055    
 0.38434     0.29479E-01 0.18873E-01 0.24429E-01 0.21232     0.78599     0.72331     0.92965     0.89009     0.78476    
 0.87522     0.53453     0.21258     0.30860     0.64974E-02 0.22923     0.36124E-01 0.62551     0.61097     0.82713    
 0.78943     0.97356     0.69038     0.88466     0.58925     0.11338     0.52780E-01 0.40177E-02 0.46163E-01 0.13665    
 0.46538     0.79744     0.87772     0.68252     0.87446     0.64212     0.35422     0.17974     0.18761E-01 0.22173E-01
 0.59431E-02 0.24000E-01 0.22563     0.24753     0.50246     0.91865     0.61804     0.65831     0.20836     0.11430    
 0.26599E-01 0.45447E-02 0.44480E-02 0.12111E-01 0.14540E-01 0.34703     0.31961     0.23558     0.51738     0.48756    
 0.15219     0.24792E-01 0.18474E-01 0.12125E-01 0.97295E-02 0.36970E-02 0.26254E-01 0.60208E-02 0.45314E-01 0.18738    
 0.21704     0.10581     0.24474E-01 0.21799E-01 0.13675E-01 0.10776E-01 0.23607E-01 0.72621E-01 0.13615E-01 0.69909E-01
 0.11718E-01 0.91575E-02 0.31879E-01 0.52637E-01 0.96990E-02 0.10198E-01 0.14391E-01 0.80825E-01 0.70195E-01 0.99972E-01
 0.24315     0.38085E-01 0.50993E-01 0.56053E-01 0.81816E-02 0.92383E-02 0.97114E-02 0.16494E-01 0.51941E-01 0.11864    
 0.41536     0.62492     0.58260     0.72033     0.32645     0.10162     0.61293E-01 0.16405E-01 0.15596E-01 0.14760E-01
 0.54265E-01 0.38686     0.55141     0.71350     0.82662     0.74541     0.77834     0.72351     0.22408     0.57605E-01
 0.35537E-01 0.24694E-01 0.43042E-01 0.23138     0.62962     0.84650     0.84495     0.91797     0.84622     0.77681    
 0.63486     0.37148     0.28196     0.17638E-01 0.46786E-01 0.13539     0.70398     0.72850     0.91963     0.88030    
 0.92982     0.88695     0.84031     0.45431     0.46875     0.55942E-01 0.27777E-01 0.54604E-01 0.35565     0.79665    
 0.84899     0.92847     0.92473     0.89276     0.89115     0.70990     0.44510     0.27665     0.16406E-01 0.93906E-01
 0.95758E-01 0.66531     0.77365     0.88584     0.89414     0.94214     0.85021     0.85968     0.66991     0.23013    
 0.69117E-01 0.11072E-01 0.66444E-01 0.24204     0.62670     0.83404     0.89039     0.84993     0.88864     0.78760    
 0.54512     0.27910     0.44959E-01 0.31209E-01 0.14937E-01 0.52010E-01 0.31307     0.46924     0.70150     0.87281    
 0.78310     0.75544     0.36003     0.17916     0.49247E-01 0.12488E-01 0.11942E-01 0.22535E-01 0.34501E-01 0.28722    
 0.43449     0.46705     0.65450     0.60968     0.19903     0.53736E-01 0.31829E-01 0.22398E-01 0.20089E-01 0.10955E-01
 0.33762E-01 0.15607E-01 0.70815E-01 0.22705     0.30393     0.22079     0.43055E-01 0.32843E-01 0.23328E-01 0.23551E-01
 0.46685E-01 0.87795E-01 0.33770E-01 0.62953E-01 0.21148E-01 0.19276E-01 0.49782E-01 0.70079E-01 0.15460E-01 0.17378E-01
 0.26311E-01 0.96070E-01 0.14025     0.21871     0.31215     0.98862E-01 0.81899E-01 0.54184E-01 0.14937E-01 0.14962E-01
 0.14995E-01 0.23863E-01 0.78907E-01 0.22342     0.54155     0.70444     0.71156     0.74891     0.48342     0.19976    
 0.89237E-01 0.23873E-01 0.23109E-01 0.22357E-01 0.88908E-01 0.44847     0.67509     0.81035     0.87195     0.84508    
 0.83446     0.74944     0.34843     0.91784E-01 0.61450E-01 0.31378E-01 0.70159E-01 0.36251     0.72738     0.87788    
 0.90574     0.93428     0.90471     0.85561     0.73004     0.45105     0.35216     0.31828E-01 0.61962E-01 0.22890    
 0.74489     0.83861     0.93423     0.93455     0.94821     0.92410     0.87749     0.62245     0.57741     0.10208    
 0.39159E-01 0.10731     0.50373     0.83839     0.90640     0.94758     0.95098     0.93779     0.91999     0.80451    
 0.61864     0.35554     0.32751E-01 0.93327E-01 0.19583     0.73290     0.85342     0.92478     0.93810     0.95150    
 0.91398     0.88564     0.74387     0.36296     0.10100     0.22186E-01 0.10090     0.36409     0.72887     0.87631    
 0.91906     0.91405     0.91818     0.86047     0.67531     0.39255     0.88817E-01 0.41276E-01 0.28021E-01 0.95810E-01
 0.41939     0.63057     0.80427     0.88765     0.85808     0.82271     0.51109     0.27959     0.84400E-01 0.24964E-01
 0.21905E-01 0.34780E-01 0.68177E-01 0.35780     0.55564     0.63125     0.73935     0.70034     0.28786     0.10419    
 0.50815E-01 0.34008E-01 0.32851E-01 0.23109E-01 0.42513E-01 0.32079E-01 0.11820     0.31675     0.40303     0.35179    
 0.71167E-01 0.48060E-01 0.35255E-01 0.43037E-01 0.82247E-01 0.12412     0.68569E-01 0.76372E-01 0.33093E-01 0.33921E-01
 0.77991E-01 0.10247     0.22999E-01 0.25003E-01 0.42502E-01 0.14177     0.24794     0.35680     0.41138     0.20111    
 0.13596     0.65677E-01 0.22395E-01 0.22424E-01 0.20048E-01 0.32930E-01 0.11699     0.33769     0.64051     0.76858    
 0.78755     0.79519     0.59684     0.30924     0.13094     0.32999E-01 0.32006E-01 0.31617E-01 0.13523     0.51800    
 0.74209     0.85063     0.88974     0.87886     0.86278     0.78156     0.44764     0.13913     0.96965E-01 0.40646E-01
 0.10817     0.46670     0.77498     0.88559     0.91379     0.92945     0.91207     0.87690     0.77645     0.52718    
 0.45858     0.50210E-01 0.90976E-01 0.32431     0.78401     0.86840     0.92709     0.93129     0.93835     0.92164    
 0.88816     0.70531     0.66059     0.17428     0.55877E-01 0.19033     0.60608     0.86459     0.91281     0.93800    
 0.93940     0.93341     0.91928     0.84709     0.71901     0.47624     0.58750E-01 0.12879     0.31735     0.79074    
 0.88171     0.92503     0.93329     0.93948     0.91998     0.89860     0.80226     0.49279     0.16983     0.42174E-01
 0.17313     0.48537     0.79688     0.89331     0.91913     0.91766     0.91907     0.88525     0.75780     0.51408    
 0.17116     0.71865E-01 0.57500E-01 0.17772     0.53912     0.72493     0.84743     0.89140     0.87785     0.85417    
 0.62355     0.39964     0.14816     0.52780E-01 0.45364E-01 0.64937E-01 0.12804     0.47542     0.64902     0.71537    
 0.78159     0.75514     0.38666     0.17597     0.83459E-01 0.57422E-01 0.63203E-01 0.50121E-01 0.66444E-01 0.58455E-01
 0.18990     0.42174     0.48697     0.45791     0.10959     0.71208E-01 0.54058E-01 0.75461E-01 0.14576     0.20548    
 0.13125     0.11375     0.50715E-01 0.54261E-01 0.11824     0.14894     0.32210E-01 0.34321E-01 0.65940E-01 0.21055    
 0.37548     0.49523     0.52625     0.32348     0.21753     0.89944E-01 0.31319E-01 0.31306E-01 0.25885E-01 0.44708E-01
 0.15986     0.42301     0.69436     0.79817     0.82125     0.81515     0.64921     0.40349     0.18218     0.44527E-01
 0.42880E-01 0.43986E-01 0.18334     0.56999     0.76506     0.85202     0.87814     0.87372     0.86166     0.78836    
 0.50506     0.19376     0.14191     0.52252E-01 0.15674     0.52376     0.78862     0.86250     0.87980     0.88555    
 0.87663     0.85904     0.79107     0.56837     0.54438     0.72735E-01 0.12876     0.40308     0.79356     0.85374    
 0.87648     0.85672     0.86434     0.87161     0.86719     0.73419     0.68873     0.27228     0.75541E-01 0.29557    
 0.64939     0.86390     0.87679     0.86416     0.83888     0.86022     0.88103     0.85329     0.76623     0.55782    
 0.98510E-01 0.17262     0.43173     0.81068     0.87514     0.88176     0.85987     0.86412     0.87861     0.88600    
 0.83004     0.57350     0.25801     0.71641E-01 0.26309     0.56235     0.82978     0.88218     0.88169     0.86908    
 0.88348     0.87550     0.79351     0.59957     0.26085     0.11658     0.99425E-01 0.27315     0.60891     0.76685    
 0.85209     0.86872     0.85839     0.85300     0.68299     0.49190     0.22216     0.94838E-01 0.79485E-01 0.10722    
 0.20622     0.56992     0.68657     0.74609     0.79153     0.77430     0.46126     0.24923     0.12975     0.94444E-01
 0.10713     0.92194E-01 0.10119     0.94772E-01 0.28105     0.49871     0.53863     0.52580     0.15192     0.10209    
 0.82957E-01 0.12104     0.21987     0.28996     0.21246     0.16683     0.72917E-01 0.81164E-01 0.16711     0.19936    
 0.44141E-01 0.47369E-01 0.96440E-01 0.28073     0.47366     0.58962     0.59913     0.42678     0.31450     0.12005    
 0.42592E-01 0.42857E-01 0.34603E-01 0.59771E-01 0.19713     0.47071     0.71872     0.81251     0.83816     0.81866    
 0.67220     0.48177     0.22490     0.58118E-01 0.56693E-01 0.59488E-01 0.22204     0.59467     0.76400     0.83579    
 0.85282     0.85299     0.84564     0.77271     0.53247     0.24227     0.19296     0.64688E-01 0.20742     0.54128    
 0.78136     0.81876     0.80383     0.78439     0.79854     0.81877     0.78579     0.56961     0.57114     0.10454    
 0.15642     0.47218     0.77900     0.81545     0.75640     0.61574     0.62434     0.75203     0.82388     0.74181    
 0.68857     0.37933     0.10047     0.38599     0.66950     0.84818     0.79849     0.62430     0.45893     0.62155    
 0.80082     0.84241     0.79501     0.59096     0.16552     0.21190     0.54306     0.81056     0.85372     0.78072    
 0.62122     0.62138     0.77962     0.85948     0.84378     0.63362     0.35696     0.12022     0.35534     0.62838    
 0.84672     0.85700     0.80194     0.75073     0.80673     0.85086     0.80798     0.66662     0.35298     0.19373    
 0.16310     0.38083     0.64888     0.79204     0.84011     0.82539     0.81545     0.83731     0.70993     0.55926    
 0.30815     0.16171     0.14039     0.17601     0.30989     0.61994     0.69060     0.75314     0.78189     0.77078    
 0.50412     0.31152     0.19089     0.15426     0.17801     0.15898     0.15213     0.15037     0.38199     0.52264    
 0.55881     0.55887     0.18824     0.13704     0.12276     0.18051     0.30515     0.38496     0.31334     0.22180    
 0.99464E-01 0.11914     0.21288     0.23739     0.59243E-01 0.64459E-01 0.13042     0.34190     0.54489     0.65594    
 0.65110     0.52058     0.39947     0.14235     0.56988E-01 0.58485E-01 0.47328E-01 0.77219E-01 0.22220     0.48962    
 0.73195     0.82690     0.85288     0.82127     0.69348     0.53701     0.24049     0.73116E-01 0.73749E-01 0.75748E-01
 0.24303     0.59396     0.76107     0.83108     0.84779     0.85174     0.84102     0.75535     0.54535     0.26546    
 0.23432     0.80099E-01 0.24198     0.53528     0.77154     0.79551     0.76158     0.72277     0.75508     0.79819    
 0.77621     0.54945     0.54788     0.14874     0.16857     0.52841     0.76224     0.79597     0.67406     0.44017    
 0.44542     0.67178     0.79869     0.75216     0.69152     0.44053     0.13256     0.41620     0.69249     0.84362    
 0.75517     0.44529     0.21864     0.44519     0.75520     0.84137     0.82158     0.58563     0.23769     0.23186    
 0.61604     0.81041     0.85174     0.72075     0.44518     0.44051     0.72250     0.85176     0.85584     0.67077    
 0.39423     0.16777     0.38418     0.67672     0.85993     0.85072     0.75616     0.67282     0.76270     0.84648    
 0.81954     0.70110     0.39467     0.24187     0.20422     0.42658     0.66469     0.81846     0.83894     0.80015    
 0.79187     0.83513     0.72466     0.59389     0.35769     0.20537     0.18283     0.22249     0.37487     0.61727    
 0.69265     0.76125     0.77006     0.76517     0.52313     0.35283     0.23877     0.19980     0.22294     0.20134    
 0.18944     0.21278     0.44682     0.50524     0.56044     0.56323     0.21243     0.17055     0.16155     0.22694    
 0.35292     0.43198     0.37024     0.24543     0.12977     0.16900     0.23702     0.25285     0.76256E-01 0.84693E-01
 0.16226     0.38483     0.58222     0.68496     0.67827     0.58806     0.43402     0.15556     0.77128E-01 0.77390E-01
 0.66272E-01 0.97408E-01 0.23229     0.46878     0.71327     0.81934     0.84522     0.80298     0.68945     0.53388    
 0.23327     0.91731E-01 0.94574E-01 0.93163E-01 0.24480     0.56883     0.74948     0.83242     0.85987     0.86614    
 0.84198     0.73443     0.53740     0.26007     0.24615     0.10058     0.24907     0.50659     0.75819     0.80510    
 0.79720     0.77381     0.79178     0.80854     0.75974     0.51845     0.49199     0.18135     0.16760     0.53762    
 0.74078     0.80576     0.72706     0.58039     0.58165     0.72708     0.80451     0.75424     0.67857     0.39804    
 0.14946     0.36173     0.69104     0.84559     0.79198     0.58117     0.39813     0.58391     0.78998     0.84444    
 0.82071     0.51899     0.23451     0.21096     0.57716     0.79099     0.86534     0.77448     0.58412     0.57529    
 0.77822     0.86044     0.84626     0.63542     0.33339     0.17738     0.32564     0.64912     0.84988     0.86024    
 0.79068     0.73039     0.79653     0.85898     0.80713     0.65455     0.35404     0.23977     0.21198     0.37211    
 0.61814     0.82104     0.84177     0.80559     0.80001     0.84044     0.70614     0.54755     0.32160     0.21167    
 0.20760     0.22858     0.33242     0.53834     0.67743     0.76112     0.75361     0.75221     0.50705     0.33631    
 0.22308     0.19504     0.22595     0.20744     0.18799     0.21870     0.40929     0.45903     0.54542     0.53559    
 0.22127     0.18636     0.16602     0.21244     0.31628     0.38569     0.32632     0.21373     0.14401     0.20088    
 0.23359     0.25132     0.95497E-01 0.10545     0.17618     0.36990     0.53781     0.63367     0.63488     0.56129    
 0.38332     0.16021     0.10290     0.98087E-01 0.99857E-01 0.12718     0.22624     0.38141     0.60705     0.73694    
 0.76660     0.71100     0.59565     0.43849     0.21752     0.12069     0.12411     0.11918     0.23720     0.51422    
 0.68735     0.79284     0.84258     0.85000     0.80416     0.67314     0.48574     0.24648     0.23076     0.12367    
 0.23474     0.44124     0.71150     0.79852     0.81883     0.81300     0.81618     0.79896     0.70671     0.46437    
 0.39688     0.16632     0.14819     0.45994     0.67551     0.79243     0.77937     0.73578     0.73180     0.78059    
 0.79181     0.70232     0.58563     0.26894     0.12452     0.24390     0.59950     0.81264     0.81560     0.73085    
 0.65658     0.73651     0.81260     0.80771     0.73681     0.38356     0.17179     0.16397     0.41704     0.69749    
 0.84876     0.81665     0.73674     0.72593     0.82125     0.83922     0.76765     0.51333     0.26372     0.16939    
 0.26204     0.52669     0.76927     0.83862     0.81374     0.78510     0.81776     0.84095     0.71613     0.52156    
 0.30628     0.24059     0.22185     0.31365     0.49872     0.74402     0.80219     0.79394     0.78803     0.80899    
 0.59883     0.40448     0.26300     0.22045     0.23497     0.23461     0.26356     0.38938     0.58464     0.70723    
 0.70169     0.69209     0.42616     0.24315     0.16675     0.17945     0.23101     0.21761     0.17760     0.16710    
 0.27729     0.37302     0.49751     0.46712     0.21354     0.16734     0.12723     0.15922     0.25889     0.32787    
 0.26034     0.15957     0.12026     0.17876     0.21530     0.24625     0.12352     0.12395     0.15659     0.27190    
 0.39737     0.50103     0.51108     0.41722     0.26058     0.14692     0.12715     0.12626     0.16712     0.18548    
 0.21868     0.25624     0.40609     0.53812     0.57228     0.51044     0.39743     0.29549     0.21056     0.17504    
 0.17864     0.16895     0.24463     0.44133     0.52981     0.63711     0.72198     0.72737     0.65540     0.53043    
 0.39819     0.25140     0.21756     0.15533     0.22186     0.34745     0.60567     0.71765     0.75081     0.75802    
 0.75414     0.70746     0.58875     0.38543     0.27740     0.13516     0.12769     0.32557     0.52046     0.69069    
 0.74191     0.74227     0.73234     0.74122     0.69889     0.55325     0.39254     0.17005     0.10130     0.15549    
 0.40614     0.67568     0.74858     0.73077     0.70536     0.73991     0.74847     0.65901     0.53062     0.25782    
 0.12628     0.12662     0.26667     0.49578     0.72949     0.76585     0.74018     0.72646     0.77200     0.71147    
 0.57636     0.37007     0.18209     0.11583     0.18363     0.37891     0.57339     0.70927     0.75155     0.74618    
 0.75303     0.71586     0.51020     0.37327     0.21296     0.14485     0.13491     0.21622     0.36204     0.54363    
 0.64471     0.70834     0.68985     0.67061     0.39798     0.26657     0.18324     0.13415     0.13518     0.14139    
 0.18102     0.25907     0.39488     0.55305     0.58761     0.54036     0.30045     0.15848     0.12545     0.12170    
 0.13901     0.13350     0.12201     0.12397     0.17420     0.26022     0.41950     0.37315     0.20391     0.14145    
 0.10059     0.11991     0.18160     0.22548     0.17859     0.12229     0.99235E-01 0.14374     0.20338     0.25896    
 0.17707     0.14851     0.13082     0.17951     0.26140     0.35743     0.37034     0.27285     0.16598     0.12846    
 0.15442     0.18059     0.28347     0.29620     0.24001     0.18850     0.25599     0.31789     0.33293     0.30141    
 0.24394     0.21789     0.24095     0.27337     0.27822     0.25745     0.30680     0.39594     0.33311     0.37683    
 0.44520     0.43999     0.39491     0.35543     0.33632     0.30271     0.24381     0.21921     0.23986     0.28228    
 0.48065     0.52576     0.51758     0.53312     0.53490     0.50351     0.43718     0.32981     0.21172     0.14718    
 0.14930     0.24666     0.32696     0.47894     0.57094     0.57667     0.56122     0.55849     0.49689     0.36647    
 0.24195     0.14885     0.11551     0.13709     0.25874     0.41645     0.51554     0.56051     0.55958     0.57154    
 0.52853     0.39697     0.31020     0.16726     0.89755E-01 0.90929E-01 0.16687     0.29159     0.45281     0.54063    
 0.57273     0.55496     0.55054     0.42787     0.33855     0.20110     0.70038E-01 0.35332E-01 0.71693E-01 0.20431    
 0.33220     0.42783     0.53236     0.56371     0.53002     0.43378     0.29704     0.20153     0.66706E-01 0.22911E-01
 0.20961E-01 0.67689E-01 0.19762     0.32079     0.37730     0.52051     0.47662     0.41532     0.24931     0.17013    
 0.70800E-01 0.20909E-01 0.15369E-01 0.21926E-01 0.70077E-01 0.16707     0.24791     0.35501     0.45117     0.34755    
 0.22657     0.13999     0.89871E-01 0.37120E-01 0.21430E-01 0.21135E-01 0.37377E-01 0.87647E-01 0.15119     0.19888    
 0.36212     0.31184     0.22394     0.16224     0.11355     0.86013E-01 0.71244E-01 0.70135E-01 0.68178E-01 0.88793E-01
 0.11458     0.15845     0.22437     0.32557     0.27781     0.19834     0.14990     0.15804     0.16571     0.19372    
 0.20272     0.17314     0.14557     0.14688     0.21093     0.27909     0.40701     0.42427     0.28720     0.20048    
 0.21511     0.19094     0.17772     0.18592     0.19687     0.22655     0.31188     0.38840     0.39093     0.36140    
 0.44136     0.40539     0.22258     0.20930     0.21526     0.20567     0.21568     0.26040     0.34365     0.39835    
 0.31365     0.30477     0.28494     0.29392     0.41558     0.31065     0.24574     0.24778     0.26524     0.30034    
 0.33541     0.34046     0.22391     0.20530     0.22177     0.24916     0.21903     0.29123     0.32622     0.28949    
 0.28385     0.30373     0.29807     0.26421     0.19606     0.17893     0.15982     0.16859     0.21782     0.22146    
 0.24491     0.28699     0.28586     0.28894     0.26238     0.21653     0.18807     0.12565     0.77325E-01 0.77550E-01
 0.12216     0.18275     0.21917     0.24475     0.29104     0.28051     0.25365     0.20266     0.18164     0.96488E-01
 0.22708E-01 0.83318E-02 0.23797E-01 0.96545E-01 0.17622     0.20683     0.26067     0.31060     0.25809     0.20759    
 0.18188     0.95876E-01 0.12621E-01 0.76086E-03 0.64356E-03 0.12800E-01 0.95266E-01 0.19353     0.20330     0.32138    
 0.27915     0.22781     0.20773     0.12580     0.23179E-01 0.64883E-03 0.96072E-04 0.67006E-03 0.23175E-01 0.12437    
 0.20635     0.24155     0.37464     0.23767     0.22873     0.17198     0.77241E-01 0.87479E-02 0.64200E-03 0.70274E-03
 0.87914E-02 0.75195E-01 0.17900     0.21621     0.35896     0.33219     0.28235     0.23192     0.15612     0.74539E-01
 0.23826E-01 0.12996E-01 0.22123E-01 0.76989E-01 0.16069     0.22309     0.28257     0.44473     0.40072     0.26488    
 0.22301     0.18644     0.12187     0.93725E-01 0.97700E-01 0.12774     0.17607     0.20778     0.29344     0.38476    
 0.45643     0.46781     0.30134     0.23665     0.21816     0.15444     0.13533     0.15700     0.19453     0.24795    
 0.35084     0.44033     0.43453     0.41609     0.53895     0.38768     0.19614     0.17199     0.14908     0.14005    
 0.16768     0.24197     0.36609     0.44938     0.35471     0.33751     0.30151     0.35270     0.40619     0.21672    
 0.15714     0.15271     0.17001     0.22644     0.30786     0.36583     0.24666     0.24257     0.26964     0.25042    
 0.19632     0.23960     0.21730     0.16996     0.17300     0.19970     0.22681     0.24169     0.19470     0.20233    
 0.18579     0.19964     0.21820     0.16120     0.15729     0.17782     0.17032     0.17357     0.16924     0.16830    
 0.15595     0.12001     0.80576E-01 0.78728E-01 0.11465     0.15880     0.15025     0.14523     0.17514     0.17196    
 0.15138     0.14087     0.13783     0.72120E-01 0.15414E-01 0.54524E-02 0.16687E-01 0.70763E-01 0.13362     0.14733    
 0.16403     0.20765     0.16316     0.14516     0.15416     0.71022E-01 0.63051E-02 0.11674E-03 0.84190E-04 0.63460E-02
 0.71674E-01 0.15745     0.16179     0.23755     0.21837     0.17151     0.20860     0.11810     0.16082E-01 0.88156E-04
 0.64029E-04 0.88634E-04 0.16120E-01 0.11799     0.20864     0.21256     0.36342     0.21279     0.23525     0.20262    
 0.79441E-01 0.55826E-02 0.84000E-04 0.11735E-03 0.55470E-02 0.78429E-01 0.19846     0.25244     0.35048     0.38870    
 0.32704     0.26533     0.18208     0.78502E-01 0.16641E-01 0.61793E-02 0.15433E-01 0.79780E-01 0.18990     0.25866    
 0.32341     0.49445     0.45655     0.29799     0.27541     0.20316     0.11497     0.71311E-01 0.72858E-01 0.11977    
 0.20156     0.24340     0.33559     0.42034     0.40205     0.39333     0.25976     0.23454     0.21658     0.18443    
 0.18606     0.19487     0.19669     0.22217     0.30567     0.38900     0.37866     0.38030     0.47284     0.31383    
 0.22745     0.24163     0.22201     0.21025     0.22429     0.26801     0.33947     0.38975     0.30880     0.28630    
 0.26174     0.37528     0.40836     0.27960     0.26589     0.27307     0.27681     0.30824     0.33922     0.34248    
 0.22309     0.20456     0.22611     0.20682     0.23109     0.34495     0.33386     0.29255     0.30531     0.31912    
 0.31114     0.26371     0.19769     0.17331     0.15393     0.18002     0.21418     0.20593     0.26738     0.31389    
 0.30158     0.30133     0.27814     0.22461     0.19061     0.12931     0.77941E-01 0.74559E-01 0.12324     0.20192    
 0.22086     0.25626     0.30342     0.30645     0.26340     0.21534     0.18761     0.10062     0.23482E-01 0.94375E-02
 0.25263E-01 0.97300E-01 0.18367     0.22675     0.26731     0.32912     0.26771     0.22077     0.19314     0.98527E-01
 0.14482E-01 0.90446E-03 0.83887E-03 0.14424E-01 0.10078     0.18803     0.22529     0.30921     0.31384     0.22087    
 0.20823     0.12580     0.24542E-01 0.86787E-03 0.15485E-03 0.84332E-03 0.24611E-01 0.12704     0.20986     0.23760    
 0.38505     0.24192     0.20360     0.18083     0.76082E-01 0.92800E-02 0.83627E-03 0.97961E-03 0.91577E-02 0.76460E-01
 0.16783     0.24070     0.30456     0.38307     0.30272     0.20989     0.15247     0.77225E-01 0.25190E-01 0.13694E-01
 0.24122E-01 0.76984E-01 0.15915     0.20885     0.29748     0.40540     0.39837     0.26882     0.23243     0.16787    
 0.12396     0.10149     0.10106     0.12686     0.17479     0.20379     0.29299     0.36517     0.27691     0.26390    