       N       E                     dE             d eps       ncg     rms          rms(c)
DAV:   1     0.935728609080E+02    0.93573E+02   -0.45253E+03   280   0.537E+02
DAV:   2    -0.133263697544E+02   -0.10690E+03   -0.10086E+03   446   0.154E+02
DAV:   3    -0.231918301420E+02   -0.98655E+01   -0.97522E+01   404   0.566E+01
DAV:   4    -0.233660105538E+02   -0.17418E+00   -0.17381E+00   368   0.877E+00
DAV:   5    -0.233697702924E+02   -0.37597E-02   -0.37591E-02   382   0.117E+00    0.691E+00
RMM:   6    -0.222095402316E+02    0.11602E+01   -0.53856E+00   294   0.116E+01    0.263E+00
RMM:   7    -0.218269398337E+02    0.38260E+00   -0.53401E-01   290   0.322E+00    0.151E+00
RMM:   8    -0.217674794497E+02    0.59460E-01   -0.23367E-01   305   0.242E+00    0.350E-01
RMM:   9    -0.217627983003E+02    0.46811E-02   -0.79822E-03   333   0.542E-01    0.960E-02
RMM:  10    -0.217620159226E+02    0.78238E-03   -0.17539E-03   331   0.215E-01    0.458E-02
RMM:  11    -0.217620838472E+02   -0.67925E-04   -0.23542E-03   313   0.213E-01    0.650E-02
RMM:  12    -0.217619923328E+02    0.91514E-04   -0.78237E-04   302   0.148E-01    0.178E-02
RMM:  13    -0.217625865549E+02   -0.59422E-03   -0.16221E-04   297   0.685E-02    0.195E-02
RMM:  14    -0.217626618266E+02   -0.75272E-04   -0.28076E-05   325   0.272E-02    0.589E-03
RMM:  15    -0.217627949098E+02   -0.13308E-03   -0.11296E-05   286   0.141E-02    0.380E-03
RMM:  16    -0.217628206784E+02   -0.25769E-04   -0.23041E-06   232   0.664E-03    0.276E-03
RMM:  17    -0.217628343354E+02   -0.13657E-04   -0.12760E-06   190   0.585E-03    0.236E-03
RMM:  18    -0.217628352075E+02   -0.87212E-06   -0.12215E-07   149   0.219E-03
   1 F= -.22354233E+02 E0= -.22354233E+02  d E =-.617315E-10
