PROCAR lm decomposed
# of k-points:   10         # of bands:   14         # of ions:    3

 k-point     1 :    0.00000000 0.00000000 0.00000000     weight = 0.01562500

band     1 # energy  -16.75364308 # occ.  2.00000000
 
ion      s     py     pz     px    dxy    dyz    dz2    dxz  x2-y2    tot
    1  0.130  0.000  0.000  0.000  0.000  0.000  0.000  0.000  0.000  0.131
    2  0.276  0.000  0.005  0.000  0.000  0.000  0.000  0.000  0.000  0.281
    3  0.276  0.000  0.005  0.000  0.000  0.000  0.000  0.000  0.000  0.281
tot    0.682  0.000  0.010  0.000  0.000  0.000  0.000  0.000  0.000  0.693
 
band     2 # energy  -15.54531955 # occ.  2.00000000
 
ion      s     py     pz     px    dxy    dyz    dz2    dxz  x2-y2    tot
    1  0.000  0.000  0.059  0.000  0.000  0.000  0.000  0.000  0.000  0.059
    2  0.316  0.000  0.000  0.000  0.000  0.000  0.000  0.000  0.000  0.316
    3  0.316  0.000  0.000  0.000  0.000  0.000  0.000  0.000  0.000  0.316
tot    0.632  0.000  0.060  0.000  0.000  0.000  0.000  0.000  0.000  0.691
 
band     3 # energy   -8.26317515 # occ.  2.00000000
 
ion      s     py     pz     px    dxy    dyz    dz2    dxz  x2-y2    tot
    1  0.130  0.000  0.000  0.000  0.000  0.000  0.207  0.000  0.000  0.338
    2  0.018  0.000  0.127  0.000  0.000  0.000  0.000  0.000  0.000  0.145
    3  0.018  0.000  0.127  0.000  0.000  0.000  0.000  0.000  0.000  0.145
tot    0.166  0.000  0.253  0.000  0.000  0.000  0.207  0.000  0.000  0.627
 
band     4 # energy   -5.30164879 # occ.  2.00000000
 
ion      s     py     pz     px    dxy    dyz    dz2    dxz  x2-y2    tot
    1  0.000  0.002  0.000  0.005  0.458  0.000  0.000  0.000  0.148  0.613
    2  0.000  0.028  0.000  0.087  0.000  0.000  0.000  0.000  0.000  0.115
    3  0.000  0.028  0.000  0.087  0.000  0.000  0.000  0.000  0.000  0.115
tot    0.000  0.058  0.000  0.178  0.458  0.000  0.000  0.000  0.148  0.842
 
band     5 # energy   -5.30138810 # occ.  2.00000000
 
ion      s     py     pz     px    dxy    dyz    dz2    dxz  x2-y2    tot
    1  0.000  0.005  0.000  0.002  0.148  0.000  0.000  0.000  0.459  0.613
    2  0.000  0.087  0.000  0.028  0.000  0.000  0.000  0.000  0.000  0.115
    3  0.000  0.087  0.000  0.028  0.000  0.000  0.000  0.000  0.000  0.115
tot    0.000  0.178  0.000  0.058  0.148  0.000  0.000  0.000  0.459  0.842
 
band     6 # energy   -4.44126490 # occ.  2.00000000
 
ion      s     py     pz     px    dxy    dyz    dz2    dxz  x2-y2    tot
    1  0.000  0.000  0.056  0.000  0.000  0.000  0.000  0.000  0.000  0.056
    2  0.000  0.000  0.250  0.000  0.000  0.000  0.000  0.000  0.000  0.250
    3  0.000  0.000  0.250  0.000  0.000  0.000  0.000  0.000  0.000  0.250
tot    0.001  0.000  0.556  0.000  0.000  0.000  0.000  0.000  0.000  0.556
 
band     7 # energy   -4.19470123 # occ.  2.00000000
 
ion      s     py     pz     px    dxy    dyz    dz2    dxz  x2-y2    tot
    1  0.000  0.000  0.000  0.000  0.000  0.146  0.000  0.406  0.000  0.551
    2  0.000  0.040  0.000  0.113  0.000  0.000  0.000  0.000  0.000  0.153
    3  0.000  0.040  0.000  0.113  0.000  0.000  0.000  0.000  0.000  0.153
tot    0.000  0.081  0.000  0.225  0.000  0.146  0.000  0.406  0.000  0.858
 
band     8 # energy   -4.19423203 # occ.  2.00000000
 
ion      s     py     pz     px    dxy    dyz    dz2    dxz  x2-y2    tot
    1  0.000  0.000  0.000  0.000  0.000  0.406  0.000  0.146  0.000  0.552
    2  0.000  0.113  0.000  0.040  0.000  0.000  0.000  0.000  0.000  0.153
    3  0.000  0.113  0.000  0.040  0.000  0.000  0.000  0.000  0.000  0.153
tot    0.000  0.225  0.000  0.081  0.000  0.406  0.000  0.146  0.000  0.858
 
band     9 # energy   -2.71944394 # occ.  2.00000000
 
ion      s     py     pz     px    dxy    dyz    dz2    dxz  x2-y2    tot
    1  0.014  0.000  0.000  0.000  0.000  0.000  0.609  0.000  0.000  0.623
    2  0.002  0.000  0.070  0.000  0.000  0.000  0.000  0.000  0.000  0.072
    3  0.002  0.000  0.070  0.000  0.000  0.000  0.000  0.000  0.000  0.072
tot    0.019  0.000  0.140  0.000  0.000  0.000  0.609  0.000  0.000  0.768
 
band    10 # energy    0.05443943 # occ.  0.00000000
 
ion      s     py     pz     px    dxy    dyz    dz2    dxz  x2-y2    tot
    1  0.000  0.000  0.000  0.000  0.000  0.087  0.000  0.272  0.000  0.359
    2  0.000  0.046  0.000  0.143  0.000  0.000  0.000  0.000  0.000  0.189
    3  0.000  0.046  0.000  0.143  0.000  0.000  0.000  0.000  0.000  0.189
tot    0.000  0.092  0.000  0.287  0.000  0.087  0.000  0.272  0.000  0.737
 
band    11 # energy    0.05522261 # occ.  0.00000000
 
ion      s     py     pz     px    dxy    dyz    dz2    dxz  x2-y2    tot
    1  0.000  0.000  0.000  0.000  0.000  0.272  0.000  0.087  0.000  0.359
    2  0.000  0.143  0.000  0.046  0.000  0.000  0.000  0.000  0.000  0.189
    3  0.000  0.143  0.000  0.046  0.000  0.000  0.000  0.000  0.000  0.189
tot    0.000  0.287  0.000  0.092  0.000  0.272  0.000  0.087  0.000  0.737
 
band    12 # energy    0.27661705 # occ.  0.00000000
 
ion      s     py     pz     px    dxy    dyz    dz2    dxz  x2-y2    tot
    1  0.000  0.005  0.000  0.014  0.225  0.000  0.000  0.000  0.077  0.321
    2  0.000  0.059  0.000  0.174  0.000  0.000  0.000  0.000  0.000  0.233
    3  0.000  0.059  0.000  0.174  0.000  0.000  0.000  0.000  0.000  0.233
tot    0.000  0.123  0.000  0.362  0.225  0.000  0.000  0.000  0.077  0.786
 
band    13 # energy    0.27731023 # occ.  0.00000000
 
ion      s     py     pz     px    dxy    dyz    dz2    dxz  x2-y2    tot
    1  0.000  0.014  0.000  0.005  0.077  0.000  0.000  0.000  0.225  0.320
    2  0.000  0.174  0.000  0.059  0.000  0.000  0.000  0.000  0.000  0.233
    3  0.000  0.174  0.000  0.059  0.000  0.000  0.000  0.000  0.000  0.233
tot    0.000  0.362  0.000  0.123  0.077  0.000  0.000  0.000  0.225  0.786
 
band    14 # energy    2.66141462 # occ.  0.00000000
 
ion      s     py     pz     px    dxy    dyz    dz2    dxz  x2-y2    tot
    1  0.030  0.000  0.000  0.000  0.000  0.000  0.019  0.000  0.000  0.049
    2  0.022  0.000  0.002  0.000  0.000  0.000  0.000  0.000  0.000  0.024
    3  0.022  0.000  0.002  0.000  0.000  0.000  0.000  0.000  0.000  0.025
tot    0.074  0.000  0.004  0.000  0.000  0.000  0.019  0.000  0.000  0.098
 

 k-point     2 :    0.12500000 0.00000000 0.00000000     weight = 0.09375000

band     1 # energy  -16.53957515 # occ.  2.00000000
 
ion      s     py     pz     px    dxy    dyz    dz2    dxz  x2-y2    tot
    1  0.118  0.002  0.000  0.005  0.002  0.000  0.000  0.000  0.001  0.128
    2  0.280  0.000  0.005  0.001  0.000  0.000  0.000  0.000  0.000  0.286
    3  0.280  0.000  0.005  0.001  0.000  0.000  0.000  0.000  0.000  0.286
tot    0.678  0.002  0.010  0.006  0.002  0.000  0.000  0.000  0.001  0.699
 
band     2 # energy  -15.44284752 # occ.  2.00000000
 
ion      s     py     pz     px    dxy    dyz    dz2    dxz  x2-y2    tot
    1  0.000  0.000  0.053  0.000  0.000  0.003  0.000  0.009  0.000  0.066
    2  0.317  0.000  0.001  0.000  0.000  0.000  0.000  0.000  0.000  0.318
    3  0.317  0.000  0.001  0.000  0.000  0.000  0.000  0.000  0.000  0.318
tot    0.634  0.000  0.055  0.001  0.000  0.003  0.000  0.009  0.000  0.702
 
band     3 # energy   -8.01821585 # occ.  2.00000000
 
ion      s     py     pz     px    dxy    dyz    dz2    dxz  x2-y2    tot
    1  0.108  0.003  0.000  0.009  0.014  0.000  0.194  0.000  0.005  0.333
    2  0.016  0.001  0.131  0.002  0.000  0.000  0.000  0.000  0.000  0.149
    3  0.016  0.001  0.131  0.002  0.000  0.000  0.000  0.000  0.000  0.149
tot    0.139  0.004  0.263  0.012  0.014  0.000  0.194  0.000  0.005  0.631
 
band     4 # energy   -5.76581618 # occ.  2.00000000
 
ion      s     py     pz     px    dxy    dyz    dz2    dxz  x2-y2    tot
    1  0.033  0.002  0.000  0.007  0.371  0.000  0.001  0.000  0.123  0.538
    2  0.008  0.029  0.001  0.088  0.000  0.000  0.000  0.000  0.000  0.126
    3  0.008  0.029  0.001  0.088  0.000  0.000  0.000  0.000  0.000  0.126
tot    0.049  0.061  0.002  0.184  0.371  0.000  0.001  0.000  0.123  0.791
 
band     5 # energy   -5.24833765 # occ.  2.00000000
 
ion      s     py     pz     px    dxy    dyz    dz2    dxz  x2-y2    tot
    1  0.000  0.000  0.003  0.000  0.000  0.085  0.000  0.255  0.000  0.343
    2  0.000  0.020  0.107  0.059  0.000  0.000  0.000  0.000  0.000  0.186
    3  0.000  0.020  0.107  0.059  0.000  0.000  0.000  0.000  0.000  0.186
tot    0.001  0.039  0.217  0.118  0.000  0.085  0.000  0.255  0.000  0.715
 
band     6 # energy   -5.06742298 # occ.  2.00000000
 
ion      s     py     pz     px    dxy    dyz    dz2    dxz  x2-y2    tot
    1  0.000  0.011  0.000  0.004  0.141  0.000  0.000  0.000  0.423  0.578
    2  0.000  0.095  0.000  0.032  0.000  0.000  0.000  0.000  0.000  0.127
    3  0.000  0.095  0.000  0.032  0.000  0.000  0.000  0.000  0.000  0.127
tot    0.000  0.201  0.000  0.067  0.141  0.000  0.000  0.000  0.423  0.832
 
band     7 # energy   -4.53072226 # occ.  2.00000000
 
ion      s     py     pz     px    dxy    dyz    dz2    dxz  x2-y2    tot
    1  0.000  0.000  0.000  0.000  0.000  0.397  0.000  0.132  0.000  0.530
    2  0.000  0.117  0.000  0.039  0.000  0.000  0.000  0.000  0.000  0.156
    3  0.000  0.117  0.000  0.039  0.000  0.000  0.000  0.000  0.000  0.156
tot    0.000  0.235  0.000  0.078  0.000  0.397  0.000  0.132  0.000  0.843
 
band     8 # energy   -3.76267257 # occ.  2.00000000
 
ion      s     py     pz     px    dxy    dyz    dz2    dxz  x2-y2    tot
    1  0.000  0.000  0.064  0.000  0.000  0.024  0.000  0.071  0.000  0.159
    2  0.001  0.027  0.140  0.081  0.000  0.000  0.000  0.000  0.000  0.250
    3  0.001  0.027  0.140  0.081  0.000  0.000  0.000  0.000  0.000  0.250
tot    0.002  0.054  0.345  0.163  0.000  0.024  0.000  0.071  0.000  0.658
 
band     9 # energy   -2.85795967 # occ.  2.00000000
 
ion      s     py     pz     px    dxy    dyz    dz2    dxz  x2-y2    tot
    1  0.016  0.000  0.000  0.001  0.033  0.000  0.571  0.000  0.011  0.633
    2  0.005  0.003  0.061  0.010  0.000  0.000  0.000  0.000  0.000  0.079
    3  0.005  0.003  0.061  0.010  0.000  0.000  0.000  0.000  0.000  0.079
tot    0.026  0.007  0.123  0.021  0.033  0.000  0.571  0.000  0.011  0.791
 
band    10 # energy   -0.22748479 # occ.  0.00000000
 
ion      s     py     pz     px    dxy    dyz    dz2    dxz  x2-y2    tot
    1  0.002  0.003  0.000  0.010  0.236  0.000  0.051  0.000  0.078  0.380
    2  0.009  0.040  0.006  0.120  0.000  0.000  0.000  0.000  0.000  0.175
    3  0.009  0.040  0.006  0.120  0.000  0.000  0.000  0.000  0.000  0.175
tot    0.020  0.083  0.012  0.251  0.236  0.000  0.051  0.000  0.078  0.730
 
band    11 # energy   -0.16110216 # occ.  0.00000000
 
ion      s     py     pz     px    dxy    dyz    dz2    dxz  x2-y2    tot
    1  0.000  0.000  0.002  0.000  0.000  0.114  0.000  0.343  0.000  0.459
    2  0.017  0.028  0.006  0.085  0.000  0.000  0.000  0.000  0.000  0.136
    3  0.017  0.028  0.006  0.085  0.000  0.000  0.000  0.000  0.000  0.136
tot    0.035  0.056  0.014  0.170  0.000  0.114  0.000  0.343  0.000  0.731
 
band    12 # energy    0.04009352 # occ.  0.00000000
 
ion      s     py     pz     px    dxy    dyz    dz2    dxz  x2-y2    tot
    1  0.000  0.014  0.000  0.005  0.086  0.000  0.000  0.000  0.259  0.364
    2  0.000  0.157  0.000  0.052  0.000  0.000  0.000  0.000  0.000  0.209
    3  0.000  0.157  0.000  0.052  0.000  0.000  0.000  0.000  0.000  0.209
tot    0.000  0.328  0.000  0.109  0.086  0.000  0.000  0.000  0.259  0.781
 
band    13 # energy    0.40885642 # occ.  0.00000000
 
ion      s     py     pz     px    dxy    dyz    dz2    dxz  x2-y2    tot
    1  0.000  0.000  0.000  0.000  0.000  0.295  0.000  0.098  0.000  0.394
    2  0.000  0.138  0.000  0.046  0.000  0.000  0.000  0.000  0.000  0.184
    3  0.000  0.138  0.000  0.046  0.000  0.000  0.000  0.000  0.000  0.184
tot    0.000  0.277  0.000  0.092  0.000  0.295  0.000  0.098  0.000  0.763
 
band    14 # energy    3.02203522 # occ.  0.00000000
 
ion      s     py     pz     px    dxy    dyz    dz2    dxz  x2-y2    tot
    1  0.013  0.001  0.000  0.002  0.002  0.000  0.020  0.000  0.001  0.037
    2  0.010  0.002  0.004  0.005  0.000  0.000  0.000  0.000  0.000  0.020
    3  0.009  0.002  0.004  0.005  0.000  0.000  0.000  0.000  0.000  0.020
tot    0.032  0.004  0.008  0.011  0.002  0.000  0.020  0.000  0.001  0.077
 

 k-point     3 :    0.25000000 0.00000000 0.00000000     weight = 0.09375000

band     1 # energy  -15.97103274 # occ.  2.00000000
 
ion      s     py     pz     px    dxy    dyz    dz2    dxz  x2-y2    tot
    1  0.086  0.006  0.000  0.017  0.010  0.000  0.001  0.000  0.003  0.122
    2  0.291  0.001  0.005  0.002  0.000  0.000  0.000  0.000  0.000  0.298
    3  0.291  0.001  0.005  0.002  0.000  0.000  0.000  0.000  0.000  0.298
tot    0.668  0.007  0.010  0.020  0.010  0.000  0.001  0.000  0.003  0.719
 
band     2 # energy  -15.17396495 # occ.  2.00000000
 
ion      s     py     pz     px    dxy    dyz    dz2    dxz  x2-y2    tot
    1  0.000  0.000  0.037  0.000  0.000  0.012  0.000  0.036  0.000  0.086
    2  0.321  0.000  0.001  0.001  0.000  0.000  0.000  0.000  0.000  0.323
    3  0.321  0.000  0.001  0.001  0.000  0.000  0.000  0.000  0.000  0.323
tot    0.642  0.001  0.040  0.002  0.000  0.012  0.000  0.036  0.000  0.732
 
band     3 # energy   -7.65282416 # occ.  2.00000000
 
ion      s     py     pz     px    dxy    dyz    dz2    dxz  x2-y2    tot
    1  0.029  0.006  0.000  0.018  0.147  0.000  0.122  0.000  0.049  0.370
    2  0.005  0.009  0.106  0.028  0.000  0.000  0.000  0.000  0.000  0.150
    3  0.005  0.009  0.106  0.028  0.000  0.000  0.000  0.000  0.000  0.150
tot    0.039  0.025  0.212  0.075  0.147  0.000  0.122  0.000  0.049  0.670
 
band     4 # energy   -6.49419785 # occ.  2.00000000
 
ion      s     py     pz     px    dxy    dyz    dz2    dxz  x2-y2    tot
    1  0.120  0.009  0.000  0.027  0.100  0.000  0.041  0.000  0.033  0.331
    2  0.026  0.026  0.041  0.077  0.000  0.000  0.000  0.000  0.000  0.170
    3  0.026  0.026  0.041  0.077  0.000  0.000  0.000  0.000  0.000  0.170
tot    0.173  0.061  0.081  0.182  0.100  0.000  0.041  0.000  0.033  0.671
 
band     5 # energy   -6.23058619 # occ.  2.00000000
 
ion      s     py     pz     px    dxy    dyz    dz2    dxz  x2-y2    tot
    1  0.000  0.000  0.010  0.000  0.000  0.079  0.000  0.236  0.000  0.325
    2  0.004  0.032  0.055  0.095  0.000  0.000  0.000  0.000  0.000  0.186
    3  0.004  0.032  0.055  0.095  0.000  0.000  0.000  0.000  0.000  0.185
tot    0.008  0.063  0.119  0.191  0.000  0.079  0.000  0.236  0.000  0.696
 
band     6 # energy   -5.16708035 # occ.  2.00000000
 
ion      s     py     pz     px    dxy    dyz    dz2    dxz  x2-y2    tot
    1  0.000  0.000  0.000  0.000  0.000  0.377  0.000  0.126  0.000  0.503
    2  0.000  0.121  0.000  0.040  0.000  0.000  0.000  0.000  0.000  0.161
    3  0.000  0.121  0.000  0.040  0.000  0.000  0.000  0.000  0.000  0.161
tot    0.000  0.242  0.000  0.081  0.000  0.377  0.000  0.126  0.000  0.825
 
band     7 # energy   -4.48126035 # occ.  2.00000000
 
ion      s     py     pz     px    dxy    dyz    dz2    dxz  x2-y2    tot
    1  0.000  0.026  0.000  0.009  0.107  0.000  0.000  0.000  0.320  0.462
    2  0.000  0.126  0.000  0.042  0.000  0.000  0.000  0.000  0.000  0.168
    3  0.000  0.126  0.000  0.042  0.000  0.000  0.000  0.000  0.000  0.168
tot    0.000  0.279  0.000  0.093  0.107  0.000  0.000  0.000  0.320  0.799
 
band     8 # energy   -4.01518559 # occ.  2.00000000
 
ion      s     py     pz     px    dxy    dyz    dz2    dxz  x2-y2    tot
    1  0.000  0.000  0.067  0.000  0.000  0.003  0.000  0.010  0.000  0.080
    2  0.009  0.022  0.172  0.067  0.000  0.000  0.000  0.000  0.000  0.270
    3  0.009  0.022  0.172  0.067  0.000  0.000  0.000  0.000  0.000  0.270
tot    0.017  0.045  0.411  0.134  0.000  0.003  0.000  0.010  0.000  0.620
 
band     9 # energy   -3.42676298 # occ.  2.00000000
 
ion      s     py     pz     px    dxy    dyz    dz2    dxz  x2-y2    tot
    1  0.017  0.002  0.000  0.006  0.162  0.000  0.411  0.000  0.054  0.652
    2  0.008  0.007  0.038  0.020  0.000  0.000  0.000  0.000  0.000  0.073
    3  0.008  0.007  0.038  0.020  0.000  0.000  0.000  0.000  0.000  0.073
tot    0.032  0.016  0.077  0.047  0.162  0.000  0.411  0.000  0.054  0.798
 
band    10 # energy   -0.55216313 # occ.  0.00000000
 
ion      s     py     pz     px    dxy    dyz    dz2    dxz  x2-y2    tot
    1  0.004  0.001  0.000  0.004  0.195  0.000  0.259  0.000  0.065  0.529
    2  0.006  0.018  0.020  0.055  0.000  0.000  0.000  0.000  0.000  0.099
    3  0.006  0.018  0.020  0.055  0.000  0.000  0.000  0.000  0.000  0.099
tot    0.015  0.038  0.041  0.114  0.195  0.000  0.259  0.000  0.065  0.726
 
band    11 # energy   -0.37703075 # occ.  0.00000000
 
ion      s     py     pz     px    dxy    dyz    dz2    dxz  x2-y2    tot
    1  0.000  0.012  0.000  0.004  0.123  0.000  0.000  0.000  0.370  0.509
    2  0.000  0.110  0.000  0.037  0.000  0.000  0.000  0.000  0.000  0.147
    3  0.000  0.110  0.000  0.037  0.000  0.000  0.000  0.000  0.000  0.147
tot    0.000  0.233  0.000  0.077  0.123  0.000  0.000  0.000  0.370  0.803
 
band    12 # energy    0.16634841 # occ.  0.00000000
 
ion      s     py     pz     px    dxy    dyz    dz2    dxz  x2-y2    tot
    1  0.000  0.000  0.014  0.000  0.000  0.130  0.000  0.389  0.000  0.532
    2  0.028  0.009  0.036  0.026  0.000  0.000  0.000  0.000  0.000  0.099
    3  0.028  0.009  0.036  0.026  0.000  0.000  0.000  0.000  0.000  0.099
tot    0.055  0.018  0.086  0.053  0.000  0.130  0.000  0.389  0.000  0.729
 
band    13 # energy    1.02418285 # occ.  0.00000000
 
ion      s     py     pz     px    dxy    dyz    dz2    dxz  x2-y2    tot
    1  0.000  0.000  0.000  0.000  0.000  0.334  0.000  0.111  0.000  0.446
    2  0.000  0.131  0.000  0.044  0.000  0.000  0.000  0.000  0.000  0.174
    3  0.000  0.131  0.000  0.044  0.000  0.000  0.000  0.000  0.000  0.174
tot    0.000  0.261  0.000  0.087  0.000  0.334  0.000  0.111  0.000  0.794
 
band    14 # energy    3.85426855 # occ.  0.00000000
 
ion      s     py     pz     px    dxy    dyz    dz2    dxz  x2-y2    tot
    1  0.010  0.002  0.000  0.006  0.005  0.000  0.018  0.000  0.002  0.043
    2  0.009  0.001  0.003  0.004  0.000  0.000  0.000  0.000  0.000  0.018
    3  0.009  0.002  0.004  0.005  0.000  0.000  0.000  0.000  0.000  0.020
tot    0.028  0.005  0.008  0.015  0.005  0.000  0.018  0.000  0.002  0.081
 

 k-point     4 :    0.37500000-0.00000000 0.00000000     weight = 0.09375000

band     1 # energy  -15.29612361 # occ.  2.00000000
 
ion      s     py     pz     px    dxy    dyz    dz2    dxz  x2-y2    tot
    1  0.043  0.010  0.000  0.030  0.026  0.000  0.001  0.000  0.009  0.119
    2  0.309  0.000  0.006  0.001  0.000  0.000  0.000  0.000  0.000  0.316
    3  0.309  0.000  0.006  0.001  0.000  0.000  0.000  0.000  0.000  0.316
tot    0.661  0.011  0.011  0.033  0.026  0.000  0.001  0.000  0.009  0.751
 
band     2 # energy  -14.86538172 # occ.  2.00000000
 
ion      s     py     pz     px    dxy    dyz    dz2    dxz  x2-y2    tot
    1  0.000  0.000  0.017  0.000  0.000  0.023  0.000  0.070  0.000  0.110
    2  0.327  0.000  0.002  0.001  0.000  0.000  0.000  0.000  0.000  0.330
    3  0.327  0.000  0.002  0.001  0.000  0.000  0.000  0.000  0.000  0.330
tot    0.653  0.001  0.021  0.002  0.000  0.023  0.000  0.070  0.000  0.770
 
band     3 # energy   -8.09200494 # occ.  2.00000000
 
ion      s     py     pz     px    dxy    dyz    dz2    dxz  x2-y2    tot
    1  0.074  0.005  0.000  0.014  0.150  0.000  0.033  0.000  0.050  0.327
    2  0.006  0.032  0.023  0.096  0.000  0.000  0.000  0.000  0.000  0.157
    3  0.006  0.032  0.023  0.096  0.000  0.000  0.000  0.000  0.000  0.157
tot    0.087  0.069  0.045  0.206  0.150  0.000  0.033  0.000  0.050  0.640
 
band     4 # energy   -7.09952001 # occ.  2.00000000
 
ion      s     py     pz     px    dxy    dyz    dz2    dxz  x2-y2    tot
    1  0.000  0.000  0.045  0.000  0.000  0.049  0.000  0.147  0.000  0.241
    2  0.009  0.041  0.021  0.123  0.000  0.000  0.000  0.000  0.000  0.194
    3  0.009  0.041  0.021  0.123  0.000  0.000  0.000  0.000  0.000  0.194
tot    0.018  0.082  0.087  0.247  0.000  0.049  0.000  0.147  0.000  0.630
 
band     5 # energy   -6.62556051 # occ.  2.00000000
 
ion      s     py     pz     px    dxy    dyz    dz2    dxz  x2-y2    tot
    1  0.052  0.013  0.000  0.039  0.059  0.000  0.106  0.000  0.020  0.289
    2  0.025  0.010  0.123  0.030  0.000  0.000  0.000  0.000  0.000  0.187
    3  0.025  0.010  0.123  0.030  0.000  0.000  0.000  0.000  0.000  0.187
tot    0.101  0.033  0.245  0.098  0.059  0.000  0.106  0.000  0.020  0.662
 
band     6 # energy   -5.66610744 # occ.  2.00000000
 
ion      s     py     pz     px    dxy    dyz    dz2    dxz  x2-y2    tot
    1  0.000  0.000  0.000  0.000  0.000  0.367  0.000  0.122  0.000  0.490
    2  0.000  0.123  0.000  0.041  0.000  0.000  0.000  0.000  0.000  0.164
    3  0.000  0.123  0.000  0.041  0.000  0.000  0.000  0.000  0.000  0.164
tot    0.000  0.246  0.000  0.082  0.000  0.367  0.000  0.122  0.000  0.817
 
band     7 # energy   -4.42431387 # occ.  2.00000000
 
ion      s     py     pz     px    dxy    dyz    dz2    dxz  x2-y2    tot
    1  0.000  0.000  0.037  0.000  0.000  0.031  0.000  0.094  0.000  0.163
    2  0.011  0.012  0.192  0.035  0.000  0.000  0.000  0.000  0.000  0.249
    3  0.011  0.012  0.192  0.035  0.000  0.000  0.000  0.000  0.000  0.249
tot    0.022  0.023  0.420  0.069  0.000  0.031  0.000  0.094  0.000  0.660
 
band     8 # energy   -3.89172302 # occ.  2.00000000
 
ion      s     py     pz     px    dxy    dyz    dz2    dxz  x2-y2    tot
    1  0.000  0.045  0.000  0.015  0.051  0.000  0.000  0.000  0.155  0.266
    2  0.000  0.178  0.000  0.059  0.000  0.000  0.000  0.000  0.000  0.237
    3  0.000  0.178  0.000  0.059  0.000  0.000  0.000  0.000  0.000  0.237
tot    0.000  0.400  0.000  0.133  0.051  0.000  0.000  0.000  0.155  0.740
 
band     9 # energy   -3.62086878 # occ.  2.00000000
 
ion      s     py     pz     px    dxy    dyz    dz2    dxz  x2-y2    tot
    1  0.020  0.015  0.000  0.044  0.170  0.000  0.299  0.000  0.057  0.605
    2  0.004  0.002  0.055  0.006  0.000  0.000  0.000  0.000  0.000  0.067
    3  0.004  0.002  0.055  0.006  0.000  0.000  0.000  0.000  0.000  0.067
tot    0.029  0.019  0.109  0.056  0.170  0.000  0.299  0.000  0.057  0.738
 
band    10 # energy   -0.55964870 # occ.  0.00000000
 
ion      s     py     pz     px    dxy    dyz    dz2    dxz  x2-y2    tot
    1  0.000  0.006  0.000  0.002  0.187  0.000  0.000  0.000  0.560  0.754
    2  0.000  0.048  0.000  0.016  0.000  0.000  0.000  0.000  0.000  0.064
    3  0.000  0.048  0.000  0.016  0.000  0.000  0.000  0.000  0.000  0.064
tot    0.000  0.101  0.000  0.034  0.187  0.000  0.000  0.000  0.560  0.881
 
band    11 # energy   -0.27977242 # occ.  0.00000000
 
ion      s     py     pz     px    dxy    dyz    dz2    dxz  x2-y2    tot
    1  0.011  0.001  0.000  0.004  0.188  0.000  0.434  0.000  0.063  0.701
    2  0.002  0.010  0.016  0.030  0.000  0.000  0.000  0.000  0.000  0.058
    3  0.002  0.010  0.016  0.030  0.000  0.000  0.000  0.000  0.000  0.058
tot    0.016  0.021  0.032  0.064  0.188  0.000  0.434  0.000  0.063  0.818
 
band    12 # energy    0.88470291 # occ.  0.00000000
 
ion      s     py     pz     px    dxy    dyz    dz2    dxz  x2-y2    tot
    1  0.000  0.000  0.012  0.000  0.000  0.115  0.000  0.345  0.000  0.473
    2  0.028  0.004  0.066  0.011  0.000  0.000  0.000  0.000  0.000  0.109
    3  0.028  0.004  0.066  0.011  0.000  0.000  0.000  0.000  0.000  0.109
tot    0.056  0.007  0.145  0.023  0.000  0.115  0.000  0.345  0.000  0.691
 
band    13 # energy    1.41596638 # occ.  0.00000000
 
ion      s     py     pz     px    dxy    dyz    dz2    dxz  x2-y2    tot
    1  0.000  0.000  0.000  0.000  0.000  0.354  0.000  0.118  0.000  0.473
    2  0.000  0.123  0.000  0.041  0.000  0.000  0.000  0.000  0.000  0.163
    3  0.000  0.123  0.000  0.041  0.000  0.000  0.000  0.000  0.000  0.163
tot    0.000  0.245  0.000  0.082  0.000  0.354  0.000  0.118  0.000  0.800
 
band    14 # energy    4.44146676 # occ.  0.00000000
 
ion      s     py     pz     px    dxy    dyz    dz2    dxz  x2-y2    tot
    1  0.167  0.014  0.000  0.043  0.043  0.000  0.022  0.000  0.014  0.303
    2  0.002  0.000  0.018  0.001  0.000  0.000  0.000  0.000  0.000  0.022
    3  0.002  0.000  0.018  0.001  0.000  0.000  0.000  0.000  0.000  0.022
tot    0.172  0.015  0.037  0.045  0.043  0.000  0.022  0.000  0.014  0.347
 

 k-point     5 :    0.50000000 0.00000000 0.00000000     weight = 0.04687500

band     1 # energy  -14.96781950 # occ.  2.00000000
 
ion      s     py     pz     px    dxy    dyz    dz2    dxz  x2-y2    tot
    1  0.020  0.012  0.000  0.036  0.038  0.000  0.000  0.000  0.013  0.119
    2  0.321  0.000  0.006  0.000  0.000  0.000  0.000  0.000  0.000  0.327
    3  0.321  0.000  0.006  0.000  0.000  0.000  0.000  0.000  0.000  0.327
tot    0.661  0.012  0.012  0.037  0.038  0.000  0.000  0.000  0.013  0.772
 
band     2 # energy  -14.72202060 # occ.  2.00000000
 
ion      s     py     pz     px    dxy    dyz    dz2    dxz  x2-y2    tot
    1  0.000  0.000  0.006  0.000  0.000  0.029  0.000  0.088  0.000  0.123
    2  0.330  0.000  0.003  0.000  0.000  0.000  0.000  0.000  0.000  0.333
    3  0.330  0.000  0.003  0.000  0.000  0.000  0.000  0.000  0.000  0.333
tot    0.660  0.000  0.011  0.001  0.000  0.029  0.000  0.088  0.000  0.790
 
band     3 # energy   -8.42485053 # occ.  2.00000000
 
ion      s     py     pz     px    dxy    dyz    dz2    dxz  x2-y2    tot
    1  0.122  0.006  0.000  0.018  0.068  0.000  0.023  0.000  0.023  0.259
    2  0.006  0.039  0.006  0.116  0.000  0.000  0.000  0.000  0.000  0.167
    3  0.006  0.039  0.006  0.116  0.000  0.000  0.000  0.000  0.000  0.167
tot    0.133  0.083  0.012  0.250  0.068  0.000  0.023  0.000  0.023  0.592
 
band     4 # energy   -7.46526499 # occ.  2.00000000
 
ion      s     py     pz     px    dxy    dyz    dz2    dxz  x2-y2    tot
    1  0.000  0.000  0.064  0.000  0.000  0.035  0.000  0.103  0.000  0.202
    2  0.010  0.044  0.011  0.132  0.000  0.000  0.000  0.000  0.000  0.197
    3  0.010  0.044  0.011  0.132  0.000  0.000  0.000  0.000  0.000  0.197
tot    0.021  0.088  0.086  0.264  0.000  0.035  0.000  0.103  0.000  0.596
 
band     5 # energy   -6.75069171 # occ.  2.00000000
 
ion      s     py     pz     px    dxy    dyz    dz2    dxz  x2-y2    tot
    1  0.000  0.009  0.000  0.026  0.173  0.000  0.115  0.000  0.058  0.380
    2  0.018  0.005  0.126  0.014  0.000  0.000  0.000  0.000  0.000  0.162
    3  0.018  0.005  0.126  0.014  0.000  0.000  0.000  0.000  0.000  0.162
tot    0.035  0.018  0.251  0.055  0.173  0.000  0.115  0.000  0.058  0.705
 
band     6 # energy   -5.84603974 # occ.  2.00000000
 
ion      s     py     pz     px    dxy    dyz    dz2    dxz  x2-y2    tot
    1  0.000  0.000  0.000  0.000  0.000  0.365  0.000  0.122  0.000  0.486
    2  0.000  0.124  0.000  0.041  0.000  0.000  0.000  0.000  0.000  0.165
    3  0.000  0.124  0.000  0.041  0.000  0.000  0.000  0.000  0.000  0.165
tot    0.000  0.247  0.000  0.082  0.000  0.365  0.000  0.122  0.000  0.816
 
band     7 # energy   -4.56235101 # occ.  2.00000000
 
ion      s     py     pz     px    dxy    dyz    dz2    dxz  x2-y2    tot
    1  0.000  0.000  0.024  0.000  0.000  0.045  0.000  0.136  0.000  0.206
    2  0.011  0.008  0.198  0.023  0.000  0.000  0.000  0.000  0.000  0.240
    3  0.011  0.008  0.198  0.023  0.000  0.000  0.000  0.000  0.000  0.240
tot    0.021  0.015  0.420  0.046  0.000  0.045  0.000  0.136  0.000  0.685
 
band     8 # energy   -3.66433576 # occ.  2.00000000
 
ion      s     py     pz     px    dxy    dyz    dz2    dxz  x2-y2    tot
    1  0.000  0.052  0.000  0.017  0.021  0.000  0.000  0.000  0.063  0.154
    2  0.000  0.206  0.000  0.069  0.000  0.000  0.000  0.000  0.000  0.275
    3  0.000  0.206  0.000  0.069  0.000  0.000  0.000  0.000  0.000  0.275
tot    0.000  0.465  0.000  0.155  0.021  0.000  0.000  0.000  0.063  0.704
 
band     9 # energy   -3.33924315 # occ.  2.00000000
 
ion      s     py     pz     px    dxy    dyz    dz2    dxz  x2-y2    tot
    1  0.003  0.027  0.000  0.082  0.100  0.000  0.261  0.000  0.033  0.507
    2  0.004  0.000  0.088  0.001  0.000  0.000  0.000  0.000  0.000  0.094
    3  0.004  0.000  0.088  0.001  0.000  0.000  0.000  0.000  0.000  0.094
tot    0.011  0.028  0.176  0.085  0.100  0.000  0.261  0.000  0.033  0.695
 
band    10 # energy   -0.53787117 # occ.  0.00000000
 
ion      s     py     pz     px    dxy    dyz    dz2    dxz  x2-y2    tot
    1  0.000  0.003  0.000  0.001  0.224  0.000  0.000  0.000  0.671  0.899
    2  0.000  0.015  0.000  0.005  0.000  0.000  0.000  0.000  0.000  0.020
    3  0.000  0.015  0.000  0.005  0.000  0.000  0.000  0.000  0.000  0.020
tot    0.000  0.033  0.000  0.011  0.224  0.000  0.000  0.000  0.671  0.938
 
band    11 # energy   -0.02324324 # occ.  0.00000000
 
ion      s     py     pz     px    dxy    dyz    dz2    dxz  x2-y2    tot
    1  0.009  0.003  0.000  0.009  0.219  0.000  0.513  0.000  0.073  0.827
    2  0.002  0.008  0.004  0.024  0.000  0.000  0.000  0.000  0.000  0.039
    3  0.002  0.008  0.004  0.024  0.000  0.000  0.000  0.000  0.000  0.039
tot    0.013  0.019  0.009  0.058  0.219  0.000  0.513  0.000  0.073  0.904
 
band    12 # energy    1.18481080 # occ.  0.00000000
 
ion      s     py     pz     px    dxy    dyz    dz2    dxz  x2-y2    tot
    1  0.000  0.000  0.000  0.000  0.000  0.104  0.000  0.313  0.000  0.417
    2  0.027  0.003  0.077  0.008  0.000  0.000  0.000  0.000  0.000  0.115
    3  0.027  0.003  0.077  0.008  0.000  0.000  0.000  0.000  0.000  0.115