<?xml version="1.0" encoding="ISO-8859-1"?>
<modeling>
 <generator>
  <i name="program" type="string">vasp </i>
  <i name="version" type="string">5.4.4.18Apr17-6-g9f103f2a35  </i>
  <i name="subversion" type="string">(build Jun 30 2017 11:15:00) complex            parallel </i>
  <i name="platform" type="string">STALLO_VASP_5.4.4 </i>
  <i name="date" type="string">2019 11 08 </i>
  <i name="time" type="string">11:44:55 </i>
 </generator>
 <incar>
  <i type="string" name="PREC">normal    ! low/normal/accurate</i>
  <i type="string" name="ALGO"> Fast      ! Algorithm for electronic re</i>
  <i type="int" name="ISPIN">     1</i>
  <i type="int" name="NELMIN">     4</i>
  <i name="EDIFF">      0.00000100</i>
  <i type="int" name="NSW">     0</i>
  <i name="ENCUT">    250.00000000</i>
  <i type="int" name="NEDOS">  2401</i>
  <i type="string" name="LREAL"> Auto      ! Projection in reciprocal sp</i>
  <i name="EMIN">    -12.00000000</i>
  <i name="EMAX">     12.00000000</i>
  <i type="int" name="ISMEAR">     0</i>
  <i name="SIGMA">      0.20000000</i>
  <i type="logical" name="LWAVE"> F  </i>
  <i type="int" name="LORBIT">    11</i>
  <i type="logical" name="LELF"> T  </i>
  <v type="int" name="KPOINT_BSE">    -1     0     0     0</v>
 </incar>
 <structure name="primitive_cell" >
  <crystal>
   <varray name="basis" >
    <v>       3.19031573       0.00000000       0.00000000 </v>
    <v>      -1.59515786       2.76289447       0.00000000 </v>
    <v>       0.00000000       0.00000000      20.87900430 </v>
   </varray>
   <i name="volume">    184.03810205 </i>
   <varray name="rec_basis" >
    <v>       0.31344860       0.18096963       0.00000000 </v>
    <v>       0.00000000       0.36193927       0.00000000 </v>
    <v>       0.00000000       0.00000000       0.04789500 </v>
   </varray>
  </crystal>
  <varray name="positions" >
   <v>       0.33333300      -0.33333300       0.17815749 </v>
   <v>      -0.33333400       0.33333300       0.25310764 </v>
   <v>      -0.33333300       0.33333300       0.10320735 </v>
  </varray>
 </structure>
 <varray name="primitive_index" >
  <v type="int" >        1 </v>
  <v type="int" >        3 </v>
  <v type="int" >        2 </v>
 </varray>
 <kpoints>
  <generation param="Gamma">
   <v type="int" name="divisions">       8        8        1 </v>
   <v name="usershift">      0.00000000       0.00000000       0.00000000 </v>
   <v name="genvec1">      0.12500000       0.00000000       0.00000000 </v>
   <v name="genvec2">      0.00000000       0.12500000       0.00000000 </v>
   <v name="genvec3">      0.00000000       0.00000000       1.00000000 </v>
   <v name="shift">      0.00000000       0.00000000       0.00000000 </v>
  </generation>
  <varray name="kpointlist" >
   <v>       0.00000000       0.00000000       0.00000000 </v>
   <v>       0.12500000       0.00000000       0.00000000 </v>
   <v>       0.25000000       0.00000000       0.00000000 </v>
   <v>       0.37500000      -0.00000000       0.00000000 </v>
   <v>       0.50000000       0.00000000       0.00000000 </v>
   <v>       0.12500000       0.12500000       0.00000000 </v>
   <v>       0.25000000       0.12500000       0.00000000 </v>
   <v>       0.37500000       0.12500000       0.00000000 </v>
   <v>       0.25000000       0.25000000       0.00000000 </v>
   <v>       0.37500000       0.25000000       0.00000000 </v>
  </varray>
  <varray name="weights" >
   <v>       0.01562500 </v>
   <v>       0.09375000 </v>
   <v>       0.09375000 </v>
   <v>       0.09375000 </v>
   <v>       0.04687500 </v>
   <v>       0.09375000 </v>
   <v>       0.18750000 </v>
   <v>       0.18750000 </v>
   <v>       0.09375000 </v>
   <v>       0.09375000 </v>
  </varray>
 </kpoints>
 <parameters>
  <separator name="general" >
   <i type="string" name="SYSTEM">unknown system</i>
   <i type="logical" name="LCOMPAT"> F  </i>
  </separator>
  <separator name="electronic" >
   <i type="string" name="PREC">normal</i>
   <i name="ENMAX">    250.00000000</i>
   <i name="ENAUG">    345.27800000</i>
   <i name="EDIFF">      0.00000100</i>
   <i type="int" name="IALGO">    68</i>
   <i type="int" name="IWAVPR">    10</i>
   <i type="int" name="NBANDS">    14</i>
   <i name="NELECT">     18.00000000</i>
   <i type="int" name="TURBO">     0</i>
   <i type="int" name="IRESTART">     0</i>
   <i type="int" name="NREBOOT">     0</i>
   <i type="int" name="NMIN">     0</i>
   <i name="EREF">      0.00000000</i>
   <separator name="electronic smearing" >
    <i type="int" name="ISMEAR">     0</i>
    <i name="SIGMA">      0.20000000</i>
    <i name="KSPACING">      0.50000000</i>
    <i type="logical" name="KGAMMA"> T  </i>
   </separator>
   <separator name="electronic projectors" >
    <i type="logical" name="LREAL"> T  </i>
    <v name="ROPT">     -0.00050000     -0.00050000</v>
    <i type="int" name="LMAXPAW">  -100</i>
    <i type="int" name="LMAXMIX">     2</i>
    <i type="logical" name="NLSPLINE"> F  </i>
   </separator>
   <separator name="electronic startup" >
    <i type="int" name="ISTART">     0</i>
    <i type="int" name="ICHARG">     2</i>
    <i type="int" name="INIWAV">     1</i>
   </separator>
   <separator name="electronic spin" >
    <i type="int" name="ISPIN">     1</i>
    <i type="logical" name="LNONCOLLINEAR"> F  </i>
    <v name="MAGMOM">      1.00000000      1.00000000      1.00000000</v>
    <i name="NUPDOWN">     -1.00000000</i>
    <i type="logical" name="LSORBIT"> F  </i>
    <v name="SAXIS">      0.00000000      0.00000000      1.00000000</v>
    <i type="logical" name="LSPIRAL"> F  </i>
    <v name="QSPIRAL">      0.00000000      0.00000000      0.00000000</v>
    <i type="logical" name="LZEROZ"> F  </i>
   </separator>
   <separator name="electronic exchange-correlation" >
    <i type="logical" name="LASPH"> F  </i>
    <i type="logical" name="LMETAGGA"> F  </i>
   </separator>
   <separator name="electronic convergence" >
    <i type="int" name="NELM">    60</i>
    <i type="int" name="NELMDL">    -5</i>
    <i type="int" name="NELMIN">     4</i>
    <i name="ENINI">    250.00000000</i>
    <separator name="electronic convergence detail" >
     <i type="logical" name="LDIAG"> T  </i>
     <i type="logical" name="LSUBROT"> F  </i>
     <i name="WEIMIN">      0.00000000</i>
     <i name="EBREAK">      0.00000002</i>
     <i name="DEPER">      0.30000000</i>
     <i type="int" name="NRMM">     4</i>
     <i name="TIME">      0.40000000</i>
    </separator>
   </separator>
   <separator name="electronic mixer" >
    <i name="AMIX">      0.40000000</i>
    <i name="BMIX">      1.00000000</i>
    <i name="AMIN">      0.10000000</i>
    <i name="AMIX_MAG">      1.60000000</i>
    <i name="BMIX_MAG">      1.00000000</i>
    <separator name="electronic mixer details" >
     <i type="int" name="IMIX">     4</i>
     <i type="logical" name="MIXFIRST"> F  </i>
     <i type="int" name="MAXMIX">   -45</i>
     <i name="WC">    100.00000000</i>
     <i type="int" name="INIMIX">     1</i>
     <i type="int" name="MIXPRE">     1</i>
     <i type="int" name="MREMOVE">     5</i>
    </separator>
   </separator>
   <separator name="electronic dipolcorrection" >
    <i type="logical" name="LDIPOL"> F  </i>
    <i type="logical" name="LMONO"> F  </i>
    <i type="int" name="IDIPOL">     0</i>
    <i name="EPSILON">      1.00000000</i>
    <v name="DIPOL">   -100.00000000   -100.00000000   -100.00000000</v>
    <i name="EFIELD">      0.00000000</i>
   </separator>
  </separator>
  <separator name="grids" >
   <i type="int" name="NGX">    12</i>
   <i type="int" name="NGY">    12</i>
   <i type="int" name="NGZ">    84</i>
   <i type="int" name="NGXF">    24</i>
   <i type="int" name="NGYF">    24</i>
   <i type="int" name="NGZF">   168</i>
   <i type="logical" name="ADDGRID"> F  </i>
  </separator>
  <separator name="ionic" >
   <i type="int" name="NSW">     0</i>
   <i type="int" name="IBRION">    -1</i>
   <i type="int" name="MDALGO">     0</i>
   <i type="int" name="ISIF">     2</i>
   <i name="PSTRESS">      0.00000000</i>
   <i name="EDIFFG">      0.00001000</i>
   <i type="int" name="NFREE">     0</i>
   <i name="POTIM">      0.50000000</i>
   <i name="SMASS">     -3.00000000</i>
   <i name="SCALEE">      1.00000000</i>
  </separator>
  <separator name="ionic md" >
   <i name="TEBEG">      0.00010000</i>
   <i name="TEEND">      0.00010000</i>
   <i type="int" name="NBLOCK">     1</i>
   <i type="int" name="KBLOCK">     1</i>
   <i type="int" name="NPACO">   256</i>
   <i name="APACO">     16.00000000</i>
  </separator>
  <separator name="symmetry" >
   <i type="int" name="ISYM">     2</i>
   <i name="SYMPREC">      0.00001000</i>
  </separator>
  <separator name="dos" >
   <i type="int" name="LORBIT">    11</i>
   <v name="RWIGS">     -1.00000000     -1.00000000</v>
   <i type="int" name="NEDOS">  2401</i>
   <i name="EMIN">    -12.00000000</i>
   <i name="EMAX">     12.00000000</i>
   <i name="EFERMI">      0.00000000</i>
  </separator>
  <separator name="writing" >
   <i type="int" name="NWRITE">     2</i>
   <i type="logical" name="LWAVE"> F  </i>
   <i type="logical" name="LDOWNSAMPLE"> F  </i>
   <i type="logical" name="LCHARG"> T  </i>
   <i type="logical" name="LPARD"> F  </i>
   <i type="logical" name="LVTOT"> F  </i>
   <i type="logical" name="LVHAR"> F  </i>
   <i type="logical" name="LELF"> T  </i>
   <i type="logical" name="LOPTICS"> F  </i>
   <v name="STM">      0.00000000      0.00000000      0.00000000      0.00000000      0.00000000      0.00000000      0.00000000</v>
  </separator>
  <separator name="performance" >
   <i type="int" name="NPAR">     2</i>
   <i type="int" name="NSIM">     4</i>
   <i type="int" name="NBLK">    -1</i>
   <i type="logical" name="LPLANE"> T  </i>
   <i type="logical" name="LSCALAPACK"> T  </i>
   <i type="logical" name="LSCAAWARE"> F  </i>
   <i type="logical" name="LSCALU"> F  </i>
   <i type="logical" name="LASYNC"> F  </i>
   <i type="logical" name="LORBITALREAL"> F  </i>
  </separator>
  <separator name="miscellaneous" >
   <i type="int" name="IDIOT">     3</i>
   <i type="int" name="ISPECIAL">     0</i>
   <i type="logical" name="LMUSIC"> F  </i>
   <v name="POMASS">     95.94000000     32.06600000</v>
   <v name="DARWINR">      0.00000000      0.00000000</v>
   <v name="DARWINV">      1.00000000      1.00000000</v>
   <i type="logical" name="LCORR"> T  </i>
  </separator>
  <i type="logical" name="GGA_COMPAT"> T  </i>
  <i type="logical" name="LBERRY"> F  </i>
  <i type="int" name="ICORELEVEL">     0</i>
  <i type="logical" name="LDAU"> F  </i>
  <i type="int" name="I_CONSTRAINED_M">     0</i>
  <separator name="electronic exchange-correlation" >
   <i type="string" name="GGA">--</i>
   <i type="int" name="VOSKOWN">     0</i>
   <i type="logical" name="LHFCALC"> F  </i>
   <i type="string" name="PRECFOCK"></i>
   <i type="logical" name="LSYMGRAD"> F  </i>
   <i type="logical" name="LHFONE"> F  </i>
   <i type="logical" name="LRHFCALC"> F  </i>
   <i type="logical" name="LTHOMAS"> F  </i>
   <i type="logical" name="LMODELHF"> F  </i>
   <i name="ENCUT4O">     -1.00000000</i>
   <i type="int" name="EXXOEP">     0</i>
   <i type="int" name="FOURORBIT">     0</i>
   <i name="AEXX">      0.00000000</i>
   <i name="HFALPHA">      0.00000000</i>
   <i name="MCALPHA">      0.00000000</i>
   <i name="ALDAX">      1.00000000</i>
   <i name="AGGAX">      1.00000000</i>
   <i name="ALDAC">      1.00000000</i>
   <i name="AGGAC">      1.00000000</i>
   <i type="int" name="NKREDX">     1</i>
   <i type="int" name="NKREDY">     1</i>
   <i type="int" name="NKREDZ">     1</i>
   <i type="logical" name="SHIFTRED"> F  </i>
   <i type="logical" name="ODDONLY"> F  </i>
   <i type="logical" name="EVENONLY"> F  </i>
   <i type="int" name="LMAXFOCK">     0</i>
   <i type="int" name="NMAXFOCKAE">     0</i>
   <i type="logical" name="LFOCKAEDFT"> F  </i>
   <i name="HFSCREEN">      0.00000000</i>
   <i name="HFSCREENC">      0.00000000</i>
   <i type="int" name="NBANDSGWLOW">     0</i>
  </separator>
  <separator name="vdW DFT" >
   <i type="logical" name="LUSE_VDW"> F  </i>
   <i name="Zab_VDW">     -0.84910000</i>
   <i name="PARAM1">      0.12340000</i>
   <i name="PARAM2">      1.00000000</i>
   <i name="PARAM3">      0.00000000</i>
  </separator>
  <separator name="model GW" >
   <i type="int" name="MODEL_GW">     0</i>
   <i name="MODEL_EPS0">     36.80762041</i>
   <i name="MODEL_ALPHA">      1.00000000</i>
  </separator>
  <separator name="linear response parameters" >
   <i type="logical" name="LEPSILON"> F  </i>
   <i type="logical" name="LRPA"> F  </i>
   <i type="logical" name="LNABLA"> F  </i>
   <i type="logical" name="LVEL"> F  </i>
   <i type="int" name="KINTER">     0</i>
   <i name="CSHIFT">      0.10000000</i>
   <i name="OMEGAMAX">     -1.00000000</i>
   <i name="DEG_THRESHOLD">      0.00200000</i>
   <i name="RTIME">     -0.10000000</i>
   <i name="WPLASMAI">      0.00000000</i>
   <v name="DFIELD">      0.00000000      0.00000000      0.00000000</v>
   <v name="WPLASMA">      0.00000000      0.00000000      0.00000000      0.00000000      0.00000000      0.00000000      0.00000000      0.00000000      0.00000000</v>
  </separator>
  <separator name="orbital magnetization" >
   <i type="logical" name="NUCIND"> F  </i>
   <v name="MAGPOS">      0.00000000      0.00000000      0.00000000</v>
   <i type="logical" name="LNICSALL"> T  </i>
   <i type="logical" name="ORBITALMAG"> F  </i>
   <i type="logical" name="LMAGBLOCH"> F  </i>
   <i type="logical" name="LCHIMAG"> F  </i>
   <i type="logical" name="LGAUGE"> T  </i>
   <i type="int" name="MAGATOM">     0</i>
   <v name="MAGDIPOL">      0.00000000      0.00000000      0.00000000</v>
   <v name="AVECCONST">      0.00000000      0.00000000      0.00000000</v>
  </separator>
  <separator name="response functions" >
   <i type="logical" name="LADDER"> F  </i>
   <i type="logical" name="LRPAFORCE"> F  </i>
   <i type="logical" name="LFXC"> F  </i>
   <i type="logical" name="LHARTREE"> T  </i>
   <i type="int" name="IBSE">     0</i>
   <v type="int" name="KPOINT">    -1     0     0     0</v>
   <i type="logical" name="LTCTE"> F  </i>
   <i type="logical" name="LTETE"> F  </i>
   <i type="logical" name="LTRIPLET"> F  </i>
   <i type="logical" name="LFXCEPS"> F  </i>
   <i type="logical" name="LFXHEG"> F  </i>
   <i type="int" name="NATURALO">     2</i>
   <i type="logical" name="L2ORDER"> F  </i>
   <i type="logical" name="LMP2LT"> F  </i>
   <i type="logical" name="LUSEW"> F  </i>
   <i name="ENCUTGW">     -2.00000000</i>
   <i name="ENCUTGWSOFT">     -2.00000000</i>
   <i name="ENCUTLF">     -1.00000000</i>
   <i type="int" name="LMAXMP2">    -1</i>
   <i name="SCISSOR">      0.00000000</i>
   <i type="int" name="NOMEGA">     0</i>
   <i type="int" name="NOMEGAR">     0</i>
   <i type="int" name="NBANDSGW">    -1</i>
   <i type="int" name="NBANDSO">    -1</i>
   <i type="int" name="NBANDSV">    -1</i>
   <i type="int" name="NELM">     1</i>
   <i type="int" name="NELMHF">     1</i>
   <i type="int" name="DIM">     3</i>
   <i type="int" name="ANTIRES">     0</i>
   <i name="OMEGAMAX">    -30.00000000</i>
   <i name="OMEGAMIN">    -30.00000000</i>
   <i name="OMEGATL">   -200.00000000</i>
   <i type="int" name="OMEGAGRID">   140</i>
   <i name="CSHIFT">     -0.10000000</i>
   <i type="logical" name="SELFENERGY"> F  </i>
   <i type="logical" name="LSPECTRAL"> F  </i>
   <i type="logical" name="LSPECTRALGW"> F  </i>
   <i type="logical" name="LSINGLES"> F  </i>
   <i type="logical" name="LFERMIGW"> F  </i>
   <i type="logical" name="ODDONLYGW"> F  </i>
   <i type="logical" name="EVENONLYGW"> F  </i>
   <i type="int" name="NKREDLFX">     1</i>
   <i type="int" name="NKREDLFY">     1</i>
   <i type="int" name="NKREDLFZ">     1</i>
   <i type="int" name="MAXMEM">  2800</i>
   <i type="int" name="TELESCOPE">     0</i>
   <i type="int" name="TAUPAR">     1</i>
   <i type="int" name="OMEGAPAR">    -1</i>
   <i name="LAMBDA">      1.00000000</i>
  </separator>
  <separator name="External order field" >
   <i name="OFIELD_KAPPA">      0.00000000</i>
   <v name="OFIELD_K">      0.00000000      0.00000000      0.00000000</v>
   <i name="OFIELD_Q6_NEAR">      0.00000000</i>
   <i name="OFIELD_Q6_FAR">      0.00000000</i>
   <i name="OFIELD_A">      0.00000000</i>
  </separator>
 </parameters>
 <atominfo>
  <atoms>       3 </atoms>
  <types>       2 </types>
  <array name="atoms" >
   <dimension dim="1">ion</dimension>
   <field type="string">element</field>
   <field type="int">atomtype</field>
   <set>
    <rc><c>Mo</c><c>   1</c></rc>
    <rc><c>S </c><c>   2</c></rc>
    <rc><c>S </c><c>   2</c></rc>
   </set>
  </array>
  <array name="atomtypes" >
   <dimension dim="1">type</dimension>
   <field type="int">atomspertype</field>
   <field type="string">element</field>
   <field>mass</field>
   <field>valence</field>
   <field type="string">pseudopotential</field>
   <set>
    <rc><c>   1</c><c>Mo</c><c>     95.94000000</c><c>      6.00000000</c><c> PAW_PBE Mo 08Apr2002                   </c></rc>
    <rc><c>   2</c><c>S </c><c>     32.06600000</c><c>      6.00000000</c><c>  PAW_PBE S 17Jan2003                   </c></rc>
   </set>
  </array>
 </atominfo>
 <structure name="initialpos" >
  <crystal>
   <varray name="basis" >
    <v>       3.19031573       0.00000000       0.00000000 </v>
    <v>      -1.59515786       2.76289447       0.00000000 </v>
    <v>       0.00000000       0.00000000      20.87900430 </v>
   </varray>
   <i name="volume">    184.03810205 </i>
   <varray name="rec_basis" >
    <v>       0.31344860       0.18096963       0.00000000 </v>
    <v>       0.00000000       0.36193927       0.00000000 </v>
    <v>       0.00000000       0.00000000       0.04789500 </v>
   </varray>
  </crystal>
  <varray name="positions" >
   <v>       0.33333300       0.66666700       0.17815749 </v>
   <v>       0.66666700       0.33333300       0.10320735 </v>
   <v>       0.66666600       0.33333300       0.25310764 </v>
  </varray>
 </structure>
 <calculation>
  <scstep>
   <time name="dav">    0.08    0.08</time>
   <time name="total">    0.10    0.15</time>
   <energy>
    <i name="alphaZ">     16.11002960 </i>
    <i name="ewald">   2681.45425050 </i>
    <i name="hartreedc">  -3380.46447125 </i>
    <i name="XCdc">    -36.31053422 </i>
    <i name="pawpsdc">    406.88651198 </i>
    <i name="pawaedc">   -329.34073203 </i>
    <i name="eentropy">     -0.02097440 </i>
    <i name="bandstr">    -35.80979502 </i>
    <i name="atom">    771.06857575 </i>
    <i name="e_fr_energy">     93.57286091 </i>
    <i name="e_wo_entrp">     93.59383530 </i>
    <i name="e_0_energy">     93.58334811 </i>
   </energy>
  </scstep>
  <scstep>
   <time name="dav">    0.11    0.12</time>
   <time name="total">    0.12    0.12</time>
   <energy>
    <i name="e_fr_energy">    -13.32636975 </i>
    <i name="e_wo_entrp">    -13.32636975 </i>
    <i name="e_0_energy">    -13.32636975 </i>
   </energy>
  </scstep>
  <scstep>
   <time name="dav">    0.11    0.11</time>
   <time name="total">    0.11    0.11</time>
   <energy>
    <i name="e_fr_energy">    -23.19183014 </i>
    <i name="e_wo_entrp">    -23.19183014 </i>
    <i name="e_0_energy">    -23.19183014 </i>
   </energy>
  </scstep>
  <scstep>
   <time name="dav">    0.10    0.10</time>
   <time name="total">    0.10    0.10</time>
   <energy>
    <i name="e_fr_energy">    -23.36601055 </i>
    <i name="e_wo_entrp">    -23.36601055 </i>
    <i name="e_0_energy">    -23.36601055 </i>
   </energy>
  </scstep>
  <scstep>
   <time name="dav">    0.10    0.10</time>
   <time name="total">    0.11    0.11</time>
   <energy>
    <i name="e_fr_energy">    -23.36977029 </i>
    <i name="e_wo_entrp">    -23.36977029 </i>
    <i name="e_0_energy">    -23.36977029 </i>
   </energy>
  </scstep>
  <scstep>
   <time name="diag">    0.01    0.02</time>
   <time name="diis">    0.05    0.05</time>
   <time name="orth">    0.00    0.00</time>
   <time name="total">    0.09    0.09</time>
   <energy>
    <i name="e_fr_energy">    -22.20954023 </i>
    <i name="e_wo_entrp">    -22.20954020 </i>
    <i name="e_0_energy">    -22.20954021 </i>
   </energy>
  </scstep>
  <scstep>
   <time name="diag">    0.01    0.01</time>
   <time name="diis">    0.05    0.05</time>
   <time name="orth">    0.00    0.00</time>
   <time name="total">    0.09    0.09</time>
   <energy>
    <i name="e_fr_energy">    -21.82693983 </i>
    <i name="e_wo_entrp">    -21.82693983 </i>
    <i name="e_0_energy">    -21.82693983 </i>
   </energy>
  </scstep>
  <scstep>
   <time name="diag">    0.01    0.01</time>
   <time name="diis">    0.05    0.05</time>
   <time name="orth">    0.00    0.00</time>
   <time name="total">    0.09    0.09</time>
   <energy>
    <i name="e_fr_energy">    -21.76747945 </i>
    <i name="e_wo_entrp">    -21.76747945 </i>
    <i name="e_0_energy">    -21.76747945 </i>
   </energy>
  </scstep>
  <scstep>
   <time name="diag">    0.01    0.01</time>
   <time name="diis">    0.06    0.06</time>
   <time name="orth">    0.00    0.00</time>
   <time name="total">    0.09    0.09</time>
   <energy>
    <i name="e_fr_energy">    -21.76279830 </i>
    <i name="e_wo_entrp">    -21.76279830 </i>
    <i name="e_0_energy">    -21.76279830 </i>
   </energy>
  </scstep>
  <scstep>
   <time name="diag">    0.01    0.01</time>
   <time name="diis">    0.06    0.06</time>
   <time name="orth">    0.00    0.00</time>
   <time name="total">    0.09    0.09</time>
   <energy>
    <i name="e_fr_energy">    -21.76201592 </i>
    <i name="e_wo_entrp">    -21.76201592 </i>
    <i name="e_0_energy">    -21.76201592 </i>
   </energy>
  </scstep>
  <scstep>
   <time name="diag">    0.01    0.01</time>
   <time name="diis">    0.05    0.05</time>
   <time name="orth">    0.00    0.00</time>
   <time name="total">    0.09    0.09</time>
   <energy>
    <i name="e_fr_energy">    -21.76208385 </i>
    <i name="e_wo_entrp">    -21.76208385 </i>
    <i name="e_0_energy">    -21.76208385 </i>
   </energy>
  </scstep>
  <scstep>
   <time name="diag">    0.01    0.01</time>
   <time name="diis">    0.05    0.05</time>
   <time name="orth">    0.00    0.00</time>
   <time name="total">    0.09    0.09</time>
   <energy>
    <i name="e_fr_energy">    -21.76199233 </i>
    <i name="e_wo_entrp">    -21.76199233 </i>
    <i name="e_0_energy">    -21.76199233 </i>
   </energy>
  </scstep>
  <scstep>
   <time name="diag">    0.01    0.01</time>
   <time name="diis">    0.05    0.05</time>
   <time name="orth">    0.00    0.00</time>
   <time name="total">    0.09    0.09</time>
   <energy>
    <i name="e_fr_energy">    -21.76258655 </i>
    <i name="e_wo_entrp">    -21.76258655 </i>
    <i name="e_0_energy">    -21.76258655 </i>
   </energy>
  </scstep>
  <scstep>
   <time name="diag">    0.01    0.01</time>
   <time name="diis">    0.06    0.06</time>
   <time name="orth">    0.00    0.00</time>
   <time name="total">    0.09    0.09</time>
   <energy>
    <i name="e_fr_energy">    -21.76266183 </i>
    <i name="e_wo_entrp">    -21.76266183 </i>
    <i name="e_0_energy">    -21.76266183 </i>
   </energy>
  </scstep>
  <scstep>
   <time name="diag">    0.01    0.01</time>
   <time name="diis">    0.05    0.05</time>
   <time name="orth">    0.00    0.00</time>
   <time name="total">    0.08    0.09</time>
   <energy>
    <i name="e_fr_energy">    -21.76279491 </i>
    <i name="e_wo_entrp">    -21.76279491 </i>
    <i name="e_0_energy">    -21.76279491 </i>
   </energy>
  </scstep>
  <scstep>
   <time name="diag">    0.01    0.01</time>
   <time name="diis">    0.04    0.04</time>
   <time name="orth">    0.00    0.00</time>
   <time name="total">    0.08    0.08</time>
   <energy>
    <i name="e_fr_energy">    -21.76282068 </i>
    <i name="e_wo_entrp">    -21.76282068 </i>
    <i name="e_0_energy">    -21.76282068 </i>
   </energy>
  </scstep>
  <scstep>
   <time name="diag">    0.01    0.01</time>
   <time name="diis">    0.04    0.04</time>
   <time name="orth">    0.00    0.00</time>
   <time name="total">    0.07    0.07</time>
   <energy>
    <i name="e_fr_energy">    -21.76283434 </i>
    <i name="e_wo_entrp">    -21.76283434 </i>
    <i name="e_0_energy">    -21.76283434 </i>
   </energy>
  </scstep>
  <scstep>
   <time name="diag">    0.01    0.01</time>
   <time name="diis">    0.04    0.04</time>
   <time name="orth">    0.00    0.00</time>
   <time name="total">    0.07    0.07</time>
   <energy>
    <i name="alphaZ">     16.11002960 </i>
    <i name="ewald">   2681.45425050 </i>
    <i name="hartreedc">  -3392.32220977 </i>
    <i name="XCdc">    -35.17198762 </i>
    <i name="pawpsdc">    478.71469803 </i>
    <i name="pawaedc">   -402.90565412 </i>
    <i name="eentropy">     -0.00000000 </i>
    <i name="bandstr">   -138.71053758 </i>
    <i name="atom">    771.06857575 </i>
    <i name="e_fr_energy">    -21.76283521 </i>
    <i name="e_wo_entrp">    -21.76283521 </i>
    <i name="e_0_energy">    -21.76283521 </i>
   </energy>
  </scstep>
  <structure>
   <crystal>
    <varray name="basis" >
     <v>       3.19031573       0.00000000       0.00000000 </v>
     <v>      -1.59515786       2.76289447       0.00000000 </v>
     <v>       0.00000000       0.00000000      20.87900430 </v>
    </varray>
    <i name="volume">    184.03810205 </i>
    <varray name="rec_basis" >
     <v>       0.31344860       0.18096963       0.00000000 </v>
     <v>       0.00000000       0.36193927       0.00000000 </v>
     <v>       0.00000000       0.00000000       0.04789500 </v>
    </varray>
   </crystal>
   <varray name="positions" >
    <v>       0.33333300       0.66666700       0.17815749 </v>
    <v>       0.66666700       0.33333300       0.10320735 </v>
    <v>       0.66666600       0.33333300       0.25310764 </v>
   </varray>
  </structure>
  <varray name="forces" >
   <v>      -0.00000000       0.00000000       0.00000000 </v>
   <v>       0.00000000      -0.00000000       0.10246833 </v>
   <v>       0.00000000      -0.00000000      -0.10246833 </v>
  </varray>
  <varray name="stress" >
   <v>      -5.11218851      -0.00000000       0.00000000 </v>
   <v>      -0.00000000      -5.11218851       0.00000000 </v>
   <v>       0.00000000      -0.00000000      -7.59494132 </v>
  </varray>
  <energy>
   <i name="e_fr_energy">    -22.35423256 </i>
   <i name="e_wo_entrp">    -22.35423256 </i>
   <i name="e_0_energy">     -0.00000000 </i>
  </energy>
  <time name="totalsc">    1.91    2.04</time>
  <eigenvalues>
   <array>
    <dimension dim="1">band</dimension>
    <dimension dim="2">kpoint</dimension>
    <dimension dim="3">spin</dimension>
    <field>eigene</field>
    <field>occ</field>
    <set>
     <set comment="spin 1">
      <set comment="kpoint 1">
       <r>  -16.7536    1.0000 </r>
       <r>  -15.5453    1.0000 </r>
       <r>   -8.2632    1.0000 </r>
       <r>   -5.3016    1.0000 </r>
       <r>   -5.3014    1.0000 </r>
       <r>   -4.4413    1.0000 </r>
       <r>   -4.1947    1.0000 </r>
       <r>   -4.1942    1.0000 </r>
       <r>   -2.7194    1.0000 </r>
       <r>    0.0544    0.0000 </r>
       <r>    0.0552    0.0000 </r>
       <r>    0.2766    0.0000 </r>
       <r>    0.2773    0.0000 </r>
       <r>    2.6614    0.0000 </r>
      </set>
      <set comment="kpoint 2">
       <r>  -16.5396    1.0000 </r>
       <r>  -15.4428    1.0000 </r>
       <r>   -8.0182    1.0000 </r>
       <r>   -5.7658    1.0000 </r>
       <r>   -5.2483    1.0000 </r>
       <r>   -5.0674    1.0000 </r>
       <r>   -4.5307    1.0000 </r>
       <r>   -3.7627    1.0000 </r>
       <r>   -2.8580    1.0000 </r>
       <r>   -0.2275    0.0000 </r>
       <r>   -0.1611    0.0000 </r>
       <r>    0.0401    0.0000 </r>
       <r>    0.4089    0.0000 </r>
       <r>    3.0220    0.0000 </r>
      </set>
      <set comment="kpoint 3">
       <r>  -15.9710    1.0000 </r>
       <r>  -15.1740    1.0000 </r>
       <r>   -7.6528    1.0000 </r>
       <r>   -6.4942    1.0000 </r>
       <r>   -6.2306    1.0000 </r>
       <r>   -5.1671    1.0000 </r>
       <r>   -4.4813    1.0000 </r>
       <r>   -4.0152    1.0000 </r>
       <r>   -3.4268    1.0000 </r>
       <r>   -0.5522    0.0000 </r>
       <r>   -0.3770    0.0000 </r>
       <r>    0.1663    0.0000 </r>
       <r>    1.0242    0.0000 </r>
       <r>    3.8543    0.0000 </r>
      </set>
      <set comment="kpoint 4">
       <r>  -15.2961    1.0000 </r>
       <r>  -14.8654    1.0000 </r>
       <r>   -8.0920    1.0000 </r>
       <r>   -7.0995    1.0000 </r>
       <r>   -6.6256    1.0000 </r>
       <r>   -5.6661    1.0000 </r>
       <r>   -4.4243    1.0000 </r>
       <r>   -3.8917    1.0000 </r>
       <r>   -3.6209    1.0000 </r>
       <r>   -0.5596    0.0000 </r>
       <r>   -0.2798    0.0000 </r>
       <r>    0.8847    0.0000 </r>
       <r>    1.4160    0.0000 </r>
       <r>    4.4415    0.0000 </r>
      </set>
      <set comment="kpoint 5">
       <r>  -14.9678    1.0000 </r>
       <r>  -14.7220    1.0000 </r>
       <r>   -8.4249    1.0000 </r>
       <r>   -7.4653    1.0000 </r>
       <r>   -6.7507    1.0000 </r>
       <r>   -5.8460    1.0000 </r>
       <r>   -4.5624    1.0000 </r>
       <r>   -3.6643    1.0000 </r>
       <r>   -3.3392    1.0000 </r>
       <r>   -0.5379    0.0000 </r>
       <r>   -0.0232    0.0000 </r>
       <r>    1.1848    0.0000 </r>
       <r>    1.5325    0.0000 </r>
       <r>    3.4872    0.0000 </r>
      </set>
      <set comment="kpoint 6">
       <r>  -16.1469    1.0000 </r>
       <r>  -15.2558    1.0000 </r>
       <r>   -7.6712    1.0000 </r>
       <r>   -6.3315    1.0000 </r>
       <r>   -5.8119    1.0000 </r>
       <r>   -5.3450    1.0000 </r>
       <r>   -4.7286    1.0000 </r>
       <r>   -3.6282    1.0000 </r>
       <r>   -3.2311    1.0000 </r>
       <r>   -0.6272    0.0000 </r>
       <r>   -0.2497    0.0000 </r>
       <r>   -0.2377    0.0000 </r>
       <r>    1.0030    0.0000 </r>
       <r>    3.6165    0.0000 </r>
      </set>
      <set comment="kpoint 7">
       <r>  -15.5135    1.0000 </r>
       <r>  -14.9571    1.0000 </r>
       <r>   -7.7353    1.0000 </r>
       <r>   -6.7575    1.0000 </r>
       <r>   -6.4943    1.0000 </r>
       <r>   -5.8503    1.0000 </r>
       <r>   -4.6298    1.0000 </r>
       <r>   -3.9911    1.0000 </r>
       <r>   -3.5146    1.0000 </r>
       <r>   -0.7108    0.0000 </r>
       <r>   -0.2642    0.0000 </r>
       <r>    0.2329    0.0000 </r>
       <r>    1.5086    0.0000 </r>
       <r>    4.6197    0.0000 </r>
      </set>
      <set comment="kpoint 8">
       <r>  -14.9831    1.0000 </r>
       <r>  -14.7131    1.0000 </r>
       <r>   -8.1373    1.0000 </r>
       <r>   -7.5213    1.0000 </r>
       <r>   -6.6231    1.0000 </r>
       <r>   -5.8678    1.0000 </r>
       <r>   -4.6144    1.0000 </r>
       <r>   -4.4722    1.0000 </r>
       <r>   -3.1879    1.0000 </r>
       <r>   -0.5189    0.0000 </r>
       <r>   -0.0087    0.0000 </r>
       <r>    0.8566    0.0000 </r>
       <r>    1.5427    0.0000 </r>
       <r>    4.0122    0.0000 </r>
      </set>
      <set comment="kpoint 9">
       <r>  -14.9981    1.0000 </r>
       <r>  -14.7042    1.0000 </r>
       <r>   -7.7764    1.0000 </r>
       <r>   -7.5710    1.0000 </r>
       <r>   -6.2970    1.0000 </r>
       <r>   -5.9160    1.0000 </r>
       <r>   -5.5969    1.0000 </r>
       <r>   -4.3392    1.0000 </r>
       <r>   -3.2177    1.0000 </r>
       <r>   -0.5699    0.0000 </r>
       <r>    0.0419    0.0000 </r>
       <r>    0.3586    0.0000 </r>
       <r>    1.8269    0.0000 </r>
       <r>    4.8433    0.0000 </r>
      </set>
      <set comment="kpoint 10">
       <r>  -14.7632    1.0000 </r>
       <r>  -14.5852    1.0000 </r>
       <r>   -7.9560    1.0000 </r>
       <r>   -7.6072    1.0000 </r>
       <r>   -6.5807    1.0000 </r>
       <r>   -5.9188    1.0000 </r>
       <r>   -5.6903    1.0000 </r>
       <r>   -4.7250    1.0000 </r>
       <r>   -2.8503    1.0000 </r>
       <r>   -0.8962    0.0000 </r>
       <r>    0.4192    0.0000 </r>
       <r>    0.5912    0.0000 </r>
       <r>    1.9699    0.0000 </r>
       <r>    4.2562    0.0000 </r>
      </set>
     </set>
    </set>
   </array>
  </eigenvalues>
  <separator name="orbital magnetization" >
   <v name="MAGDIPOLOUT">      0.00000000      0.00000000      0.00000000</v>
  </separator>
  <dos>
   <i name="efermi">     -1.89000000 </i>
   <total>
    <array>
     <dimension dim="1">gridpoints</dimension>
     <dimension dim="2">spin</dimension>
     <field>energy</field>
     <field>total</field>
     <field>integrated</field>
     <set>
      <set comment="spin 1">
       <r>   -12.0000   400.0000     4.0000 </r>
       <r>   -11.9900     0.0000     4.0000 </r>
       <r>   -11.9800     0.0000     4.0000 </r>
       <r>   -11.9700     0.0000     4.0000 </r>
       <r>   -11.9600     0.0000     4.0000 </r>
       <r>   -11.9500     0.0000     4.0000 </r>
       <r>   -11.9400     0.0000     4.0000 </r>
       <r>   -11.9300     0.0000     4.0000 </r>
       <r>   -11.9200     0.0000     4.0000 </r>
       <r>   -11.9100     0.0000     4.0000 </r>
       <r>   -11.9000     0.0000     4.0000 </r>
       <r>   -11.8900     0.0000     4.0000 </r>
       <r>   -11.8800     0.0000     4.0000 </r>
       <r>   -11.8700     0.0000     4.0000 </r>
       <r>   -11.8600     0.0000     4.0000 </r>
       <r>   -11.8500     0.0000     4.0000 </r>
       <r>   -11.8400     0.0000     4.0000 </r>
       <r>   -11.8300     0.0000     4.0000 </r>
       <r>   -11.8200     0.0000     4.0000 </r>
       <r>   -11.8100     0.0000     4.0000 </r>
       <r>   -11.8000     0.0000     4.0000 </r>
       <r>   -11.7900     0.0000     4.0000 </r>
       <r>   -11.7800     0.0000     4.0000 </r>
       <r>   -11.7700     0.0000     4.0000 </r>
       <r>   -11.7600     0.0000     4.0000 </r>
       <r>   -11.7500     0.0000     4.0000 </r>
       <r>   -11.7400     0.0000     4.0000 </r>
       <r>   -11.7300     0.0000     4.0000 </r>
       <r>   -11.7200     0.0000     4.0000 </r>
       <r>   -11.7100     0.0000     4.0000 </r>
       <r>   -11.7000     0.0000     4.0000 </r>
       <r>   -11.6900     0.0000     4.0000 </r>
       <r>   -11.6800     0.0000     4.0000 </r>
       <r>   -11.6700     0.0000     4.0000 </r>
       <r>   -11.6600     0.0000     4.0000 </r>
       <r>   -11.6500     0.0000     4.0000 </r>
       <r>   -11.6400     0.0000     4.0000 </r>
       <r>   -11.6300     0.0000     4.0000 </r>
       <r>   -11.6200     0.0000     4.0000 </r>
       <r>   -11.6100     0.0000     4.0000 </r>
       <r>   -11.6000     0.0000     4.0000 </r>
       <r>   -11.5900     0.0000     4.0000 </r>
       <r>   -11.5800     0.0000     4.0000 </r>
       <r>   -11.5700     0.0000     4.0000 </r>
       <r>   -11.5600     0.0000     4.0000 </r>
       <r>   -11.5500     0.0000     4.0000 </r>
       <r>   -11.5400     0.0000     4.0000 </r>
       <r>   -11.5300     0.0000     4.0000 </r>
       <r>   -11.5200     0.0000     4.0000 </r>
       <r>   -11.5100     0.0000     4.0000 </r>
       <r>   -11.5000     0.0000     4.0000 </r>
       <r>   -11.4900     0.0000     4.0000 </r>
       <r>   -11.4800     0.0000     4.0000 </r>
       <r>   -11.4700     0.0000     4.0000 </r>
       <r>   -11.4600     0.0000     4.0000 </r>
       <r>   -11.4500     0.0000     4.0000 </r>
       <r>   -11.4400     0.0000     4.0000 </r>
       <r>   -11.4300     0.0000     4.0000 </r>
       <r>   -11.4200     0.0000     4.0000 </r>
       <r>   -11.4100     0.0000     4.0000 </r>
       <r>   -11.4000     0.0000     4.0000 </r>
       <r>   -11.3900     0.0000     4.0000 </r>
       <r>   -11.3800     0.0000     4.0000 </r>
       <r>   -11.3700     0.0000     4.0000 </r>
       <r>   -11.3600     0.0000     4.0000 </r>
       <r>   -11.3500     0.0000     4.0000 </r>
       <r>   -11.3400     0.0000     4.0000 </r>
       <r>   -11.3300     0.0000     4.0000 </r>
       <r>   -11.3200     0.0000     4.0000 </r>
       <r>   -11.3100     0.0000     4.0000 </r>
       <r>   -11.3000     0.0000     4.0000 </r>
       <r>   -11.2900     0.0000     4.0000 </r>
       <r>   -11.2800     0.0000     4.0000 </r>
       <r>   -11.2700     0.0000     4.0000 </r>
       <r>   -11.2600     0.0000     4.0000 </r>
       <r>   -11.2500     0.0000     4.0000 </r>
       <r>   -11.2400     0.0000     4.0000 </r>
       <r>   -11.2300     0.0000     4.0000 </r>
       <r>   -11.2200     0.0000     4.0000 </r>
       <r>   -11.2100     0.0000     4.0000 </r>
       <r>   -11.2000     0.0000     4.0000 </r>
       <r>   -11.1900     0.0000     4.0000 </r>
       <r>   -11.1800     0.0000     4.0000 </r>
       <r>   -11.1700     0.0000     4.0000 </r>
       <r>   -11.1600     0.0000     4.0000 </r>
       <r>   -11.1500     0.0000     4.0000 </r>
       <r>   -11.1400     0.0000     4.0000 </r>
       <r>   -11.1300     0.0000     4.0000 </r>
       <r>   -11.1200     0.0000     4.0000 </r>
       <r>   -11.1100     0.0000     4.0000 </r>
       <r>   -11.1000     0.0000     4.0000 </r>
       <r>   -11.0900     0.0000     4.0000 </r>
       <r>   -11.0800     0.0000     4.0000 </r>
       <r>   -11.0700     0.0000     4.0000 </r>
       <r>   -11.0600     0.0000     4.0000 </r>
       <r>   -11.0500     0.0000     4.0000 </r>
       <r>   -11.0400     0.0000     4.0000 </r>
       <r>   -11.0300     0.0000     4.0000 </r>
       <r>   -11.0200     0.0000     4.0000 </r>
       <r>   -11.0100     0.0000     4.0000 </r>
       <r>   -11.0000     0.0000     4.0000 </r>
       <r>   -10.9900     0.0000     4.0000 </r>
       <r>   -10.9800     0.0000     4.0000 </r>
       <r>   -10.9700     0.0000     4.0000 </r>
       <r>   -10.9600     0.0000     4.0000 </r>
       <r>   -10.9500     0.0000     4.0000 </r>
       <r>   -10.9400     0.0000     4.0000 </r>
       <r>   -10.9300     0.0000     4.0000 </r>
       <r>   -10.9200     0.0000     4.0000 </r>
       <r>   -10.9100     0.0000     4.0000 </r>
       <r>   -10.9000     0.0000     4.0000 </r>
       <r>   -10.8900     0.0000     4.0000 </r>
       <r>   -10.8800     0.0000     4.0000 </r>
       <r>   -10.8700     0.0000     4.0000 </r>
       <r>   -10.8600     0.0000     4.0000 </r>
       <r>   -10.8500     0.0000     4.0000 </r>
       <r>   -10.8400     0.0000     4.0000 </r>
       <r>   -10.8300     0.0000     4.0000 </r>
       <r>   -10.8200     0.0000     4.0000 </r>
       <r>   -10.8100     0.0000     4.0000 </r>
       <r>   -10.8000     0.0000     4.0000 </r>
       <r>   -10.7900     0.0000     4.0000 </r>
       <r>   -10.7800     0.0000     4.0000 </r>
       <r>   -10.7700     0.0000     4.0000 </r>
       <r>   -10.7600     0.0000     4.0000 </r>
       <r>   -10.7500     0.0000     4.0000 </r>
       <r>   -10.7400     0.0000     4.0000 </r>
       <r>   -10.7300     0.0000     4.0000 </r>
       <r>   -10.7200     0.0000     4.0000 </r>
       <r>   -10.7100     0.0000     4.0000 </r>
       <r>   -10.7000     0.0000     4.0000 </r>
       <r>   -10.6900     0.0000     4.0000 </r>
       <r>   -10.6800     0.0000     4.0000 </r>
       <r>   -10.6700     0.0000     4.0000 </r>
       <r>   -10.6600     0.0000     4.0000 </r>
       <r>   -10.6500     0.0000     4.0000 </r>
       <r>   -10.6400     0.0000     4.0000 </r>
       <r>   -10.6300     0.0000     4.0000 </r>
       <r>   -10.6200     0.0000     4.0000 </r>
       <r>   -10.6100     0.0000     4.0000 </r>
       <r>   -10.6000     0.0000     4.0000 </r>
       <r>   -10.5900     0.0000     4.0000 </r>
       <r>   -10.5800     0.0000     4.0000 </r>
       <r>   -10.5700     0.0000     4.0000 </r>
       <r>   -10.5600     0.0000     4.0000 </r>
       <r>   -10.5500     0.0000     4.0000 </r>
       <r>   -10.5400     0.0000     4.0000 </r>
       <r>   -10.5300     0.0000     4.0000 </r>
       <r>   -10.5200     0.0000     4.0000 </r>
       <r>   -10.5100     0.0000     4.0000 </r>
       <r>   -10.5000     0.0000     4.0000 </r>
       <r>   -10.4900     0.0000     4.0000 </r>
       <r>   -10.4800     0.0000     4.0000 </r>
       <r>   -10.4700     0.0000     4.0000 </r>
       <r>   -10.4600     0.0000     4.0000 </r>
       <r>   -10.4500     0.0000     4.0000 </r>
       <r>   -10.4400     0.0000     4.0000 </r>
       <r>   -10.4300     0.0000     4.0000 </r>
       <r>   -10.4200     0.0000     4.0000 </r>
       <r>   -10.4100     0.0000     4.0000 </r>
       <r>   -10.4000     0.0000     4.0000 </r>
       <r>   -10.3900     0.0000     4.0000 </r>
       <r>   -10.3800     0.0000     4.0000 </r>
       <r>   -10.3700     0.0000     4.0000 </r>
       <r>   -10.3600     0.0000     4.0000 </r>
       <r>   -10.3500     0.0000     4.0000 </r>
       <r>   -10.3400     0.0000     4.0000 </r>
       <r>   -10.3300     0.0000     4.0000 </r>
       <r>   -10.3200     0.0000     4.0000 </r>
       <r>   -10.3100     0.0000     4.0000 </r>
       <r>   -10.3000     0.0000     4.0000 </r>
       <r>   -10.2900     0.0000     4.0000 </r>
       <r>   -10.2800     0.0000     4.0000 </r>
       <r>   -10.2700     0.0000     4.0000 </r>
       <r>   -10.2600     0.0000     4.0000 </r>
       <r>   -10.2500     0.0000     4.0000 </r>
       <r>   -10.2400     0.0000     4.0000 </r>
       <r>   -10.2300     0.0000     4.0000 </r>
       <r>   -10.2200     0.0000     4.0000 </r>
       <r>   -10.2100     0.0000     4.0000 </r>
       <r>   -10.2000     0.0000     4.0000 </r>
       <r>   -10.1900     0.0000     4.0000 </r>
       <r>   -10.1800     0.0000     4.0000 </r>
       <r>   -10.1700     0.0000     4.0000 </r>
       <r>   -10.1600     0.0000     4.0000 </r>
       <r>   -10.1500     0.0000     4.0000 </r>
       <r>   -10.1400     0.0000     4.0000 </r>
       <r>   -10.1300     0.0000     4.0000 </r>
       <r>   -10.1200     0.0000     4.0000 </r>
       <r>   -10.1100     0.0000     4.0000 </r>
       <r>   -10.1000     0.0000     4.0000 </r>
       <r>   -10.0900     0.0000     4.0000 </r>
       <r>   -10.0800     0.0000     4.0000 </r>
       <r>   -10.0700     0.0000     4.0000 </r>
       <r>   -10.0600     0.0000     4.0000 </r>
       <r>   -10.0500     0.0000     4.0000 </r>
       <r>   -10.0400     0.0000     4.0000 </r>
       <r>   -10.0300     0.0000     4.0000 </r>
       <r>   -10.0200     0.0000     4.0000 </r>
       <r>   -10.0100     0.0000     4.0000 </r>
       <r>   -10.0000     0.0000     4.0000 </r>
       <r>    -9.9900     0.0000     4.0000 </r>
       <r>    -9.9800     0.0000     4.0000 </r>
       <r>    -9.9700     0.0000     4.0000 </r>
       <r>    -9.9600     0.0000     4.0000 </r>
       <r>    -9.9500     0.0000     4.0000 </r>
       <r>    -9.9400     0.0000     4.0000 </r>
       <r>    -9.9300     0.0000     4.0000 </r>
       <r>    -9.9200     0.0000     4.0000 </r>
       <r>    -9.9100     0.0000     4.0000 </r>
       <r>    -9.9000     0.0000     4.0000 </r>
       <r>    -9.8900     0.0000     4.0000 </r>
       <r>    -9.8800     0.0000     4.0000 </r>
       <r>    -9.8700     0.0000     4.0000 </r>
       <r>    -9.8600     0.0000     4.0000 </r>
       <r>    -9.8500     0.0000     4.0000 </r>
       <r>    -9.8400     0.0000     4.0000 </r>
       <r>    -9.8300     0.0000     4.0000 </r>
       <r>    -9.8200     0.0000     4.0000 </r>
       <r>    -9.8100     0.0000     4.0000 </r>
       <r>    -9.8000     0.0000     4.0000 </r>
       <r>    -9.7900     0.0000     4.0000 </r>
       <r>    -9.7800     0.0000     4.0000 </r>
       <r>    -9.7700     0.0000     4.0000 </r>
       <r>    -9.7600     0.0000     4.0000 </r>
       <r>    -9.7500     0.0000     4.0000 </r>
       <r>    -9.7400     0.0000     4.0000 </r>
       <r>    -9.7300     0.0000     4.0000 </r>
       <r>    -9.7200     0.0000     4.0000 </r>
       <r>    -9.7100     0.0000     4.0000 </r>
       <r>    -9.7000     0.0000     4.0000 </r>
       <r>    -9.6900     0.0000     4.0000 </r>
       <r>    -9.6800     0.0000     4.0000 </r>
       <r>    -9.6700     0.0000     4.0000 </r>
       <r>    -9.6600     0.0000     4.0000 </r>
       <r>    -9.6500     0.0000     4.0000 </r>
       <r>    -9.6400     0.0000     4.0000 </r>
       <r>    -9.6300     0.0000     4.0000 </r>
       <r>    -9.6200     0.0000     4.0000 </r>
       <r>    -9.6100     0.0000     4.0000 </r>
       <r>    -9.6000     0.0000     4.0000 </r>
       <r>    -9.5900     0.0000     4.0000 </r>
       <r>    -9.5800     0.0000     4.0000 </r>
       <r>    -9.5700     0.0000     4.0000 </r>
       <r>    -9.5600     0.0000     4.0000 </r>
       <r>    -9.5500     0.0000     4.0000 </r>
       <r>    -9.5400     0.0000     4.0000 </r>
       <r>    -9.5300     0.0000     4.0000 </r>
       <r>    -9.5200     0.0000     4.0000 </r>
       <r>    -9.5100     0.0000     4.0000 </r>
       <r>    -9.5000     0.0000     4.0000 </r>
       <r>    -9.4900     0.0000     4.0000 </r>
       <r>    -9.4800     0.0000     4.0000 </r>
       <r>    -9.4700     0.0000     4.0000 </r>
       <r>    -9.4600     0.0000     4.0000 </r>
       <r>    -9.4500     0.0000     4.0000 </r>
       <r>    -9.4400     0.0000     4.0000 </r>
       <r>    -9.4300     0.0000     4.0000 </r>
       <r>    -9.4200     0.0000     4.0000 </r>
       <r>    -9.4100     0.0000     4.0000 </r>
       <r>    -9.4000     0.0000     4.0000 </r>
       <r>    -9.3900     0.0000     4.0000 </r>
       <r>    -9.3800     0.0000     4.0000 </r>
       <r>    -9.3700     0.0000     4.0000 </r>
       <r>    -9.3600     0.0000     4.0000 </r>
       <r>    -9.3500     0.0000     4.0000 </r>
       <r>    -9.3400     0.0000     4.0000 </r>
       <r>    -9.3300     0.0000     4.0000 </r>
       <r>    -9.3200     0.0000     4.0000 </r>
       <r>    -9.3100     0.0000     4.0000 </r>
       <r>    -9.3000     0.0000     4.0000 </r>
       <r>    -9.2900     0.0000     4.0000 </r>
       <r>    -9.2800     0.0000     4.0000 </r>
       <r>    -9.2700     0.0000     4.0000 </r>
       <r>    -9.2600     0.0000     4.0000 </r>
       <r>    -9.2500     0.0000     4.0000 </r>
       <r>    -9.2400     0.0000     4.0000 </r>
       <r>    -9.2300     0.0000     4.0000 </r>
       <r>    -9.2200     0.0000     4.0000 </r>
       <r>    -9.2100     0.0000     4.0000 </r>
       <r>    -9.2000     0.0000     4.0000 </r>
       <r>    -9.1900     0.0000     4.0000 </r>
       <r>    -9.1800     0.0000     4.0000 </r>
       <r>    -9.1700     0.0000     4.0000 </r>
       <r>    -9.1600     0.0000     4.0000 </r>
       <r>    -9.1500     0.0000     4.0000 </r>
       <r>    -9.1400     0.0000     4.0000 </r>
       <r>    -9.1300     0.0000     4.0000 </r>
       <r>    -9.1200     0.0000     4.0000 </r>
       <r>    -9.1100     0.0000     4.0000 </r>
       <r>    -9.1000     0.0000     4.0000 </r>
       <r>    -9.0900     0.0000     4.0000 </r>
       <r>    -9.0800     0.0000     4.0000 </r>
       <r>    -9.0700     0.0000     4.0000 </r>
       <r>    -9.0600     0.0000     4.0000 </r>
       <r>    -9.0500     0.0000     4.0000 </r>
       <r>    -9.0400     0.0000     4.0000 </r>
       <r>    -9.0300     0.0000     4.0000 </r>
       <r>    -9.0200     0.0000     4.0000 </r>
       <r>    -9.0100     0.0000     4.0000 </r>
       <r>    -9.0000     0.0001     4.0000 </r>
       <r>    -8.9900     0.0001     4.0000 </r>
       <r>    -8.9800     0.0001     4.0000 </r>
       <r>    -8.9700     0.0001     4.0000 </r>
       <r>    -8.9600     0.0002     4.0000 </r>
       <r>    -8.9500     0.0002     4.0000 </r>
       <r>    -8.9400     0.0003     4.0000 </r>
       <r>    -8.9300     0.0004     4.0000 </r>
       <r>    -8.9200     0.0005     4.0000 </r>
       <r>    -8.9100     0.0007     4.0000 </r>
       <r>    -8.9000     0.0008     4.0000 </r>
       <r>    -8.8900     0.0011     4.0000 </r>
       <r>    -8.8800     0.0013     4.0001 </r>
       <r>    -8.8700     0.0017     4.0001 </r>
       <r>    -8.8600     0.0021     4.0001 </r>
       <r>    -8.8500     0.0026     4.0001 </r>
       <r>    -8.8400     0.0032     4.0002 </r>
       <r>    -8.8300     0.0040     4.0002 </r>
       <r>    -8.8200     0.0049     4.0002 </r>
       <r>    -8.8100     0.0059     4.0003 </r>
       <r>    -8.8000     0.0072     4.0004 </r>
       <r>    -8.7900     0.0087     4.0005 </r>
       <r>    -8.7800     0.0105     4.0006 </r>
       <r>    -8.7700     0.0125     4.0007 </r>
       <r>    -8.7600     0.0149     4.0008 </r>
       <r>    -8.7500     0.0176     4.0010 </r>
       <r>    -8.7400     0.0208     4.0012 </r>
       <r>    -8.7300     0.0244     4.0015 </r>
       <r>    -8.7200     0.0285     4.0018 </r>
       <r>    -8.7100     0.0331     4.0021 </r>
       <r>    -8.7000     0.0383     4.0025 </r>
       <r>    -8.6900     0.0440     4.0029 </r>
       <r>    -8.6800     0.0504     4.0034 </r>
       <r>    -8.6700     0.0575     4.0040 </r>
       <r>    -8.6600     0.0653     4.0046 </r>
       <r>    -8.6500     0.0738     4.0054 </r>
       <r>    -8.6400     0.0830     4.0062 </r>
       <r>    -8.6300     0.0930     4.0071 </r>
       <r>    -8.6200     0.1038     4.0082 </r>
       <r>    -8.6100     0.1153     4.0093 </r>
       <r>    -8.6000     0.1276     4.0106 </r>
       <r>    -8.5900     0.1406     4.0120 </r>
       <r>    -8.5800     0.1544     4.0136 </r>
       <r>    -8.5700     0.1689     4.0152 </r>
       <r>    -8.5600     0.1842     4.0171 </r>
       <r>    -8.5500     0.2001     4.0191 </r>
       <r>    -8.5400     0.2168     4.0213 </r>
       <r>    -8.5300     0.2342     4.0236 </r>
       <r>    -8.5200     0.2523     4.0261 </r>
       <r>    -8.5100     0.2712     4.0288 </r>
       <r>    -8.5000     0.2908     4.0317 </r>
       <r>    -8.4900     0.3114     4.0349 </r>
       <r>    -8.4800     0.3328     4.0382 </r>
       <r>    -8.4700     0.3553     4.0417 </r>
       <r>    -8.4600     0.3788     4.0455 </r>
       <r>    -8.4500     0.4037     4.0496 </r>
       <r>    -8.4400     0.4300     4.0539 </r>
       <r>    -8.4300     0.4579     4.0584 </r>
       <r>    -8.4200     0.4876     4.0633 </r>
       <r>    -8.4100     0.5194     4.0685 </r>
       <r>    -8.4000     0.5533     4.0740 </r>
       <r>    -8.3900     0.5898     4.0799 </r>
       <r>    -8.3800     0.6288     4.0862 </r>
       <r>    -8.3700     0.6708     4.0929 </r>
       <r>    -8.3600     0.7158     4.1001 </r>
       <r>    -8.3500     0.7641     4.1077 </r>
       <r>    -8.3400     0.8157     4.1159 </r>
       <r>    -8.3300     0.8708     4.1246 </r>
       <r>    -8.3200     0.9293     4.1339 </r>
       <r>    -8.3100     0.9913     4.1438 </r>
       <r>    -8.3000     1.0567     4.1544 </r>
       <r>    -8.2900     1.1254     4.1656 </r>
       <r>    -8.2800     1.1970     4.1776 </r>
       <r>    -8.2700     1.2714     4.1903 </r>
       <r>    -8.2600     1.3482     4.2038 </r>
       <r>    -8.2500     1.4270     4.2181 </r>
       <r>    -8.2400     1.5072     4.2331 </r>
       <r>    -8.2300     1.5884     4.2490 </r>
       <r>    -8.2200     1.6699     4.2657 </r>
       <r>    -8.2100     1.7511     4.2832 </r>
       <r>    -8.2000     1.8314     4.3015 </r>
       <r>    -8.1900     1.9100     4.3206 </r>
       <r>    -8.1800     1.9864     4.3405 </r>
       <r>    -8.1700     2.0598     4.3611 </r>
       <r>    -8.1600     2.1297     4.3824 </r>
       <r>    -8.1500     2.1954     4.4044 </r>
       <r>    -8.1400     2.2564     4.4269 </r>
       <r>    -8.1300     2.3124     4.4500 </r>
       <r>    -8.1200     2.3629     4.4737 </r>
       <r>    -8.1100     2.4076     4.4978 </r>
       <r>    -8.1000     2.4464     4.5222 </r>
       <r>    -8.0900     2.4793     4.5470 </r>
       <r>    -8.0800     2.5064     4.5721 </r>
       <r>    -8.0700     2.5277     4.5973 </r>
       <r>    -8.0600     2.5436     4.6228 </r>
       <r>    -8.0500     2.5544     4.6483 </r>
       <r>    -8.0400     2.5608     4.6739 </r>
       <r>    -8.0300     2.5633     4.6996 </r>
       <r>    -8.0200     2.5626     4.7252 </r>
       <r>    -8.0100     2.5595     4.7508 </r>
       <r>    -8.0000     2.5547     4.7763 </r>
       <r>    -7.9900     2.5492     4.8018 </r>
       <r>    -7.9800     2.5438     4.8273 </r>
       <r>    -7.9700     2.5395     4.8527 </r>
       <r>    -7.9600     2.5370     4.8780 </r>
       <r>    -7.9500     2.5373     4.9034 </r>
       <r>    -7.9400     2.5411     4.9288 </r>
       <r>    -7.9300     2.5493     4.9543 </r>
       <r>    -7.9200     2.5623     4.9799 </r>
       <r>    -7.9100     2.5809     5.0057 </r>
       <r>    -7.9000     2.6053     5.0318 </r>
       <r>    -7.8900     2.6361     5.0582 </r>
       <r>    -7.8800     2.6732     5.0849 </r>
       <r>    -7.8700     2.7169     5.1121 </r>
       <r>    -7.8600     2.7671     5.1397 </r>
       <r>    -7.8500     2.8235     5.1680 </r>
       <r>    -7.8400     2.8858     5.1968 </r>
       <r>    -7.8300     2.9536     5.2264 </r>
       <r>    -7.8200     3.0262     5.2566 </r>
       <r>    -7.8100     3.1030     5.2877 </r>
       <r>    -7.8000     3.1832     5.3195 </r>
       <r>    -7.7900     3.2659     5.3521 </r>
       <r>    -7.7800     3.3502     5.3856 </r>
       <r>    -7.7700     3.4350     5.4200 </r>
       <r>    -7.7600     3.5193     5.4552 </r>
       <r>    -7.7500     3.6021     5.4912 </r>
       <r>    -7.7400     3.6823     5.5280 </r>
       <r>    -7.7300     3.7589     5.5656 </r>
       <r>    -7.7200     3.8309     5.6039 </r>
       <r>    -7.7100     3.8971     5.6429 </r>
       <r>    -7.7000     3.9569     5.6825 </r>
       <r>    -7.6900     4.0091     5.7226 </r>
       <r>    -7.6800     4.0532     5.7631 </r>
       <r>    -7.6700     4.0884     5.8040 </r>
       <r>    -7.6600     4.1140     5.8451 </r>
       <r>    -7.6500     4.1296     5.8864 </r>
       <r>    -7.6400     4.1348     5.9278 </r>
       <r>    -7.6300     4.1292     5.9691 </r>
       <r>    -7.6200     4.1127     6.0102 </r>
       <r>    -7.6100     4.0852     6.0510 </r>
       <r>    -7.6000     4.0467     6.0915 </r>
       <r>    -7.5900     3.9973     6.1315 </r>
       <r>    -7.5800     3.9374     6.1708 </r>
       <r>    -7.5700     3.8671     6.2095 </r>
       <r>    -7.5600     3.7871     6.2474 </r>
       <r>    -7.5500     3.6977     6.2844 </r>
       <r>    -7.5400     3.5996     6.3204 </r>
       <r>    -7.5300     3.4936     6.3553 </r>
       <r>    -7.5200     3.3804     6.3891 </r>
       <r>    -7.5100     3.2607     6.4217 </r>
       <r>    -7.5000     3.1356     6.4531 </r>
       <r>    -7.4900     3.0059     6.4831 </r>
       <r>    -7.4800     2.8726     6.5119 </r>
       <r>    -7.4700     2.7367     6.5392 </r>
       <r>    -7.4600     2.5992     6.5652 </r>
       <r>    -7.4500     2.4610     6.5898 </r>
       <r>    -7.4400     2.3231     6.6131 </r>
       <r>    -7.4300     2.1866     6.6349 </r>
       <r>    -7.4200     2.0522     6.6554 </r>
       <r>    -7.4100     1.9209     6.6747 </r>
       <r>    -7.4000     1.7934     6.6926 </r>
       <r>    -7.3900     1.6706     6.7093 </r>
       <r>    -7.3800     1.5530     6.7248 </r>
       <r>    -7.3700     1.4413     6.7392 </r>
       <r>    -7.3600     1.3359     6.7526 </r>
       <r>    -7.3500     1.2373     6.7650 </r>
       <r>    -7.3400     1.1457     6.7764 </r>
       <r>    -7.3300     1.0615     6.7870 </r>
       <r>    -7.3200     0.9847     6.7969 </r>
       <r>    -7.3100     0.9153     6.8060 </r>
       <r>    -7.3000     0.8534     6.8146 </r>
       <r>    -7.2900     0.7987     6.8226 </r>
       <r>    -7.2800     0.7511     6.8301 </r>
       <r>    -7.2700     0.7103     6.8372 </r>
       <r>    -7.2600     0.6759     6.8439 </r>
       <r>    -7.2500     0.6475     6.8504 </r>
       <r>    -7.2400     0.6248     6.8567 </r>
       <r>    -7.2300     0.6071     6.8627 </r>
       <r>    -7.2200     0.5941     6.8687 </r>
       <r>    -7.2100     0.5851     6.8745 </r>
       <r>    -7.2000     0.5797     6.8803 </r>
       <r>    -7.1900     0.5774     6.8861 </r>
       <r>    -7.1800     0.5776     6.8919 </r>
       <r>    -7.1700     0.5799     6.8977 </r>
       <r>    -7.1600     0.5839     6.9035 </r>
       <r>    -7.1500     0.5891     6.9094 </r>
       <r>    -7.1400     0.5953     6.9153 </r>
       <r>    -7.1300     0.6022     6.9214 </r>
       <r>    -7.1200     0.6096     6.9275 </r>
       <r>    -7.1100     0.6173     6.9336 </r>
       <r>    -7.1000     0.6253     6.9399 </r>
       <r>    -7.0900     0.6336     6.9462 </r>
       <r>    -7.0800     0.6423     6.9526 </r>
       <r>    -7.0700     0.6515     6.9592 </r>
       <r>    -7.0600     0.6615     6.9658 </r>
       <r>    -7.0500     0.6727     6.9725 </r>
       <r>    -7.0400     0.6852     6.9794 </r>
       <r>    -7.0300     0.6995     6.9864 </r>
       <r>    -7.0200     0.7160     6.9935 </r>
       <r>    -7.0100     0.7353     7.0009 </r>
       <r>    -7.0000     0.7577     7.0084 </r>
       <r>    -6.9900     0.7837     7.0163 </r>
       <r>    -6.9800     0.8139     7.0244 </r>
       <r>    -6.9700     0.8486     7.0329 </r>
       <r>    -6.9600     0.8882     7.0418 </r>
       <r>    -6.9500     0.9332     7.0511 </r>
       <r>    -6.9400     0.9839     7.0610 </r>
       <r>    -6.9300     1.0405     7.0714 </r>
       <r>    -6.9200     1.1033     7.0824 </r>
       <r>    -6.9100     1.1723     7.0941 </r>
       <r>    -6.9000     1.2477     7.1066 </r>
       <r>    -6.8900     1.3293     7.1199 </r>
       <r>    -6.8800     1.4171     7.1341 </r>
       <r>    -6.8700     1.5108     7.1492 </r>
       <r>    -6.8600     1.6102     7.1653 </r>
       <r>    -6.8500     1.7149     7.1824 </r>
       <r>    -6.8400     1.8245     7.2007 </r>
       <r>    -6.8300     1.9384     7.2200 </r>
       <r>    -6.8200     2.0561     7.2406 </r>
       <r>    -6.8100     2.1770     7.2624 </r>
       <r>    -6.8000     2.3004     7.2854 </r>
       <r>    -6.7900     2.4256     7.3096 </r>
       <r>    -6.7800     2.5517     7.3352 </r>
       <r>    -6.7700     2.6782     7.3619 </r>
       <r>    -6.7600     2.8041     7.3900 </r>
       <r>    -6.7500     2.9286     7.4193 </r>
       <r>    -6.7400     3.0510     7.4498 </r>
       <r>    -6.7300     3.1705     7.4815 </r>
       <r>    -6.7200     3.2863     7.5143 </r>
       <r>    -6.7100     3.3976     7.5483 </r>
       <r>    -6.7000     3.5038     7.5834 </r>
       <r>    -6.6900     3.6041     7.6194 </r>
       <r>    -6.6800     3.6979     7.6564 </r>
       <r>    -6.6700     3.7846     7.6942 </r>
       <r>    -6.6600     3.8636     7.7329 </r>
       <r>    -6.6500     3.9346     7.7722 </r>
       <r>    -6.6400     3.9970     7.8122 </r>
       <r>    -6.6300     4.0506     7.8527 </r>
       <r>    -6.6200     4.0951     7.8936 </r>
       <r>    -6.6100     4.1303     7.9349 </r>
       <r>    -6.6000     4.1561     7.9765 </r>
       <r>    -6.5900     4.1726     8.0182 </r>
       <r>    -6.5800     4.1797     8.0600 </r>
       <r>    -6.5700     4.1777     8.1018 </r>
       <r>    -6.5600     4.1668     8.1435 </r>
       <r>    -6.5500     4.1473     8.1849 </r>
       <r>    -6.5400     4.1197     8.2261 </r>
       <r>    -6.5300     4.0843     8.2670 </r>
       <r>    -6.5200     4.0418     8.3074 </r>
       <r>    -6.5100     3.9926     8.3473 </r>
       <r>    -6.5000     3.9374     8.3867 </r>
       <r>    -6.4900     3.8768     8.4255 </r>
       <r>    -6.4800     3.8115     8.4636 </r>
       <r>    -6.4700     3.7422     8.5010 </r>
       <r>    -6.4600     3.6694     8.5377 </r>
       <r>    -6.4500     3.5938     8.5736 </r>
       <r>    -6.4400     3.5160     8.6088 </r>
       <r>    -6.4300     3.4366     8.6432 </r>
       <r>    -6.4200     3.3560     8.6767 </r>
       <r>    -6.4100     3.2747     8.7095 </r>
       <r>    -6.4000     3.1932     8.7414 </r>
       <r>    -6.3900     3.1116     8.7725 </r>
       <r>    -6.3800     3.0304     8.8028 </r>
       <r>    -6.3700     2.9498     8.8323 </r>
       <r>    -6.3600     2.8698     8.8610 </r>
       <r>    -6.3500     2.7907     8.8889 </r>
       <r>    -6.3400     2.7126     8.9160 </r>
       <r>    -6.3300     2.6355     8.9424 </r>
       <r>    -6.3200     2.5595     8.9680 </r>
       <r>    -6.3100     2.4847     8.9928 </r>
       <r>    -6.3000     2.4113     9.0170 </r>
       <r>    -6.2900     2.3392     9.0403 </r>
       <r>    -6.2800     2.2687     9.0630 </r>
       <r>    -6.2700     2.2001     9.0850 </r>
       <r>    -6.2600     2.1335     9.1064 </r>
       <r>    -6.2500     2.0695     9.1271 </r>
       <r>    -6.2400     2.0082     9.1471 </r>
       <r>    -6.2300     1.9504     9.1666 </r>
       <r>    -6.2200     1.8964     9.1856 </r>
       <r>    -6.2100     1.8470     9.2041 </r>
       <r>    -6.2000     1.8029     9.2221 </r>
       <r>    -6.1900     1.7647     9.2398 </r>
       <r>    -6.1800     1.7332     9.2571 </r>
       <r>    -6.1700     1.7093     9.2742 </r>
       <r>    -6.1600     1.6937     9.2911 </r>
       <r>    -6.1500     1.6871     9.3080 </r>
       <r>    -6.1400     1.6904     9.3249 </r>
       <r>    -6.1300     1.7042     9.3419 </r>
       <r>    -6.1200     1.7291     9.3592 </r>
       <r>    -6.1100     1.7656     9.3769 </r>
       <r>    -6.1000     1.8140     9.3950 </r>
       <r>    -6.0900     1.8747     9.4138 </r>
       <r>    -6.0800     1.9477     9.4332 </r>
       <r>    -6.0700     2.0328     9.4536 </r>
       <r>    -6.0600     2.1300     9.4749 </r>
       <r>    -6.0500     2.2386     9.4973 </r>
       <r>    -6.0400     2.3581     9.5208 </r>
       <r>    -6.0300     2.4877     9.5457 </r>
       <r>    -6.0200     2.6262     9.5720 </r>
       <r>    -6.0100     2.7727     9.5997 </r>
       <r>    -6.0000     2.9256     9.6290 </r>
       <r>    -5.9900     3.0836     9.6598 </r>
       <r>    -5.9800     3.2450     9.6923 </r>
       <r>    -5.9700     3.4082     9.7263 </r>
       <r>    -5.9600     3.5713     9.7620 </r>
       <r>    -5.9500     3.7325     9.7994 </r>
       <r>    -5.9400     3.8901     9.8383 </r>
       <r>    -5.9300     4.0422     9.8787 </r>
       <r>    -5.9200     4.1872     9.9206 </r>
       <r>    -5.9100     4.3233     9.9638 </r>
       <r>    -5.9000     4.4491    10.0083 </r>
       <r>    -5.8900     4.5631    10.0539 </r>
       <r>    -5.8800     4.6641    10.1006 </r>
       <r>    -5.8700     4.7511    10.1481 </r>
       <r>    -5.8600     4.8232    10.1963 </r>
       <r>    -5.8500     4.8798    10.2451 </r>
       <r>    -5.8400     4.9204    10.2943 </r>
       <r>    -5.8300     4.9449    10.3438 </r>
       <r>    -5.8200     4.9532    10.3933 </r>
       <r>    -5.8100     4.9454    10.4427 </r>
       <r>    -5.8000     4.9221    10.4920 </r>
       <r>    -5.7900     4.8837    10.5408 </r>
       <r>    -5.7800     4.8309    10.5891 </r>
       <r>    -5.7700     4.7646    10.6368 </r>
       <r>    -5.7600     4.6857    10.6836 </r>
       <r>    -5.7500     4.5953    10.7296 </r>
       <r>    -5.7400     4.4944    10.7745 </r>
       <r>    -5.7300     4.3843    10.8184 </r>
       <r>    -5.7200     4.2661    10.8610 </r>
       <r>    -5.7100     4.1410    10.9024 </r>
       <r>    -5.7000     4.0102    10.9425 </r>
       <r>    -5.6900     3.8749    10.9813 </r>
       <r>    -5.6800     3.7362    11.0186 </r>
       <r>    -5.6700     3.5953    11.0546 </r>
       <r>    -5.6600     3.4532    11.0891 </r>
       <r>    -5.6500     3.3110    11.1222 </r>
       <r>    -5.6400     3.1695    11.1539 </r>
       <r>    -5.6300     3.0297    11.1842 </r>
       <r>    -5.6200     2.8925    11.2131 </r>
       <r>    -5.6100     2.7587    11.2407 </r>
       <r>    -5.6000     2.6289    11.2670 </r>
       <r>    -5.5900     2.5039    11.2921 </r>
       <r>    -5.5800     2.3843    11.3159 </r>
       <r>    -5.5700     2.2707    11.3386 </r>
       <r>    -5.5600     2.1635    11.3602 </r>
       <r>    -5.5500     2.0633    11.3809 </r>
       <r>    -5.5400     1.9703    11.4006 </r>
       <r>    -5.5300     1.8850    11.4194 </r>
       <r>    -5.5200     1.8075    11.4375 </r>
       <r>    -5.5100     1.7381    11.4549 </r>
       <r>    -5.5000     1.6769    11.4717 </r>
       <r>    -5.4900     1.6239    11.4879 </r>
       <r>    -5.4800     1.5790    11.5037 </r>
       <r>    -5.4700     1.5422    11.5191 </r>
       <r>    -5.4600     1.5132    11.5342 </r>
       <r>    -5.4500     1.4919    11.5492 </r>
       <r>    -5.4400     1.4777    11.5639 </r>
       <r>    -5.4300     1.4705    11.5786 </r>
       <r>    -5.4200     1.4696    11.5933 </r>
       <r>    -5.4100     1.4746    11.6081 </r>
       <r>    -5.4000     1.4848    11.6229 </r>
       <r>    -5.3900     1.4997    11.6379 </r>
       <r>    -5.3800     1.5186    11.6531 </r>
       <r>    -5.3700     1.5408    11.6685 </r>
       <r>    -5.3600     1.5656    11.6842 </r>
       <r>    -5.3500     1.5923    11.7001 </r>
       <r>    -5.3400     1.6203    11.7163 </r>
       <r>    -5.3300     1.6489    11.7328 </r>
       <r>    -5.3200     1.6773    11.7496 </r>
       <r>    -5.3100     1.7050    11.7666 </r>
       <r>    -5.3000     1.7314    11.7839 </r>
       <r>    -5.2900     1.7559    11.8015 </r>
       <r>    -5.2800     1.7780    11.8193 </r>
       <r>    -5.2700     1.7973    11.8372 </r>
       <r>    -5.2600     1.8133    11.8554 </r>
       <r>    -5.2500     1.8259    11.8736 </r>
       <r>    -5.2400     1.8346    11.8920 </r>
       <r>    -5.2300     1.8392    11.9104 </r>
       <r>    -5.2200     1.8397    11.9288 </r>
       <r>    -5.2100     1.8359    11.9471 </r>
       <r>    -5.2000     1.8277    11.9654 </r>
       <r>    -5.1900     1.8152    11.9836 </r>
       <r>    -5.1800     1.7985    12.0015 </r>
       <r>    -5.1700     1.7777    12.0193 </r>
       <r>    -5.1600     1.7529    12.0368 </r>
       <r>    -5.1500     1.7245    12.0541 </r>
       <r>    -5.1400     1.6926    12.0710 </r>
       <r>    -5.1300     1.6575    12.0876 </r>
       <r>    -5.1200     1.6198    12.1038 </r>
       <r>    -5.1100     1.5797    12.1196 </r>
       <r>    -5.1000     1.5377    12.1350 </r>
       <r>    -5.0900     1.4943    12.1499 </r>
       <r>    -5.0800     1.4500    12.1644 </r>
       <r>    -5.0700     1.4054    12.1785 </r>
       <r>    -5.0600     1.3611    12.1921 </r>
       <r>    -5.0500     1.3177    12.2052 </r>
       <r>    -5.0400     1.2757    12.2180 </r>
       <r>    -5.0300     1.2360    12.2304 </r>
       <r>    -5.0200     1.1991    12.2424 </r>
       <r>    -5.0100     1.1658    12.2540 </r>
       <r>    -5.0000     1.1367    12.2654 </r>
       <r>    -4.9900     1.1125    12.2765 </r>
       <r>    -4.9800     1.0939    12.2874 </r>
       <r>    -4.9700     1.0816    12.2983 </r>
       <r>    -4.9600     1.0762    12.3090 </r>
       <r>    -4.9500     1.0782    12.3198 </r>
       <r>    -4.9400     1.0883    12.3307 </r>
       <r>    -4.9300     1.1068    12.3418 </r>
       <r>    -4.9200     1.1344    12.3531 </r>
       <r>    -4.9100     1.1713    12.3648 </r>
       <r>    -4.9000     1.2178    12.3770 </r>
       <r>    -4.8900     1.2741    12.3897 </r>
       <r>    -4.8800     1.3404    12.4031 </r>
       <r>    -4.8700     1.4167    12.4173 </r>
       <r>    -4.8600     1.5029    12.4323 </r>
       <r>    -4.8500     1.5988    12.4483 </r>
       <r>    -4.8400     1.7042    12.4654 </r>
       <r>    -4.8300     1.8185    12.4836 </r>
       <r>    -4.8200     1.9415    12.5030 </r>
       <r>    -4.8100     2.0724    12.5237 </r>
       <r>    -4.8000     2.2106    12.5458 </r>
       <r>    -4.7900     2.3553    12.5693 </r>
       <r>    -4.7800     2.5056    12.5944 </r>
       <r>    -4.7700     2.6606    12.6210 </r>
       <r>    -4.7600     2.8193    12.6492 </r>
       <r>    -4.7500     2.9806    12.6790 </r>
       <r>    -4.7400     3.1434    12.7104 </r>
       <r>    -4.7300     3.3066    12.7435 </r>
       <r>    -4.7200     3.4689    12.7782 </r>
       <r>    -4.7100     3.6294    12.8145 </r>
       <r>    -4.7000     3.7867    12.8524 </r>
       <r>    -4.6900     3.9397    12.8918 </r>
       <r>    -4.6800     4.0873    12.9326 </r>
       <r>    -4.6700     4.2284    12.9749 </r>
       <r>    -4.6600     4.3621    13.0185 </r>
       <r>    -4.6500     4.4872    13.0634 </r>
       <r>    -4.6400     4.6030    13.1094 </r>
       <r>    -4.6300     4.7085    13.1565 </r>
       <r>    -4.6200     4.8031    13.2046 </r>
       <r>    -4.6100     4.8860    13.2534 </r>
       <r>    -4.6000     4.9568    13.3030 </r>
       <r>    -4.5900     5.0148    13.3531 </r>
       <r>    -4.5800     5.0599    13.4037 </r>
       <r>    -4.5700     5.0916    13.4546 </r>
       <r>    -4.5600     5.1098    13.5057 </r>
       <r>    -4.5500     5.1145    13.5569 </r>
       <r>    -4.5400     5.1057    13.6079 </r>
       <r>    -4.5300     5.0835    13.6588 </r>
       <r>    -4.5200     5.0481    13.7093 </r>
       <r>    -4.5100     4.9999    13.7593 </r>
       <r>    -4.5000     4.9393    13.8086 </r>
       <r>    -4.4900     4.8667    13.8573 </r>
       <r>    -4.4800     4.7829    13.9051 </r>
       <r>    -4.4700     4.6885    13.9520 </r>
       <r>    -4.4600     4.5842    13.9979 </r>
       <r>    -4.4500     4.4709    14.0426 </r>
       <r>    -4.4400     4.3495    14.0861 </r>
       <r>    -4.4300     4.2209    14.1283 </r>
       <r>    -4.4200     4.0861    14.1691 </r>
       <r>    -4.4100     3.9463    14.2086 </r>
       <r>    -4.4000     3.8024    14.2466 </r>
       <r>    -4.3900     3.6556    14.2832 </r>
       <r>    -4.3800     3.5070    14.3183 </r>
       <r>    -4.3700     3.3578    14.3518 </r>
       <r>    -4.3600     3.2089    14.3839 </r>
       <r>    -4.3500     3.0617    14.4145 </r>
       <r>    -4.3400     2.9170    14.4437 </r>
       <r>    -4.3300     2.7761    14.4715 </r>
       <r>    -4.3200     2.6397    14.4979 </r>
       <r>    -4.3100     2.5090    14.5230 </r>
       <r>    -4.3000     2.3847    14.5468 </r>
       <r>    -4.2900     2.2677    14.5695 </r>
       <r>    -4.2800     2.1587    14.5911 </r>
       <r>    -4.2700     2.0583    14.6117 </r>
       <r>    -4.2600     1.9670    14.6313 </r>
       <r>    -4.2500     1.8853    14.6502 </r>
       <r>    -4.2400     1.8136    14.6683 </r>
       <r>    -4.2300     1.7520    14.6858 </r>
       <r>    -4.2200     1.7007    14.7028 </r>
       <r>    -4.2100     1.6597    14.7194 </r>
       <r>    -4.2000     1.6289    14.7357 </r>
       <r>    -4.1900     1.6080    14.7518 </r>
       <r>    -4.1800     1.5969    14.7678 </r>
       <r>    -4.1700     1.5950    14.7837 </r>
       <r>    -4.1600     1.6019    14.7997 </r>
       <r>    -4.1500     1.6169    14.8159 </r>
       <r>    -4.1400     1.6394    14.8323 </r>
       <r>    -4.1300     1.6685    14.8490 </r>
       <r>    -4.1200     1.7035    14.8660 </r>
       <r>    -4.1100     1.7435    14.8835 </r>
       <r>    -4.1000     1.7875    14.9013 </r>
       <r>    -4.0900     1.8346    14.9197 </r>
       <r>    -4.0800     1.8838    14.9385 </r>
       <r>    -4.0700     1.9342    14.9579 </r>
       <r>    -4.0600     1.9849    14.9777 </r>
       <r>    -4.0500     2.0350    14.9981 </r>
       <r>    -4.0400     2.0836    15.0189 </r>
       <r>    -4.0300     2.1301    15.0402 </r>
       <r>    -4.0200     2.1737    15.0619 </r>
       <r>    -4.0100     2.2139    15.0841 </r>
       <r>    -4.0000     2.2501    15.1066 </r>
       <r>    -3.9900     2.2822    15.1294 </r>
       <r>    -3.9800     2.3097    15.1525 </r>
       <r>    -3.9700     2.3326    15.1758 </r>
       <r>    -3.9600     2.3509    15.1993 </r>
       <r>    -3.9500     2.3648    15.2230 </r>
       <r>    -3.9400     2.3743    15.2467 </r>
       <r>    -3.9300     2.3800    15.2705 </r>
       <r>    -3.9200     2.3821    15.2943 </r>
       <r>    -3.9100     2.3812    15.3182 </r>
       <r>    -3.9000     2.3779    15.3419 </r>
       <r>    -3.8900     2.3727    15.3657 </r>
       <r>    -3.8800     2.3662    15.3893 </r>
       <r>    -3.8700     2.3592    15.4129 </r>
       <r>    -3.8600     2.3523    15.4364 </r>
       <r>    -3.8500     2.3461    15.4599 </r>
       <r>    -3.8400     2.3411    15.4833 </r>
       <r>    -3.8300     2.3379    15.5067 </r>
       <r>    -3.8200     2.3371    15.5301 </r>
       <r>    -3.8100     2.3389    15.5534 </r>
       <r>    -3.8000     2.3437    15.5769 </r>
       <r>    -3.7900     2.3518    15.6004 </r>
       <r>    -3.7800     2.3632    15.6240 </r>
       <r>    -3.7700     2.3780    15.6478 </r>
       <r>    -3.7600     2.3963    15.6718 </r>
       <r>    -3.7500     2.4178    15.6960 </r>
       <r>    -3.7400     2.4423    15.7204 </r>
       <r>    -3.7300     2.4696    15.7451 </r>
       <r>    -3.7200     2.4993    15.7701 </r>
       <r>    -3.7100     2.5309    15.7954 </r>
       <r>    -3.7000     2.5640    15.8210 </r>
       <r>    -3.6900     2.5981    15.8470 </r>
       <r>    -3.6800     2.6327    15.8733 </r>
       <r>    -3.6700     2.6672    15.9000 </r>
       <r>    -3.6600     2.7010    15.9270 </r>
       <r>    -3.6500     2.7337    15.9543 </r>
       <r>    -3.6400     2.7648    15.9820 </r>
       <r>    -3.6300     2.7937    16.0099 </r>
       <r>    -3.6200     2.8200    16.0381 </r>
       <r>    -3.6100     2.8434    16.0666 </r>
       <r>    -3.6000     2.8636    16.0952 </r>
       <r>    -3.5900     2.8803    16.1240 </r>
       <r>    -3.5800     2.8934    16.1529 </r>
       <r>    -3.5700     2.9027    16.1820 </r>
       <r>    -3.5600     2.9083    16.2110 </r>
       <r>    -3.5500     2.9103    16.2402 </r>
       <r>    -3.5400     2.9088    16.2692 </r>
       <r>    -3.5300     2.9040    16.2983 </r>
       <r>    -3.5200     2.8962    16.3272 </r>
       <r>    -3.5100     2.8858    16.3561 </r>
       <r>    -3.5000     2.8731    16.3848 </r>
       <r>    -3.4900     2.8587    16.4134 </r>
       <r>    -3.4800     2.8430    16.4418 </r>
       <r>    -3.4700     2.8265    16.4701 </r>
       <r>    -3.4600     2.8097    16.4982 </r>
       <r>    -3.4500     2.7931    16.5261 </r>
       <r>    -3.4400     2.7771    16.5539 </r>
       <r>    -3.4300     2.7623    16.5815 </r>
       <r>    -3.4200     2.7489    16.6090 </r>
       <r>    -3.4100     2.7372    16.6364 </r>
       <r>    -3.4000     2.7276    16.6637 </r>
       <r>    -3.3900     2.7201    16.6909 </r>
       <r>    -3.3800     2.7148    16.7180 </r>
       <r>    -3.3700     2.7117    16.7451 </r>
       <r>    -3.3600     2.7106    16.7722 </r>
       <r>    -3.3500     2.7112    16.7994 </r>
       <r>    -3.3400     2.7133    16.8265 </r>
       <r>    -3.3300     2.7164    16.8537 </r>
       <r>    -3.3200     2.7200    16.8809 </r>
       <r>    -3.3100     2.7235    16.9081 </r>
       <r>    -3.3000     2.7263    16.9353 </r>
       <r>    -3.2900     2.7277    16.9626 </r>
       <r>    -3.2800     2.7272    16.9899 </r>
       <r>    -3.2700     2.7239    17.0171 </r>
       <r>    -3.2600     2.7173    17.0443 </r>
       <r>    -3.2500     2.7067    17.0714 </r>
       <r>    -3.2400     2.6917    17.0983 </r>
       <r>    -3.2300     2.6718    17.1250 </r>
       <r>    -3.2200     2.6466    17.1515 </r>
       <r>    -3.2100     2.6160    17.1776 </r>
       <r>    -3.2000     2.5798    17.2034 </r>
       <r>    -3.1900     2.5381    17.2288 </r>
       <r>    -3.1800     2.4909    17.2537 </r>
       <r>    -3.1700     2.4387    17.2781 </r>
       <r>    -3.1600     2.3817    17.3019 </r>
       <r>    -3.1500     2.3206    17.3251 </r>
       <r>    -3.1400     2.2560    17.3477 </r>
       <r>    -3.1300     2.1885    17.3696 </r>
       <r>    -3.1200     2.1190    17.3908 </r>
       <r>    -3.1100     2.0483    17.4113 </r>
       <r>    -3.1000     1.9773    17.4310 </r>
       <r>    -3.0900     1.9067    17.4501 </r>
       <r>    -3.0800     1.8376    17.4685 </r>
       <r>    -3.0700     1.7705    17.4862 </r>
       <r>    -3.0600     1.7064    17.5032 </r>
       <r>    -3.0500     1.6458    17.5197 </r>
       <r>    -3.0400     1.5893    17.5356 </r>
       <r>    -3.0300     1.5373    17.5510 </r>
       <r>    -3.0200     1.4902    17.5659 </r>
       <r>    -3.0100     1.4481    17.5803 </r>
       <r>    -3.0000     1.4112    17.5945 </r>
       <r>    -2.9900     1.3793    17.6083 </r>
       <r>    -2.9800     1.3523    17.6218 </r>
       <r>    -2.9700     1.3298    17.6351 </r>
       <r>    -2.9600     1.3115    17.6482 </r>
       <r>    -2.9500     1.2969    17.6612 </r>
       <r>    -2.9400     1.2854    17.6740 </r>
       <r>    -2.9300     1.2764    17.6868 </r>
       <r>    -2.9200     1.2693    17.6995 </r>
       <r>    -2.9100     1.2632    17.7121 </r>
       <r>    -2.9000     1.2577    17.7247 </r>
       <r>    -2.8900     1.2519    17.7372 </r>
       <r>    -2.8800     1.2454    17.7497 </r>
       <r>    -2.8700     1.2374    17.7620 </r>
       <r>    -2.8600     1.2276    17.7743 </r>
       <r>    -2.8500     1.2154    17.7865 </r>
       <r>    -2.8400     1.2004    17.7985 </r>
       <r>    -2.8300     1.1825    17.8103 </r>
       <r>    -2.8200     1.1614    17.8219 </r>
       <r>    -2.8100     1.1370    17.8333 </r>
       <r>    -2.8000     1.1093    17.8444 </r>
       <r>    -2.7900     1.0784    17.8551 </r>
       <r>    -2.7800     1.0445    17.8656 </r>
       <r>    -2.7700     1.0077    17.8757 </r>
       <r>    -2.7600     0.9683    17.8854 </r>
       <r>    -2.7500     0.9267    17.8946 </r>
       <r>    -2.7400     0.8833    17.9035 </r>
       <r>    -2.7300     0.8383    17.9118 </r>
       <r>    -2.7200     0.7923    17.9198 </r>
       <r>    -2.7100     0.7457    17.9272 </r>
       <r>    -2.7000     0.6988    17.9342 </r>
       <r>    -2.6900     0.6520    17.9407 </r>
       <r>    -2.6800     0.6057    17.9468 </r>
       <r>    -2.6700     0.5604    17.9524 </r>
       <r>    -2.6600     0.5162    17.9575 </r>
       <r>    -2.6500     0.4734    17.9623 </r>
       <r>    -2.6400     0.4323    17.9666 </r>
       <r>    -2.6300     0.3931    17.9705 </r>
       <r>    -2.6200     0.3560    17.9741 </r>
       <r>    -2.6100     0.3210    17.9773 </r>
       <r>    -2.6000     0.2882    17.9802 </r>
       <r>    -2.5900     0.2577    17.9828 </r>
       <r>    -2.5800     0.2295    17.9851 </r>
       <r>    -2.5700     0.2035    17.9871 </r>
       <r>    -2.5600     0.1797    17.9889 </r>
       <r>    -2.5500     0.1581    17.9905 </r>
       <r>    -2.5400     0.1385    17.9919 </r>
       <r>    -2.5300     0.1208    17.9931 </r>
       <r>    -2.5200     0.1050    17.9941 </r>
       <r>    -2.5100     0.0908    17.9950 </r>
       <r>    -2.5000     0.0783    17.9958 </r>
       <r>    -2.4900     0.0672    17.9965 </r>
       <r>    -2.4800     0.0575    17.9971 </r>
       <r>    -2.4700     0.0490    17.9975 </r>
       <r>    -2.4600     0.0416    17.9980 </r>
       <r>    -2.4500     0.0351    17.9983 </r>
       <r>    -2.4400     0.0296    17.9986 </r>
       <r>    -2.4300     0.0248    17.9989 </r>
       <r>    -2.4200     0.0207    17.9991 </r>
       <r>    -2.4100     0.0173    17.9992 </r>
       <r>    -2.4000     0.0143    17.9994 </r>
       <r>    -2.3900     0.0118    17.9995 </r>
       <r>    -2.3800     0.0097    17.9996 </r>
       <r>    -2.3700     0.0080    17.9997 </r>
[...]
        <r>  0.0072  0.0713  0.0134  0.0405  0.0000  0.0000  0.0000  0.0000  0.0000 </r>
        <r>  0.0072  0.0713  0.0134  0.0405  0.0000  0.0000  0.0000  0.0000  0.0000 </r>
       </set>
       <set comment="band 11">
        <r>  0.0059  0.0061  0.0000  0.0055  0.2850  0.0000  0.0991  0.0000  0.1012 </r>
        <r>  0.0007  0.0397  0.0049  0.0956  0.0000  0.0000  0.0000  0.0000  0.0000 </r>
        <r>  0.0007  0.0397  0.0049  0.0956  0.0000  0.0000  0.0000  0.0000  0.0000 </r>
       </set>
       <set comment="band 12">
        <r>  0.0000  0.0000  0.0002  0.0000  0.0000  0.2432  0.0000  0.3035  0.0000 </r>
        <r>  0.0257  0.0395  0.0134  0.0145  0.0000  0.0000  0.0000  0.0000  0.0000 </r>
        <r>  0.0257  0.0395  0.0134  0.0145  0.0000  0.0000  0.0000  0.0000  0.0000 </r>
       </set>
       <set comment="band 13">
        <r>  0.0000  0.0000  0.0027  0.0000  0.0000  0.2525  0.0000  0.1916  0.0000 </r>
        <r>  0.0025  0.0406  0.0086  0.1196  0.0000  0.0000  0.0000  0.0000  0.0000 </r>
        <r>  0.0025  0.0406  0.0086  0.1196  0.0000  0.0000  0.0000  0.0000  0.0000 </r>
       </set>
       <set comment="band 14">
        <r>  0.0071  0.0035  0.0000  0.0017  0.0013  0.0000  0.0194  0.0000  0.0032 </r>
        <r>  0.0063  0.0048  0.0039  0.0018  0.0000  0.0000  0.0000  0.0000  0.0000 </r>
        <r>  0.0067  0.0053  0.0054  0.0018  0.0000  0.0000  0.0000  0.0000  0.0000 </r>
       </set>
      </set>
      <set comment="kpoint 7">
       <set comment="band 1">
        <r>  0.0576  0.0184  0.0000  0.0166  0.0142  0.0000  0.0008  0.0000  0.0116 </r>
        <r>  0.3024  0.0013  0.0053  0.0010  0.0000  0.0000  0.0000  0.0000  0.0000 </r>
        <r>  0.3024  0.0013  0.0053  0.0010  0.0000  0.0000  0.0000  0.0000  0.0000 </r>
       </set>
       <set comment="band 2">
        <r>  0.0000  0.0000  0.0239  0.0000  0.0000  0.0400  0.0000  0.0372  0.0000 </r>
        <r>  0.3250  0.0007  0.0018  0.0006  0.0000  0.0000  0.0000  0.0000  0.0000 </r>
        <r>  0.3250  0.0007  0.0018  0.0006  0.0000  0.0000  0.0000  0.0000  0.0000 </r>
       </set>
       <set comment="band 3">
        <r>  0.0219  0.0058  0.0000  0.0251  0.1216  0.0000  0.0657  0.0000  0.1287 </r>
        <r>  0.0017  0.0523  0.0478  0.0482  0.0000  0.0000  0.0000  0.0000  0.0000 </r>
        <r>  0.0017  0.0523  0.0478  0.0482  0.0000  0.0000  0.0000  0.0000  0.0000 </r>
       </set>
       <set comment="band 4">
        <r>  0.0000  0.0000  0.0208  0.0000  0.0000  0.0062  0.0000  0.2846  0.0000 </r>
        <r>  0.0062  0.0662  0.0150  0.0979  0.0000  0.0000  0.0000  0.0000  0.0000 </r>
        <r>  0.0062  0.0662  0.0150  0.0979  0.0000  0.0000  0.0000  0.0000  0.0000 </r>
       </set>
       <set comment="band 5">
        <r>  0.1217  0.0191  0.0000  0.0235  0.0288  0.0000  0.0522  0.0000  0.0057 </r>
        <r>  0.0328  0.0238  0.1106  0.0311  0.0000  0.0000  0.0000  0.0000  0.0000 </r>
        <r>  0.0328  0.0238  0.1106  0.0311  0.0000  0.0000  0.0000  0.0000  0.0000 </r>
       </set>
       <set comment="band 6">
        <r>  0.0000  0.0000  0.0056  0.0000  0.0000  0.3933  0.0000  0.0047  0.0000 </r>
        <r>  0.0029  0.0869  0.0506  0.0342  0.0000  0.0000  0.0000  0.0000  0.0000 </r>
        <r>  0.0029  0.0869  0.0506  0.0342  0.0000  0.0000  0.0000  0.0000  0.0000 </r>
       </set>
       <set comment="band 7">
        <r>  0.0135  0.0434  0.0000  0.0225  0.0265  0.0000  0.1134  0.0000  0.1178 </r>
        <r>  0.0016  0.0793  0.0035  0.0967  0.0000  0.0000  0.0000  0.0000  0.0000 </r>
        <r>  0.0016  0.0793  0.0035  0.0967  0.0000  0.0000  0.0000  0.0000  0.0000 </r>
       </set>
       <set comment="band 8">
        <r>  0.0000  0.0000  0.0647  0.0000  0.0000  0.0064  0.0000  0.0673  0.0000 </r>
        <r>  0.0087  0.0383  0.1533  0.0651  0.0000  0.0000  0.0000  0.0000  0.0000 </r>
        <r>  0.0087  0.0383  0.1533  0.0651  0.0000  0.0000  0.0000  0.0000  0.0000 </r>
       </set>
       <set comment="band 9">
        <r>  0.0025  0.0077  0.0000  0.0016  0.2465  0.0000  0.2342  0.0000  0.1594 </r>
        <r>  0.0043  0.0375  0.0216  0.0220  0.0000  0.0000  0.0000  0.0000  0.0000 </r>
        <r>  0.0043  0.0375  0.0216  0.0220  0.0000  0.0000  0.0000  0.0000  0.0000 </r>
       </set>
       <set comment="band 10">
        <r>  0.0080  0.0088  0.0000  0.0051  0.1226  0.0000  0.0881  0.0000  0.3460 </r>
        <r>  0.0034  0.0444  0.0233  0.0137  0.0000  0.0000  0.0000  0.0000  0.0000 </r>
        <r>  0.0034  0.0444  0.0233  0.0137  0.0000  0.0000  0.0000  0.0000  0.0000 </r>
       </set>
       <set comment="band 11">
        <r>  0.0114  0.0028  0.0000  0.0006  0.3143  0.0000  0.3114  0.0000  0.0885 </r>
        <r>  0.0004  0.0205  0.0071  0.0399  0.0000  0.0000  0.0000  0.0000  0.0000 </r>
        <r>  0.0004  0.0205  0.0071  0.0399  0.0000  0.0000  0.0000  0.0000  0.0000 </r>
       </set>
       <set comment="band 12">
        <r>  0.0000  0.0000  0.0064  0.0000  0.0000  0.1058  0.0000  0.4327  0.0000 </r>
        <r>  0.0211  0.0366  0.0268  0.0058  0.0000  0.0000  0.0000  0.0000  0.0000 </r>
        <r>  0.0211  0.0366  0.0268  0.0058  0.0000  0.0000  0.0000  0.0000  0.0000 </r>
       </set>
       <set comment="band 13">
        <r>  0.0000  0.0000  0.0026  0.0000  0.0000  0.3983  0.0000  0.0885  0.0000 </r>
        <r>  0.0083  0.0430  0.0288  0.0702  0.0000  0.0000  0.0000  0.0000  0.0000 </r>
        <r>  0.0083  0.0430  0.0288  0.0702  0.0000  0.0000  0.0000  0.0000  0.0000 </r>
       </set>
       <set comment="band 14">
        <r>  0.0019  0.0102  0.0000  0.0149  0.0048  0.0000  0.0136  0.0000  0.0084 </r>
        <r>  0.0085  0.0051  0.0066  0.0012  0.0000  0.0000  0.0000  0.0000  0.0000 </r>
        <r>  0.0083  0.0049  0.0052  0.0012  0.0000  0.0000  0.0000  0.0000  0.0000 </r>
       </set>
      </set>
      <set comment="kpoint 8">
       <set comment="band 1">
        <r>  0.0208  0.0185  0.0000  0.0307  0.0314  0.0000  0.0003  0.0000  0.0158 </r>
        <r>  0.3194  0.0004  0.0059  0.0003  0.0000  0.0000  0.0000  0.0000  0.0000 </r>
        <r>  0.3195  0.0004  0.0059  0.0003  0.0000  0.0000  0.0000  0.0000  0.0000 </r>
       </set>
       <set comment="band 2">
        <r>  0.0000  0.0000  0.0071  0.0000  0.0000  0.0407  0.0000  0.0721  0.0000 </r>
        <r>  0.3311  0.0003  0.0027  0.0003  0.0000  0.0000  0.0000  0.0000  0.0000 </r>
        <r>  0.3310  0.0003  0.0027  0.0003  0.0000  0.0000  0.0000  0.0000  0.0000 </r>
       </set>
       <set comment="band 3">
        <r>  0.1026  0.0024  0.0000  0.0266  0.0645  0.0000  0.0342  0.0000  0.0433 </r>
        <r>  0.0043  0.0508  0.0087  0.1019  0.0000  0.0000  0.0000  0.0000  0.0000 </r>
        <r>  0.0043  0.0508  0.0087  0.1020  0.0000  0.0000  0.0000  0.0000  0.0000 </r>
       </set>
       <set comment="band 4">
        <r>  0.0000  0.0000  0.0350  0.0000  0.0000  0.0692  0.0000  0.1795  0.0000 </r>
        <r>  0.0071  0.0573  0.0054  0.1113  0.0000  0.0000  0.0000  0.0000  0.0000 </r>
        <r>  0.0071  0.0573  0.0054  0.1112  0.0000  0.0000  0.0000  0.0000  0.0000 </r>
       </set>
       <set comment="band 5">
        <r>  0.0162  0.0240  0.0000  0.0179  0.1402  0.0000  0.0904  0.0000  0.0527 </r>
        <r>  0.0206  0.0058  0.1295  0.0199  0.0000  0.0000  0.0000  0.0000  0.0000 </r>
        <r>  0.0206  0.0058  0.1295  0.0199  0.0000  0.0000  0.0000  0.0000  0.0000 </r>
       </set>
       <set comment="band 6">
        <r>  0.0000  0.0000  0.0256  0.0000  0.0000  0.3185  0.0000  0.0261  0.0000 </r>
        <r>  0.0020  0.1085  0.0279  0.0475  0.0000  0.0000  0.0000  0.0000  0.0000 </r>
        <r>  0.0020  0.1085  0.0279  0.0475  0.0000  0.0000  0.0000  0.0000  0.0000 </r>
       </set>
       <set comment="band 7">
        <r>  0.0233  0.0416  0.0000  0.0489  0.0014  0.0000  0.0710  0.0000  0.0230 </r>
        <r>  0.0063  0.1216  0.0320  0.0561  0.0000  0.0000  0.0000  0.0000  0.0000 </r>
        <r>  0.0063  0.1216  0.0320  0.0561  0.0000  0.0000  0.0000  0.0000  0.0000 </r>
       </set>
       <set comment="band 8">
        <r>  0.0000  0.0000  0.0363  0.0000  0.0000  0.0160  0.0000  0.1502  0.0000 </r>
        <r>  0.0118  0.0172  0.1757  0.0390  0.0000  0.0000  0.0000  0.0000  0.0000 </r>
        <r>  0.0118  0.0172  0.1757  0.0390  0.0000  0.0000  0.0000  0.0000  0.0000 </r>
       </set>
       <set comment="band 9">
        <r>  0.0034  0.0196  0.0000  0.0198  0.1840  0.0000  0.1602  0.0000  0.1971 </r>
        <r>  0.0008  0.0479  0.0257  0.0262  0.0000  0.0000  0.0000  0.0000  0.0000 </r>
        <r>  0.0008  0.0479  0.0257  0.0262  0.0000  0.0000  0.0000  0.0000  0.0000 </r>
       </set>
       <set comment="band 10">
        <r>  0.0051  0.0091  0.0000  0.0018  0.0649  0.0000  0.3343  0.0000  0.3774 </r>
        <r>  0.0002  0.0266  0.0149  0.0068  0.0000  0.0000  0.0000  0.0000  0.0000 </r>
        <r>  0.0002  0.0266  0.0149  0.0068  0.0000  0.0000  0.0000  0.0000  0.0000 </r>
       </set>
       <set comment="band 11">
        <r>  0.0154  0.0057  0.0000  0.0107  0.3789  0.0000  0.2182  0.0000  0.1808 </r>
        <r>  0.0021  0.0014  0.0171  0.0181  0.0000  0.0000  0.0000  0.0000  0.0000 </r>
        <r>  0.0021  0.0014  0.0171  0.0181  0.0000  0.0000  0.0000  0.0000  0.0000 </r>
       </set>
       <set comment="band 12">
        <r>  0.0000  0.0000  0.0063  0.0000  0.0000  0.1639  0.0000  0.3325  0.0000 </r>
        <r>  0.0091  0.0683  0.0151  0.0162  0.0000  0.0000  0.0000  0.0000  0.0000 </r>
        <r>  0.0091  0.0683  0.0151  0.0162  0.0000  0.0000  0.0000  0.0000  0.0000 </r>
       </set>
       <set comment="band 13">
        <r>  0.0000  0.0000  0.0004  0.0000  0.0000  0.3333  0.0000  0.1443  0.0000 </r>
        <r>  0.0189  0.0144  0.0665  0.0290  0.0000  0.0000  0.0000  0.0000  0.0000 </r>
        <r>  0.0189  0.0144  0.0665  0.0290  0.0000  0.0000  0.0000  0.0000  0.0000 </r>
       </set>
       <set comment="band 14">
        <r>  0.1878  0.0089  0.0000  0.0533  0.0404  0.0000  0.0061  0.0000  0.0387 </r>
        <r>  0.0001  0.0013  0.0115  0.0051  0.0000  0.0000  0.0000  0.0000  0.0000 </r>
        <r>  0.0001  0.0013  0.0115  0.0051  0.0000  0.0000  0.0000  0.0000  0.0000 </r>
       </set>
      </set>
      <set comment="kpoint 9">
       <set comment="band 1">
        <r>  0.0218  0.0321  0.0000  0.0178  0.0177  0.0000  0.0004  0.0000  0.0266 </r>
        <r>  0.3182  0.0009  0.0058  0.0003  0.0000  0.0000  0.0000  0.0000  0.0000 </r>
        <r>  0.3183  0.0009  0.0058  0.0003  0.0000  0.0000  0.0000  0.0000  0.0000 </r>
       </set>
       <set comment="band 2">
        <r>  0.0000  0.0000  0.0084  0.0000  0.0000  0.0705  0.0000  0.0375  0.0000 </r>
        <r>  0.3319  0.0005  0.0027  0.0002  0.0000  0.0000  0.0000  0.0000  0.0000 </r>
        <r>  0.3319  0.0005  0.0027  0.0002  0.0000  0.0000  0.0000  0.0000  0.0000 </r>
       </set>
       <set comment="band 3">
        <r>  0.0650  0.0098  0.0000  0.0293  0.0359  0.0000  0.0616  0.0000  0.1071 </r>
        <r>  0.0004  0.1067  0.0171  0.0360  0.0000  0.0000  0.0000  0.0000  0.0000 </r>
        <r>  0.0004  0.1067  0.0171  0.0360  0.0000  0.0000  0.0000  0.0000  0.0000 </r>
       </set>
       <set comment="band 4">
        <r>  0.0000  0.0000  0.0084  0.0000  0.0000  0.1283  0.0000  0.2206  0.0000 </r>
        <r>  0.0041  0.0959  0.0001  0.0666  0.0000  0.0000  0.0000  0.0000  0.0000 </r>
        <r>  0.0041  0.0958  0.0001  0.0666  0.0000  0.0000  0.0000  0.0000  0.0000 </r>
       </set>
       <set comment="band 5">
        <r>  0.0785  0.0205  0.0000  0.0103  0.0691  0.0000  0.0001  0.0000  0.0673 </r>
        <r>  0.0340  0.0203  0.1496  0.0150  0.0000  0.0000  0.0000  0.0000  0.0000 </r>
        <r>  0.0340  0.0203  0.1496  0.0150  0.0000  0.0000  0.0000  0.0000  0.0000 </r>
       </set>
       <set comment="band 6">
        <r>  0.0000  0.0000  0.0470  0.0000  0.0000  0.1650  0.0000  0.0582  0.0000 </r>
        <r>  0.0039  0.0671  0.0535  0.0781  0.0000  0.0000  0.0000  0.0000  0.0000 </r>
        <r>  0.0039  0.0671  0.0535  0.0782  0.0000  0.0000  0.0000  0.0000  0.0000 </r>
       </set>
       <set comment="band 7">
        <r>  0.0102  0.0636  0.0000  0.0362  0.0089  0.0000  0.1207  0.0000  0.0185 </r>
        <r>  0.0005  0.0419  0.0089  0.1233  0.0000  0.0000  0.0000  0.0000  0.0000 </r>
        <r>  0.0005  0.0419  0.0089  0.1233  0.0000  0.0000  0.0000  0.0000  0.0000 </r>
       </set>
       <set comment="band 8">
        <r>  0.0000  0.0000  0.0523  0.0000  0.0000  0.0593  0.0000  0.0754  0.0000 </r>
        <r>  0.0130  0.0383  0.1560  0.0459  0.0000  0.0000  0.0000  0.0000  0.0000 </r>
        <r>  0.0130  0.0383  0.1560  0.0459  0.0000  0.0000  0.0000  0.0000  0.0000 </r>
       </set>
       <set comment="band 9">
        <r>  0.0074  0.0001  0.0000  0.0000  0.2536  0.0000  0.1475  0.0000  0.2690 </r>
        <r>  0.0010  0.0277  0.0016  0.0448  0.0000  0.0000  0.0000  0.0000  0.0000 </r>
        <r>  0.0010  0.0277  0.0016  0.0448  0.0000  0.0000  0.0000  0.0000  0.0000 </r>
       </set>
       <set comment="band 10">
        <r>  0.0074  0.0139  0.0000  0.0052  0.0463  0.0000  0.5214  0.0000  0.1099 </r>
        <r>  0.0006  0.0275  0.0274  0.0128  0.0000  0.0000  0.0000  0.0000  0.0000 </r>
        <r>  0.0006  0.0275  0.0274  0.0128  0.0000  0.0000  0.0000  0.0000  0.0000 </r>
       </set>
       <set comment="band 11">
        <r>  0.0246  0.0117  0.0000  0.0045  0.4757  0.0000  0.0544  0.0000  0.2307 </r>
        <r>  0.0023  0.0029  0.0261  0.0081  0.0000  0.0000  0.0000  0.0000  0.0000 </r>
        <r>  0.0023  0.0029  0.0261  0.0081  0.0000  0.0000  0.0000  0.0000  0.0000 </r>
       </set>
       <set comment="band 12">
        <r>  0.0000  0.0000  0.0020  0.0000  0.0000  0.1394  0.0000  0.3940  0.0000 </r>
        <r>  0.0077  0.0257  0.0088  0.0394  0.0000  0.0000  0.0000  0.0000  0.0000 </r>
        <r>  0.0077  0.0257  0.0088  0.0394  0.0000  0.0000  0.0000  0.0000  0.0000 </r>
       </set>
       <set comment="band 13">
        <r>  0.0000  0.0000  0.0016  0.0000  0.0000  0.3945  0.0000  0.1490  0.0000 </r>
        <r>  0.0208  0.0094  0.0755  0.0247  0.0000  0.0000  0.0000  0.0000  0.0000 </r>
        <r>  0.0208  0.0094  0.0755  0.0247  0.0000  0.0000  0.0000  0.0000  0.0000 </r>
       </set>
       <set comment="band 14">
        <r>  0.1318  0.0178  0.0000  0.0493  0.0234  0.0000  0.0105  0.0000  0.0697 </r>
        <r>  0.0001  0.0023  0.0279  0.0034  0.0000  0.0000  0.0000  0.0000  0.0000 </r>
        <r>  0.0001  0.0023  0.0279  0.0034  0.0000  0.0000  0.0000  0.0000  0.0000 </r>
       </set>
      </set>
      <set comment="kpoint 10">
       <set comment="band 1">
        <r>  0.0037  0.0239  0.0000  0.0333  0.0320  0.0000  0.0001  0.0000  0.0232 </r>
        <r>  0.3268  0.0001  0.0062  0.0000  0.0000  0.0000  0.0000  0.0000  0.0000 </r>
        <r>  0.3268  0.0001  0.0062  0.0000  0.0000  0.0000  0.0000  0.0000  0.0000 </r>
       </set>
       <set comment="band 2">
        <r>  0.0000  0.0000  0.0012  0.0000  0.0000  0.0490  0.0000  0.0724  0.0000 </r>
        <r>  0.3361  0.0001  0.0031  0.0001  0.0000  0.0000  0.0000  0.0000  0.0000 </r>
        <r>  0.3360  0.0001  0.0031  0.0001  0.0000  0.0000  0.0000  0.0000  0.0000 </r>
       </set>
       <set comment="band 3">
        <r>  0.0000  0.0000  0.0052  0.0000  0.0000  0.1910  0.0000  0.1716  0.0000 </r>
        <r>  0.0014  0.0682  0.0002  0.0892  0.0000  0.0000  0.0000  0.0000  0.0000 </r>
        <r>  0.0014  0.0682  0.0002  0.0893  0.0000  0.0000  0.0000  0.0000  0.0000 </r>
       </set>
       <set comment="band 4">
        <r>  0.1158  0.0140  0.0000  0.0182  0.0234  0.0000  0.0697  0.0000  0.0120 </r>
        <r>  0.0010  0.0457  0.0008  0.1278  0.0000  0.0000  0.0000  0.0000  0.0000 </r>
        <r>  0.0010  0.0457  0.0008  0.1278  0.0000  0.0000  0.0000  0.0000  0.0000 </r>
       </set>
       <set comment="band 5">
        <r>  0.0098  0.0425  0.0000  0.0147  0.1350  0.0000  0.0570  0.0000  0.0583 </r>
        <r>  0.0128  0.0514  0.0918  0.0171  0.0000  0.0000  0.0000  0.0000  0.0000 </r>
        <r>  0.0128  0.0514  0.0918  0.0171  0.0000  0.0000  0.0000  0.0000  0.0000 </r>
       </set>
       <set comment="band 6">
        <r>  0.0254  0.0245  0.0000  0.0604  0.0232  0.0000  0.0166  0.0000  0.0499 </r>
        <r>  0.0173  0.0805  0.0842  0.0298  0.0000  0.0000  0.0000  0.0000  0.0000 </r>
        <r>  0.0173  0.0805  0.0842  0.0298  0.0000  0.0000  0.0000  0.0000  0.0000 </r>
       </set>
       <set comment="band 7">
        <r>  0.0000  0.0000  0.0880  0.0000  0.0000  0.0674  0.0000  0.0296  0.0000 </r>
        <r>  0.0021  0.1084  0.0206  0.0916  0.0000  0.0000  0.0000  0.0000  0.0000 </r>
        <r>  0.0021  0.1084  0.0206  0.0916  0.0000  0.0000  0.0000  0.0000  0.0000 </r>
       </set>
       <set comment="band 8">
        <r>  0.0000  0.0000  0.0202  0.0000  0.0000  0.0930  0.0000  0.1433  0.0000 </r>
        <r>  0.0174  0.0143  0.1843  0.0176  0.0000  0.0000  0.0000  0.0000  0.0000 </r>
        <r>  0.0174  0.0143  0.1843  0.0176  0.0000  0.0000  0.0000  0.0000  0.0000 </r>
       </set>
       <set comment="band 9">
        <r>  0.0039  0.0023  0.0000  0.0065  0.3005  0.0000  0.0598  0.0000  0.3201 </r>
        <r>  0.0000  0.0395  0.0037  0.0253  0.0000  0.0000  0.0000  0.0000  0.0000 </r>
        <r>  0.0000  0.0395  0.0037  0.0253  0.0000  0.0000  0.0000  0.0000  0.0000 </r>
       </set>
       <set comment="band 10">
        <r>  0.0367  0.0018  0.0000  0.0007  0.0402  0.0000  0.7005  0.0000  0.0491 </r>
        <r>  0.0000  0.0133  0.0025  0.0204  0.0000  0.0000  0.0000  0.0000  0.0000 </r>
        <r>  0.0000  0.0133  0.0025  0.0204  0.0000  0.0000  0.0000  0.0000  0.0000 </r>
       </set>
       <set comment="band 11">
        <r>  0.0000  0.0000  0.0013  0.0000  0.0000  0.3130  0.0000  0.1959  0.0000 </r>
        <r>  0.0008  0.0487  0.0001  0.0299  0.0000  0.0000  0.0000  0.0000  0.0000 </r>
        <r>  0.0008  0.0487  0.0001  0.0299  0.0000  0.0000  0.0000  0.0000  0.0000 </r>
       </set>
       <set comment="band 12">
        <r>  0.0025  0.0104  0.0000  0.0214  0.2945  0.0000  0.0103  0.0000  0.3826 </r>
        <r>  0.0037  0.0009  0.0672  0.0012  0.0000  0.0000  0.0000  0.0000  0.0000 </r>
        <r>  0.0037  0.0009  0.0672  0.0012  0.0000  0.0000  0.0000  0.0000  0.0000 </r>
       </set>
       <set comment="band 13">
        <r>  0.0000  0.0000  0.0003  0.0000  0.0000  0.2358  0.0000  0.3392  0.0000 </r>
        <r>  0.0266  0.0010  0.0995  0.0019  0.0000  0.0000  0.0000  0.0000  0.0000 </r>
        <r>  0.0266  0.0010  0.0995  0.0019  0.0000  0.0000  0.0000  0.0000  0.0000 </r>
       </set>
       <set comment="band 14">
        <r>  0.1173  0.0534  0.0000  0.0641  0.0538  0.0000  0.0084  0.0000  0.0326 </r>
        <r>  0.0003  0.0020  0.0027  0.0043  0.0000  0.0000  0.0000  0.0000  0.0000 </r>
        <r>  0.0003  0.0020  0.0027  0.0043  0.0000  0.0000  0.0000  0.0000  0.0000 </r>
       </set>
      </set>
     </set>
    </set>
   </array>
  </projected>
 </calculation>
 <structure name="finalpos" >
  <crystal>
   <varray name="basis" >
    <v>       3.19031573       0.00000000       0.00000000 </v>
    <v>      -1.59515786       2.76289447       0.00000000 </v>
    <v>       0.00000000       0.00000000      20.87900430 </v>
   </varray>
   <i name="volume">    184.03810205 </i>
   <varray name="rec_basis" >
    <v>       0.31344860       0.18096963       0.00000000 </v>
    <v>       0.00000000       0.36193927       0.00000000 </v>
    <v>       0.00000000       0.00000000       0.04789500 </v>
   </varray>
  </crystal>
  <varray name="positions" >
   <v>       0.33333300       0.66666700       0.17815749 </v>
   <v>       0.66666700       0.33333300       0.10320735 </v>
   <v>       0.66666600       0.33333300       0.25310764 </v>
  </varray>
 </structure>
</modeling>
