    3    3    1    1
  0.9045187E+02  0.3189857E-09  0.3189857E-09  0.3079398E-08  0.5000000E-15
  1.000000000000000E-004
  CAR 
 unknown system                          
     18     14     14
 
  0.0000000E+00  0.0000000E+00  0.0000000E+00  0.1000000E-01
    1      -17.806189   1.000000
    2      -16.577690   1.000000
    3       -9.323980   1.000000
    4       -6.379136   1.000000
    5       -6.379131   1.000000
    6       -5.467957   1.000000
    7       -5.263711   1.000000
    8       -5.263679   1.000000
    9       -3.742317   1.000000
   10       -0.985576   0.000000
   11       -0.985545   0.000000
   12       -0.747477   0.000000
   13       -0.747463   0.000000
   14        1.666867   0.000000
 
  0.1000000E+00 -0.1387779E-16  0.0000000E+00  0.6000000E-01
    1      -17.667527   1.000000
    2      -16.512185   1.000000
    3       -9.163118   1.000000
    4       -6.689537   1.000000
    5       -6.226286   1.000000
    6       -6.107415   1.000000
    7       -5.489589   1.000000
    8       -4.851869   1.000000
    9       -3.825448   1.000000
   10       -1.160492   0.000000
   11       -1.112099   0.000000
   12       -0.908039   0.000000
   13       -0.743204   0.000000
   14        1.919141   0.000000
 
  0.2000000E+00 -0.1387779E-16  0.0000000E+00  0.6000000E-01
    1      -17.281278   1.000000
    2      -16.330892   1.000000
    3       -8.808130   1.000000
    4       -7.323258   1.000000
    5       -6.890256   1.000000
    6       -5.980326   1.000000
    7       -5.814233   1.000000
    8       -4.875694   1.000000
    9       -4.196812   1.000000
   10       -1.539394   0.000000
   11       -1.249031   0.000000
   12       -1.100266   0.000000
   13       -0.240797   0.000000
   14        2.486617   0.000000
 
  0.3000000E+00 -0.2775558E-16  0.0000000E+00  0.6000000E-01
    1      -16.743581   1.000000
    2      -16.083220   1.000000
    3       -8.819349   1.000000
    4       -7.662766   1.000000
    5       -7.631536   1.000000
    6       -6.465580   1.000000
    7       -5.289020   1.000000
    8       -5.231683   1.000000
    9       -4.663747   1.000000
   10       -1.523230   0.000000
   11       -1.507543   0.000000
   12       -0.564166   0.000000
   13        0.196619   0.000000
   14        3.243970   0.000000
 
  0.4000000E+00 -0.2775558E-16  0.0000000E+00  0.6000000E-01
    1      -16.237168   1.000000
    2      -15.858157   1.000000
    3       -9.262898   1.000000
    4       -8.273817   1.000000
    5       -7.713339   1.000000
    6       -6.797801   1.000000
    7       -5.503654   1.000000
    8       -4.872055   1.000000
    9       -4.598791   1.000000
   10       -1.599927   0.000000
   11       -1.234946   0.000000
   12       -0.032758   0.000000
   13        0.443609   0.000000
   14        3.104803   0.000000
 
  0.5000000E+00 -0.2775558E-16  0.0000000E+00  0.3000000E-01
    1      -16.019347   1.000000
    2      -15.764790   1.000000
    3       -9.481715   1.000000
    4       -8.510913   1.000000
    5       -7.809827   1.000000
    6       -6.914258   1.000000
    7       -5.591698   1.000000
    8       -4.722840   1.000000
    9       -4.383557   1.000000
   10       -1.580949   0.000000
   11       -1.057817   0.000000
   12        0.159426   0.000000
   13        0.517809   0.000000
   14        2.427718   0.000000
 
  0.1000000E+00  0.1000000E+00  0.0000000E+00  0.6000000E-01
    1      -17.404705   1.000000
    2      -16.388401   1.000000
    3       -8.894241   1.000000
    4       -7.147503   1.000000
    5       -6.599010   1.000000
    6       -6.027735   1.000000
    7       -5.964434   1.000000
    8       -4.671032   1.000000
    9       -4.057565   1.000000
   10       -1.482908   0.000000
   11       -1.295959   0.000000
   12       -1.166562   0.000000
   13       -0.305010   0.000000
   14        2.319423   0.000000
 
  0.2000000E+00  0.1000000E+00  0.0000000E+00  0.1200000E+00
    1      -16.939754   1.000000
    2      -16.171012   1.000000
    3       -8.674522   1.000000
    4       -7.561462   1.000000
    5       -7.273963   1.000000
    6       -6.634527   1.000000
    7       -5.637141   1.000000
    8       -4.823975   1.000000
    9       -4.490430   1.000000
   10       -1.735574   0.000000
   11       -1.335093   0.000000
   12       -1.065578   0.000000
   13        0.215816   0.000000
   14        3.011395   0.000000
 
  0.3000000E+00  0.1000000E+00  0.0000000E+00  0.1200000E+00
    1      -16.407559   1.000000
    2      -15.926852   1.000000
    3       -8.968865   1.000000
    4       -8.061886   1.000000
    5       -7.585806   1.000000
    6       -6.868839   1.000000
    7       -5.529488   1.000000
    8       -5.230737   1.000000
    9       -4.534031   1.000000
   10       -1.649406   0.000000
   11       -1.293028   0.000000
   12       -0.509856   0.000000
   13        0.495795   0.000000
   14        3.686375   0.000000
 
  0.4000000E+00  0.1000000E+00  0.0000000E+00  0.1200000E+00
    1      -16.029792   1.000000
    2      -15.758409   1.000000
    3       -9.290138   1.000000
    4       -8.557138   1.000000
    5       -7.728149   1.000000
    6       -6.917914   1.000000
    7       -5.535394   1.000000
    8       -5.408013   1.000000
    9       -4.245073   1.000000
   10       -1.553810   0.000000
   11       -1.054234   0.000000
   12       -0.004689   0.000000
   13        0.444271   0.000000
   14        2.781682   0.000000
 
  0.2000000E+00  0.2000000E+00  0.0000000E+00  0.6000000E-01
    1      -16.472633   1.000000
    2      -15.950624   1.000000
    3       -8.773788   1.000000
    4       -7.928632   1.000000
    5       -7.459223   1.000000
    6       -7.041675   1.000000
    7       -5.985007   1.000000
    8       -4.973839   1.000000
    9       -4.528469   1.000000
   10       -1.729374   0.000000
   11       -1.262440   0.000000
   12       -0.891476   0.000000
   13        0.608112   0.000000
   14        3.776970   0.000000
 
  0.3000000E+00  0.2000000E+00  0.0000000E+00  0.1200000E+00
    1      -16.046423   1.000000
    2      -15.748018   1.000000
    3       -8.913622   1.000000
    4       -8.624321   1.000000
    5       -7.465871   1.000000
    6       -6.953283   1.000000
    7       -6.410389   1.000000
    8       -5.399344   1.000000
    9       -4.260241   1.000000
   10       -1.591930   0.000000
   11       -1.005517   0.000000
   12       -0.574996   0.000000
   13        0.757476   0.000000
   14        3.560086   0.000000
 
  0.4000000E+00  0.2000000E+00  0.0000000E+00  0.6000000E-01
    1      -15.868827   1.000000
    2      -15.663252   1.000000
    3       -8.934079   1.000000
    4       -8.892798   1.000000
    5       -7.663222   1.000000
    6       -6.827071   1.000000
    7       -6.466475   1.000000
    8       -5.658409   1.000000
    9       -4.009776   1.000000
   10       -1.773542   0.000000
   11       -0.634096   0.000000
   12       -0.432072   0.000000
   13        0.780279   0.000000
   14        2.971499   0.000000
 
  0.3000000E+00  0.3000000E+00  0.0000000E+00  0.6000000E-01
    1      -15.809928   1.000000
    2      -15.622876   1.000000
    3       -9.043337   1.000000
    4       -8.542802   1.000000
    5       -7.549243   1.000000
    6       -7.227287   1.000000
    7       -6.713126   1.000000
    8       -5.767153   1.000000
    9       -3.887020   1.000000
   10       -1.984687   0.000000
   11       -0.667500   0.000000
   12       -0.401674   0.000000
   13        1.013853   0.000000
   14        3.439903   0.000000
