unknown system                          
   1.00000000000000     
     3.189857    0.000000    0.000000
    -1.594928    2.762497    0.000000
     0.000000    0.000000   30.793979
   Mo   S 
     1     2
Direct
  0.333333  0.666667  0.120462
  0.666667  0.333333  0.069840
  0.666666  0.333333  0.171084
 
   18   18  160
 0.23066E-02 0.25079E-02 0.32371E-02 0.50365E-02 0.90889E-02 0.16247E-01 0.28241E-01 0.43983E-01 0.56554E-01 0.64489E-01
 0.58061E-01 0.39995E-01 0.28533E-01 0.17489E-01 0.88900E-02 0.50074E-02 0.32465E-02 0.24852E-02 0.24973E-02 0.24794E-02
 0.33749E-02 0.58907E-02 0.11704E-01 0.24356E-01 0.45308E-01 0.73083E-01 0.10688     0.12404     0.12515     0.11454    
 0.73689E-01 0.42329E-01 0.24533E-01 0.11909E-01 0.58354E-02 0.33817E-02 0.32267E-02 0.26002E-02 0.32297E-02 0.58281E-02
 0.12964E-01 0.29171E-01 0.61223E-01 0.10956     0.15563     0.20233     0.21624     0.18412     0.15907     0.11546    
 0.60011E-01 0.29119E-01 0.12930E-01 0.58445E-02 0.51330E-02 0.29280E-02 0.30086E-02 0.50408E-02 0.11848E-01 0.29447E-01
 0.69188E-01 0.12564     0.20329     0.24684     0.28619     0.30246     0.25582     0.18373     0.13424     0.68096E-01
 0.29782E-01 0.11647E-01 0.91025E-02 0.39984E-02 0.29031E-02 0.39658E-02 0.91169E-02 0.23681E-01 0.61544E-01 0.13149    
 0.21280     0.28888     0.33701     0.32623     0.33509     0.29959     0.21251     0.12661     0.62258E-01 0.23738E-01
 0.15717E-01 0.63347E-02 0.30574E-02 0.33022E-02 0.58495E-02 0.17438E-01 0.43081E-01 0.11118     0.19107     0.29233    
 0.32976     0.41215     0.36349     0.34251     0.27746     0.21116     0.10154     0.47892E-01 0.27971E-01 0.99343E-02
 0.39826E-02 0.27526E-02 0.40212E-02 0.96775E-02 0.28303E-01 0.75411E-01 0.15651     0.25847     0.33633     0.35786    
 0.39331     0.39576     0.32626     0.25270     0.15737     0.74766E-01 0.45951E-01 0.14352E-01 0.57344E-02 0.26875E-02
 0.28830E-02 0.52949E-02 0.16057E-01 0.40149E-01 0.11349     0.18373     0.29573     0.35227     0.39202     0.34711    
 0.36632     0.27625     0.20864     0.99789E-01 0.56742E-01 0.21501E-01 0.74276E-02 0.31458E-02 0.22008E-02 0.31441E-02
 0.73663E-02 0.21895E-01 0.55670E-01 0.13167     0.21498     0.27129     0.32821     0.36682     0.32516     0.28532    
 0.21281     0.12736     0.62096E-01 0.25588E-01 0.91452E-02 0.37336E-02 0.19790E-02 0.20549E-02 0.36223E-02 0.92899E-02
 0.25209E-01 0.62914E-01 0.12189     0.21739     0.25095     0.27371     0.28445     0.26158     0.19400     0.12961    
 0.57667E-01 0.25294E-01 0.10125E-01 0.40082E-02 0.20243E-02 0.14941E-02 0.20111E-02 0.40909E-02 0.10014E-01 0.25666E-01
 0.59092E-01 0.96545E-01 0.15860     0.20974     0.21325     0.19406     0.15977     0.10413     0.42763E-01 0.21323E-01
 0.91787E-02 0.41249E-02 0.19930E-02 0.13617E-02 0.13272E-02 0.20151E-02 0.40570E-02 0.92252E-02 0.20522E-01 0.47525E-01
 0.73745E-01 0.10161     0.12974     0.13342     0.10559     0.75719E-01 0.28144E-01 0.15318E-01 0.74684E-02 0.36456E-02
 0.20107E-02 0.13253E-02 0.11606E-02 0.13533E-02 0.19868E-02 0.37208E-02 0.76161E-02 0.14172E-01 0.28117E-01 0.48494E-01
 0.60527E-01 0.67162E-01 0.61549E-01 0.45156E-01 0.16625E-01 0.96722E-02 0.55221E-02 0.31342E-02 0.20171E-02 0.15185E-02
 0.13480E-02 0.13112E-02 0.15401E-02 0.19688E-02 0.31186E-02 0.57840E-02 0.99257E-02 0.15339E-01 0.24614E-01 0.29599E-01
 0.29687E-01 0.23917E-01 0.89810E-02 0.61770E-02 0.39838E-02 0.27777E-02 0.22096E-02 0.20016E-02 0.19935E-02 0.20567E-02
 0.19766E-02 0.20499E-02 0.22268E-02 0.26473E-02 0.39796E-02 0.64833E-02 0.88886E-02 0.11671E-01 0.12890E-01 0.11783E-01
 0.50958E-02 0.39698E-02 0.31778E-02 0.27675E-02 0.27783E-02 0.31589E-02 0.36768E-02 0.39877E-02 0.41153E-02 0.35922E-02
 0.31182E-02 0.29284E-02 0.27652E-02 0.30135E-02 0.40639E-02 0.51086E-02 0.58605E-02 0.58514E-02 0.32276E-02 0.29962E-02
 0.28848E-02 0.31567E-02 0.40092E-02 0.54384E-02 0.74576E-02 0.94506E-02 0.99112E-02 0.94794E-02 0.75424E-02 0.51712E-02
 0.40137E-02 0.33283E-02 0.28507E-02 0.29478E-02 0.32409E-02 0.33669E-02 0.24889E-02 0.25761E-02 0.29670E-02 0.40397E-02
 0.60683E-02 0.99503E-02 0.15149E-01 0.20936E-01 0.25548E-01 0.24915E-01 0.20880E-01 0.16400E-01 0.97003E-02 0.58216E-02
 0.40477E-02 0.30175E-02 0.25655E-02 0.25110E-02 0.29422E-02 0.33578E-02 0.48014E-02 0.81387E-02 0.15563E-01 0.29874E-01
 0.53928E-01 0.83793E-01 0.10702     0.11870     0.10846     0.79556E-01 0.54256E-01 0.31153E-01 0.15363E-01 0.81111E-02
 0.48092E-02 0.33407E-02 0.33496E-02 0.33365E-02 0.51138E-02 0.10082E-01 0.21499E-01 0.46011E-01 0.87468E-01 0.13988    
 0.19182     0.21754     0.21851     0.19833     0.14038     0.84259E-01 0.46208E-01 0.21724E-01 0.10025E-01 0.51208E-02
 0.47926E-02 0.35686E-02 0.47954E-02 0.10017E-01 0.24460E-01 0.56669E-01 0.11652     0.19858     0.27147     0.32800    
 0.34451     0.31497     0.27422     0.20374     0.11526     0.56608E-01 0.24418E-01 0.10034E-01 0.82275E-02 0.42373E-02
 0.43018E-02 0.81428E-02 0.21654E-01 0.56963E-01 0.12917     0.22655     0.33438     0.39746     0.43742     0.44669    
 0.40315     0.32005     0.23372     0.12812     0.57336E-01 0.21442E-01 0.15581E-01 0.60601E-02 0.41536E-02 0.60336E-02
 0.15589E-01 0.45295E-01 0.11681     0.23146     0.35040     0.44345     0.49450     0.49563     0.49354     0.44960    
 0.35031     0.22728     0.11758     0.45325E-01 0.29304E-01 0.10087E-01 0.45942E-02 0.47965E-02 0.96398E-02 0.31096E-01
 0.85083E-01 0.20008     0.32555     0.44550     0.49945     0.55474     0.53117     0.50638     0.43656     0.33979    
 0.19133     0.90164E-01 0.53609E-01 0.17111E-01 0.61682E-02 0.40809E-02 0.62032E-02 0.16849E-01 0.54015E-01 0.14205    
 0.27226     0.40479     0.49420     0.52828     0.55242     0.54712     0.48865     0.40134     0.27273     0.14156    
 0.85796E-01 0.26919E-01 0.91387E-02 0.40776E-02 0.42398E-02 0.87367E-02 0.28695E-01 0.79726E-01 0.19747     0.31466    
 0.44287     0.50957     0.54537     0.52261     0.51668     0.43144     0.33226     0.18553     0.10725     0.40513E-01
 0.12862E-01 0.48344E-02 0.32322E-02 0.48350E-02 0.12792E-01 0.40954E-01 0.10611     0.22370     0.34380     0.42844    
 0.48967     0.51889     0.48820     0.43680     0.34237     0.22016     0.11639     0.49271E-01 0.16924E-01 0.60552E-02
 0.29630E-02 0.30261E-02 0.59507E-02 0.17086E-01 0.48848E-01 0.11720     0.21570     0.33800     0.40027     0.43430    
 0.44074     0.40676     0.32217     0.22206     0.10813     0.48935E-01 0.19112E-01 0.69900E-02 0.31232E-02 0.22109E-02
 0.31111E-02 0.70747E-02 0.18983E-01 0.49349E-01 0.10954     0.18253     0.27365     0.33882     0.35081     0.32779    
 0.27471     0.18941     0.82531E-01 0.40347E-01 0.16961E-01 0.71097E-02 0.31869E-02 0.19927E-02 0.19638E-02 0.32075E-02
 0.70407E-02 0.17013E-01 0.39465E-01 0.87346E-01 0.14061     0.19139     0.22994     0.23302     0.19506     0.14244    
 0.53823E-01 0.27932E-01 0.12900E-01 0.59726E-02 0.31110E-02 0.19623E-02 0.16739E-02 0.19856E-02 0.30899E-02 0.60424E-02
 0.13046E-01 0.26721E-01 0.53755E-01 0.90760E-01 0.11585     0.12719     0.11684     0.87310E-01 0.30259E-01 0.16853E-01
 0.89463E-02 0.48256E-02 0.29950E-02 0.22310E-02 0.19813E-02 0.19501E-02 0.22490E-02 0.29546E-02 0.48109E-02 0.91846E-02
 0.17105E-01 0.28901E-01 0.46265E-01 0.57146E-01 0.57220E-01 0.45552E-01 0.15459E-01 0.99418E-02 0.61705E-02 0.41532E-02
 0.32394E-02 0.29824E-02 0.30958E-02 0.32457E-02 0.30807E-02 0.30221E-02 0.32535E-02 0.40428E-02 0.61647E-02 0.10216E-01
 0.15371E-01 0.21461E-01 0.24380E-01 0.21580E-01 0.81924E-02 0.60380E-02 0.46943E-02 0.40938E-02 0.41536E-02 0.48464E-02
 0.60009E-02 0.69710E-02 0.70988E-02 0.59229E-02 0.48114E-02 0.42771E-02 0.40914E-02 0.45584E-02 0.61149E-02 0.82071E-02
 0.10049E-01 0.10044E-01 0.47931E-02 0.42920E-02 0.41387E-02 0.46780E-02 0.61911E-02 0.88728E-02 0.12888E-01 0.17251E-01
 0.18870E-01 0.17284E-01 0.12967E-01 0.86209E-02 0.61962E-02 0.48169E-02 0.41116E-02 0.42529E-02 0.48046E-02 0.51069E-02
 0.33439E-02 0.35497E-02 0.42690E-02 0.60954E-02 0.98460E-02 0.17119E-01 0.27762E-01 0.39925E-01 0.49227E-01 0.48521E-01
 0.39887E-01 0.29028E-01 0.16874E-01 0.96124E-02 0.61046E-02 0.43088E-02 0.35424E-02 0.33599E-02 0.39539E-02 0.46315E-02
 0.70296E-02 0.12663E-01 0.25383E-01 0.51227E-01 0.95498E-01 0.14988     0.19246     0.21083     0.19368     0.14594    
 0.95829E-01 0.52433E-01 0.25191E-01 0.12638E-01 0.70368E-02 0.46178E-02 0.46246E-02 0.46138E-02 0.74005E-02 0.15802E-01
 0.36571E-01 0.81564E-01 0.15597     0.24342     0.31705     0.35219     0.35292     0.32179     0.24372     0.15300    
 0.81772E-01 0.36793E-01 0.15750E-01 0.74057E-02 0.70230E-02 0.51244E-02 0.70249E-02 0.15742E-01 0.42264E-01 0.10335    
 0.20612     0.32580     0.41991     0.47963     0.49688     0.47222     0.42168     0.32958     0.20494     0.10329    
 0.42220E-01 0.15759E-01 0.12744E-01 0.63734E-02 0.64321E-02 0.12665E-01 0.36727E-01 0.10364     0.22602     0.36429    
 0.48610     0.55658     0.59362     0.59781     0.55939     0.47796     0.36921     0.22511     0.10403     0.36510E-01
 0.25404E-01 0.93317E-02 0.63094E-02 0.93092E-02 0.25404E-01 0.80877E-01 0.20633     0.36762     0.50389     0.59773    
 0.64755     0.65675     0.64723     0.60055     0.50383     0.36474     0.20704     0.80884E-01 0.50675E-01 0.15807E-01
 0.71056E-02 0.72878E-02 0.15399E-01 0.52379E-01 0.15377     0.32699     0.48111     0.59867     0.65872     0.69810    
 0.68872     0.66164     0.59450     0.48911     0.32046     0.15846     0.95154E-01 0.28086E-01 0.96300E-02 0.63073E-02
 0.96645E-02 0.27830E-01 0.95608E-01 0.24506     0.42047     0.56018     0.64749     0.68758     0.70535     0.69513    
 0.64506     0.55856     0.42062     0.24483     0.15174     0.47360E-01 0.14613E-01 0.64745E-02 0.66247E-02 0.14240E-01
 0.49070E-01 0.14612     0.32117     0.47203     0.59611     0.66260     0.69443     0.68526     0.66558     0.59073    
 0.48203     0.31235     0.19270     0.73489E-01 0.21890E-01 0.78292E-02 0.51992E-02 0.78313E-02 0.21814E-01 0.73952E-01
 0.19161     0.35646     0.49652     0.58934     0.64552     0.66685     0.64491     0.59324     0.49580     0.35397    
 0.20880     0.92099E-01 0.30299E-01 0.10001E-01 0.48029E-02 0.48638E-02 0.98982E-02 0.30471E-01 0.91650E-01 0.20952    
 0.35088     0.48516     0.55803     0.59342     0.59644     0.56121     0.47636     0.35530     0.19344     0.91751E-01
 0.34707E-01 0.11784E-01 0.49301E-02 0.34576E-02 0.49188E-02 0.11866E-01 0.34572E-01 0.92180E-01 0.19469     0.31012    
 0.42118     0.48860     0.50413     0.48243     0.42189     0.31531     0.14875     0.73337E-01 0.30340E-01 0.11900E-01
 0.49874E-02 0.29510E-02 0.29264E-02 0.50058E-02 0.11834E-01 0.30387E-01 0.72456E-01 0.15311     0.24407     0.32047    
 0.36660     0.36865     0.32330     0.24546     0.95388E-01 0.48344E-01 0.21923E-01 0.99204E-02 0.49188E-02 0.29248E-02
 0.24141E-02 0.29448E-02 0.48995E-02 0.99879E-02 0.22067E-01 0.47163E-01 0.95291E-01 0.15899     0.20554     0.22430    
 0.20638     0.15586     0.51584E-01 0.27846E-01 0.14435E-01 0.78218E-02 0.48337E-02 0.34763E-02 0.29411E-02 0.29146E-02
 0.34925E-02 0.47950E-02 0.78067E-02 0.14656E-01 0.28080E-01 0.50293E-01 0.81782E-01 0.10384     0.10388     0.81121E-01
 0.25288E-01 0.15674E-01 0.96330E-02 0.65454E-02 0.52059E-02 0.48219E-02 0.49049E-02 0.50403E-02 0.48906E-02 0.48601E-02
 0.52194E-02 0.64417E-02 0.96269E-02 0.15920E-01 0.25210E-01 0.36532E-01 0.42185E-01 0.36651E-01 0.12710E-01 0.93122E-02
 0.71966E-02 0.63189E-02 0.65456E-02 0.78412E-02 0.99467E-02 0.11766E-01 0.11890E-01 0.98716E-02 0.78088E-02 0.66590E-02
 0.63165E-02 0.70734E-02 0.93802E-02 0.12725E-01 0.15770E-01 0.15766E-01 0.70238E-02 0.64223E-02 0.62963E-02 0.71817E-02
 0.96520E-02 0.14367E-01 0.21916E-01 0.30628E-01 0.34458E-01 0.30667E-01 0.21985E-01 0.14130E-01 0.96591E-02 0.73050E-02
 0.62723E-02 0.63870E-02 0.70339E-02 0.73939E-02 0.46199E-02 0.51081E-02 0.64026E-02 0.93634E-02 0.15588E-01 0.28087E-01
 0.48173E-01 0.72935E-01 0.92039E-01 0.91326E-01 0.72901E-01 0.49386E-01 0.27851E-01 0.15374E-01 0.93730E-02 0.64377E-02
 0.51021E-02 0.46326E-02 0.55113E-02 0.64424E-02 0.10058E-01 0.19552E-01 0.42256E-01 0.88584E-01 0.16376     0.25057    
 0.31619     0.34191     0.31710     0.24733     0.16407     0.89724E-01 0.42071E-01 0.19529E-01 0.10064E-01 0.64310E-02
 0.64368E-02 0.64279E-02 0.10491E-01 0.24060E-01 0.60955E-01 0.13956     0.25705     0.37879     0.47004     0.51325    
 0.51365     0.47290     0.37894     0.25465     0.13977     0.61155E-01 0.24015E-01 0.10495E-01 0.10052E-01 0.71877E-02
 0.10054E-01 0.24010E-01 0.69936E-01 0.17565     0.32910     0.47551     0.57699     0.63432     0.65124     0.63090    
 0.57791     0.47776     0.32820     0.17560     0.69904E-01 0.24024E-01 0.19626E-01 0.92435E-02 0.92948E-02 0.19551E-01
 0.61100E-01 0.17589     0.35589     0.51980     0.63623     0.70027     0.73036     0.73198     0.70137     0.63250    
 0.52254     0.35524     0.17625     0.60889E-01 0.42284E-01 0.14269E-01 0.91738E-02 0.14252E-01 0.42273E-01 0.13896    
 0.32923     0.52163     0.65270     0.73092     0.77046     0.78030     0.77036     0.73201     0.65266     0.52003    
 0.32979     0.13893     0.88037E-01 0.25606E-01 0.10621E-01 0.10781E-01 0.25216E-01 0.89668E-01 0.25527     0.47626    
 0.63395     0.73130     0.78057     0.80627     0.80315     0.78159     0.72968     0.63764     0.47231     0.25905    
 0.16341     0.47962E-01 0.15060E-01 0.93023E-02 0.15095E-01 0.47698E-01 0.16387     0.37986     0.57729     0.70169    
 0.77046     0.80277     0.81437     0.80529     0.76956     0.70109     0.57729     0.37980     0.25211     0.83897E-01
 0.24124E-01 0.98771E-02 0.10014E-01 0.23756E-01 0.85575E-01 0.24749     0.47252     0.63082     0.73132     0.78234    
 0.80507     0.80199     0.78339     0.72922     0.63548     0.46716     0.31639     0.12946     0.37848E-01 0.12475E-01
 0.78987E-02 0.12478E-01 0.37765E-01 0.12992     0.31552     0.51567     0.65108     0.72870     0.76973     0.78340    
 0.76953     0.73020     0.65078     0.51421     0.34041     0.16143     0.52931E-01 0.16364E-01 0.74681E-02 0.75243E-02
 0.16266E-01 0.53103E-01 0.16100     0.34096     0.51244     0.63691     0.70087     0.72925     0.73042     0.70214    
 0.63282     0.51500     0.31692     0.16110     0.60244E-01 0.19416E-01 0.77746E-02 0.54094E-02 0.77642E-02 0.19493E-01
 0.60116E-01 0.16150     0.31791     0.46579     0.57757     0.63742     0.65282     0.63457     0.57797     0.46900    
 0.24968     0.12933     0.52978E-01 0.19524E-01 0.79312E-02 0.46965E-02 0.46731E-02 0.79478E-02 0.19464E-01 0.53015E-01
 0.12848     0.25319     0.37930     0.47231     0.52106     0.52218     0.47406     0.38015     0.16364     0.84870E-01
 0.37873E-01 0.16289E-01 0.77637E-02 0.46717E-02 0.39189E-02 0.46909E-02 0.77460E-02 0.16353E-01 0.38028E-01 0.83704E-01
 0.16353     0.25948     0.32867     0.35470     0.32926     0.25697     0.88915E-01 0.47720E-01 0.23949E-01 0.12468E-01
 0.74967E-02 0.54268E-02 0.46872E-02 0.46615E-02 0.54419E-02 0.74610E-02 0.12451E-01 0.24165E-01 0.47956E-01 0.87674E-01
 0.13975     0.17609     0.17611     0.13917     0.42168E-01 0.25477E-01 0.15066E-01 0.99425E-02 0.79049E-02 0.74859E-02
 0.77515E-02 0.79804E-02 0.77379E-02 0.75207E-02 0.79180E-02 0.98483E-02 0.15058E-01 0.25711E-01 0.42098E-01 0.60912E-01
 0.69868E-01 0.61024E-01 0.19595E-01 0.14253E-01 0.10702E-01 0.93108E-02 0.99432E-02 0.12485E-01 0.16313E-01 0.19398E-01
 0.19517E-01 0.16240E-01 0.12456E-01 0.10044E-01 0.93101E-02 0.10592E-01 0.14314E-01 0.19607E-01 0.24035E-01 0.24030E-01
 0.10053E-01 0.92858E-02 0.91620E-02 0.10690E-01 0.15082E-01 0.23886E-01 0.37869E-01 0.53258E-01 0.60001E-01 0.53294E-01
 0.37936E-01 0.23651E-01 0.15091E-01 0.10797E-01 0.91417E-02 0.92556E-02 0.10061E-01 0.10485E-01 0.64330E-02 0.71742E-02
 0.92692E-02 0.14299E-01 0.25398E-01 0.47948E-01 0.84700E-01 0.12896     0.16137     0.16072     0.12893     0.85875E-01
 0.47715E-01 0.25190E-01 0.14309E-01 0.92989E-02 0.71690E-02 0.64436E-02 0.74124E-02 0.87339E-02 0.14325E-01 0.30473E-01
 0.70473E-01 0.14844     0.26101     0.37548     0.45426     0.48267     0.45484     0.37316     0.26130     0.14951    
 0.70290E-01 0.30449E-01 0.14330E-01 0.87242E-02 0.87294E-02 0.87219E-02 0.15212E-01 0.38030E-01 0.10118     0.22515    
 0.38291     0.52080     0.61210     0.65388     0.65409     0.61353     0.52088     0.38119     0.22537     0.10137    
 0.37991E-01 0.15216E-01 0.14320E-01 0.96063E-02 0.14321E-01 0.37988E-01 0.11488     0.27560     0.46827     0.61702    
 0.70660     0.75319     0.76699     0.75183     0.70701     0.61816     0.46771     0.27553     0.11485     0.37998E-01
 0.30543E-01 0.12758E-01 0.12801E-01 0.30469E-01 0.10133     0.27573     0.49830     0.66030     0.75495     0.80344    
 0.82494     0.82550     0.80382     0.75346     0.66160     0.49789     0.27606     0.10111     0.70517E-01 0.21347E-01
 0.12577E-01 0.21334E-01 0.70492E-01 0.22468     0.46837     0.66116     0.76889     0.82555     0.85314     0.86079    
 0.85311     0.82592     0.76889     0.66039     0.46875     0.22461     0.14789     0.41498E-01 0.15264E-01 0.15405E-01
 0.41105E-01 0.14945     0.38162     0.61741     0.75403     0.82569     0.86101     0.87762     0.87667     0.86134    
 0.82511     0.75552     0.61538     0.38433     0.26071     0.81327E-01 0.23287E-01 0.13244E-01 0.23322E-01 0.81054E-01
 0.26113     0.52140     0.70675     0.80394     0.85314     0.87656     0.88424     0.87733     0.85284     0.80374    
 0.70671     0.52142     0.37657     0.14269     0.39916E-01 0.14668E-01 0.14794E-01 0.39536E-01 0.14431     0.37326    
 0.61335     0.75179     0.82527     0.86143     0.87726     0.87632     0.86176     0.82455     0.75365     0.61062    
 0.45443     0.21205     0.65103E-01 0.19703E-01 0.11595E-01 0.19709E-01 0.65007E-01 0.21248     0.45384     0.65504    
 0.76695     0.82437     0.85289     0.86190     0.85285     0.82488     0.76683     0.65432     0.48175     0.25666    
 0.90722E-01 0.27145E-01 0.11326E-01 0.11378E-01 0.27045E-01 0.90900E-01 0.25630     0.48209     0.65348     0.75422    
 0.80366     0.82498     0.82537     0.80411     0.75259     0.65472     0.45473     0.25639     0.10206     0.32907E-01
 0.12342E-01 0.82242E-02 0.12332E-01 0.32986E-01 0.10193     0.25671     0.45540     0.60994     0.70682     0.75543    
 0.76895     0.75429     0.70703     0.61156     0.37485     0.21196     0.90774E-01 0.33014E-01 0.12906E-01 0.73401E-02
 0.73178E-02 0.12922E-01 0.32955E-01 0.90806E-01 0.21120     0.37732     0.52116     0.61539     0.66088     0.66142    
 0.61629     0.52158     0.26092     0.14363     0.65122E-01 0.27070E-01 0.12332E-01 0.73166E-02 0.61489E-02 0.73351E-02
 0.12314E-01 0.27134E-01 0.65291E-01 0.14250     0.26080     0.38461     0.46805     0.49757     0.46838     0.38285    
 0.14874     0.81079E-01 0.39734E-01 0.19698E-01 0.11352E-01 0.82396E-02 0.73313E-02 0.73061E-02 0.82542E-02 0.11319E-01
 0.19678E-01 0.39957E-01 0.81324E-01 0.14756     0.22532     0.27593     0.27594     0.22485     0.70391E-01 0.41363E-01
 0.23296E-01 0.14728E-01 0.11601E-01 0.11343E-01 0.12320E-01 0.12955E-01 0.12306E-01 0.11374E-01 0.11613E-01 0.14643E-01
 0.23284E-01 0.41598E-01 0.70330E-01 0.10113     0.11482     0.10124     0.30512E-01 0.21337E-01 0.15335E-01 0.13251E-01
 0.14729E-01 0.19714E-01 0.27093E-01 0.32886E-01 0.33010E-01 0.27019E-01 0.19686E-01 0.14820E-01 0.13250E-01 0.15240E-01
 0.21388E-01 0.30526E-01 0.38009E-01 0.38005E-01 0.14321E-01 0.12793E-01 0.12567E-01 0.15325E-01 0.23309E-01 0.39677E-01
 0.65115E-01 0.91055E-01 0.10182     0.91091E-01 0.65184E-01 0.39435E-01 0.23318E-01 0.15419E-01 0.12550E-01 0.12768E-01
 0.14328E-01 0.15206E-01 0.87262E-02 0.95950E-02 0.12779E-01 0.21376E-01 0.41291E-01 0.81293E-01 0.14347     0.21162    
 0.25662     0.25606     0.21162     0.14458     0.81068E-01 0.41078E-01 0.21387E-01 0.12804E-01 0.95913E-02 0.87352E-02
 0.94880E-02 0.11536E-01 0.20320E-01 0.46229E-01 0.11046     0.22849     0.37684     0.50408     0.58095     0.60642    
 0.58124     0.50265     0.37707     0.22944     0.11027     0.46204E-01 0.20325E-01 0.11528E-01 0.11532E-01 0.11526E-01
 0.22087E-01 0.59361E-01 0.15786     0.32928     0.51059     0.64238     0.71917     0.75280     0.75291     0.71982    
 0.64238     0.50953     0.32946     0.15805     0.59319E-01 0.22092E-01 0.20315E-01 0.12705E-01 0.20316E-01 0.59317E-01
 0.17817     0.38896     0.59284     0.72341     0.79410     0.82900     0.83935     0.82849     0.79428     0.72394    
 0.59251     0.38889     0.17814     0.59330E-01 0.46300E-01 0.17523E-01 0.17564E-01 0.46222E-01 0.15801     0.38901    
 0.61983     0.75879     0.83100     0.86671     0.88216     0.88234     0.86685     0.83043     0.75936     0.61960    
 0.38929     0.15778     0.11050     0.31290E-01 0.17384E-01 0.31281E-01 0.11047     0.32894     0.59287     0.75917    
 0.84185     0.88304     0.90276     0.90849     0.90275     0.88316     0.84186     0.75883     0.59310     0.32885    
 0.22799     0.64384E-01 0.22122E-01 0.22255E-01 0.63989E-01 0.22938     0.50979     0.72362     0.83064     0.88309    
 0.90878     0.92022     0.91992     0.90889     0.88289     0.83121     0.72268     0.51149     0.37661     0.12933    
 0.35635E-01 0.19442E-01 0.35672E-01 0.12905     0.37696     0.64263     0.79418     0.86689     0.90276     0.91989    
 0.92526     0.92013     0.90267     0.86682     0.79414     0.64269     0.50476     0.22332     0.63688E-01 0.22235E-01
 0.22359E-01 0.63299E-01 0.22477     0.50272     0.71975     0.82847     0.88227     0.90869     0.92011     0.91982    
 0.90880     0.88202     0.82917     0.71851     0.58105     0.31691     0.10630     0.31078E-01 0.17597E-01 0.31087E-01
 0.10619     0.31726     0.58070     0.75331     0.83934     0.88196     0.90268     0.90907     0.90267     0.88213    
 0.83930     0.75299     0.60591     0.37108     0.14816     0.44767E-01 0.17691E-01 0.17744E-01 0.44656E-01 0.14835    
 0.37080     0.60610     0.75263     0.82938     0.86680     0.88285     0.88297     0.86695     0.82877     0.75317    
 0.58120     0.37087     0.16584     0.56076E-01 0.20237E-01 0.12994E-01 0.20226E-01 0.56159E-01 0.16572     0.37112    
 0.58157     0.71821     0.79418     0.83117     0.84188     0.83075     0.79427     0.71894     0.50371     0.31683    
 0.14822     0.56192E-01 0.21768E-01 0.11872E-01 0.11849E-01 0.21786E-01 0.56131E-01 0.14823     0.31624     0.50521    
 0.64257     0.72268     0.75905     0.75927     0.72310     0.64275     0.37677     0.22415     0.10632     0.44685E-01
 0.20226E-01 0.11847E-01 0.98810E-02 0.11867E-01 0.20207E-01 0.44754E-01 0.10648     0.22315     0.37666     0.51165    
 0.59272     0.61942     0.59289     0.51056     0.22874     0.12910     0.63500E-01 0.31073E-01 0.17718E-01 0.13010E-01
 0.11863E-01 0.11837E-01 0.13025E-01 0.17685E-01 0.31052E-01 0.63729E-01 0.12933     0.22771     0.32939     0.38920    
 0.38919     0.32905     0.11038     0.64244E-01 0.35644E-01 0.22294E-01 0.17603E-01 0.17709E-01 0.20214E-01 0.21821E-01
 0.20199E-01 0.17741E-01 0.17615E-01 0.22211E-01 0.35631E-01 0.64479E-01 0.11032     0.15780     0.17812     0.15791    
 0.46265E-01 0.31282E-01 0.22188E-01 0.19450E-01 0.22294E-01 0.31089E-01 0.44707E-01 0.56057E-01 0.56187E-01 0.44631E-01
 0.31061E-01 0.22384E-01 0.19448E-01 0.22101E-01 0.31328E-01 0.46284E-01 0.59336E-01 0.59337E-01 0.20317E-01 0.17555E-01
 0.17376E-01 0.22180E-01 0.35657E-01 0.63445E-01 0.10631     0.14848     0.16562     0.14852     0.10637     0.63198E-01
 0.35668E-01 0.22268E-01 0.17361E-01 0.17532E-01 0.20323E-01 0.22082E-01 0.11529E-01 0.12696E-01 0.17543E-01 0.31318E-01
 0.64175E-01 0.12930     0.22401     0.31659     0.37104     0.37062     0.31660     0.22500     0.12907     0.63963E-01
 0.31330E-01 0.17567E-01 0.12692E-01 0.11537E-01 0.11891E-01 0.15018E-01 0.28223E-01 0.66724E-01 0.16042     0.32035    
 0.49218     0.61552     0.68139     0.70179     0.68153     0.61473     0.49233     0.32112     0.16025     0.66697E-01
 0.28229E-01 0.15010E-01 0.15013E-01 0.15009E-01 0.30812E-01 0.86570E-01 0.22495     0.43394     0.61754     0.73153    
 0.79199     0.81766     0.81770     0.79229     0.73151     0.61695     0.43407     0.22513     0.86523E-01 0.30817E-01
 0.28220E-01 0.17036E-01 0.28220E-01 0.86522E-01 0.25169     0.49359     0.68452     0.79255     0.84820     0.87503    
 0.88302     0.87483     0.84827     0.79279     0.68434     0.49355     0.25167     0.86535E-01 0.66792E-01 0.24446E-01
 0.24486E-01 0.66714E-01 0.22509     0.49364     0.70498     0.81815     0.87494     0.90296     0.91490     0.91496    
 0.90301     0.87472     0.81839     0.70486     0.49382     0.22489     0.16046     0.45155E-01 0.24810E-01 0.45148E-01
 0.16042     0.43372     0.68452     0.81831     0.88281     0.91477     0.92995     0.93442     0.92995     0.91481    
 0.88281     0.81816     0.68465     0.43364     0.31994     0.95190E-01 0.32565E-01 0.32700E-01 0.94799E-01 0.32107    
 0.61708     0.79266     0.87480     0.91479     0.93437     0.94282     0.94272     0.93441     0.91471     0.87503    
 0.79223     0.61805     0.49200     0.19116     0.53662E-01 0.29334E-01 0.53703E-01 0.19090     0.49226     0.73163    
 0.84823     0.90302     0.92995     0.94271     0.94659     0.94279     0.92992     0.90300     0.84821     0.73168    
 0.61593     0.31854     0.96902E-01 0.34217E-01 0.34351E-01 0.96504E-01 0.31972     0.61477     0.79225     0.87483    
 0.91494     0.93449     0.94278     0.94268     0.93453     0.91485     0.87511     0.79170     0.68144     0.42931    
 0.16163     0.48476E-01 0.27660E-01 0.48486E-01 0.16152     0.42956     0.68125     0.81787     0.88302     0.91483    
 0.92992     0.93447     0.92992     0.91489     0.88300     0.81774     0.70155     0.48724     0.22345     0.71067E-01
 0.28375E-01 0.28433E-01 0.70948E-01 0.22364     0.48703     0.70165     0.81758     0.87519     0.90299     0.91470    
 0.91475     0.90305     0.87495     0.81781     0.68152     0.48709     0.24887     0.90604E-01 0.33045E-01 0.21189E-01
 0.33035E-01 0.90687E-01 0.24876     0.48724     0.68171     0.79157     0.84822     0.87502     0.88282     0.87485    
 0.84826     0.79190     0.61533     0.42926     0.22351     0.90723E-01 0.35910E-01 0.19373E-01 0.19348E-01 0.35929E-01
 0.90662E-01 0.22352     0.42883     0.61617     0.73163     0.79222     0.81825     0.81834     0.79242     0.73169    
 0.49213     0.31921     0.16165     0.70982E-01 0.33033E-01 0.19346E-01 0.15979E-01 0.19367E-01 0.33013E-01 0.71052E-01
 0.16181     0.31841     0.49202     0.61815     0.68445     0.70478     0.68454     0.61753     0.32054     0.19095    
 0.96709E-01 0.48470E-01 0.28404E-01 0.21207E-01 0.19362E-01 0.19335E-01 0.21222E-01 0.28369E-01 0.48444E-01 0.96942E-01
 0.19117     0.31972     0.43400     0.49377     0.49374     0.43379     0.16035     0.95048E-01 0.53674E-01 0.34281E-01
 0.27668E-01 0.28395E-01 0.33020E-01 0.35967E-01 0.33004E-01 0.28429E-01 0.27682E-01 0.34192E-01 0.53657E-01 0.95282E-01
 0.16030     0.22490     0.25164     0.22500     0.66757E-01 0.45147E-01 0.32633E-01 0.29340E-01 0.34281E-01 0.48485E-01
 0.71004E-01 0.90588E-01 0.90718E-01 0.70926E-01 0.48455E-01 0.34375E-01 0.29341E-01 0.32542E-01 0.45192E-01 0.66777E-01
 0.86543E-01 0.86544E-01 0.28220E-01 0.24476E-01 0.24803E-01 0.32624E-01 0.53686E-01 0.96657E-01 0.16165     0.22373    
 0.24867     0.22378     0.16170     0.96408E-01 0.53697E-01 0.32713E-01 0.24788E-01 0.24454E-01 0.28227E-01 0.30807E-01
 0.15011E-01 0.17029E-01 0.24466E-01 0.45181E-01 0.94984E-01 0.19112     0.31910     0.42910     0.48719     0.48693    
 0.42909     0.31991     0.19091     0.94771E-01 0.45195E-01 0.24488E-01 0.17025E-01 0.15019E-01 0.15043E-01 0.19467E-01
 0.38095E-01 0.91864E-01 0.21719     0.40863     0.58385     0.69371     0.74813     0.76444     0.74822     0.69323    
 0.58395     0.40925     0.21703     0.91831E-01 0.38101E-01 0.19461E-01 0.19464E-01 0.19459E-01 0.41144E-01 0.11812    
 0.29510     0.52174     0.69104     0.78627     0.83445     0.85455     0.85457     0.83460     0.78626     0.69067    
 0.52185     0.29525     0.11809     0.41147E-01 0.38093E-01 0.22877E-01 0.38093E-01 0.11808     0.32633     0.57635    
 0.74339     0.83179     0.87634     0.89754     0.90383     0.89744     0.87638     0.83192     0.74329     0.57631    
 0.32631     0.11809     0.91929E-01 0.33852E-01 0.33895E-01 0.91846E-01 0.29522     0.57636     0.75876     0.85026    
 0.89554     0.91781     0.92727     0.92730     0.91783     0.89543     0.85038     0.75870     0.57650     0.29503    
 0.21725     0.63508E-01 0.35225E-01 0.63506E-01 0.21719     0.52161     0.74339     0.85034     0.90109     0.92614    
 0.93810     0.94166     0.93809     0.92616     0.90109     0.85026     0.74347     0.52152     0.40825     0.13410    
 0.47134E-01 0.47295E-01 0.13367     0.40919     0.69075     0.83186     0.89547     0.92615     0.94126     0.94778    
 0.94774     0.94128     0.92612     0.89558     0.83162     0.69136     0.58372     0.26161     0.78396E-01 0.43566E-01
 0.78442E-01 0.26136     0.58392     0.78632     0.87636     0.91784     0.93810     0.94773     0.95066     0.94777    
 0.93808     0.91783     0.87634     0.78636     0.69397     0.41208     0.14031     0.51758E-01 0.51925E-01 0.13987    
 0.41306     0.69326     0.83458     0.89744     0.92729     0.94169     0.94776     0.94772     0.94171     0.92724    
 0.89758     0.83429     0.74816     0.52702     0.22812     0.73739E-01 0.43345E-01 0.73754E-01 0.22802     0.52722    
 0.74805     0.85465     0.90383     0.92724     0.93808     0.94131     0.93808     0.92726     0.90382     0.85459    
 0.76430     0.58261     0.30724     0.10770     0.45577E-01 0.45646E-01 0.10758     0.30741     0.58247     0.76436    
 0.85450     0.89761     0.91783     0.92611     0.92613     0.91785     0.89750     0.85462     0.74820     0.58250    