       N       E                     dE             d eps       ncg     rms          rms(c)
DAV:   1     0.137204583566E+03    0.13720E+03   -0.53586E+03   392   0.809E+02
DAV:   2    -0.602049864276E+01   -0.14323E+03   -0.13347E+03   702   0.161E+02
DAV:   3    -0.230465319225E+02   -0.17026E+02   -0.16865E+02   524   0.731E+01
DAV:   4    -0.233920873128E+02   -0.34556E+00   -0.34367E+00   522   0.130E+01
DAV:   5    -0.234007388328E+02   -0.86515E-02   -0.86474E-02   526   0.200E+00    0.687E+00
RMM:   6    -0.222357970007E+02    0.11649E+01   -0.53812E+00   415   0.123E+01    0.258E+00
RMM:   7    -0.218616075880E+02    0.37419E+00   -0.54711E-01   408   0.339E+00    0.150E+00
RMM:   8    -0.218023053851E+02    0.59302E-01   -0.22885E-01   431   0.249E+00    0.354E-01
RMM:   9    -0.217974627828E+02    0.48426E-02   -0.87992E-03   467   0.606E-01    0.957E-02
RMM:  10    -0.217967187534E+02    0.74403E-03   -0.16820E-03   466   0.220E-01    0.443E-02
RMM:  11    -0.217966528242E+02    0.65929E-04   -0.16147E-03   439   0.188E-01    0.535E-02
RMM:  12    -0.217964926062E+02    0.16022E-03   -0.51756E-04   425   0.128E-01    0.175E-02
RMM:  13    -0.217968260030E+02   -0.33340E-03   -0.16601E-04   414   0.719E-02    0.199E-02
RMM:  14    -0.217968848977E+02   -0.58895E-04   -0.27395E-05   444   0.278E-02    0.497E-03
RMM:  15    -0.217970087421E+02   -0.12384E-03   -0.12441E-05   421   0.166E-02    0.301E-03
RMM:  16    -0.217970489528E+02   -0.40211E-04   -0.27083E-06   323   0.696E-03    0.165E-03
RMM:  17    -0.217970794906E+02   -0.30538E-04   -0.27078E-06   289   0.698E-03    0.118E-03
RMM:  18    -0.217970842844E+02   -0.47938E-05   -0.26481E-07   238   0.296E-03    0.572E-04
RMM:  19    -0.217970909552E+02   -0.66708E-05   -0.51137E-07   265   0.317E-03    0.423E-04
RMM:  20    -0.217970935432E+02   -0.25881E-05   -0.16829E-07   221   0.209E-03    0.147E-04
RMM:  21    -0.217970945958E+02   -0.10525E-05   -0.50172E-08   119   0.110E-03    0.104E-04
RMM:  22    -0.217970951084E+02   -0.51258E-06   -0.19882E-08   104   0.116E-03
   1 F= -.22388370E+02 E0= -.22388370E+02  d E =0.000000E+00
