 vasp.5.4.4.18Apr17-6-g9f103f2a35 (build Jun 30 2017 11:15:00) complex          
  
 executed on    STALLO_VASP_5.4.4 date 2019.11.08  15:08:57
 running on    4 total cores
 distrk:  each k-point on    4 cores,    1 groups
 distr:  one band on NCORES_PER_BAND=   2 cores,    2 groups


--------------------------------------------------------------------------------------------------------


 INCAR:
 POTCAR:   PAW_PBE Mo 08Apr2002                   
 POTCAR:    PAW_PBE S 17Jan2003                   
 POTCAR:   PAW_PBE Mo 08Apr2002                   
   VRHFIN =Mo: 4p5s4d                                                           
   LEXCH  = PE                                                                  
   EATOM  =   217.5180 eV,   15.9871 Ry                                         
                                                                                
   TITEL  = PAW_PBE Mo 08Apr2002                                                
   LULTRA =        F    use ultrasoft PP ?                                      
   IUNSCR =        1    unscreen: 0-lin 1-nonlin 2-no                           
   RPACOR =    2.200    partial core radius                                     
   POMASS =   95.940; ZVAL   =    6.000    mass and valenz                      
   RCORE  =    2.750    outmost cutoff radius                                   
   RWIGS  =    2.750; RWIGS  =    1.455    wigner-seitz radius (au A)           
   ENMAX  =  224.584; ENMIN  =  168.438 eV                                      
   RCLOC  =    2.111    cutoff for local pot                                    
   LCOR   =        T    correct aug charges                                     
   LPAW   =        T    paw PP                                                  
   EAUG   =  345.278                                                            
   DEXC   =    -.088                                                            
   RMAX   =    3.077    core radius for proj-oper                               
   RAUG   =    1.300    factor for augmentation sphere                          
   RDEP   =    2.815    radius for radial grids                                 
   QCUT   =   -4.063; QGAM   =    8.126    optimization parameters              
                                                                                
   Description                                                                  
     l     E      TYP  RCUT    TYP  RCUT                                        
     2   .000     23  2.500                                                     
     2   .000     23  2.500                                                     
     0   .000     23  2.600                                                     
     0  1.000     23  2.600                                                     
     1   .400     23  2.750                                                     
     1  2.000     23  2.750                                                     
     3   .000      7   .000                                                     
  local pseudopotential read in
  partial core-charges read in
  atomic valenz-charges read in
  non local Contribution for L=           2  read in
    real space projection operators read in
  non local Contribution for L=           2  read in
    real space projection operators read in
  non local Contribution for L=           0  read in
    real space projection operators read in
  non local Contribution for L=           0  read in
    real space projection operators read in
  non local Contribution for L=           1  read in
    real space projection operators read in
  non local Contribution for L=           1  read in
    real space projection operators read in
    PAW grid and wavefunctions read in
 
   number of l-projection  operators is LMAX  =           6
   number of lm-projection operators is LMMAX =          18
 
 POTCAR:    PAW_PBE S 17Jan2003                   
   VRHFIN =S : s2p4                                                             
   LEXCH  = PE                                                                  
   EATOM  =   276.8230 eV,   20.3459 Ry                                         
                                                                                
   TITEL  = PAW_PBE S 17Jan2003                                                 
   LULTRA =        F    use ultrasoft PP ?                                      
   IUNSCR =        1    unscreen: 0-lin 1-nonlin 2-no                           
   RPACOR =    1.500    partial core radius                                     
   POMASS =   32.066; ZVAL   =    6.000    mass and valenz                      
   RCORE  =    1.900    outmost cutoff radius                                   
   RWIGS  =    2.200; RWIGS  =    1.164    wigner-seitz radius (au A)           
   ENMAX  =  280.000; ENMIN  =  194.016 eV                                      
   ICORE  =        2    local potential                                         
   LCOR   =        T    correct aug charges                                     
   LPAW   =        T    paw PP                                                  
   EAUG   =  335.092                                                            
   DEXC   =     .000                                                            
   RMAX   =    2.867    core radius for proj-oper                               
   RAUG   =    1.300    factor for augmentation sphere                          
   RDEP   =    1.954    radius for radial grids                                 
   QCUT   =   -4.360; QGAM   =    8.721    optimization parameters              
                                                                                
   Description                                                                  
     l     E      TYP  RCUT    TYP  RCUT                                        
     0   .000     23  1.900                                                     
     0   .000     23  1.900                                                     
     1   .000     23  1.900                                                     
     1   .000     23  1.900                                                     
     2   .000     23  1.900                                                     
  local pseudopotential read in
  partial core-charges read in
  atomic valenz-charges read in
  non local Contribution for L=           0  read in
    real space projection operators read in
  non local Contribution for L=           0  read in
    real space projection operators read in
  non local Contribution for L=           1  read in
    real space projection operators read in
  non local Contribution for L=           1  read in
    real space projection operators read in
    PAW grid and wavefunctions read in
 
   number of l-projection  operators is LMAX  =           4
   number of lm-projection operators is LMMAX =           8
 
 PAW_PBE Mo 08Apr2002                   :
 energy of atom  1       EATOM= -217.5180
 kinetic energy error for atom=    0.0023 (will be added to EATOM!!)
  PAW_PBE S 17Jan2003                   :
 energy of atom  2       EATOM= -276.8230
 kinetic energy error for atom=    0.0033 (will be added to EATOM!!)
 
 
 POSCAR: MoS2_mp-2815_computed                   
  positions in direct lattice
  velocities in cartesian coordinates
 exchange correlation table for  LEXCH =        8
   RHO(1)=    0.500       N(1)  =     2000
   RHO(2)=  100.500       N(2)  =     4000
 


--------------------------------------------------------------------------------------------------------


 ion  position               nearest neighbor table
   1  0.333  0.667  0.120-   3 2.41   2 2.41   2 2.41   3 2.41   3 2.41   2 2.41
   2  0.667  0.333  0.070-   1 2.41   1 2.41   1 2.41
   3  0.667  0.333  0.171-   1 2.41   1 2.41   1 2.41
 
  LATTYP: Found a hexagonal cell.
 ALAT       =     3.1898568304
 C/A-ratio  =     9.6537181778
  
  Lattice vectors:
  
 A1 = (   3.1898568304,   0.0000000000,   0.0000000000)
 A2 = (  -1.5949284152,   2.7624970496,   0.0000000000)
 A3 = (   0.0000000000,   0.0000000000,  30.7939788683)


Analysis of symmetry for initial positions (statically):
=====================================================================
 Subroutine PRICEL returns:
 Original cell was already a primitive cell.
 

 Routine SETGRP: Setting up the symmetry group for a 
 hexagonal supercell.


 Subroutine GETGRP returns: Found 12 space group operations
 (whereof  6 operations were pure point group operations)
 out of a pool of 24 trial point group operations.


The static configuration has the point symmetry C_3v.
 The point group associated with its full space group is D_3h.


Analysis of symmetry for dynamics (positions and initial velocities):
=====================================================================
 Subroutine PRICEL returns:
 Original cell was already a primitive cell.
 

 Routine SETGRP: Setting up the symmetry group for a 
 hexagonal supercell.


 Subroutine GETGRP returns: Found 12 space group operations
 (whereof  6 operations were pure point group operations)
 out of a pool of 24 trial point group operations.


The dynamic configuration has the point symmetry C_3v.
 The point group associated with its full space group is D_3h.


 Subroutine INISYM returns: Found 12 space group operations
 (whereof  6 operations are pure point group operations),
 and found     1 'primitive' translations

 
 
 KPOINTS: k-density: 5.0                          

Automatic generation of k-mesh.
Space group operators:
 irot       det(A)        alpha          n_x          n_y          n_z        tau_x        tau_y        tau_z
    1     1.000000     0.000000     1.000000     0.000000     0.000000     0.000000     0.000000     0.000000
    2     1.000000   120.000000     0.000000     0.000000    -1.000000     0.000000     0.000000     0.000000
    3     1.000000   120.000000     0.000000     0.000000     1.000000     0.000000     0.000000     0.000000
    4    -1.000000   180.000000     1.000000    -0.000000     0.000000     0.000000     0.000000     0.000000
    5    -1.000000   180.000000     0.500000    -0.866025     0.000000     0.000000     0.000000     0.000000
    6    -1.000000   180.000000    -0.500000    -0.866025     0.000000     0.000000     0.000000     0.000000
    7    -1.000000    60.000000     0.000000     0.000000    -1.000000     0.000000     0.000000     0.240924
    8    -1.000000   180.000000     0.000000     0.000000     1.000000     0.000000     0.000000     0.240924
    9    -1.000000    60.000000     0.000000     0.000000     1.000000     0.000000     0.000001     0.240924
   10     1.000000   180.000000     0.866025    -0.500000     0.000000     0.000000     0.000000     0.240924
   11     1.000000   180.000000     0.000000     1.000000     0.000000     0.000000     0.000000     0.240924
   12     1.000000   180.000000     0.866025     0.500000     0.000000     0.000000     0.000001     0.240924
 
 Subroutine IBZKPT returns following result:
 ===========================================
 
 Found     14 irreducible k-points:
 
 Following reciprocal coordinates:
            Coordinates               Weight
  0.000000  0.000000  0.000000      1.000000
  0.100000 -0.000000  0.000000      6.000000
  0.200000 -0.000000  0.000000      6.000000
  0.300000 -0.000000  0.000000      6.000000
  0.400000 -0.000000  0.000000      6.000000
  0.500000 -0.000000  0.000000      3.000000
  0.100000  0.100000  0.000000      6.000000
  0.200000  0.100000  0.000000     12.000000
  0.300000  0.100000  0.000000     12.000000
  0.400000  0.100000  0.000000     12.000000
  0.200000  0.200000  0.000000      6.000000
  0.300000  0.200000  0.000000     12.000000
  0.400000  0.200000  0.000000      6.000000
  0.300000  0.300000  0.000000      6.000000
 
 Following cartesian coordinates:
            Coordinates               Weight
  0.000000  0.000000  0.000000      1.000000
  0.031349  0.018100  0.000000      6.000000
  0.062699  0.036199  0.000000      6.000000
  0.094048  0.054299  0.000000      6.000000
  0.125397  0.072398  0.000000      6.000000
  0.156747  0.090498  0.000000      3.000000
  0.031349  0.054299  0.000000      6.000000
  0.062699  0.072398  0.000000     12.000000
  0.094048  0.090498  0.000000     12.000000
  0.125397  0.108597  0.000000     12.000000
  0.062699  0.108597  0.000000      6.000000
  0.094048  0.126697  0.000000     12.000000
  0.125397  0.144797  0.000000      6.000000
  0.094048  0.162896  0.000000      6.000000
 
 TETIRR: Found     55 inequivalent tetrahedra from      600


--------------------------------------------------------------------------------------------------------




 Dimension of arrays:
   k-points           NKPTS =     14   k-points in BZ     NKDIM =     14   number of bands    NBANDS=     14
   number of dos      NEDOS =   2401   number of ions     NIONS =      3
   non local maximal  LDIM  =      6   non local SUM 2l+1 LMDIM =     18
   total plane-waves  NPLWV =  51840
   max r-space proj   IRMAX =      1   max aug-charges    IRDMAX=  12464
   dimension x,y,z NGX =    18 NGY =   18 NGZ =  160
   dimension x,y,z NGXF=    36 NGYF=   36 NGZF=  320
   support grid    NGXF=    36 NGYF=   36 NGZF=  320
   ions per type =               1   2
   NGX,Y,Z   is equivalent  to a cutoff of   9.38,  9.38,  8.64 a.u.
   NGXF,Y,Z  is equivalent  to a cutoff of  18.76, 18.76, 17.28 a.u.

 SYSTEM =  unknown system                          
 POSCAR =  MoS2_mp-2815_computed                   

 Startparameter for this run:
   NWRITE =      2    write-flag & timer
   PREC   = normal    normal or accurate (medium, high low for compatibility)
   ISTART =      0    job   : 0-new  1-cont  2-samecut
   ICHARG =      2    charge: 1-file 2-atom 10-const
   ISPIN  =      1    spin polarized calculation?
   LNONCOLLINEAR =      F non collinear calculations
   LSORBIT =      F    spin-orbit coupling
   INIWAV =      1    electr: 0-lowe 1-rand  2-diag
   LASPH  =      F    aspherical Exc in radial PAW
   METAGGA=      F    non-selfconsistent MetaGGA calc.

 Electronic Relaxation 1
   ENCUT  =  450.0 eV  33.07 Ry    5.75 a.u.   5.52  5.52 53.26*2*pi/ulx,y,z
   ENINI  =  450.0     initial cutoff
   ENAUG  =  345.3 eV  augmentation charge cutoff
   NELM   =     60;   NELMIN=  4; NELMDL= -5     # of ELM steps 
   EDIFF  = 0.1E-05   stopping-criterion for ELM
   LREAL  =      F    real-space projection
   NLSPLINE    = F    spline interpolate recip. space projectors
   LCOMPAT=      F    compatible to vasp.4.4
   GGA_COMPAT  = T    GGA compatible to vasp.4.4-vasp.4.6
   LMAXPAW     = -100 max onsite density
   LMAXMIX     =    2 max onsite mixed and CHGCAR
   VOSKOWN=      0    Vosko Wilk Nusair interpolation
   ROPT   =    0.00000   0.00000
 Ionic relaxation
   EDIFFG = 0.1E-04   stopping-criterion for IOM
   NSW    =      0    number of steps for IOM
   NBLOCK =      1;   KBLOCK =      1    inner block; outer block 
   IBRION =     -1    ionic relax: 0-MD 1-quasi-New 2-CG
   NFREE  =      0    steps in history (QN), initial steepest desc. (CG)
   ISIF   =      2    stress and relaxation
   IWAVPR =     10    prediction:  0-non 1-charg 2-wave 3-comb
   ISYM   =      2    0-nonsym 1-usesym 2-fastsym
   LCORR  =      T    Harris-Foulkes like correction to forces

   POTIM  = 0.5000    time-step for ionic-motion
   TEIN   =    0.0    initial temperature
   TEBEG  =    0.0;   TEEND  =   0.0 temperature during run
   SMASS  =  -3.00    Nose mass-parameter (am)
   estimated Nose-frequenzy (Omega)   =  0.10E-29 period in steps =****** mass=  -0.233E-27a.u.
   SCALEE = 1.0000    scale energy and forces
   NPACO  =    256;   APACO  = 16.0  distance and # of slots for P.C.
   PSTRESS=    0.0 pullay stress

  Mass of Ions in am
   POMASS =  95.94 32.07
  Ionic Valenz
   ZVAL   =   6.00  6.00
  Atomic Wigner-Seitz radii
   RWIGS  =  -1.00 -1.00
  virtual crystal weights 
   VCA    =   1.00  1.00
   NELECT =      18.0000    total number of electrons
   NUPDOWN=      -1.0000    fix difference up-down

 DOS related values:
   EMIN   = -12.00;   EMAX   = 12.00  energy-range for DOS
   EFERMI =   0.00
   ISMEAR =    -5;   SIGMA  =   0.20  broadening in eV -4-tet -1-fermi 0-gaus

 Electronic relaxation 2 (details)
   IALGO  =     68    algorithm
   LDIAG  =      T    sub-space diagonalisation (order eigenvalues)
   LSUBROT=      F    optimize rotation matrix (better conditioning)
   TURBO    =      0    0=normal 1=particle mesh
   IRESTART =      0    0=no restart 2=restart with 2 vectors
   NREBOOT  =      0    no. of reboots
   NMIN     =      0    reboot dimension
   EREF     =   0.00    reference energy to select bands
   IMIX   =      4    mixing-type and parameters
     AMIX     =   0.40;   BMIX     =  1.00
     AMIX_MAG =   1.60;   BMIX_MAG =  1.00
     AMIN     =   0.10
     WC   =   100.;   INIMIX=   1;  MIXPRE=   1;  MAXMIX= -45

 Intra band minimization:
   WEIMIN = 0.0000     energy-eigenvalue tresh-hold
   EBREAK =  0.18E-07  absolut break condition
   DEPER  =   0.30     relativ break condition  

   TIME   =   0.40     timestep for ELM

  volume/ion in A,a.u.               =      90.45       610.40
  Fermi-wavevector in a.u.,A,eV,Ry     =   0.662704  1.252328  5.975355  0.439176
  Thomas-Fermi vector in A             =   1.735856
 
 Write flags
   LWAVE        =      F    write WAVECAR
   LDOWNSAMPLE  =      F    k-point downsampling of WAVECAR
   LCHARG       =      T    write CHGCAR
   LVTOT        =      F    write LOCPOT, total local potential
   LVHAR        =      F    write LOCPOT, Hartree potential only
   LELF         =      T    write electronic localiz. function (ELF)
   LORBIT       =     11    0 simple, 1 ext, 2 COOP (PROOUT), +10 PAW based schemes


 Dipole corrections
   LMONO  =      F    monopole corrections only (constant potential shift)
   LDIPOL =      F    correct potential (dipole corrections)
   IDIPOL =      0    1-x, 2-y, 3-z, 4-all directions 
   EPSILON=  1.0000000 bulk dielectric constant

 Exchange correlation treatment:
   GGA     =    --    GGA type
   LEXCH   =     8    internal setting for exchange type
   VOSKOWN=      0    Vosko Wilk Nusair interpolation
   LHFCALC =     F    Hartree Fock is set to
   LHFONE  =     F    Hartree Fock one center treatment
   AEXX    =    0.0000 exact exchange contribution

 Linear response parameters
   LEPSILON=     F    determine dielectric tensor
   LRPA    =     F    only Hartree local field effects (RPA)
   LNABLA  =     F    use nabla operator in PAW spheres
   LVEL    =     F    velocity operator in full k-point grid
   LINTERFAST=   F  fast interpolation
   KINTER  =     0    interpolate to denser k-point grid
   CSHIFT  =0.1000    complex shift for real part using Kramers Kronig
   OMEGAMAX=  -1.0    maximum frequency
   DEG_THRESHOLD= 0.2000000E-02 threshold for treating states as degnerate
   RTIME   =   -0.100 relaxation time in fs
  (WPLASMAI=    0.000 imaginary part of plasma frequency in eV, 0.658/RTIME)
   DFIELD  = 0.0000000 0.0000000 0.0000000 field for delta impulse in time
 
 Orbital magnetization related:
   ORBITALMAG=     F  switch on orbital magnetization
   LCHIMAG   =     F  perturbation theory with respect to B field
   DQ        =  0.001000  dq finite difference perturbation B field
   LLRAUG    =     F  two centre corrections for induced B field



--------------------------------------------------------------------------------------------------------


 Static calculation
 charge density and potential will be updated during run
 non-spin polarized calculation
 RMM-DIIS sequential band-by-band and
  variant of blocked Davidson during initial phase
 perform sub-space diagonalisation
    before iterative eigenvector-optimisation
 modified Broyden-mixing scheme, WC =      100.0
 initial mixing is a Kerker type mixing with AMIX =  0.4000 and BMIX =      1.0000
 Hartree-type preconditioning will be used
 using additional bands            5
 reciprocal scheme for non local part
 use partial core corrections
 calculate Harris-corrections to forces 
   (improved forces if not selfconsistent)
 use gradient corrections 
 use of overlap-Matrix (Vanderbilt PP)
 Fermi weights with tetrahedron method with Bloechl corrections


--------------------------------------------------------------------------------------------------------


  energy-cutoff  :      450.00
  volume of cell :      271.36
      direct lattice vectors                 reciprocal lattice vectors
     3.189856830  0.000000000  0.000000000     0.313493694  0.180995668  0.000000000
    -1.594928415  2.762497050  0.000000000     0.000000000  0.361991337  0.000000000
     0.000000000  0.000000000 30.793978868     0.000000000  0.000000000  0.032473881

  length of vectors
     3.189856830  3.189856830 30.793978868     0.361991337  0.361991337  0.032473881


 
 k-points in units of 2pi/SCALE and weight: k-density: 5.0                          
   0.00000000  0.00000000  0.00000000       0.010
   0.03134937  0.01809957  0.00000000       0.060
   0.06269874  0.03619913  0.00000000       0.060
   0.09404811  0.05429870  0.00000000       0.060
   0.12539748  0.07239827  0.00000000       0.060
   0.15674685  0.09049783  0.00000000       0.030
   0.03134937  0.05429870  0.00000000       0.060
   0.06269874  0.07239827  0.00000000       0.120
   0.09404811  0.09049783  0.00000000       0.120
   0.12539748  0.10859740  0.00000000       0.120
   0.06269874  0.10859740  0.00000000       0.060
   0.09404811  0.12669697  0.00000000       0.120
   0.12539748  0.14479653  0.00000000       0.060
   0.09404811  0.16289610  0.00000000       0.060
 
 k-points in reciprocal lattice and weights: k-density: 5.0                          
   0.00000000  0.00000000  0.00000000       0.010
   0.10000000 -0.00000000  0.00000000       0.060
   0.20000000 -0.00000000  0.00000000       0.060
   0.30000000 -0.00000000  0.00000000       0.060
   0.40000000 -0.00000000  0.00000000       0.060
   0.50000000 -0.00000000  0.00000000       0.030
   0.10000000  0.10000000  0.00000000       0.060
   0.20000000  0.10000000  0.00000000       0.120
   0.30000000  0.10000000  0.00000000       0.120
   0.40000000  0.10000000  0.00000000       0.120
   0.20000000  0.20000000  0.00000000       0.060
   0.30000000  0.20000000  0.00000000       0.120
   0.40000000  0.20000000  0.00000000       0.060
   0.30000000  0.30000000  0.00000000       0.060
 
 position of ions in fractional coordinates (direct lattice) 
   0.33333300  0.66666700  0.12046214
   0.66666700  0.33333300  0.06984045
   0.66666600  0.33333300  0.17108384
 
 position of ions in cartesian coordinates  (Angst):
  -0.00000160  1.84166562  3.70950873
   1.59493001  0.92083143  2.15066543
   1.59492682  0.92083143  5.26835203
 


--------------------------------------------------------------------------------------------------------


 k-point  1 :   0.0000 0.0000 0.0000  plane waves:    5987
 k-point  2 :   0.1000-0.0000 0.0000  plane waves:    5969
 k-point  3 :   0.2000-0.0000 0.0000  plane waves:    5925
 k-point  4 :   0.3000-0.0000 0.0000  plane waves:    5880
 k-point  5 :   0.4000-0.0000 0.0000  plane waves:    5864
 k-point  6 :   0.5000-0.0000 0.0000  plane waves:    5812
 k-point  7 :   0.1000 0.1000 0.0000  plane waves:    5947
 k-point  8 :   0.2000 0.1000 0.0000  plane waves:    5903
 k-point  9 :   0.3000 0.1000 0.0000  plane waves:    5877
 k-point 10 :   0.4000 0.1000 0.0000  plane waves:    5836
 k-point 11 :   0.2000 0.2000 0.0000  plane waves:    5887
 k-point 12 :   0.3000 0.2000 0.0000  plane waves:    5858
 k-point 13 :   0.4000 0.2000 0.0000  plane waves:    5842
 k-point 14 :   0.3000 0.3000 0.0000  plane waves:    5868

 maximum and minimum number of plane-waves per node :      2994     2869

 maximum number of plane-waves:      5987
 maximum index in each direction: 
   IXMAX=    5   IYMAX=    5   IZMAX=   53
   IXMIN=   -6   IYMIN=   -5   IZMIN=  -53


 parallel 3D FFT for wavefunctions:
    minimum data exchange during FFTs selected (reduces bandwidth)
 parallel 3D FFT for charge:
    minimum data exchange during FFTs selected (reduces bandwidth)


 total amount of memory used by VASP MPI-rank0    58156. kBytes
=======================================================================

   base      :      30000. kBytes
   nonl-proj :      12215. kBytes
   fftplans  :       4304. kBytes
   grid      :       6871. kBytes
   one-center:         31. kBytes
   wavefun   :       4735. kBytes
 
     INWAV:  cpu time    0.0000: real time    0.0003
 Broyden mixing: mesh for mixing (old mesh)
   NGX = 11   NGY = 11   NGZ =107
  (NGX  = 36   NGY  = 36   NGZ  =320)
  gives a total of  12947 points

 initial charge density was supplied:
 charge density of overlapping atoms calculated
 number of electron      18.0000000 magnetization 
 keeping initial charge density in first step


--------------------------------------------------------------------------------------------------------


 Maximum index for augmentation-charges         2922 (set IRDMAX)


--------------------------------------------------------------------------------------------------------


 First call to EWALD:  gamma=   0.274
 Maximum number of real-space cells 6x 6x 1
 Maximum number of reciprocal cells 2x 2x11

    FEWALD:  cpu time    0.0010: real time    0.0015


--------------------------------------- Iteration      1(   1)  ---------------------------------------


    POTLOK:  cpu time    0.0570: real time    0.1050
    SETDIJ:  cpu time    0.0030: real time    0.0035
     EDDAV:  cpu time    0.3679: real time    0.3716
 BZINTS: Fermi energy:  6.474760; 18.000000 electrons
         Band energy: -12.748332;  BLOECHL correction: -0.247546
       DOS:  cpu time    0.0020: real time    0.0019
    --------------------------------------------
      LOOP:  cpu time    0.4299: real time    0.4821

 eigenvalue-minimisations  :   392
 total energy-change (2. order) : 0.1372046E+03  (-0.5358620E+03)
 number of electron      18.0000000 magnetization 
 augmentation part       18.0000000 magnetization 

 Free energy of the ion-electron system (eV)
  ---------------------------------------------------
  alpha Z        PSCENC =        10.92610231
  Ewald energy   TEWEN  =      5354.53473861
  -Hartree energ DENC   =     -6027.92195658
  -exchange      EXHF   =         0.00000000
  -V(xc)+E(xc)   XCENC  =       -36.28686252
  PAW double counting   =       406.88651198     -329.34073203
  entropy T*S    EENTRO =         0.00000000
  eigenvalues    EBANDS =       -12.74833220
  atomic energy  EATOM  =       771.15511399
  Solvation  Ediel_sol  =         0.00000000
  ---------------------------------------------------
  free energy    TOTEN  =       137.20458357 eV

  energy without entropy =      137.20458357  energy(sigma->0) =      137.20458357


--------------------------------------------------------------------------------------------------------




--------------------------------------- Iteration      1(   2)  ---------------------------------------


     EDDAV:  cpu time    0.5769: real time    0.5803
 BZINTS: Fermi energy: -2.635000; 18.000000 electrons
         Band energy:-155.973414;  BLOECHL correction:  0.000000
       DOS:  cpu time    0.0010: real time    0.0007
    --------------------------------------------
      LOOP:  cpu time    0.5779: real time    0.5809

 eigenvalue-minimisations  :   702
 total energy-change (2. order) :-0.1432251E+03  (-0.1334655E+03)
 number of electron      18.0000000 magnetization 
 augmentation part       18.0000000 magnetization 

 Free energy of the ion-electron system (eV)
  ---------------------------------------------------
  alpha Z        PSCENC =        10.92610231
  Ewald energy   TEWEN  =      5354.53473861
  -Hartree energ DENC   =     -6027.92195658
  -exchange      EXHF   =         0.00000000
  -V(xc)+E(xc)   XCENC  =       -36.28686252
  PAW double counting   =       406.88651198     -329.34073203
  entropy T*S    EENTRO =         0.00000000
  eigenvalues    EBANDS =      -155.97341440
  atomic energy  EATOM  =       771.15511399
  Solvation  Ediel_sol  =         0.00000000
  ---------------------------------------------------
  free energy    TOTEN  =        -6.02049864 eV

  energy without entropy =       -6.02049864  energy(sigma->0) =       -6.02049864


--------------------------------------------------------------------------------------------------------




--------------------------------------- Iteration      1(   3)  ---------------------------------------


     EDDAV:  cpu time    0.4509: real time    0.4517
 BZINTS: Fermi energy: -3.679922; 18.000000 electrons
         Band energy:-172.999448;  BLOECHL correction:  0.000000
       DOS:  cpu time    0.0000: real time    0.0008
    --------------------------------------------
      LOOP:  cpu time    0.4509: real time    0.4525

 eigenvalue-minimisations  :   524
 total energy-change (2. order) :-0.1702603E+02  (-0.1686475E+02)
 number of electron      18.0000000 magnetization 
 augmentation part       18.0000000 magnetization 

 Free energy of the ion-electron system (eV)
  ---------------------------------------------------
  alpha Z        PSCENC =        10.92610231
  Ewald energy   TEWEN  =      5354.53473861
  -Hartree energ DENC   =     -6027.92195658
  -exchange      EXHF   =         0.00000000
  -V(xc)+E(xc)   XCENC  =       -36.28686252
  PAW double counting   =       406.88651198     -329.34073203
  entropy T*S    EENTRO =         0.00000000
  eigenvalues    EBANDS =      -172.99944768
  atomic energy  EATOM  =       771.15511399
  Solvation  Ediel_sol  =         0.00000000
  ---------------------------------------------------
  free energy    TOTEN  =       -23.04653192 eV

  energy without entropy =      -23.04653192  energy(sigma->0) =      -23.04653192


--------------------------------------------------------------------------------------------------------




--------------------------------------- Iteration      1(   4)  ---------------------------------------


     EDDAV:  cpu time    0.4519: real time    0.4529
 BZINTS: Fermi energy: -3.709844; 18.000000 electrons
         Band energy:-173.345003;  BLOECHL correction:  0.000000
       DOS:  cpu time    0.0010: real time    0.0007
    --------------------------------------------
      LOOP:  cpu time    0.4529: real time    0.4536

 eigenvalue-minimisations  :   522
 total energy-change (2. order) :-0.3455554E+00  (-0.3436658E+00)
 number of electron      18.0000000 magnetization 
 augmentation part       18.0000000 magnetization 

 Free energy of the ion-electron system (eV)
  ---------------------------------------------------
  alpha Z        PSCENC =        10.92610231
  Ewald energy   TEWEN  =      5354.53473861
  -Hartree energ DENC   =     -6027.92195658
  -exchange      EXHF   =         0.00000000
  -V(xc)+E(xc)   XCENC  =       -36.28686252
  PAW double counting   =       406.88651198     -329.34073203
  entropy T*S    EENTRO =         0.00000000
  eigenvalues    EBANDS =      -173.34500307
  atomic energy  EATOM  =       771.15511399
  Solvation  Ediel_sol  =         0.00000000
  ---------------------------------------------------
  free energy    TOTEN  =       -23.39208731 eV

  energy without entropy =      -23.39208731  energy(sigma->0) =      -23.39208731


--------------------------------------------------------------------------------------------------------




--------------------------------------- Iteration      1(   5)  ---------------------------------------


     EDDAV:  cpu time    0.4519: real time    0.4522
 BZINTS: Fermi energy: -3.709844; 18.000000 electrons
         Band energy:-173.353655;  BLOECHL correction:  0.000000
       DOS:  cpu time    0.0010: real time    0.0007
    CHARGE:  cpu time    0.0330: real time    0.0334
    MIXING:  cpu time    0.0020: real time    0.0019
    --------------------------------------------
      LOOP:  cpu time    0.4879: real time    0.4882

 eigenvalue-minimisations  :   526
 total energy-change (2. order) :-0.8651520E-02  (-0.8647373E-02)
 number of electron      18.0000018 magnetization 
 augmentation part       -0.9434583 magnetization 

 Broyden mixing:
  rms(total) = 0.68734E+00    rms(broyden)= 0.68733E+00
  rms(prec ) = 0.73108E+00
  weight for this iteration     100.00

 Free energy of the ion-electron system (eV)
  ---------------------------------------------------
  alpha Z        PSCENC =        10.92610231
  Ewald energy   TEWEN  =      5354.53473861
  -Hartree energ DENC   =     -6027.92195658
  -exchange      EXHF   =         0.00000000
  -V(xc)+E(xc)   XCENC  =       -36.28686252
  PAW double counting   =       406.88651198     -329.34073203
  entropy T*S    EENTRO =         0.00000000
  eigenvalues    EBANDS =      -173.35365459
  atomic energy  EATOM  =       771.15511399
  Solvation  Ediel_sol  =         0.00000000
  ---------------------------------------------------
  free energy    TOTEN  =       -23.40073883 eV

  energy without entropy =      -23.40073883  energy(sigma->0) =      -23.40073883


--------------------------------------------------------------------------------------------------------




--------------------------------------- Iteration      1(   6)  ---------------------------------------


    POTLOK:  cpu time    0.0530: real time    0.0527
    SETDIJ:  cpu time    0.0020: real time    0.0026
    EDDIAG:  cpu time    0.0760: real time    0.0761
  RMM-DIIS:  cpu time    0.3200: real time    0.3201
    ORTHCH:  cpu time    0.0070: real time    0.0073
 BZINTS: Fermi energy: -4.729844; 18.000000 electrons
         Band energy:-173.789967;  BLOECHL correction:  0.000000
       DOS:  cpu time    0.0000: real time    0.0007
    CHARGE:  cpu time    0.0340: real time    0.0337
    MIXING:  cpu time    0.0020: real time    0.0017
    --------------------------------------------
      LOOP:  cpu time    0.4939: real time    0.4948

 eigenvalue-minimisations  :   415
 total energy-change (2. order) : 0.1164942E+01  (-0.5381235E+00)
 number of electron      18.0000018 magnetization 
 augmentation part       -0.4028997 magnetization 

 Broyden mixing:
  rms(total) = 0.25812E+00    rms(broyden)= 0.25811E+00
  rms(prec ) = 0.29264E+00
  weight for this iteration     100.00

 eigenvalues of (default mixing * dielectric matrix)
  average eigenvalue GAMMA=   0.8393
  0.8393

 Free energy of the ion-electron system (eV)
  ---------------------------------------------------
  alpha Z        PSCENC =        10.92610231
  Ewald energy   TEWEN  =      5354.53473861
  -Hartree energ DENC   =     -6026.31096255
  -exchange      EXHF   =         0.00000000
  -V(xc)+E(xc)   XCENC  =       -35.40037279
  PAW double counting   =       424.48812453     -347.83857419
  entropy T*S    EENTRO =         0.00000000
  eigenvalues    EBANDS =      -173.78996692
  atomic energy  EATOM  =       771.15511399
  Solvation  Ediel_sol  =         0.00000000
  ---------------------------------------------------
  free energy    TOTEN  =       -22.23579700 eV

  energy without entropy =      -22.23579700  energy(sigma->0) =      -22.23579700


--------------------------------------------------------------------------------------------------------




--------------------------------------- Iteration      1(   7)  ---------------------------------------


    POTLOK:  cpu time    0.0480: real time    0.0506
    SETDIJ:  cpu time    0.0040: real time    0.0026
    EDDIAG:  cpu time    0.0750: real time    0.0756
  RMM-DIIS:  cpu time    0.3120: real time    0.3113
    ORTHCH:  cpu time    0.0070: real time    0.0073
 BZINTS: Fermi energy: -4.169688; 18.000000 electrons
         Band energy:-167.501624;  BLOECHL correction:  0.000000
       DOS:  cpu time    0.0010: real time    0.0007
    CHARGE:  cpu time    0.0330: real time    0.0337
    MIXING:  cpu time    0.0020: real time    0.0018
    --------------------------------------------
      LOOP:  cpu time    0.4819: real time    0.4835

 eigenvalue-minimisations  :   408
 total energy-change (2. order) : 0.3741894E+00  (-0.5471108E-01)
 number of electron      18.0000018 magnetization 
 augmentation part       -0.5989277 magnetization 

 Broyden mixing:
  rms(total) = 0.14950E+00    rms(broyden)= 0.14950E+00
  rms(prec ) = 0.15587E+00
  weight for this iteration     100.00

 eigenvalues of (default mixing * dielectric matrix)
  average eigenvalue GAMMA=   1.3651
  0.6711  2.0591

 Free energy of the ion-electron system (eV)
  ---------------------------------------------------
  alpha Z        PSCENC =        10.92610231
  Ewald energy   TEWEN  =      5354.53473861
  -Hartree energ DENC   =     -6031.84605010
  -exchange      EXHF   =         0.00000000
  -V(xc)+E(xc)   XCENC  =       -35.53927961
  PAW double counting   =       442.36775917     -365.95836765
  entropy T*S    EENTRO =         0.00000000
  eigenvalues    EBANDS =      -167.50162431
  atomic energy  EATOM  =       771.15511399
  Solvation  Ediel_sol  =         0.00000000
  ---------------------------------------------------
  free energy    TOTEN  =       -21.86160759 eV

  energy without entropy =      -21.86160759  energy(sigma->0) =      -21.86160759


--------------------------------------------------------------------------------------------------------




--------------------------------------- Iteration      1(   8)  ---------------------------------------


    POTLOK:  cpu time    0.0480: real time    0.0490
    SETDIJ:  cpu time    0.0040: real time    0.0026
    EDDIAG:  cpu time    0.0750: real time    0.0756
  RMM-DIIS:  cpu time    0.3310: real time    0.3306
    ORTHCH:  cpu time    0.0060: real time    0.0073
 BZINTS: Fermi energy: -4.059688; 18.000000 electrons
         Band energy:-163.187407;  BLOECHL correction:  0.000000
       DOS:  cpu time    0.0010: real time    0.0007
    CHARGE:  cpu time    0.0340: real time    0.0337
    MIXING:  cpu time    0.0020: real time    0.0025
    --------------------------------------------
      LOOP:  cpu time    0.5009: real time    0.5020

 eigenvalue-minimisations  :   431
 total energy-change (2. order) : 0.5930220E-01  (-0.2288524E-01)
 number of electron      18.0000018 magnetization 
 augmentation part       -0.5517536 magnetization 

 Broyden mixing:
  rms(total) = 0.35365E-01    rms(broyden)= 0.35363E-01
  rms(prec ) = 0.37177E-01
  weight for this iteration     100.00

 eigenvalues of (default mixing * dielectric matrix)
  average eigenvalue GAMMA=   1.5039
  1.9210  1.9210  0.6697

 Free energy of the ion-electron system (eV)
  ---------------------------------------------------
  alpha Z        PSCENC =        10.92610231
  Ewald energy   TEWEN  =      5354.53473861
  -Hartree energ DENC   =     -6035.85294914
  -exchange      EXHF   =         0.00000000
  -V(xc)+E(xc)   XCENC  =       -35.26742639
  PAW double counting   =       466.32939704     -390.43987434
  entropy T*S    EENTRO =         0.00000000
  eigenvalues    EBANDS =      -163.18740748
  atomic energy  EATOM  =       771.15511399
  Solvation  Ediel_sol  =         0.00000000
  ---------------------------------------------------
  free energy    TOTEN  =       -21.80230539 eV

  energy without entropy =      -21.80230539  energy(sigma->0) =      -21.80230539


--------------------------------------------------------------------------------------------------------




--------------------------------------- Iteration      1(   9)  ---------------------------------------


    POTLOK:  cpu time    0.0490: real time    0.0497
    SETDIJ:  cpu time    0.0030: real time    0.0026
    EDDIAG:  cpu time    0.0750: real time    0.0756
  RMM-DIIS:  cpu time    0.3609: real time    0.3600
    ORTHCH:  cpu time    0.0060: real time    0.0072
 BZINTS: Fermi energy: -3.969688; 18.000000 electrons
         Band energy:-161.830425;  BLOECHL correction:  0.000000
       DOS:  cpu time    0.0010: real time    0.0007
    CHARGE:  cpu time    0.0340: real time    0.0337
    MIXING:  cpu time    0.0020: real time    0.0019
    --------------------------------------------
      LOOP:  cpu time    0.5309: real time    0.5314

 eigenvalue-minimisations  :   467
 total energy-change (2. order) : 0.4842602E-02  (-0.8799245E-03)
 number of electron      18.0000018 magnetization 
 augmentation part       -0.5466492 magnetization 

 Broyden mixing:
  rms(total) = 0.95692E-02    rms(broyden)= 0.95687E-02
  rms(prec ) = 0.11366E-01
  weight for this iteration     100.00

 eigenvalues of (default mixing * dielectric matrix)
  average eigenvalue GAMMA=   1.5090
  0.6724  1.0482  2.4381  1.8773

 Free energy of the ion-electron system (eV)
  ---------------------------------------------------
  alpha Z        PSCENC =        10.92610231
  Ewald energy   TEWEN  =      5354.53473861
  -Hartree energ DENC   =     -6037.17905376
  -exchange      EXHF   =         0.00000000
  -V(xc)+E(xc)   XCENC  =       -35.21381633
  PAW double counting   =       471.73371279     -395.92383509
  entropy T*S    EENTRO =         0.00000000
  eigenvalues    EBANDS =      -161.83042531
  atomic energy  EATOM  =       771.15511399
  Solvation  Ediel_sol  =         0.00000000
  ---------------------------------------------------
  free energy    TOTEN  =       -21.79746278 eV

  energy without entropy =      -21.79746278  energy(sigma->0) =      -21.79746278


--------------------------------------------------------------------------------------------------------




--------------------------------------- Iteration      1(  10)  ---------------------------------------


    POTLOK:  cpu time    0.0500: real time    0.0528
    SETDIJ:  cpu time    0.0030: real time    0.0026
    EDDIAG:  cpu time    0.0750: real time    0.0756
  RMM-DIIS:  cpu time    0.3579: real time    0.3574
    ORTHCH:  cpu time    0.0060: real time    0.0073
 BZINTS: Fermi energy: -3.899688; 18.000000 electrons
         Band energy:-160.679473;  BLOECHL correction:  0.000000
       DOS:  cpu time    0.0010: real time    0.0007
    CHARGE:  cpu time    0.0340: real time    0.0336
    MIXING:  cpu time    0.0020: real time    0.0020
    --------------------------------------------
      LOOP:  cpu time    0.5289: real time    0.5320

 eigenvalue-minimisations  :   466
 total energy-change (2. order) : 0.7440294E-03  (-0.1681951E-03)
 number of electron      18.0000018 magnetization 
 augmentation part       -0.5512829 magnetization 

 Broyden mixing:
  rms(total) = 0.44289E-02    rms(broyden)= 0.44289E-02
  rms(prec ) = 0.57795E-02
  weight for this iteration     100.00

 eigenvalues of (default mixing * dielectric matrix)
  average eigenvalue GAMMA=   1.6715
  0.6731  1.0366  2.1651  2.2415  2.2415

 Free energy of the ion-electron system (eV)
  ---------------------------------------------------
  alpha Z        PSCENC =        10.92610231
  Ewald energy   TEWEN  =      5354.53473861
  -Hartree energ DENC   =     -6038.32023684
  -exchange      EXHF   =         0.00000000
  -V(xc)+E(xc)   XCENC  =       -35.19350864
  PAW double counting   =       473.95241727     -398.17187240
  entropy T*S    EENTRO =         0.00000000
  eigenvalues    EBANDS =      -160.67947305
  atomic energy  EATOM  =       771.15511399
  Solvation  Ediel_sol  =         0.00000000
  ---------------------------------------------------
  free energy    TOTEN  =       -21.79671875 eV

  energy without entropy =      -21.79671875  energy(sigma->0) =      -21.79671875


--------------------------------------------------------------------------------------------------------




--------------------------------------- Iteration      1(  11)  ---------------------------------------


    POTLOK:  cpu time    0.0500: real time    0.0501
    SETDIJ:  cpu time    0.0020: real time    0.0027
    EDDIAG:  cpu time    0.0760: real time    0.0754
  RMM-DIIS:  cpu time    0.3399: real time    0.3401
    ORTHCH:  cpu time    0.0070: real time    0.0073
 BZINTS: Fermi energy: -3.849687; 18.000000 electrons
         Band energy:-159.538081;  BLOECHL correction:  0.000000
       DOS:  cpu time    0.0010: real time    0.0007
    CHARGE:  cpu time    0.0340: real time    0.0337
    MIXING:  cpu time    0.0020: real time    0.0021
    --------------------------------------------
      LOOP:  cpu time    0.5119: real time    0.5121

 eigenvalue-minimisations  :   439
 total energy-change (2. order) : 0.6592914E-04  (-0.1614739E-03)
 number of electron      18.0000018 magnetization 
 augmentation part       -0.5476006 magnetization 

 Broyden mixing:
  rms(total) = 0.53531E-02    rms(broyden)= 0.53531E-02
  rms(prec ) = 0.60380E-02
  weight for this iteration     100.00

 eigenvalues of (default mixing * dielectric matrix)
  average eigenvalue GAMMA=   1.6755
  2.9359  2.6727  0.6738  0.9302  1.4202  1.4202

 Free energy of the ion-electron system (eV)
  ---------------------------------------------------
  alpha Z        PSCENC =        10.92610231
  Ewald energy   TEWEN  =      5354.53473861
  -Hartree energ DENC   =     -6039.48433498
  -exchange      EXHF   =         0.00000000
  -V(xc)+E(xc)   XCENC  =       -35.17999187
  PAW double counting   =       473.41738987     -397.62758985
  entropy T*S    EENTRO =         0.00000000
  eigenvalues    EBANDS =      -159.53808091
  atomic energy  EATOM  =       771.15511399
  Solvation  Ediel_sol  =         0.00000000
  ---------------------------------------------------
  free energy    TOTEN  =       -21.79665282 eV

  energy without entropy =      -21.79665282  energy(sigma->0) =      -21.79665282


--------------------------------------------------------------------------------------------------------




--------------------------------------- Iteration      1(  12)  ---------------------------------------


    POTLOK:  cpu time    0.0490: real time    0.0513
    SETDIJ:  cpu time    0.0040: real time    0.0027
    EDDIAG:  cpu time    0.0750: real time    0.0753
  RMM-DIIS:  cpu time    0.3309: real time    0.3309
    ORTHCH:  cpu time    0.0070: real time    0.0073
 BZINTS: Fermi energy: -3.799688; 18.000000 electrons
         Band energy:-158.839702;  BLOECHL correction:  0.000000
       DOS:  cpu time    0.0010: real time    0.0007
    CHARGE:  cpu time    0.0340: real time    0.0337
    MIXING:  cpu time    0.0020: real time    0.0022
    --------------------------------------------
      LOOP:  cpu time    0.5029: real time    0.5041

 eigenvalue-minimisations  :   425
 total energy-change (2. order) : 0.1602180E-03  (-0.5175586E-04)
 number of electron      18.0000018 magnetization 
 augmentation part       -0.5502873 magnetization 

 Broyden mixing:
  rms(total) = 0.17466E-02    rms(broyden)= 0.17466E-02
  rms(prec ) = 0.22449E-02
  weight for this iteration     100.00

 eigenvalues of (default mixing * dielectric matrix)
  average eigenvalue GAMMA=   1.9510
  3.8802  2.7267  2.7267  0.6738  0.9634  1.4165  1.2696

 Free energy of the ion-electron system (eV)
  ---------------------------------------------------
  alpha Z        PSCENC =        10.92610231
  Ewald energy   TEWEN  =      5354.53473861
  -Hartree energ DENC   =     -6040.18841319
  -exchange      EXHF   =         0.00000000
  -V(xc)+E(xc)   XCENC  =       -35.17644641
  PAW double counting   =       473.58715234     -397.79503820
  entropy T*S    EENTRO =         0.00000000
  eigenvalues    EBANDS =      -158.83970205
  atomic energy  EATOM  =       771.15511399
  Solvation  Ediel_sol  =         0.00000000
  ---------------------------------------------------
  free energy    TOTEN  =       -21.79649261 eV

  energy without entropy =      -21.79649261  energy(sigma->0) =      -21.79649261


--------------------------------------------------------------------------------------------------------




--------------------------------------- Iteration      1(  13)  ---------------------------------------


    POTLOK:  cpu time    0.0500: real time    0.0507
    SETDIJ:  cpu time    0.0030: real time    0.0027
    EDDIAG:  cpu time    0.0750: real time    0.0754
  RMM-DIIS:  cpu time    0.3140: real time    0.3138
    ORTHCH:  cpu time    0.0070: real time    0.0074
 BZINTS: Fermi energy: -3.759844; 18.000000 electrons
         Band energy:-158.074281;  BLOECHL correction:  0.000000
       DOS:  cpu time    0.0010: real time    0.0007
    CHARGE:  cpu time    0.0330: real time    0.0336
    MIXING:  cpu time    0.0030: real time    0.0023
    --------------------------------------------
      LOOP:  cpu time    0.4859: real time    0.4866

 eigenvalue-minimisations  :   414
 total energy-change (2. order) :-0.3333968E-03  (-0.1660066E-04)
 number of electron      18.0000018 magnetization 
 augmentation part       -0.5487048 magnetization 

 Broyden mixing:
  rms(total) = 0.19879E-02    rms(broyden)= 0.19879E-02
  rms(prec ) = 0.21802E-02
  weight for this iteration     100.00

 eigenvalues of (default mixing * dielectric matrix)
  average eigenvalue GAMMA=   1.9180
  4.8508  2.7042  2.3811  1.4239  1.4239  0.6739  0.9429  0.9429

 Free energy of the ion-electron system (eV)
  ---------------------------------------------------
  alpha Z        PSCENC =        10.92610231
  Ewald energy   TEWEN  =      5354.53473861
  -Hartree energ DENC   =     -6040.95627679
  -exchange      EXHF   =         0.00000000
  -V(xc)+E(xc)   XCENC  =       -35.16934602
  PAW double counting   =       473.53661805     -397.74949541
  entropy T*S    EENTRO =         0.00000000
  eigenvalues    EBANDS =      -158.07428074
  atomic energy  EATOM  =       771.15511399
  Solvation  Ediel_sol  =         0.00000000
  ---------------------------------------------------
  free energy    TOTEN  =       -21.79682600 eV

  energy without entropy =      -21.79682600  energy(sigma->0) =      -21.79682600


--------------------------------------------------------------------------------------------------------




--------------------------------------- Iteration      1(  14)  ---------------------------------------


    POTLOK:  cpu time    0.0500: real time    0.0506
    SETDIJ:  cpu time    0.0030: real time    0.0027
    EDDIAG:  cpu time    0.0750: real time    0.0754
  RMM-DIIS:  cpu time    0.3389: real time    0.3377
    ORTHCH:  cpu time    0.0060: real time    0.0073
 BZINTS: Fermi energy: -3.749844; 18.000000 electrons
         Band energy:-157.903181;  BLOECHL correction:  0.000000
       DOS:  cpu time    0.0010: real time    0.0007
    CHARGE:  cpu time    0.0340: real time    0.0336
    MIXING:  cpu time    0.0020: real time    0.0024
    --------------------------------------------
      LOOP:  cpu time    0.5099: real time    0.5105

 eigenvalue-minimisations  :   444
 total energy-change (2. order) :-0.5889474E-04  (-0.2739540E-05)
 number of electron      18.0000018 magnetization 
 augmentation part       -0.5498553 magnetization 

 Broyden mixing:
  rms(total) = 0.49713E-03    rms(broyden)= 0.49712E-03
  rms(prec ) = 0.63248E-03
  weight for this iteration     100.00

 eigenvalues of (default mixing * dielectric matrix)
  average eigenvalue GAMMA=   2.1964
  6.7282  2.9852  2.3878  2.3878  1.5170  0.6739  1.1773  0.9552  0.9552

 Free energy of the ion-electron system (eV)
  ---------------------------------------------------
  alpha Z        PSCENC =        10.92610231
  Ewald energy   TEWEN  =      5354.53473861
  -Hartree energ DENC   =     -6041.12993637
  -exchange      EXHF   =         0.00000000
  -V(xc)+E(xc)   XCENC  =       -35.17140969
  PAW double counting   =       473.35414775     -397.56246004
  entropy T*S    EENTRO =         0.00000000
  eigenvalues    EBANDS =      -157.90318146
  atomic energy  EATOM  =       771.15511399
  Solvation  Ediel_sol  =         0.00000000
  ---------------------------------------------------
  free energy    TOTEN  =       -21.79688490 eV

  energy without entropy =      -21.79688490  energy(sigma->0) =      -21.79688490


--------------------------------------------------------------------------------------------------------




--------------------------------------- Iteration      1(  15)  ---------------------------------------


    POTLOK:  cpu time    0.0520: real time    0.0529
    SETDIJ:  cpu time    0.0030: real time    0.0027
    EDDIAG:  cpu time    0.0750: real time    0.0755
  RMM-DIIS:  cpu time    0.3220: real time    0.3213
    ORTHCH:  cpu time    0.0070: real time    0.0073
 BZINTS: Fermi energy: -3.739844; 18.000000 electrons
         Band energy:-157.746763;  BLOECHL correction:  0.000000
       DOS:  cpu time    0.0000: real time    0.0007
    CHARGE:  cpu time    0.0340: real time    0.0337
    MIXING:  cpu time    0.0030: real time    0.0025
    --------------------------------------------
      LOOP:  cpu time    0.4959: real time    0.4966

 eigenvalue-minimisations  :   421
 total energy-change (2. order) :-0.1238444E-03  (-0.1244099E-05)
 number of electron      18.0000018 magnetization 
 augmentation part       -0.5495725 magnetization 

 Broyden mixing:
  rms(total) = 0.30096E-03    rms(broyden)= 0.30096E-03
  rms(prec ) = 0.36513E-03
  weight for this iteration     100.00

 eigenvalues of (default mixing * dielectric matrix)
  average eigenvalue GAMMA=   2.1578
  6.6925  3.4904  2.6300  1.7364  1.7364  1.6341  0.6740  1.0169  1.0169  0.9501

 Free energy of the ion-electron system (eV)
  ---------------------------------------------------
  alpha Z        PSCENC =        10.92610231
  Ewald energy   TEWEN  =      5354.53473861
  -Hartree energ DENC   =     -6041.28657550
  -exchange      EXHF   =         0.00000000
  -V(xc)+E(xc)   XCENC  =       -35.17112276
  PAW double counting   =       473.37270402     -397.58120653
  entropy T*S    EENTRO =         0.00000000
  eigenvalues    EBANDS =      -157.74676288
  atomic energy  EATOM  =       771.15511399
  Solvation  Ediel_sol  =         0.00000000
  ---------------------------------------------------
  free energy    TOTEN  =       -21.79700874 eV

  energy without entropy =      -21.79700874  energy(sigma->0) =      -21.79700874


--------------------------------------------------------------------------------------------------------




--------------------------------------- Iteration      1(  16)  ---------------------------------------


    POTLOK:  cpu time    0.0510: real time    0.0509
    SETDIJ:  cpu time    0.0030: real time    0.0031
    EDDIAG:  cpu time    0.0750: real time    0.0754
  RMM-DIIS:  cpu time    0.2620: real time    0.2622
    ORTHCH:  cpu time    0.0070: real time    0.0070
 BZINTS: Fermi energy: -3.739688; 18.000000 electrons
         Band energy:-157.687225;  BLOECHL correction:  0.000000
       DOS:  cpu time    0.0010: real time    0.0007
    CHARGE:  cpu time    0.0330: real time    0.0331
    MIXING:  cpu time    0.0030: real time    0.0027
    --------------------------------------------
      LOOP:  cpu time    0.4349: real time    0.4351

 eigenvalue-minimisations  :   323
 total energy-change (2. order) :-0.4021066E-04  (-0.2708282E-06)
 number of electron      18.0000018 magnetization 
 augmentation part       -0.5497904 magnetization 

 Broyden mixing:
  rms(total) = 0.16452E-03    rms(broyden)= 0.16452E-03
  rms(prec ) = 0.19260E-03
  weight for this iteration     100.00

 eigenvalues of (default mixing * dielectric matrix)
  average eigenvalue GAMMA=   2.3449
  7.4330  4.5004  2.8083  2.6505  2.0766  1.5680  0.6740  1.1471  1.0093  1.0093
  0.9173

 Free energy of the ion-electron system (eV)
  ---------------------------------------------------
  alpha Z        PSCENC =        10.92610231
  Ewald energy   TEWEN  =      5354.53473861
  -Hartree energ DENC   =     -6041.34532253
  -exchange      EXHF   =         0.00000000
  -V(xc)+E(xc)   XCENC  =       -35.17111107
  PAW double counting   =       473.42362813     -397.63297338
  entropy T*S    EENTRO =         0.00000000
  eigenvalues    EBANDS =      -157.68722502
  atomic energy  EATOM  =       771.15511399
  Solvation  Ediel_sol  =         0.00000000
  ---------------------------------------------------
  free energy    TOTEN  =       -21.79704895 eV

  energy without entropy =      -21.79704895  energy(sigma->0) =      -21.79704895


--------------------------------------------------------------------------------------------------------




--------------------------------------- Iteration      1(  17)  ---------------------------------------


    POTLOK:  cpu time    0.0480: real time    0.0480
    SETDIJ:  cpu time    0.0030: real time    0.0031
    EDDIAG:  cpu time    0.0750: real time    0.0754
  RMM-DIIS:  cpu time    0.2420: real time    0.2416
    ORTHCH:  cpu time    0.0070: real time    0.0070
 BZINTS: Fermi energy: -3.739688; 18.000000 electrons
         Band energy:-157.658353;  BLOECHL correction:  0.000000
       DOS:  cpu time    0.0010: real time    0.0007
    CHARGE:  cpu time    0.0320: real time    0.0330
    MIXING:  cpu time    0.0030: real time    0.0028
    --------------------------------------------
      LOOP:  cpu time    0.4109: real time    0.4115

 eigenvalue-minimisations  :   289
 total energy-change (2. order) :-0.3053785E-04  (-0.2707783E-06)
 number of electron      18.0000018 magnetization 
 augmentation part       -0.5497462 magnetization 

 Broyden mixing:
  rms(total) = 0.11801E-03    rms(broyden)= 0.11801E-03
  rms(prec ) = 0.13082E-03
  weight for this iteration     100.00

 eigenvalues of (default mixing * dielectric matrix)
  average eigenvalue GAMMA=   2.2736
  7.6058  4.6838  2.9416  2.4661  2.1423  1.5397  0.6740  1.3634  1.0141  1.0141
  0.9413  0.8973

 Free energy of the ion-electron system (eV)
  ---------------------------------------------------
  alpha Z        PSCENC =        10.92610231
  Ewald energy   TEWEN  =      5354.53473861
  -Hartree energ DENC   =     -6041.37490455
  -exchange      EXHF   =         0.00000000
  -V(xc)+E(xc)   XCENC  =       -35.17125003
  PAW double counting   =       473.39139762     -397.59992411
  entropy T*S    EENTRO =         0.00000000
  eigenvalues    EBANDS =      -157.65835333
  atomic energy  EATOM  =       771.15511399
  Solvation  Ediel_sol  =         0.00000000
  ---------------------------------------------------
  free energy    TOTEN  =       -21.79707949 eV

  energy without entropy =      -21.79707949  energy(sigma->0) =      -21.79707949


--------------------------------------------------------------------------------------------------------




--------------------------------------- Iteration      1(  18)  ---------------------------------------


    POTLOK:  cpu time    0.0480: real time    0.0495
    SETDIJ:  cpu time    0.0040: real time    0.0031
    EDDIAG:  cpu time    0.0750: real time    0.0754
  RMM-DIIS:  cpu time    0.2300: real time    0.2295
    ORTHCH:  cpu time    0.0070: real time    0.0070
 BZINTS: Fermi energy: -3.739688; 18.000000 electrons
         Band energy:-157.655617;  BLOECHL correction:  0.000000
       DOS:  cpu time    0.0010: real time    0.0007
    CHARGE:  cpu time    0.0320: real time    0.0329
    MIXING:  cpu time    0.0030: real time    0.0029
    --------------------------------------------
      LOOP:  cpu time    0.3999: real time    0.4011

 eigenvalue-minimisations  :   238
 total energy-change (2. order) :-0.4793760E-05  (-0.2648057E-07)
 number of electron      18.0000018 magnetization 
 augmentation part       -0.5497160 magnetization 

 Broyden mixing:
  rms(total) = 0.57219E-04    rms(broyden)= 0.57218E-04
  rms(prec ) = 0.65724E-04
  weight for this iteration     100.00

 eigenvalues of (default mixing * dielectric matrix)
  average eigenvalue GAMMA=   2.3382
  7.5888  5.4945  2.7584  2.7584  2.4080  1.9170  1.6808  0.6740  1.1112  1.1112
  1.0424  0.9638  0.8875

 Free energy of the ion-electron system (eV)
  ---------------------------------------------------
  alpha Z        PSCENC =        10.92610231
  Ewald energy   TEWEN  =      5354.53473861
  -Hartree energ DENC   =     -6041.37754564
  -exchange      EXHF   =         0.00000000
  -V(xc)+E(xc)   XCENC  =       -35.17117604
  PAW double counting   =       473.39728407     -397.60598445
  entropy T*S    EENTRO =         0.00000000
  eigenvalues    EBANDS =      -157.65561714
  atomic energy  EATOM  =       771.15511399
  Solvation  Ediel_sol  =         0.00000000
  ---------------------------------------------------
  free energy    TOTEN  =       -21.79708428 eV

  energy without entropy =      -21.79708428  energy(sigma->0) =      -21.79708428


--------------------------------------------------------------------------------------------------------




--------------------------------------- Iteration      1(  19)  ---------------------------------------


    POTLOK:  cpu time    0.0480: real time    0.0491
    SETDIJ:  cpu time    0.0050: real time    0.0031
    EDDIAG:  cpu time    0.0750: real time    0.0754
  RMM-DIIS:  cpu time    0.2290: real time    0.2293
    ORTHCH:  cpu time    0.0070: real time    0.0070
 BZINTS: Fermi energy: -3.739688; 18.000000 electrons
         Band energy:-157.651262;  BLOECHL correction:  0.000000
       DOS:  cpu time    0.0010: real time    0.0007
    CHARGE:  cpu time    0.0330: real time    0.0330
    MIXING:  cpu time    0.0030: real time    0.0031
    --------------------------------------------
      LOOP:  cpu time    0.4009: real time    0.4007

 eigenvalue-minimisations  :   265
 total energy-change (2. order) :-0.6670777E-05  (-0.5113734E-07)
 number of electron      18.0000018 magnetization 
 augmentation part       -0.5497456 magnetization 

 Broyden mixing:
  rms(total) = 0.42297E-04    rms(broyden)= 0.42296E-04
  rms(prec ) = 0.46971E-04
  weight for this iteration     100.00

 eigenvalues of (default mixing * dielectric matrix)
  average eigenvalue GAMMA=   2.3645
  7.6254  5.7841  3.4227  2.7499  2.3315  1.9806  1.9806  1.5416  0.6740  1.0866
  1.0866  0.9667  0.9667  0.9068

 Free energy of the ion-electron system (eV)
  ---------------------------------------------------
  alpha Z        PSCENC =        10.92610231
  Ewald energy   TEWEN  =      5354.53473861
  -Hartree energ DENC   =     -6041.38175542
  -exchange      EXHF   =         0.00000000
  -V(xc)+E(xc)   XCENC  =       -35.17122615
  PAW double counting   =       473.40025554     -397.60905825
  entropy T*S    EENTRO =         0.00000000
  eigenvalues    EBANDS =      -157.65126159
  atomic energy  EATOM  =       771.15511399
  Solvation  Ediel_sol  =         0.00000000
  ---------------------------------------------------
  free energy    TOTEN  =       -21.79709096 eV

  energy without entropy =      -21.79709096  energy(sigma->0) =      -21.79709096


--------------------------------------------------------------------------------------------------------




--------------------------------------- Iteration      1(  20)  ---------------------------------------


    POTLOK:  cpu time    0.0490: real time    0.0497
    SETDIJ:  cpu time    0.0040: real time    0.0031
    EDDIAG:  cpu time    0.0750: real time    0.0754
  RMM-DIIS:  cpu time    0.2210: real time    0.2208
    ORTHCH:  cpu time    0.0070: real time    0.0070
 BZINTS: Fermi energy: -3.739688; 18.000000 electrons
         Band energy:-157.645187;  BLOECHL correction:  0.000000
       DOS:  cpu time    0.0010: real time    0.0007
    CHARGE:  cpu time    0.0330: real time    0.0329
    MIXING:  cpu time    0.0030: real time    0.0032
    --------------------------------------------
      LOOP:  cpu time    0.3929: real time    0.3929

 eigenvalue-minimisations  :   221
 total energy-change (2. order) :-0.2588081E-05  (-0.1682852E-07)
 number of electron      18.0000018 magnetization 
 augmentation part       -0.5497246 magnetization 

 Broyden mixing:
  rms(total) = 0.14695E-04    rms(broyden)= 0.14693E-04
  rms(prec ) = 0.17847E-04
  weight for this iteration     100.00

 eigenvalues of (default mixing * dielectric matrix)
  average eigenvalue GAMMA=   2.3897
  7.8305  6.1486  3.9470  2.9687  2.6084  1.9077  1.8303  1.8303  0.6740  1.1270
  1.1270  1.0520  0.9558  0.9190  0.9190

 Free energy of the ion-electron system (eV)
  ---------------------------------------------------
  alpha Z        PSCENC =        10.92610231
  Ewald energy   TEWEN  =      5354.53473861
  -Hartree energ DENC   =     -6041.38791772
  -exchange      EXHF   =         0.00000000
  -V(xc)+E(xc)   XCENC  =       -35.17118133
  PAW double counting   =       473.39809257     -397.60685478
  entropy T*S    EENTRO =         0.00000000
  eigenvalues    EBANDS =      -157.64518720
  atomic energy  EATOM  =       771.15511399
  Solvation  Ediel_sol  =         0.00000000
  ---------------------------------------------------
  free energy    TOTEN  =       -21.79709354 eV

  energy without entropy =      -21.79709354  energy(sigma->0) =      -21.79709354


--------------------------------------------------------------------------------------------------------




--------------------------------------- Iteration      1(  21)  ---------------------------------------


    POTLOK:  cpu time    0.0500: real time    0.0520
    SETDIJ:  cpu time    0.0030: real time    0.0028
    EDDIAG:  cpu time    0.0750: real time    0.0756
  RMM-DIIS:  cpu time    0.1860: real time    0.1854
    ORTHCH:  cpu time    0.0070: real time    0.0071
 BZINTS: Fermi energy: -3.739688; 18.000000 electrons
         Band energy:-157.643216;  BLOECHL correction:  0.000000
       DOS:  cpu time    0.0010: real time    0.0007
    CHARGE:  cpu time    0.0330: real time    0.0330
    MIXING:  cpu time    0.0030: real time    0.0034
    --------------------------------------------
      LOOP:  cpu time    0.3579: real time    0.3600

 eigenvalue-minimisations  :   119
 total energy-change (2. order) :-0.1052532E-05  (-0.5017180E-08)
 number of electron      18.0000018 magnetization 
 augmentation part       -0.5497252 magnetization 

 Broyden mixing:
  rms(total) = 0.10437E-04    rms(broyden)= 0.10434E-04
  rms(prec ) = 0.12122E-04
  weight for this iteration     100.00

 eigenvalues of (default mixing * dielectric matrix)
  average eigenvalue GAMMA=   2.4075
  7.6618  6.7161  4.2548  2.7017  2.7017  2.0946  2.0175  2.0175  1.6079  0.6740
  1.1057  1.1057  1.0211  0.9541  0.9541  0.9313

 Free energy of the ion-electron system (eV)
  ---------------------------------------------------
  alpha Z        PSCENC =        10.92610231
  Ewald energy   TEWEN  =      5354.53473861
  -Hartree energ DENC   =     -6041.38984368
  -exchange      EXHF   =         0.00000000
  -V(xc)+E(xc)   XCENC  =       -35.17119308
  PAW double counting   =       473.39995314     -397.60875001
  entropy T*S    EENTRO =         0.00000000
  eigenvalues    EBANDS =      -157.64321589
  atomic energy  EATOM  =       771.15511399
  Solvation  Ediel_sol  =         0.00000000
  ---------------------------------------------------
  free energy    TOTEN  =       -21.79709460 eV

  energy without entropy =      -21.79709460  energy(sigma->0) =      -21.79709460


--------------------------------------------------------------------------------------------------------




--------------------------------------- Iteration      1(  22)  ---------------------------------------


    POTLOK:  cpu time    0.0500: real time    0.0501
    SETDIJ:  cpu time    0.0030: real time    0.0028
    EDDIAG:  cpu time    0.0760: real time    0.0757
  RMM-DIIS:  cpu time    0.1720: real time    0.1722
    ORTHCH:  cpu time    0.0070: real time    0.0070
 BZINTS: Fermi energy: -3.739688; 18.000000 electrons
         Band energy:-157.641849;  BLOECHL correction:  0.000000
       DOS:  cpu time    0.0010: real time    0.0007
    --------------------------------------------
      LOOP:  cpu time    0.3090: real time    0.3086

 eigenvalue-minimisations  :   104
 total energy-change (2. order) :-0.5125836E-06  (-0.1988242E-08)
 number of electron      18.0000018 magnetization 
 augmentation part       -0.5497252 magnetization 

 Free energy of the ion-electron system (eV)
  ---------------------------------------------------
  alpha Z        PSCENC =        10.92610231
  Ewald energy   TEWEN  =      5354.53473861
  -Hartree energ DENC   =     -6041.39122727
  -exchange      EXHF   =         0.00000000
  -V(xc)+E(xc)   XCENC  =       -35.17120762
  PAW double counting   =       473.39889225     -397.60765818
  entropy T*S    EENTRO =         0.00000000
  eigenvalues    EBANDS =      -157.64184920
  atomic energy  EATOM  =       771.15511399
  Solvation  Ediel_sol  =         0.00000000
  ---------------------------------------------------
  free energy    TOTEN  =       -21.79709511 eV

  energy without entropy =      -21.79709511  energy(sigma->0) =      -21.79709511


--------------------------------------------------------------------------------------------------------




 average (electrostatic) potential at core
  the test charge radii are     1.2296  0.9698
  (the norm of the test charge is              1.0000)
       1 -47.1894       2 -95.0370       3 -95.0370
 
 
 
 E-fermi :  -3.7397     XC(G=0):  -2.4871     alpha+bet : -2.3288


 k-point     1 :       0.0000    0.0000    0.0000
  band No.  band energies     occupation 
      1     -17.8062      2.00000
      2     -16.5777      2.00000
      3      -9.3240      2.00000
      4      -6.3791      2.00000
      5      -6.3791      2.00000
      6      -5.4680      2.00000
      7      -5.2637      2.00000
      8      -5.2637      2.00000
      9      -3.7423      2.00000
     10      -0.9856      0.00000
     11      -0.9855      0.00000
     12      -0.7475      0.00000
     13      -0.7475      0.00000
     14       1.6669      0.00000

 k-point     2 :       0.1000   -0.0000    0.0000
  band No.  band energies     occupation 
      1     -17.6675      2.00000
      2     -16.5122      2.00000
      3      -9.1631      2.00000
      4      -6.6895      2.00000
      5      -6.2263      2.00000
      6      -6.1074      2.00000
      7      -5.4896      2.00000
      8      -4.8519      2.00000
      9      -3.8254      2.00000
     10      -1.1605      0.00000
     11      -1.1121      0.00000
     12      -0.9080      0.00000
     13      -0.7432      0.00000
     14       1.9191      0.00000

 k-point     3 :       0.2000   -0.0000    0.0000
  band No.  band energies     occupation 
      1     -17.2813      2.00000
      2     -16.3309      2.00000
      3      -8.8081      2.00000
      4      -7.3233      2.00000
      5      -6.8903      2.00000
      6      -5.9803      2.00000
      7      -5.8142      2.00000
      8      -4.8757      2.00000
      9      -4.1968      2.00000
     10      -1.5394      0.00000
     11      -1.2490      0.00000
     12      -1.1003      0.00000
     13      -0.2408      0.00000
     14       2.4866      0.00000

 k-point     4 :       0.3000   -0.0000    0.0000
  band No.  band energies     occupation 
      1     -16.7436      2.00000
      2     -16.0832      2.00000
      3      -8.8193      2.00000
      4      -7.6628      2.00000
      5      -7.6315      2.00000
      6      -6.4656      2.00000
      7      -5.2890      2.00000
      8      -5.2317      2.00000
      9      -4.6637      2.00000
     10      -1.5232      0.00000
     11      -1.5075      0.00000
     12      -0.5642      0.00000
     13       0.1966      0.00000
     14       3.2440      0.00000

 k-point     5 :       0.4000   -0.0000    0.0000
  band No.  band energies     occupation 
      1     -16.2372      2.00000
      2     -15.8582      2.00000
      3      -9.2629      2.00000
      4      -8.2738      2.00000
      5      -7.7133      2.00000
      6      -6.7978      2.00000
      7      -5.5037      2.00000
      8      -4.8721      2.00000
      9      -4.5988      2.00000
     10      -1.5999      0.00000
     11      -1.2349      0.00000
     12      -0.0328      0.00000
     13       0.4436      0.00000
     14       3.1048      0.00000

 k-point     6 :       0.5000   -0.0000    0.0000
  band No.  band energies     occupation 
      1     -16.0193      2.00000
      2     -15.7648      2.00000
      3      -9.4817      2.00000
      4      -8.5109      2.00000
      5      -7.8098      2.00000
      6      -6.9143      2.00000
      7      -5.5917      2.00000
      8      -4.7228      2.00000
      9      -4.3836      2.00000
     10      -1.5809      0.00000
     11      -1.0578      0.00000
     12       0.1594      0.00000
     13       0.5178      0.00000
     14       2.4277      0.00000

 k-point     7 :       0.1000    0.1000    0.0000
  band No.  band energies     occupation 
      1     -17.4047      2.00000
      2     -16.3884      2.00000
      3      -8.8942      2.00000
      4      -7.1475      2.00000
      5      -6.5990      2.00000
      6      -6.0277      2.00000
      7      -5.9644      2.00000
      8      -4.6710      2.00000
      9      -4.0576      2.00000
     10      -1.4829      0.00000
     11      -1.2960      0.00000
     12      -1.1666      0.00000
     13      -0.3050      0.00000
     14       2.3194      0.00000

 k-point     8 :       0.2000    0.1000    0.0000
  band No.  band energies     occupation 
      1     -16.9398      2.00000
      2     -16.1710      2.00000
      3      -8.6745      2.00000
      4      -7.5615      2.00000
      5      -7.2740      2.00000
      6      -6.6345      2.00000
      7      -5.6371      2.00000
      8      -4.8240      2.00000
      9      -4.4904      2.00000
     10      -1.7356      0.00000
     11      -1.3351      0.00000
     12      -1.0656      0.00000
     13       0.2158      0.00000
     14       3.0114      0.00000

 k-point     9 :       0.3000    0.1000    0.0000
  band No.  band energies     occupation 
      1     -16.4076      2.00000
      2     -15.9269      2.00000
      3      -8.9689      2.00000
      4      -8.0619      2.00000
      5      -7.5858      2.00000
      6      -6.8688      2.00000
      7      -5.5295      2.00000
      8      -5.2307      2.00000
      9      -4.5340      2.00000
     10      -1.6494      0.00000
     11      -1.2930      0.00000
     12      -0.5099      0.00000
     13       0.4958      0.00000
     14       3.6864      0.00000

 k-point    10 :       0.4000    0.1000    0.0000
  band No.  band energies     occupation 
      1     -16.0298      2.00000
      2     -15.7584      2.00000
      3      -9.2901      2.00000
      4      -8.5571      2.00000
      5      -7.7281      2.00000
      6      -6.9179      2.00000
      7      -5.5354      2.00000
      8      -5.4080      2.00000
      9      -4.2451      2.00000
     10      -1.5538      0.00000
     11      -1.0542      0.00000
     12      -0.0047      0.00000
     13       0.4443      0.00000
     14       2.7817      0.00000

 k-point    11 :       0.2000    0.2000    0.0000
  band No.  band energies     occupation 
      1     -16.4726      2.00000
      2     -15.9506      2.00000
      3      -8.7738      2.00000
      4      -7.9286      2.00000
      5      -7.4592      2.00000
      6      -7.0417      2.00000
      7      -5.9850      2.00000
      8      -4.9738      2.00000
      9      -4.5285      2.00000
     10      -1.7294      0.00000
     11      -1.2624      0.00000
     12      -0.8915      0.00000
     13       0.6081      0.00000
     14       3.7770      0.00000

 k-point    12 :       0.3000    0.2000    0.0000
  band No.  band energies     occupation 
      1     -16.0464      2.00000
      2     -15.7480      2.00000
      3      -8.9136      2.00000
      4      -8.6243      2.00000
      5      -7.4659      2.00000
      6      -6.9533      2.00000
      7      -6.4104      2.00000
      8      -5.3993      2.00000
      9      -4.2602      2.00000
     10      -1.5919      0.00000
     11      -1.0055      0.00000
     12      -0.5750      0.00000
     13       0.7575      0.00000
     14       3.5601      0.00000

 k-point    13 :       0.4000    0.2000    0.0000
  band No.  band energies     occupation 
      1     -15.8688      2.00000
      2     -15.6633      2.00000
      3      -8.9341      2.00000
      4      -8.8928      2.00000
      5      -7.6632      2.00000
      6      -6.8271      2.00000
      7      -6.4665      2.00000
      8      -5.6584      2.00000
      9      -4.0098      2.00000
     10      -1.7735      0.00000
     11      -0.6341      0.00000
     12      -0.4321      0.00000
     13       0.7803      0.00000
     14       2.9715      0.00000

 k-point    14 :       0.3000    0.3000    0.0000
  band No.  band energies     occupation 
      1     -15.8099      2.00000
      2     -15.6229      2.00000
      3      -9.0433      2.00000
      4      -8.5428      2.00000
      5      -7.5492      2.00000
      6      -7.2273      2.00000
      7      -6.7131      2.00000
      8      -5.7672      2.00000
      9      -3.8870      2.00000
     10      -1.9847      0.00000
     11      -0.6675      0.00000
     12      -0.4017      0.00000
     13       1.0139      0.00000
     14       3.4399      0.00000


--------------------------------------------------------------------------------------------------------


 soft charge-density along one line, spin component           1
         0         1         2         3         4         5         6         7         8         9
 total charge-density along one line
 
 pseudopotential strength for first ion, spin component:           1
-10.070  -0.000   0.000   0.000   0.000   0.111   0.000  -0.000
 -0.000 -10.070  -0.000  -0.000   0.000   0.000   0.111   0.000
  0.000  -0.000 -10.049  -0.000  -0.000  -0.000   0.000   0.109
  0.000  -0.000  -0.000 -10.070  -0.000  -0.000   0.000   0.000
  0.000   0.000  -0.000  -0.000 -10.070  -0.000  -0.000   0.000
  0.111   0.000  -0.000  -0.000  -0.000   0.097  -0.000   0.000
  0.000   0.111   0.000   0.000  -0.000  -0.000   0.097  -0.000
 -0.000   0.000   0.109   0.000   0.000   0.000  -0.000   0.097
 -0.000   0.000   0.000   0.111   0.000   0.000  -0.000  -0.000
 -0.000  -0.000   0.000   0.000   0.111   0.000   0.000  -0.000
  0.000   0.000  -0.005   0.000  -0.000  -0.000  -0.000   0.000
 -0.000  -0.000   0.001  -0.000   0.000   0.000   0.000  -0.000
 -0.000   0.000  -0.000  -0.000  -0.007   0.000  -0.000   0.000
 -0.000   0.000   0.000  -0.000  -0.000  -0.000  -0.000  -0.000
 -0.007  -0.000   0.000   0.000  -0.000  -0.000  -0.000  -0.000
  0.000  -0.000   0.000   0.000   0.004  -0.000   0.000  -0.000
  0.000  -0.000   0.000   0.000   0.000  -0.000   0.000   0.000
  0.004   0.000  -0.000  -0.000   0.000   0.000  -0.000   0.000
 total augmentation occupancy for first ion, spin component:           1
  0.965   0.000  -0.000   0.000   0.000   0.607   0.000  -0.000   0.000  -0.000  -0.000   0.000   0.000   0.000  -0.067  -0.000
 -0.000   0.909   0.000   0.000   0.000   0.000   0.846   0.000   0.000   0.000   0.000   0.000   0.000   0.000   0.000   0.000
 -0.000  -0.000   1.030  -0.000   0.000  -0.000   0.000   0.504  -0.000   0.000   0.114  -0.019  -0.000   0.000   0.000   0.000
 -0.000   0.000   0.000   0.909   0.000   0.000   0.000   0.000   0.846   0.000   0.000   0.000   0.000  -0.000   0.000   0.000
  0.000  -0.000   0.000   0.000   0.965   0.000   0.000   0.000   0.000   0.607  -0.000   0.000  -0.067   0.000  -0.000   0.007
  0.607   0.000  -0.000   0.000   0.000   0.689  -0.000  -0.000   0.000   0.000  -0.000   0.000   0.000   0.000  -0.138  -0.000
  0.000   0.846   0.000   0.000   0.000   0.000   1.095   0.000   0.000   0.000   0.000   0.000   0.000   0.000   0.000  -0.000
 -0.000   0.000   0.504   0.000   0.000  -0.000   0.000   0.481   0.000   0.000   0.058  -0.021  -0.000   0.000   0.000   0.000
 -0.000   0.000   0.000   0.846  -0.000   0.000   0.000   0.000   1.095  -0.000  -0.000  -0.000   0.000   0.000   0.000   0.000
  0.000  -0.000   0.000   0.000   0.607   0.000   0.000   0.000  -0.000   0.689  -0.000   0.000  -0.138   0.000  -0.000   0.023
 -0.000   0.000   0.114   0.000  -0.000  -0.000   0.000   0.058  -0.000  -0.000   1.213  -0.187  -0.000   0.000  -0.000   0.000
  0.000   0.000  -0.019   0.000   0.000   0.000   0.000  -0.021   0.000   0.000  -0.187   0.042   0.000   0.000  -0.000   0.000
  0.000   0.000  -0.000   0.000  -0.067   0.000   0.000  -0.000   0.000  -0.138   0.000   0.000   0.219   0.000   0.000  -0.033
  0.000   0.000   0.000  -0.000   0.000   0.000   0.000   0.000  -0.000   0.000  -0.000  -0.000   0.000   0.266   0.000   0.000
 -0.067   0.000   0.000   0.000  -0.000  -0.138  -0.000   0.000   0.000  -0.000  -0.000  -0.000   0.000   0.000   0.219  -0.000
 -0.000   0.000   0.000  -0.000   0.007  -0.000   0.000   0.000   0.000   0.023   0.000   0.000  -0.033   0.000  -0.000   0.005
  0.000  -0.000  -0.000   0.000   0.000   0.000   0.000  -0.000   0.000   0.000   0.000   0.000   0.000  -0.039   0.000   0.000
  0.007   0.000  -0.000  -0.000   0.000   0.023   0.000  -0.000   0.000   0.000  -0.000   0.000  -0.000   0.000  -0.033   0.000


------------------------ aborting loop because EDIFF is reached ----------------------------------------


 


 total charge     
 
# of ion       s       p       d       tot
------------------------------------------
    1        0.415   0.596   4.389   5.401
    2        1.364   2.332   0.000   3.695
    3        1.364   2.332   0.000   3.695
--------------------------------------------------
tot          3.143   5.260   4.389  12.792
 
    CHARGE:  cpu time    0.0320: real time    0.0330
    FORLOC:  cpu time    0.0050: real time    0.0048
    FORNL :  cpu time    0.0530: real time    0.0522
    STRESS:  cpu time    0.3090: real time    0.3087
    FORCOR:  cpu time    0.0550: real time    0.0558
    FORHAR:  cpu time    0.0130: real time    0.0129
    MIXING:  cpu time    0.0030: real time    0.0035
    OFIELD:  cpu time    0.0000: real time    0.0000

  DFT-D2 method for vdW energy calculation
  -------------------------------------------------------------------

  Parameters of vdW forcefield:
         C6(Jnm^6/mol)     R0(A)
   -----------------------------
   Mo      24.670          1.639
   S        5.570          1.683

  IVDW =   1
  VDW_RADIUS =    50.000 A
  VDW_S6 =     0.750
  VDW_SR =     1.000
  VDW_D =    20.000
  LVDW_EWALD = F

  Number of pair interactions contributing to vdW energy:   12009
  Edisp (eV):   -0.59127
    FORVDW:  cpu time    0.0150: real time    0.0196

  FORCE on cell =-STRESS in cart. coord.  units (eV):
  Direction    XX          YY          ZZ          XY          YZ          ZX
  --------------------------------------------------------------------------------------
  Alpha Z    10.92610    10.92610    10.92610
  Ewald    5921.93836  5921.93880 -6489.34278     0.00019     0.00000     0.00013
  Hartree  6003.13298  6003.13299 -5964.87406     0.00002    -0.00000    -0.00000
  E(xc)     -70.35099   -70.35100   -70.96338    -0.00000    -0.00000    -0.00000
  Local  -12204.19876-12204.19910 12169.00214    -0.00021    -0.00000    -0.00006
  n-local   127.33256   125.86796   131.81717    -0.24300    -0.00000    -0.00001
  augment   -25.56226   -25.56218   -26.67534     0.00007     0.00000    -0.00000
  Kinetic   236.21975   238.48204   240.22759    -7.46813     0.00001     0.00002
  Fock        0.00000     0.00000     0.00000     0.00000     0.00000     0.00000
  vdW         0.15762     0.15762    -0.13635     0.00000     0.00000    -0.00000
  -------------------------------------------------------------------------------------
  Total      -0.00570    -0.00570    -0.01891     0.00000    -0.00000     0.00000
  in kB      -0.03364    -0.03364    -0.11167     0.00000    -0.00000     0.00000
  external pressure =       -0.06 kB  Pullay stress =        0.00 kB


 VOLUME and BASIS-vectors are now :
 -----------------------------------------------------------------------------
  energy-cutoff  :      450.00
  volume of cell :      271.36
      direct lattice vectors                 reciprocal lattice vectors
     3.189856830  0.000000000  0.000000000     0.313493694  0.180995668  0.000000000
    -1.594928415  2.762497050  0.000000000     0.000000000  0.361991337  0.000000000
     0.000000000  0.000000000 30.793978868     0.000000000  0.000000000  0.032473881

  length of vectors
     3.189856830  3.189856830 30.793978868     0.361991337  0.361991337  0.032473881


 FORCES acting on ions
    electron-ion (+dipol)            ewald-force                    non-local-force                 convergence-correction
 -----------------------------------------------------------------------------------------------
   -.104E-04 -.126E-05 -.151E-04   0.942E-04 -.109E-03 0.348E-06   0.382E-16 0.000E+00 -.339E-20   0.307E-09 -.317E-09 0.120E-07
   -.852E-03 0.494E-03 0.596E+03   -.873E-04 0.544E-04 -.601E+03   0.867E-18 -.312E-16 0.472E+01   -.190E-09 0.194E-09 0.903E-04
   0.864E-03 0.493E-03 -.596E+03   -.692E-05 0.544E-04 0.601E+03   -.113E-16 -.226E-16 -.472E+01   0.254E-09 0.194E-09 -.903E-04
 -----------------------------------------------------------------------------------------------
   0.144E-05 0.986E-03 0.151E-04   0.592E-14 -.327E-14 0.000E+00   0.278E-16 -.538E-16 0.888E-15   0.371E-09 0.710E-10 0.327E-07
 
 
 POSITION                                       TOTAL-FORCE (eV/Angst)
 -----------------------------------------------------------------------------------
     -0.00000      1.84167      3.70951        -0.000000      0.000000     -0.000000
      1.59493      0.92083      2.15067         0.000000      0.000000     -0.000373
      1.59493      0.92083      5.26835         0.000000     -0.000000      0.000373
 -----------------------------------------------------------------------------------
    total drift:                                0.000001      0.000986      0.000015


--------------------------------------------------------------------------------------------------------



  FREE ENERGIE OF THE ION-ELECTRON SYSTEM (eV)
  ---------------------------------------------------
  free  energy   TOTEN  =       -22.38836953 eV

  energy  without entropy=      -22.38836953  energy(sigma->0) =      -22.38836953
 


--------------------------------------------------------------------------------------------------------


    POTLOK:  cpu time    0.0520: real time    0.0524


--------------------------------------------------------------------------------------------------------


     LOOP+:  cpu time   11.1103: real time   11.4372
    4ORBIT:  cpu time    0.0000: real time    0.0000
 


 total charge     
 
# of ion       s       p       d       tot
------------------------------------------
    1        0.415   0.596   4.389   5.401
    2        1.364   2.332   0.000   3.695
    3        1.364   2.332   0.000   3.695
--------------------------------------------------
tot          3.143   5.260   4.389  12.792
 
 BZINTS: Fermi energy: -3.739688; 18.000000 electrons
         Band energy:-157.641849;  BLOECHL correction:  0.000000

 total amount of memory used by VASP MPI-rank0    58156. kBytes
=======================================================================

   base      :      30000. kBytes
   nonl-proj :      12215. kBytes
   fftplans  :       4304. kBytes
   grid      :       6871. kBytes
   one-center:         31. kBytes
   wavefun   :       4735. kBytes
 
  
  
 General timing and accounting informations for this job:
 ========================================================
  
                  Total CPU time used (sec):       12.696
                            User time (sec):       12.322
                          System time (sec):        0.374
                         Elapsed time (sec):       13.891
  
                   Maximum memory used (kb):       53792.
                   Average memory used (kb):           0.
  
                          Minor page faults:        17706
                          Major page faults:          172
                 Voluntary context switches:         2664
