PROCAR lm decomposed
# of k-points:   14         # of bands:   14         # of ions:    3

 k-point     1 :    0.00000000 0.00000000 0.00000000     weight = 0.01000000

band     1 # energy  -17.80618876 # occ.  2.00000000
 
ion      s     py     pz     px    dxy    dyz    dz2    dxz  x2-y2    tot
    1  0.132  0.000  0.000  0.000  0.000  0.000  0.000  0.000  0.000  0.132
    2  0.275  0.000  0.005  0.000  0.000  0.000  0.000  0.000  0.000  0.281
    3  0.275  0.000  0.005  0.000  0.000  0.000  0.000  0.000  0.000  0.281
tot    0.683  0.000  0.010  0.000  0.000  0.000  0.000  0.000  0.000  0.693
 
band     2 # energy  -16.57768952 # occ.  2.00000000
 
ion      s     py     pz     px    dxy    dyz    dz2    dxz  x2-y2    tot
    1  0.000  0.000  0.060  0.000  0.000  0.000  0.000  0.000  0.000  0.060
    2  0.316  0.000  0.000  0.000  0.000  0.000  0.000  0.000  0.000  0.316
    3  0.316  0.000  0.000  0.000  0.000  0.000  0.000  0.000  0.000  0.316
tot    0.631  0.000  0.060  0.000  0.000  0.000  0.000  0.000  0.000  0.692
 
band     3 # energy   -9.32398014 # occ.  2.00000000
 
ion      s     py     pz     px    dxy    dyz    dz2    dxz  x2-y2    tot
    1  0.129  0.000  0.000  0.000  0.000  0.000  0.206  0.000  0.000  0.334
    2  0.018  0.000  0.126  0.000  0.000  0.000  0.000  0.000  0.000  0.143
    3  0.018  0.000  0.126  0.000  0.000  0.000  0.000  0.000  0.000  0.143
tot    0.165  0.000  0.251  0.000  0.000  0.000  0.206  0.000  0.000  0.621
 
band     4 # energy   -6.37913630 # occ.  2.00000000
 
ion      s     py     pz     px    dxy    dyz    dz2    dxz  x2-y2    tot
    1  0.000  0.000  0.000  0.006  0.580  0.000  0.000  0.000  0.018  0.604
    2  0.000  0.003  0.000  0.110  0.000  0.000  0.000  0.000  0.000  0.114
    3  0.000  0.003  0.000  0.110  0.000  0.000  0.000  0.000  0.000  0.114
tot    0.000  0.007  0.000  0.227  0.580  0.000  0.000  0.000  0.018  0.831
 
band     5 # energy   -6.37913056 # occ.  2.00000000
 
ion      s     py     pz     px    dxy    dyz    dz2    dxz  x2-y2    tot
    1  0.000  0.006  0.000  0.000  0.018  0.000  0.000  0.000  0.580  0.604
    2  0.000  0.110  0.000  0.003  0.000  0.000  0.000  0.000  0.000  0.114
    3  0.000  0.110  0.000  0.003  0.000  0.000  0.000  0.000  0.000  0.114
tot    0.000  0.227  0.000  0.007  0.018  0.000  0.000  0.000  0.580  0.831
 
band     6 # energy   -5.46795660 # occ.  2.00000000
 
ion      s     py     pz     px    dxy    dyz    dz2    dxz  x2-y2    tot
    1  0.000  0.000  0.055  0.000  0.000  0.000  0.000  0.000  0.000  0.055
    2  0.000  0.000  0.247  0.000  0.000  0.000  0.000  0.000  0.000  0.247
    3  0.000  0.000  0.247  0.000  0.000  0.000  0.000  0.000  0.000  0.247
tot    0.001  0.000  0.550  0.000  0.000  0.000  0.000  0.000  0.000  0.550
 
band     7 # energy   -5.26371088 # occ.  2.00000000
 
ion      s     py     pz     px    dxy    dyz    dz2    dxz  x2-y2    tot
    1  0.000  0.000  0.000  0.000  0.000  0.505  0.000  0.041  0.000  0.546
    2  0.000  0.140  0.000  0.011  0.000  0.000  0.000  0.000  0.000  0.151
    3  0.000  0.140  0.000  0.011  0.000  0.000  0.000  0.000  0.000  0.151
tot    0.000  0.279  0.000  0.023  0.000  0.505  0.000  0.041  0.000  0.848
 
band     8 # energy   -5.26367867 # occ.  2.00000000
 
ion      s     py     pz     px    dxy    dyz    dz2    dxz  x2-y2    tot
    1  0.000  0.000  0.000  0.000  0.000  0.041  0.000  0.505  0.000  0.546
    2  0.000  0.011  0.000  0.140  0.000  0.000  0.000  0.000  0.000  0.151
    3  0.000  0.011  0.000  0.140  0.000  0.000  0.000  0.000  0.000  0.151
tot    0.000  0.023  0.000  0.279  0.000  0.041  0.000  0.505  0.000  0.848
 
band     9 # energy   -3.74231734 # occ.  2.00000000
 
ion      s     py     pz     px    dxy    dyz    dz2    dxz  x2-y2    tot
    1  0.015  0.000  0.000  0.000  0.000  0.000  0.601  0.000  0.000  0.616
    2  0.002  0.000  0.069  0.000  0.000  0.000  0.000  0.000  0.000  0.072
    3  0.002  0.000  0.069  0.000  0.000  0.000  0.000  0.000  0.000  0.072
tot    0.020  0.000  0.139  0.000  0.000  0.000  0.601  0.000  0.000  0.759
 
band    10 # energy   -0.98557587 # occ.  0.00000000
 
ion      s     py     pz     px    dxy    dyz    dz2    dxz  x2-y2    tot
    1  0.000  0.000  0.000  0.000  0.000  0.028  0.000  0.327  0.000  0.355
    2  0.000  0.015  0.000  0.172  0.000  0.000  0.000  0.000  0.000  0.187
    3  0.000  0.015  0.000  0.172  0.000  0.000  0.000  0.000  0.000  0.187
tot    0.000  0.029  0.000  0.344  0.000  0.028  0.000  0.327  0.000  0.728
 
band    11 # energy   -0.98554492 # occ.  0.00000000
 
ion      s     py     pz     px    dxy    dyz    dz2    dxz  x2-y2    tot
    1  0.000  0.000  0.000  0.000  0.000  0.327  0.000  0.028  0.000  0.355
    2  0.000  0.172  0.000  0.015  0.000  0.000  0.000  0.000  0.000  0.187
    3  0.000  0.172  0.000  0.015  0.000  0.000  0.000  0.000  0.000  0.187
tot    0.000  0.344  0.000  0.029  0.000  0.327  0.000  0.028  0.000  0.728
 
band    12 # energy   -0.74747742 # occ.  0.00000000
 
ion      s     py     pz     px    dxy    dyz    dz2    dxz  x2-y2    tot
    1  0.000  0.017  0.000  0.002  0.028  0.000  0.000  0.000  0.273  0.319
    2  0.000  0.208  0.000  0.021  0.000  0.000  0.000  0.000  0.000  0.229
    3  0.000  0.208  0.000  0.021  0.000  0.000  0.000  0.000  0.000  0.229
tot    0.000  0.434  0.000  0.044  0.028  0.000  0.000  0.000  0.273  0.778
 
band    13 # energy   -0.74746347 # occ.  0.00000000
 
ion      s     py     pz     px    dxy    dyz    dz2    dxz  x2-y2    tot
    1  0.000  0.002  0.000  0.017  0.273  0.000  0.000  0.000  0.028  0.319
    2  0.000  0.021  0.000  0.208  0.000  0.000  0.000  0.000  0.000  0.229
    3  0.000  0.021  0.000  0.208  0.000  0.000  0.000  0.000  0.000  0.229
tot    0.000  0.044  0.000  0.434  0.273  0.000  0.000  0.000  0.028  0.778
 
band    14 # energy    1.66686743 # occ.  0.00000000
 
ion      s     py     pz     px    dxy    dyz    dz2    dxz  x2-y2    tot
    1  0.035  0.000  0.000  0.000  0.000  0.000  0.022  0.000  0.000  0.057
    2  0.026  0.000  0.003  0.000  0.000  0.000  0.000  0.000  0.000  0.029
    3  0.026  0.000  0.003  0.000  0.000  0.000  0.000  0.000  0.000  0.029
tot    0.088  0.000  0.005  0.000  0.000  0.000  0.022  0.000  0.000  0.115
 

 k-point     2 :    0.10000000-0.00000000 0.00000000     weight = 0.06000000

band     1 # energy  -17.66752709 # occ.  2.00000000
 
ion      s     py     pz     px    dxy    dyz    dz2    dxz  x2-y2    tot
    1  0.124  0.001  0.000  0.003  0.001  0.000  0.000  0.000  0.000  0.130
    2  0.278  0.000  0.005  0.000  0.000  0.000  0.000  0.000  0.000  0.283
    3  0.278  0.000  0.005  0.000  0.000  0.000  0.000  0.000  0.000  0.283
tot    0.680  0.001  0.010  0.004  0.001  0.000  0.000  0.000  0.000  0.697
 
band     2 # energy  -16.51218482 # occ.  2.00000000
 
ion      s     py     pz     px    dxy    dyz    dz2    dxz  x2-y2    tot
    1  0.000  0.000  0.056  0.000  0.000  0.002  0.000  0.006  0.000  0.064
    2  0.316  0.000  0.000  0.000  0.000  0.000  0.000  0.000  0.000  0.317
    3  0.316  0.000  0.000  0.000  0.000  0.000  0.000  0.000  0.000  0.317
tot    0.633  0.000  0.057  0.000  0.000  0.002  0.000  0.006  0.000  0.698
 
band     3 # energy   -9.16311814 # occ.  2.00000000
 
ion      s     py     pz     px    dxy    dyz    dz2    dxz  x2-y2    tot
    1  0.115  0.002  0.000  0.006  0.008  0.000  0.197  0.000  0.003  0.331
    2  0.016  0.000  0.129  0.001  0.000  0.000  0.000  0.000  0.000  0.146
    3  0.016  0.000  0.129  0.001  0.000  0.000  0.000  0.000  0.000  0.146
tot    0.148  0.003  0.257  0.008  0.008  0.000  0.197  0.000  0.003  0.623
 
band     4 # energy   -6.68953664 # occ.  2.00000000
 
ion      s     py     pz     px    dxy    dyz    dz2    dxz  x2-y2    tot
    1  0.022  0.002  0.000  0.006  0.395  0.000  0.001  0.000  0.132  0.557
    2  0.005  0.029  0.000  0.086  0.000  0.000  0.000  0.000  0.000  0.121
    3  0.005  0.029  0.000  0.086  0.000  0.000  0.000  0.000  0.000  0.121
tot    0.032  0.060  0.001  0.179  0.395  0.000  0.001  0.000  0.132  0.798
 
band     5 # energy   -6.22628623 # occ.  2.00000000
 
ion      s     py     pz     px    dxy    dyz    dz2    dxz  x2-y2    tot
    1  0.000  0.009  0.000  0.003  0.143  0.000  0.000  0.000  0.429  0.583
    2  0.000  0.091  0.000  0.030  0.000  0.000  0.000  0.000  0.000  0.121
    3  0.000  0.091  0.000  0.030  0.000  0.000  0.000  0.000  0.000  0.121
tot    0.000  0.190  0.000  0.063  0.143  0.000  0.000  0.000  0.429  0.825
 
band     6 # energy   -6.10741507 # occ.  2.00000000
 
ion      s     py     pz     px    dxy    dyz    dz2    dxz  x2-y2    tot
    1  0.000  0.000  0.007  0.000  0.000  0.081  0.000  0.243  0.000  0.331
    2  0.000  0.018  0.114  0.054  0.000  0.000  0.000  0.000  0.000  0.186
    3  0.000  0.018  0.114  0.054  0.000  0.000  0.000  0.000  0.000  0.186
tot    0.001  0.036  0.235  0.108  0.000  0.081  0.000  0.243  0.000  0.703
 
band     7 # energy   -5.48958877 # occ.  2.00000000
 
ion      s     py     pz     px    dxy    dyz    dz2    dxz  x2-y2    tot
    1  0.000  0.000  0.000  0.000  0.000  0.398  0.000  0.133  0.000  0.531
    2  0.000  0.115  0.000  0.038  0.000  0.000  0.000  0.000  0.000  0.153
    3  0.000  0.115  0.000  0.038  0.000  0.000  0.000  0.000  0.000  0.153
tot    0.000  0.230  0.000  0.077  0.000  0.398  0.000  0.133  0.000  0.838
 
band     8 # energy   -4.85186950 # occ.  2.00000000
 
ion      s     py     pz     px    dxy    dyz    dz2    dxz  x2-y2    tot
    1  0.000  0.000  0.057  0.000  0.000  0.036  0.000  0.107  0.000  0.200
    2  0.000  0.026  0.132  0.077  0.000  0.000  0.000  0.000  0.000  0.235
    3  0.000  0.026  0.132  0.077  0.000  0.000  0.000  0.000  0.000  0.235
tot    0.001  0.051  0.321  0.154  0.000  0.036  0.000  0.107  0.000  0.669
 
band     9 # energy   -3.82544792 # occ.  2.00000000
 
ion      s     py     pz     px    dxy    dyz    dz2    dxz  x2-y2    tot
    1  0.017  0.000  0.000  0.001  0.019  0.000  0.580  0.000  0.006  0.622
    2  0.004  0.002  0.064  0.006  0.000  0.000  0.000  0.000  0.000  0.077
    3  0.004  0.002  0.064  0.006  0.000  0.000  0.000  0.000  0.000  0.077
tot    0.024  0.005  0.128  0.014  0.019  0.000  0.580  0.000  0.006  0.775
 
band    10 # energy   -1.16049235 # occ.  0.00000000
 
ion      s     py     pz     px    dxy    dyz    dz2    dxz  x2-y2    tot
    1  0.000  0.000  0.001  0.000  0.000  0.106  0.000  0.317  0.000  0.423
    2  0.013  0.033  0.003  0.100  0.000  0.000  0.000  0.000  0.000  0.150
    3  0.013  0.034  0.003  0.101  0.000  0.000  0.000  0.000  0.000  0.150
tot    0.026  0.067  0.007  0.201  0.000  0.106  0.000  0.317  0.000  0.724
 
band    11 # energy   -1.11209856 # occ.  0.00000000
 
ion      s     py     pz     px    dxy    dyz    dz2    dxz  x2-y2    tot
    1  0.002  0.004  0.000  0.011  0.233  0.000  0.029  0.000  0.078  0.357
    2  0.007  0.045  0.003  0.134  0.000  0.000  0.000  0.000  0.000  0.189
    3  0.007  0.045  0.003  0.134  0.000  0.000  0.000  0.000  0.000  0.189
tot    0.017  0.093  0.007  0.279  0.233  0.000  0.029  0.000  0.078  0.735
 
band    12 # energy   -0.90803892 # occ.  0.00000000
 
ion      s     py     pz     px    dxy    dyz    dz2    dxz  x2-y2    tot
    1  0.000  0.015  0.000  0.005  0.082  0.000  0.000  0.000  0.245  0.346
    2  0.000  0.160  0.000  0.053  0.000  0.000  0.000  0.000  0.000  0.214
    3  0.000  0.160  0.000  0.053  0.000  0.000  0.000  0.000  0.000  0.214
tot    0.000  0.335  0.000  0.112  0.082  0.000  0.000  0.000  0.245  0.773
 
band    13 # energy   -0.74320402 # occ.  0.00000000
 
ion      s     py     pz     px    dxy    dyz    dz2    dxz  x2-y2    tot
    1  0.000  0.000  0.000  0.000  0.000  0.284  0.000  0.095  0.000  0.379
    2  0.000  0.138  0.000  0.046  0.000  0.000  0.000  0.000  0.000  0.184
    3  0.000  0.138  0.000  0.046  0.000  0.000  0.000  0.000  0.000  0.184
tot    0.000  0.275  0.000  0.092  0.000  0.284  0.000  0.095  0.000  0.746
 
band    14 # energy    1.91914106 # occ.  0.00000000
 
ion      s     py     pz     px    dxy    dyz    dz2    dxz  x2-y2    tot
    1  0.019  0.000  0.000  0.001  0.002  0.000  0.024  0.000  0.001  0.047
    2  0.014  0.002  0.004  0.005  0.000  0.000  0.000  0.000  0.000  0.025
    3  0.014  0.002  0.005  0.005  0.000  0.000  0.000  0.000  0.000  0.026
tot    0.047  0.004  0.009  0.012  0.002  0.000  0.024  0.000  0.001  0.098
 

 k-point     3 :    0.20000000-0.00000000 0.00000000     weight = 0.06000000

band     1 # energy  -17.28127788 # occ.  2.00000000
 
ion      s     py     pz     px    dxy    dyz    dz2    dxz  x2-y2    tot
    1  0.102  0.004  0.000  0.012  0.006  0.000  0.001  0.000  0.002  0.126
    2  0.285  0.000  0.005  0.001  0.000  0.000  0.000  0.000  0.000  0.292
    3  0.285  0.000  0.005  0.001  0.000  0.000  0.000  0.000  0.000  0.292
tot    0.672  0.005  0.010  0.014  0.006  0.000  0.001  0.000  0.002  0.710
 
band     2 # energy  -16.33089246 # occ.  2.00000000
 
ion      s     py     pz     px    dxy    dyz    dz2    dxz  x2-y2    tot
    1  0.000  0.000  0.045  0.000  0.000  0.008  0.000  0.023  0.000  0.076
    2  0.319  0.000  0.001  0.001  0.000  0.000  0.000  0.000  0.000  0.320
    3  0.319  0.000  0.001  0.001  0.000  0.000  0.000  0.000  0.000  0.320
tot    0.637  0.000  0.047  0.001  0.000  0.008  0.000  0.023  0.000  0.717
 
band     3 # energy   -8.80813026 # occ.  2.00000000
 
ion      s     py     pz     px    dxy    dyz    dz2    dxz  x2-y2    tot
    1  0.063  0.006  0.000  0.018  0.067  0.000  0.162  0.000  0.022  0.338
    2  0.010  0.003  0.128  0.009  0.000  0.000  0.000  0.000  0.000  0.151
    3  0.010  0.003  0.128  0.009  0.000  0.000  0.000  0.000  0.000  0.151
tot    0.083  0.012  0.256  0.037  0.067  0.000  0.162  0.000  0.022  0.640
 
band     4 # energy   -7.32325789 # occ.  2.00000000
 
ion      s     py     pz     px    dxy    dyz    dz2    dxz  x2-y2    tot
    1  0.085  0.005  0.000  0.015  0.232  0.000  0.013  0.000  0.077  0.428
    2  0.018  0.029  0.011  0.087  0.000  0.000  0.000  0.000  0.000  0.145
    3  0.018  0.029  0.011  0.087  0.000  0.000  0.000  0.000  0.000  0.145
tot    0.121  0.063  0.022  0.189  0.232  0.000  0.013  0.000  0.077  0.719
 
band     5 # energy   -6.89025635 # occ.  2.00000000
 
ion      s     py     pz     px    dxy    dyz    dz2    dxz  x2-y2    tot
    1  0.000  0.000  0.002  0.000  0.000  0.086  0.000  0.257  0.000  0.344
    2  0.002  0.027  0.072  0.080  0.000  0.000  0.000  0.000  0.000  0.181
    3  0.002  0.027  0.072  0.080  0.000  0.000  0.000  0.000  0.000  0.181
tot    0.004  0.053  0.146  0.160  0.000  0.086  0.000  0.257  0.000  0.706
 
band     6 # energy   -5.98032582 # occ.  2.00000000
 
ion      s     py     pz     px    dxy    dyz    dz2    dxz  x2-y2    tot
    1  0.000  0.000  0.000  0.000  0.000  0.380  0.000  0.127  0.000  0.507
    2  0.000  0.118  0.000  0.039  0.000  0.000  0.000  0.000  0.000  0.158
    3  0.000  0.118  0.000  0.039  0.000  0.000  0.000  0.000  0.000  0.158
tot    0.000  0.236  0.000  0.079  0.000  0.380  0.000  0.127  0.000  0.822
 
band     7 # energy   -5.81423302 # occ.  2.00000000
 
ion      s     py     pz     px    dxy    dyz    dz2    dxz  x2-y2    tot
    1  0.000  0.019  0.000  0.006  0.122  0.000  0.000  0.000  0.367  0.515
    2  0.000  0.109  0.000  0.036  0.000  0.000  0.000  0.000  0.000  0.146
    3  0.000  0.109  0.000  0.036  0.000  0.000  0.000  0.000  0.000  0.146
tot    0.000  0.238  0.000  0.079  0.122  0.000  0.000  0.000  0.367  0.806
 
band     8 # energy   -4.87569353 # occ.  2.00000000
 
ion      s     py     pz     px    dxy    dyz    dz2    dxz  x2-y2    tot
    1  0.000  0.000  0.073  0.000  0.000  0.001  0.000  0.003  0.000  0.077
    2  0.005  0.026  0.161  0.077  0.000  0.000  0.000  0.000  0.000  0.269
    3  0.005  0.026  0.161  0.077  0.000  0.000  0.000  0.000  0.000  0.269
tot    0.011  0.051  0.396  0.153  0.000  0.001  0.000  0.003  0.000  0.615
 
band     9 # energy   -4.19681162 # occ.  2.00000000
 
ion      s     py     pz     px    dxy    dyz    dz2    dxz  x2-y2    tot
    1  0.017  0.001  0.000  0.003  0.104  0.000  0.473  0.000  0.035  0.633
    2  0.008  0.007  0.047  0.020  0.000  0.000  0.000  0.000  0.000  0.081
    3  0.008  0.007  0.047  0.020  0.000  0.000  0.000  0.000  0.000  0.081
tot    0.032  0.014  0.093  0.043  0.104  0.000  0.473  0.000  0.035  0.795
 
band    10 # energy   -1.53939390 # occ.  0.00000000
 
ion      s     py     pz     px    dxy    dyz    dz2    dxz  x2-y2    tot
    1  0.002  0.002  0.000  0.006  0.212  0.000  0.165  0.000  0.071  0.459
    2  0.008  0.025  0.015  0.075  0.000  0.000  0.000  0.000  0.000  0.123
    3  0.008  0.025  0.015  0.075  0.000  0.000  0.000  0.000  0.000  0.123
tot    0.018  0.052  0.030  0.157  0.212  0.000  0.165  0.000  0.071  0.704
 
band    11 # energy   -1.24903118 # occ.  0.00000000
 
ion      s     py     pz     px    dxy    dyz    dz2    dxz  x2-y2    tot
    1  0.000  0.014  0.000  0.005  0.104  0.000  0.000  0.000  0.311  0.432
    2  0.000  0.130  0.000  0.043  0.000  0.000  0.000  0.000  0.000  0.173
    3  0.000  0.130  0.000  0.043  0.000  0.000  0.000  0.000  0.000  0.173
tot    0.000  0.274  0.000  0.091  0.104  0.000  0.000  0.000  0.311  0.779
 
band    12 # energy   -1.10026613 # occ.  0.00000000
 
ion      s     py     pz     px    dxy    dyz    dz2    dxz  x2-y2    tot
    1  0.000  0.000  0.008  0.000  0.000  0.128  0.000  0.384  0.000  0.520
    2  0.026  0.014  0.022  0.042  0.000  0.000  0.000  0.000  0.000  0.104
    3  0.026  0.014  0.022  0.042  0.000  0.000  0.000  0.000  0.000  0.104
tot    0.052  0.028  0.051  0.084  0.000  0.128  0.000  0.384  0.000  0.727
 
band    13 # energy   -0.24079725 # occ.  0.00000000
 
ion      s     py     pz     px    dxy    dyz    dz2    dxz  x2-y2    tot
    1  0.000  0.000  0.000  0.000  0.000  0.318  0.000  0.106  0.000  0.424
    2  0.000  0.132  0.000  0.044  0.000  0.000  0.000  0.000  0.000  0.176
    3  0.000  0.132  0.000  0.044  0.000  0.000  0.000  0.000  0.000  0.176
tot    0.000  0.265  0.000  0.088  0.000  0.318  0.000  0.106  0.000  0.777
 
band    14 # energy    2.48661705 # occ.  0.00000000
 
ion      s     py     pz     px    dxy    dyz    dz2    dxz  x2-y2    tot
    1  0.011  0.001  0.000  0.004  0.004  0.000  0.022  0.000  0.001  0.045
    2  0.008  0.002  0.003  0.005  0.000  0.000  0.000  0.000  0.000  0.017
    3  0.010  0.002  0.008  0.006  0.000  0.000  0.000  0.000  0.000  0.026
tot    0.030  0.005  0.011  0.015  0.004  0.000  0.022  0.000  0.001  0.088
 

 k-point     4 :    0.30000000-0.00000000 0.00000000     weight = 0.06000000

band     1 # energy  -16.74358058 # occ.  2.00000000
 
ion      s     py     pz     px    dxy    dyz    dz2    dxz  x2-y2    tot
    1  0.070  0.008  0.000  0.023  0.016  0.000  0.001  0.000  0.005  0.122
    2  0.297  0.001  0.005  0.002  0.000  0.000  0.000  0.000  0.000  0.305
    3  0.297  0.001  0.005  0.002  0.000  0.000  0.000  0.000  0.000  0.305
tot    0.664  0.009  0.011  0.026  0.016  0.000  0.001  0.000  0.005  0.731
 
band     2 # energy  -16.08321976 # occ.  2.00000000
 
ion      s     py     pz     px    dxy    dyz    dz2    dxz  x2-y2    tot
    1  0.000  0.000  0.029  0.000  0.000  0.016  0.000  0.049  0.000  0.095
    2  0.323  0.000  0.001  0.001  0.000  0.000  0.000  0.000  0.000  0.325
    3  0.323  0.000  0.001  0.001  0.000  0.000  0.000  0.000  0.000  0.325
tot    0.645  0.001  0.032  0.002  0.000  0.016  0.000  0.049  0.000  0.746
 
band     3 # energy   -8.81934911 # occ.  2.00000000
 
ion      s     py     pz     px    dxy    dyz    dz2    dxz  x2-y2    tot
    1  0.027  0.005  0.000  0.014  0.197  0.000  0.069  0.000  0.066  0.377
    2  0.004  0.020  0.062  0.060  0.000  0.000  0.000  0.000  0.000  0.146
    3  0.004  0.020  0.062  0.060  0.000  0.000  0.000  0.000  0.000  0.146
tot    0.035  0.045  0.124  0.135  0.197  0.000  0.069  0.000  0.066  0.669
 
band     4 # energy   -7.66276577 # occ.  2.00000000
 
ion      s     py     pz     px    dxy    dyz    dz2    dxz  x2-y2    tot
    1  0.000  0.000  0.023  0.000  0.000  0.066  0.000  0.199  0.000  0.288
    2  0.006  0.036  0.037  0.108  0.000  0.000  0.000  0.000  0.000  0.188
    3  0.006  0.036  0.038  0.108  0.000  0.000  0.000  0.000  0.000  0.188
tot    0.012  0.072  0.098  0.216  0.000  0.066  0.000  0.199  0.000  0.663
 
band     5 # energy   -7.63153593 # occ.  2.00000000
 
ion      s     py     pz     px    dxy    dyz    dz2    dxz  x2-y2    tot
    1  0.114  0.013  0.000  0.040  0.010  0.000  0.078  0.000  0.003  0.260
    2  0.029  0.018  0.088  0.053  0.000  0.000  0.000  0.000  0.000  0.188
    3  0.029  0.018  0.087  0.053  0.000  0.000  0.000  0.000  0.000  0.188
tot    0.173  0.049  0.175  0.147  0.010  0.000  0.078  0.000  0.003  0.636
 
band     6 # energy   -6.46557977 # occ.  2.00000000
 
ion      s     py     pz     px    dxy    dyz    dz2    dxz  x2-y2    tot
    1  0.000  0.000  0.000  0.000  0.000  0.369  0.000  0.123  0.000  0.491
    2  0.000  0.121  0.000  0.040  0.000  0.000  0.000  0.000  0.000  0.161
    3  0.000  0.121  0.000  0.040  0.000  0.000  0.000  0.000  0.000  0.161
tot    0.000  0.241  0.000  0.080  0.000  0.369  0.000  0.123  0.000  0.813
 
band     7 # energy   -5.28902046 # occ.  2.00000000
 
ion      s     py     pz     px    dxy    dyz    dz2    dxz  x2-y2    tot
    1  0.000  0.034  0.000  0.011  0.085  0.000  0.000  0.000  0.256  0.386
    2  0.000  0.144  0.000  0.048  0.000  0.000  0.000  0.000  0.000  0.192
    3  0.000  0.144  0.000  0.048  0.000  0.000  0.000  0.000  0.000  0.192
tot    0.000  0.322  0.000  0.107  0.085  0.000  0.000  0.000  0.256  0.770
 
band     8 # energy   -5.23168321 # occ.  2.00000000
 
ion      s     py     pz     px    dxy    dyz    dz2    dxz  x2-y2    tot
    1  0.000  0.000  0.055  0.000  0.000  0.013  0.000  0.040  0.000  0.109
    2  0.010  0.017  0.180  0.052  0.000  0.000  0.000  0.000  0.000  0.259
    3  0.010  0.017  0.180  0.052  0.000  0.000  0.000  0.000  0.000  0.259
tot    0.021  0.035  0.414  0.104  0.000  0.013  0.000  0.040  0.000  0.627
 
band     9 # energy   -4.66374662 # occ.  2.00000000
 
ion      s     py     pz     px    dxy    dyz    dz2    dxz  x2-y2    tot
    1  0.020  0.005  0.000  0.014  0.192  0.000  0.351  0.000  0.064  0.646
    2  0.006  0.005  0.037  0.015  0.000  0.000  0.000  0.000  0.000  0.063
    3  0.006  0.005  0.037  0.015  0.000  0.000  0.000  0.000  0.000  0.063
tot    0.032  0.015  0.073  0.045  0.192  0.000  0.351  0.000  0.064  0.772
 
band    10 # energy   -1.52322994 # occ.  0.00000000
 
ion      s     py     pz     px    dxy    dyz    dz2    dxz  x2-y2    tot
    1  0.000  0.010  0.000  0.003  0.145  0.000  0.000  0.000  0.435  0.593
    2  0.000  0.085  0.000  0.028  0.000  0.000  0.000  0.000  0.000  0.113
    3  0.000  0.085  0.000  0.028  0.000  0.000  0.000  0.000  0.000  0.113
tot    0.000  0.180  0.000  0.060  0.145  0.000  0.000  0.000  0.435  0.820
 
band    11 # energy   -1.50754269 # occ.  0.00000000
 
ion      s     py     pz     px    dxy    dyz    dz2    dxz  x2-y2    tot
    1  0.007  0.001  0.000  0.004  0.181  0.000  0.337  0.000  0.060  0.590
    2  0.004  0.013  0.021  0.040  0.000  0.000  0.000  0.000  0.000  0.079
    3  0.004  0.013  0.021  0.040  0.000  0.000  0.000  0.000  0.000  0.079
tot    0.015  0.028  0.043  0.084  0.181  0.000  0.337  0.000  0.060  0.748
 
band    12 # energy   -0.56416648 # occ.  0.00000000
 
ion      s     py     pz     px    dxy    dyz    dz2    dxz  x2-y2    tot
    1  0.000  0.000  0.017  0.000  0.000  0.124  0.000  0.371  0.000  0.512
    2  0.028  0.006  0.049  0.017  0.000  0.000  0.000  0.000  0.000  0.101
    3  0.028  0.006  0.049  0.017  0.000  0.000  0.000  0.000  0.000  0.101
tot    0.057  0.012  0.115  0.035  0.000  0.124  0.000  0.371  0.000  0.713
 
band    13 # energy    0.19661905 # occ.  0.00000000
 
ion      s     py     pz     px    dxy    dyz    dz2    dxz  x2-y2    tot
    1  0.000  0.000  0.000  0.000  0.000  0.343  0.000  0.114  0.000  0.457
    2  0.000  0.126  0.000  0.042  0.000  0.000  0.000  0.000  0.000  0.168
    3  0.000  0.126  0.000  0.042  0.000  0.000  0.000  0.000  0.000  0.168
tot    0.000  0.252  0.000  0.084  0.000  0.343  0.000  0.114  0.000  0.793
 
band    14 # energy    3.24397012 # occ.  0.00000000
 
ion      s     py     pz     px    dxy    dyz    dz2    dxz  x2-y2    tot
    1  0.013  0.005  0.000  0.014  0.008  0.000  0.017  0.000  0.003  0.060
    2  0.014  0.001  0.006  0.004  0.000  0.000  0.000  0.000  0.000  0.026
    3  0.013  0.001  0.002  0.003  0.000  0.000  0.000  0.000  0.000  0.019
tot    0.040  0.007  0.008  0.022  0.008  0.000  0.017  0.000  0.003  0.105
 

 k-point     5 :    0.40000000-0.00000000 0.00000000     weight = 0.06000000

band     1 # energy  -16.23716770 # occ.  2.00000000
 
ion      s     py     pz     px    dxy    dyz    dz2    dxz  x2-y2    tot
    1  0.036  0.011  0.000  0.033  0.029  0.000  0.000  0.000  0.010  0.119
    2  0.312  0.000  0.006  0.001  0.000  0.000  0.000  0.000  0.000  0.319
    3  0.312  0.000  0.006  0.001  0.000  0.000  0.000  0.000  0.000  0.319
tot    0.660  0.012  0.011  0.035  0.029  0.000  0.000  0.000  0.010  0.757
 
band     2 # energy  -15.85815711 # occ.  2.00000000
 
ion      s     py     pz     px    dxy    dyz    dz2    dxz  x2-y2    tot
    1  0.000  0.000  0.013  0.000  0.000  0.025  0.000  0.075  0.000  0.113
    2  0.327  0.000  0.002  0.001  0.000  0.000  0.000  0.000  0.000  0.331
    3  0.327  0.000  0.002  0.001  0.000  0.000  0.000  0.000  0.000  0.331
tot    0.655  0.000  0.018  0.001  0.000  0.025  0.000  0.075  0.000  0.774
 
band     3 # energy   -9.26289823 # occ.  2.00000000
 
ion      s     py     pz     px    dxy    dyz    dz2    dxz  x2-y2    tot
    1  0.090  0.005  0.000  0.016  0.123  0.000  0.028  0.000  0.041  0.303
    2  0.006  0.034  0.016  0.102  0.000  0.000  0.000  0.000  0.000  0.159
    3  0.006  0.034  0.016  0.102  0.000  0.000  0.000  0.000  0.000  0.159
tot    0.103  0.073  0.033  0.220  0.123  0.000  0.028  0.000  0.041  0.620
 
band     4 # energy   -8.27381669 # occ.  2.00000000
 
ion      s     py     pz     px    dxy    dyz    dz2    dxz  x2-y2    tot
    1  0.000  0.000  0.052  0.000  0.000  0.043  0.000  0.130  0.000  0.225
    2  0.010  0.042  0.017  0.125  0.000  0.000  0.000  0.000  0.000  0.194
    3  0.010  0.042  0.017  0.125  0.000  0.000  0.000  0.000  0.000  0.194
tot    0.019  0.084  0.086  0.251  0.000  0.043  0.000  0.130  0.000  0.613
 
band     5 # energy   -7.71333886 # occ.  2.00000000
 
ion      s     py     pz     px    dxy    dyz    dz2    dxz  x2-y2    tot
    1  0.034  0.012  0.000  0.035  0.091  0.000  0.109  0.000  0.030  0.311
    2  0.022  0.008  0.124  0.024  0.000  0.000  0.000  0.000  0.000  0.179
    3  0.022  0.008  0.124  0.024  0.000  0.000  0.000  0.000  0.000  0.179
tot    0.079  0.028  0.248  0.084  0.091  0.000  0.109  0.000  0.030  0.669
 
band     6 # energy   -6.79780075 # occ.  2.00000000
 
ion      s     py     pz     px    dxy    dyz    dz2    dxz  x2-y2    tot
    1  0.000  0.000  0.000  0.000  0.000  0.363  0.000  0.121  0.000  0.484
    2  0.000  0.122  0.000  0.041  0.000  0.000  0.000  0.000  0.000  0.163
    3  0.000  0.122  0.000  0.041  0.000  0.000  0.000  0.000  0.000  0.163
tot    0.000  0.244  0.000  0.081  0.000  0.363  0.000  0.121  0.000  0.809
 
band     7 # energy   -5.50365403 # occ.  2.00000000
 
ion      s     py     pz     px    dxy    dyz    dz2    dxz  x2-y2    tot
    1  0.000  0.000  0.033  0.000  0.000  0.036  0.000  0.107  0.000  0.176
    2  0.011  0.010  0.192  0.030  0.000  0.000  0.000  0.000  0.000  0.243
    3  0.011  0.010  0.192  0.030  0.000  0.000  0.000  0.000  0.000  0.243
tot    0.022  0.020  0.417  0.060  0.000  0.036  0.000  0.107  0.000  0.662
 
band     8 # energy   -4.87205528 # occ.  2.00000000
 
ion      s     py     pz     px    dxy    dyz    dz2    dxz  x2-y2    tot
    1  0.000  0.048  0.000  0.016  0.041  0.000  0.000  0.000  0.124  0.229
    2  0.000  0.185  0.000  0.062  0.000  0.000  0.000  0.000  0.000  0.247
    3  0.000  0.185  0.000  0.062  0.000  0.000  0.000  0.000  0.000  0.247
tot    0.000  0.418  0.000  0.139  0.041  0.000  0.000  0.000  0.124  0.722
 
band     9 # energy   -4.59879120 # occ.  2.00000000
 
ion      s     py     pz     px    dxy    dyz    dz2    dxz  x2-y2    tot
    1  0.017  0.018  0.000  0.055  0.148  0.000  0.282  0.000  0.049  0.571
    2  0.004  0.001  0.063  0.004  0.000  0.000  0.000  0.000  0.000  0.073
    3  0.004  0.001  0.063  0.004  0.000  0.000  0.000  0.000  0.000  0.073
tot    0.026  0.021  0.127  0.063  0.148  0.000  0.282  0.000  0.049  0.717
 
band    10 # energy   -1.59992706 # occ.  0.00000000
 
ion      s     py     pz     px    dxy    dyz    dz2    dxz  x2-y2    tot
    1  0.000  0.005  0.000  0.002  0.197  0.000  0.000  0.000  0.590  0.793
    2  0.000  0.037  0.000  0.012  0.000  0.000  0.000  0.000  0.000  0.049
    3  0.000  0.037  0.000  0.012  0.000  0.000  0.000  0.000  0.000  0.049
tot    0.000  0.078  0.000  0.026  0.197  0.000  0.000  0.000  0.590  0.891
 
band    11 # energy   -1.23494618 # occ.  0.00000000
 
ion      s     py     pz     px    dxy    dyz    dz2    dxz  x2-y2    tot
    1  0.012  0.002  0.000  0.005  0.194  0.000  0.454  0.000  0.065  0.731
    2  0.002  0.009  0.013  0.027  0.000  0.000  0.000  0.000  0.000  0.052
    3  0.002  0.009  0.013  0.027  0.000  0.000  0.000  0.000  0.000  0.052
tot    0.016  0.020  0.026  0.060  0.194  0.000  0.454  0.000  0.065  0.834
 
band    12 # energy   -0.03275793 # occ.  0.00000000
 
ion      s     py     pz     px    dxy    dyz    dz2    dxz  x2-y2    tot
    1  0.000  0.000  0.009  0.000  0.000  0.110  0.000  0.331  0.000  0.451
    2  0.028  0.003  0.069  0.010  0.000  0.000  0.000  0.000  0.000  0.110
    3  0.028  0.003  0.069  0.010  0.000  0.000  0.000  0.000  0.000  0.110