<?xml version="1.0" encoding="ISO-8859-1"?>
<modeling>
 <generator>
  <i name="program" type="string">vasp </i>
  <i name="version" type="string">5.4.4.18Apr17-6-g9f103f2a35  </i>
  <i name="subversion" type="string">(build Jun 30 2017 11:15:00) complex            parallel </i>
  <i name="platform" type="string">STALLO_VASP_5.4.4 </i>
  <i name="date" type="string">2019 11 08 </i>
  <i name="time" type="string">15:08:57 </i>
 </generator>
 <incar>
  <i type="string" name="PREC">normal    ! low/normal/accurate</i>
  <i type="string" name="ALGO"> Fast      ! Algorithm for electronic re</i>
  <i type="int" name="ISPIN">     1</i>
  <i type="int" name="NELMIN">     4</i>
  <i name="EDIFF">      0.00000100</i>
  <i type="int" name="NSW">     0</i>
  <i name="ENCUT">    450.00000000</i>
  <i type="int" name="NEDOS">  2401</i>
  <i type="logical" name="LREAL"> F  </i>
  <i name="EMIN">    -12.00000000</i>
  <i name="EMAX">     12.00000000</i>
  <i type="int" name="ISMEAR">    -5</i>
  <i name="SIGMA">      0.20000000</i>
  <i type="logical" name="LWAVE"> F  </i>
  <i type="int" name="LORBIT">    11</i>
  <i type="logical" name="LELF"> T  </i>
  <v type="int" name="KPOINT_BSE">    -1     0     0     0</v>
 </incar>
 <structure name="primitive_cell" >
  <crystal>
   <varray name="basis" >
    <v>       3.18985683       0.00000000       0.00000000 </v>
    <v>      -1.59492842       2.76249705       0.00000000 </v>
    <v>       0.00000000       0.00000000      30.79397887 </v>
   </varray>
   <i name="volume">    271.35562051 </i>
   <varray name="rec_basis" >
    <v>       0.31349369       0.18099567       0.00000000 </v>
    <v>       0.00000000       0.36199134       0.00000000 </v>
    <v>       0.00000000       0.00000000       0.03247388 </v>
   </varray>
  </crystal>
  <varray name="positions" >
   <v>       0.33333300      -0.33333300       0.12046214 </v>
   <v>      -0.33333400       0.33333300       0.17108384 </v>
   <v>      -0.33333300       0.33333300       0.06984045 </v>
  </varray>
 </structure>
 <varray name="primitive_index" >
  <v type="int" >        1 </v>
  <v type="int" >        3 </v>
  <v type="int" >        2 </v>
 </varray>
 <kpoints>
  <generation param="Gamma">
   <v type="int" name="divisions">      10       10        1 </v>
   <v name="usershift">      0.00000000       0.00000000       0.00000000 </v>
   <v name="genvec1">      0.10000000       0.00000000       0.00000000 </v>
   <v name="genvec2">      0.00000000       0.10000000       0.00000000 </v>
   <v name="genvec3">      0.00000000       0.00000000       1.00000000 </v>
   <v name="shift">      0.00000000       0.00000000       0.00000000 </v>
  </generation>
  <varray name="kpointlist" >
   <v>       0.00000000       0.00000000       0.00000000 </v>
   <v>       0.10000000      -0.00000000       0.00000000 </v>
   <v>       0.20000000      -0.00000000       0.00000000 </v>
   <v>       0.30000000      -0.00000000       0.00000000 </v>
   <v>       0.40000000      -0.00000000       0.00000000 </v>
   <v>       0.50000000      -0.00000000       0.00000000 </v>
   <v>       0.10000000       0.10000000       0.00000000 </v>
   <v>       0.20000000       0.10000000       0.00000000 </v>
   <v>       0.30000000       0.10000000       0.00000000 </v>
   <v>       0.40000000       0.10000000       0.00000000 </v>
   <v>       0.20000000       0.20000000       0.00000000 </v>
   <v>       0.30000000       0.20000000       0.00000000 </v>
   <v>       0.40000000       0.20000000       0.00000000 </v>
   <v>       0.30000000       0.30000000       0.00000000 </v>
  </varray>
  <varray name="weights" >
   <v>       0.01000000 </v>
   <v>       0.06000000 </v>
   <v>       0.06000000 </v>
   <v>       0.06000000 </v>
   <v>       0.06000000 </v>
   <v>       0.03000000 </v>
   <v>       0.06000000 </v>
   <v>       0.12000000 </v>
   <v>       0.12000000 </v>
   <v>       0.12000000 </v>
   <v>       0.06000000 </v>
   <v>       0.12000000 </v>
   <v>       0.06000000 </v>
   <v>       0.06000000 </v>
  </varray>
  <varray name="tetrahedronlist"  type="int" >
   <v type="int" >       12        2        2        2        7 </v>
   <v type="int" >       12        1        2        2        2 </v>
   <v type="int" >        6        1        1        2        2 </v>
   <v type="int" >        6        2        2        7        7 </v>
   <v type="int" >       12        3        7        7        8 </v>
   <v type="int" >       12        2        3        7        7 </v>
   <v type="int" >       12        2        2        3        7 </v>
   <v type="int" >       12        3        7        8        8 </v>
   <v type="int" >       12        3        3        7        8 </v>
   <v type="int" >       12        2        3        3        7 </v>
   <v type="int" >       12        4        8        8        9 </v>
   <v type="int" >       12        3        4        8        8 </v>
   <v type="int" >       12        3        3        4        8 </v>
   <v type="int" >       12        4        8        9        9 </v>
   <v type="int" >       12        4        4        8        9 </v>
   <v type="int" >       12        3        4        4        8 </v>
   <v type="int" >       12        5        9        9       10 </v>
   <v type="int" >       12        4        5        9        9 </v>
   <v type="int" >       12        4        4        5        9 </v>
   <v type="int" >       12        5        9       10       10 </v>
   <v type="int" >       12        5        5        9       10 </v>
   <v type="int" >       12        4        5        5        9 </v>
   <v type="int" >       12        6       10       10       10 </v>
   <v type="int" >       12        5        6       10       10 </v>
   <v type="int" >       12        5        5        6       10 </v>
   <v type="int" >        6        6        6       10       10 </v>
   <v type="int" >       12        5        6        6       10 </v>
   <v type="int" >       12        8        8        8       11 </v>
   <v type="int" >       12        7        8        8        8 </v>
   <v type="int" >        6        7        7        8        8 </v>
   <v type="int" >        6        8        8       11       11 </v>
   <v type="int" >       12        9       11       11       12 </v>
   <v type="int" >       12        8        9       11       11 </v>
   <v type="int" >       12        8        8        9       11 </v>
   <v type="int" >       12        9       11       12       12 </v>
   <v type="int" >       12        9        9       11       12 </v>
   <v type="int" >       12        8        9        9       11 </v>
   <v type="int" >       12       10       12       12       13 </v>
   <v type="int" >       12        9       10       12       12 </v>
   <v type="int" >       12        9        9       10       12 </v>
   <v type="int" >       12       10       12       13       13 </v>
   <v type="int" >       12       10       10       12       13 </v>
   <v type="int" >       12        9       10       10       12 </v>
   <v type="int" >        6       10       10       13       13 </v>
   <v type="int" >       12       10       10       10       13 </v>
   <v type="int" >       12       12       12       12       14 </v>
   <v type="int" >       12       11       12       12       12 </v>
   <v type="int" >        6       11       11       12       12 </v>
   <v type="int" >        6       12       12       14       14 </v>
   <v type="int" >       12       13       14       14       14 </v>
   <v type="int" >       12       12       13       14       14 </v>
   <v type="int" >       12       12       12       13       14 </v>
   <v type="int" >        6       13       13       14       14 </v>
   <v type="int" >       12       12       13       13       14 </v>
   <v type="int" >        6       14       14       14       14 </v>
  </varray>
  <i name="volumeweight">      0.00166667 </i>
 </kpoints>
 <parameters>
  <separator name="general" >
   <i type="string" name="SYSTEM">unknown system</i>
   <i type="logical" name="LCOMPAT"> F  </i>
  </separator>
  <separator name="electronic" >
   <i type="string" name="PREC">normal</i>
   <i name="ENMAX">    450.00000000</i>
   <i name="ENAUG">    345.27800000</i>
   <i name="EDIFF">      0.00000100</i>
   <i type="int" name="IALGO">    68</i>
   <i type="int" name="IWAVPR">    10</i>
   <i type="int" name="NBANDS">    14</i>
   <i name="NELECT">     18.00000000</i>
   <i type="int" name="TURBO">     0</i>
   <i type="int" name="IRESTART">     0</i>
   <i type="int" name="NREBOOT">     0</i>
   <i type="int" name="NMIN">     0</i>
   <i name="EREF">      0.00000000</i>
   <separator name="electronic smearing" >
    <i type="int" name="ISMEAR">    -5</i>
    <i name="SIGMA">      0.20000000</i>
    <i name="KSPACING">      0.50000000</i>
    <i type="logical" name="KGAMMA"> T  </i>
   </separator>
   <separator name="electronic projectors" >
    <i type="logical" name="LREAL"> F  </i>
    <v name="ROPT">      0.00000000      0.00000000</v>
    <i type="int" name="LMAXPAW">  -100</i>
    <i type="int" name="LMAXMIX">     2</i>
    <i type="logical" name="NLSPLINE"> F  </i>
   </separator>
   <separator name="electronic startup" >
    <i type="int" name="ISTART">     0</i>
    <i type="int" name="ICHARG">     2</i>
    <i type="int" name="INIWAV">     1</i>
   </separator>
   <separator name="electronic spin" >
    <i type="int" name="ISPIN">     1</i>
    <i type="logical" name="LNONCOLLINEAR"> F  </i>
    <v name="MAGMOM">      1.00000000      1.00000000      1.00000000</v>
    <i name="NUPDOWN">     -1.00000000</i>
    <i type="logical" name="LSORBIT"> F  </i>
    <v name="SAXIS">      0.00000000      0.00000000      1.00000000</v>
    <i type="logical" name="LSPIRAL"> F  </i>
    <v name="QSPIRAL">      0.00000000      0.00000000      0.00000000</v>
    <i type="logical" name="LZEROZ"> F  </i>
   </separator>
   <separator name="electronic exchange-correlation" >
    <i type="logical" name="LASPH"> F  </i>
    <i type="logical" name="LMETAGGA"> F  </i>
   </separator>
   <separator name="electronic convergence" >
    <i type="int" name="NELM">    60</i>
    <i type="int" name="NELMDL">    -5</i>
    <i type="int" name="NELMIN">     4</i>
    <i name="ENINI">    450.00000000</i>
    <separator name="electronic convergence detail" >
     <i type="logical" name="LDIAG"> T  </i>
     <i type="logical" name="LSUBROT"> F  </i>
     <i name="WEIMIN">      0.00000000</i>
     <i name="EBREAK">      0.00000002</i>
     <i name="DEPER">      0.30000000</i>
     <i type="int" name="NRMM">     4</i>
     <i name="TIME">      0.40000000</i>
    </separator>
   </separator>
   <separator name="electronic mixer" >
    <i name="AMIX">      0.40000000</i>
    <i name="BMIX">      1.00000000</i>
    <i name="AMIN">      0.10000000</i>
    <i name="AMIX_MAG">      1.60000000</i>
    <i name="BMIX_MAG">      1.00000000</i>
    <separator name="electronic mixer details" >
     <i type="int" name="IMIX">     4</i>
     <i type="logical" name="MIXFIRST"> F  </i>
     <i type="int" name="MAXMIX">   -45</i>
     <i name="WC">    100.00000000</i>
     <i type="int" name="INIMIX">     1</i>
     <i type="int" name="MIXPRE">     1</i>
     <i type="int" name="MREMOVE">     5</i>
    </separator>
   </separator>
   <separator name="electronic dipolcorrection" >
    <i type="logical" name="LDIPOL"> F  </i>
    <i type="logical" name="LMONO"> F  </i>
    <i type="int" name="IDIPOL">     0</i>
    <i name="EPSILON">      1.00000000</i>
    <v name="DIPOL">   -100.00000000   -100.00000000   -100.00000000</v>
    <i name="EFIELD">      0.00000000</i>
   </separator>
  </separator>
  <separator name="grids" >
   <i type="int" name="NGX">    18</i>
   <i type="int" name="NGY">    18</i>
   <i type="int" name="NGZ">   160</i>
   <i type="int" name="NGXF">    36</i>
   <i type="int" name="NGYF">    36</i>
   <i type="int" name="NGZF">   320</i>
   <i type="logical" name="ADDGRID"> F  </i>
  </separator>
  <separator name="ionic" >
   <i type="int" name="NSW">     0</i>
   <i type="int" name="IBRION">    -1</i>
   <i type="int" name="MDALGO">     0</i>
   <i type="int" name="ISIF">     2</i>
   <i name="PSTRESS">      0.00000000</i>
   <i name="EDIFFG">      0.00001000</i>
   <i type="int" name="NFREE">     0</i>
   <i name="POTIM">      0.50000000</i>
   <i name="SMASS">     -3.00000000</i>
   <i name="SCALEE">      1.00000000</i>
  </separator>
  <separator name="ionic md" >
   <i name="TEBEG">      0.00010000</i>
   <i name="TEEND">      0.00010000</i>
   <i type="int" name="NBLOCK">     1</i>
   <i type="int" name="KBLOCK">     1</i>
   <i type="int" name="NPACO">   256</i>
   <i name="APACO">     16.00000000</i>
  </separator>
  <separator name="symmetry" >
   <i type="int" name="ISYM">     2</i>
   <i name="SYMPREC">      0.00001000</i>
  </separator>
  <separator name="dos" >
   <i type="int" name="LORBIT">    11</i>
   <v name="RWIGS">     -1.00000000     -1.00000000</v>
   <i type="int" name="NEDOS">  2401</i>
   <i name="EMIN">    -12.00000000</i>
   <i name="EMAX">     12.00000000</i>
   <i name="EFERMI">      0.00000000</i>
  </separator>
  <separator name="writing" >
   <i type="int" name="NWRITE">     2</i>
   <i type="logical" name="LWAVE"> F  </i>
   <i type="logical" name="LDOWNSAMPLE"> F  </i>
   <i type="logical" name="LCHARG"> T  </i>
   <i type="logical" name="LPARD"> F  </i>
   <i type="logical" name="LVTOT"> F  </i>
   <i type="logical" name="LVHAR"> F  </i>
   <i type="logical" name="LELF"> T  </i>
   <i type="logical" name="LOPTICS"> F  </i>
   <v name="STM">      0.00000000      0.00000000      0.00000000      0.00000000      0.00000000      0.00000000      0.00000000</v>
  </separator>
  <separator name="performance" >
   <i type="int" name="NPAR">     2</i>
   <i type="int" name="NSIM">     4</i>
   <i type="int" name="NBLK">    -1</i>
   <i type="logical" name="LPLANE"> T  </i>
   <i type="logical" name="LSCALAPACK"> T  </i>
   <i type="logical" name="LSCAAWARE"> F  </i>
   <i type="logical" name="LSCALU"> F  </i>
   <i type="logical" name="LASYNC"> F  </i>
   <i type="logical" name="LORBITALREAL"> F  </i>
  </separator>
  <separator name="miscellaneous" >
   <i type="int" name="IDIOT">     3</i>
   <i type="int" name="ISPECIAL">     0</i>
   <i type="logical" name="LMUSIC"> F  </i>
   <v name="POMASS">     95.94000000     32.06600000</v>
   <v name="DARWINR">      0.00000000      0.00000000</v>
   <v name="DARWINV">      1.00000000      1.00000000</v>
   <i type="logical" name="LCORR"> T  </i>
  </separator>
  <i type="logical" name="GGA_COMPAT"> T  </i>
  <i type="logical" name="LBERRY"> F  </i>
  <i type="int" name="ICORELEVEL">     0</i>
  <i type="logical" name="LDAU"> F  </i>
  <i type="int" name="I_CONSTRAINED_M">     0</i>
  <separator name="electronic exchange-correlation" >
   <i type="string" name="GGA">--</i>
   <i type="int" name="VOSKOWN">     0</i>
   <i type="logical" name="LHFCALC"> F  </i>
   <i type="string" name="PRECFOCK"></i>
   <i type="logical" name="LSYMGRAD"> F  </i>
   <i type="logical" name="LHFONE"> F  </i>
   <i type="logical" name="LRHFCALC"> F  </i>
   <i type="logical" name="LTHOMAS"> F  </i>
   <i type="logical" name="LMODELHF"> F  </i>
   <i name="ENCUT4O">     -1.00000000</i>
   <i type="int" name="EXXOEP">     0</i>
   <i type="int" name="FOURORBIT">     0</i>
   <i name="AEXX">      0.00000000</i>
   <i name="HFALPHA">      0.00000000</i>
   <i name="MCALPHA">      0.00000000</i>
   <i name="ALDAX">      1.00000000</i>
   <i name="AGGAX">      1.00000000</i>
   <i name="ALDAC">      1.00000000</i>
   <i name="AGGAC">      1.00000000</i>
   <i type="int" name="NKREDX">     1</i>
   <i type="int" name="NKREDY">     1</i>
   <i type="int" name="NKREDZ">     1</i>
   <i type="logical" name="SHIFTRED"> F  </i>
   <i type="logical" name="ODDONLY"> F  </i>
   <i type="logical" name="EVENONLY"> F  </i>
   <i type="int" name="LMAXFOCK">     0</i>
   <i type="int" name="NMAXFOCKAE">     0</i>
   <i type="logical" name="LFOCKAEDFT"> F  </i>
   <i name="HFSCREEN">      0.00000000</i>
   <i name="HFSCREENC">      0.00000000</i>
   <i type="int" name="NBANDSGWLOW">     0</i>
  </separator>
  <separator name="vdW DFT" >
   <i type="logical" name="LUSE_VDW"> F  </i>
   <i name="Zab_VDW">     -0.84910000</i>
   <i name="PARAM1">      0.12340000</i>
   <i name="PARAM2">      1.00000000</i>
   <i name="PARAM3">      0.00000000</i>
  </separator>
  <separator name="model GW" >
   <i type="int" name="MODEL_GW">     0</i>
   <i name="MODEL_EPS0">     54.27112410</i>
   <i name="MODEL_ALPHA">      1.00000000</i>
  </separator>
  <separator name="linear response parameters" >
   <i type="logical" name="LEPSILON"> F  </i>
   <i type="logical" name="LRPA"> F  </i>
   <i type="logical" name="LNABLA"> F  </i>
   <i type="logical" name="LVEL"> F  </i>
   <i type="int" name="KINTER">     0</i>
   <i name="CSHIFT">      0.10000000</i>
   <i name="OMEGAMAX">     -1.00000000</i>
   <i name="DEG_THRESHOLD">      0.00200000</i>
   <i name="RTIME">     -0.10000000</i>
   <i name="WPLASMAI">      0.00000000</i>
   <v name="DFIELD">      0.00000000      0.00000000      0.00000000</v>
   <v name="WPLASMA">      0.00000000      0.00000000      0.00000000      0.00000000      0.00000000      0.00000000      0.00000000      0.00000000      0.00000000</v>
  </separator>
  <separator name="orbital magnetization" >
   <i type="logical" name="NUCIND"> F  </i>
   <v name="MAGPOS">      0.00000000      0.00000000      0.00000000</v>
   <i type="logical" name="LNICSALL"> T  </i>
   <i type="logical" name="ORBITALMAG"> F  </i>
   <i type="logical" name="LMAGBLOCH"> F  </i>
   <i type="logical" name="LCHIMAG"> F  </i>
   <i type="logical" name="LGAUGE"> T  </i>
   <i type="int" name="MAGATOM">     0</i>
   <v name="MAGDIPOL">      0.00000000      0.00000000      0.00000000</v>
   <v name="AVECCONST">      0.00000000      0.00000000      0.00000000</v>
  </separator>
  <separator name="response functions" >
   <i type="logical" name="LADDER"> F  </i>
   <i type="logical" name="LRPAFORCE"> F  </i>
   <i type="logical" name="LFXC"> F  </i>
   <i type="logical" name="LHARTREE"> T  </i>
   <i type="int" name="IBSE">     0</i>
   <v type="int" name="KPOINT">    -1     0     0     0</v>
   <i type="logical" name="LTCTE"> F  </i>
   <i type="logical" name="LTETE"> F  </i>
   <i type="logical" name="LTRIPLET"> F  </i>
   <i type="logical" name="LFXCEPS"> F  </i>
   <i type="logical" name="LFXHEG"> F  </i>
   <i type="int" name="NATURALO">     2</i>
   <i type="logical" name="L2ORDER"> F  </i>
   <i type="logical" name="LMP2LT"> F  </i>
   <i type="logical" name="LUSEW"> F  </i>
   <i name="ENCUTGW">     -2.00000000</i>
   <i name="ENCUTGWSOFT">     -2.00000000</i>
   <i name="ENCUTLF">     -1.00000000</i>
   <i type="int" name="LMAXMP2">    -1</i>
   <i name="SCISSOR">      0.00000000</i>
   <i type="int" name="NOMEGA">     0</i>
   <i type="int" name="NOMEGAR">     0</i>
   <i type="int" name="NBANDSGW">    -1</i>
   <i type="int" name="NBANDSO">    -1</i>
   <i type="int" name="NBANDSV">    -1</i>
   <i type="int" name="NELM">     1</i>
   <i type="int" name="NELMHF">     1</i>
   <i type="int" name="DIM">     3</i>
   <i type="int" name="ANTIRES">     0</i>
   <i name="OMEGAMAX">    -30.00000000</i>
   <i name="OMEGAMIN">    -30.00000000</i>
   <i name="OMEGATL">   -200.00000000</i>
   <i type="int" name="OMEGAGRID">   140</i>
   <i name="CSHIFT">     -0.10000000</i>
   <i type="logical" name="SELFENERGY"> F  </i>
   <i type="logical" name="LSPECTRAL"> F  </i>
   <i type="logical" name="LSPECTRALGW"> F  </i>
   <i type="logical" name="LSINGLES"> F  </i>
   <i type="logical" name="LFERMIGW"> F  </i>
   <i type="logical" name="ODDONLYGW"> F  </i>
   <i type="logical" name="EVENONLYGW"> F  </i>
   <i type="int" name="NKREDLFX">     1</i>
   <i type="int" name="NKREDLFY">     1</i>
   <i type="int" name="NKREDLFZ">     1</i>
   <i type="int" name="MAXMEM">  2800</i>
   <i type="int" name="TELESCOPE">     0</i>
   <i type="int" name="TAUPAR">     1</i>
   <i type="int" name="OMEGAPAR">    -1</i>
   <i name="LAMBDA">      1.00000000</i>
  </separator>
  <separator name="External order field" >
   <i name="OFIELD_KAPPA">      0.00000000</i>
   <v name="OFIELD_K">      0.00000000      0.00000000      0.00000000</v>
   <i name="OFIELD_Q6_NEAR">      0.00000000</i>
   <i name="OFIELD_Q6_FAR">      0.00000000</i>
   <i name="OFIELD_A">      0.00000000</i>
  </separator>
 </parameters>
 <atominfo>
  <atoms>       3 </atoms>
  <types>       2 </types>
  <array name="atoms" >
   <dimension dim="1">ion</dimension>
   <field type="string">element</field>
   <field type="int">atomtype</field>
   <set>
    <rc><c>Mo</c><c>   1</c></rc>
    <rc><c>S </c><c>   2</c></rc>
    <rc><c>S </c><c>   2</c></rc>
   </set>
  </array>
  <array name="atomtypes" >
   <dimension dim="1">type</dimension>
   <field type="int">atomspertype</field>
   <field type="string">element</field>
   <field>mass</field>
   <field>valence</field>
   <field type="string">pseudopotential</field>
   <set>
    <rc><c>   1</c><c>Mo</c><c>     95.94000000</c><c>      6.00000000</c><c> PAW_PBE Mo 08Apr2002                   </c></rc>
    <rc><c>   2</c><c>S </c><c>     32.06600000</c><c>      6.00000000</c><c>  PAW_PBE S 17Jan2003                   </c></rc>
   </set>
  </array>
 </atominfo>
 <structure name="initialpos" >
  <crystal>
   <varray name="basis" >
    <v>       3.18985683       0.00000000       0.00000000 </v>
    <v>      -1.59492842       2.76249705       0.00000000 </v>
    <v>       0.00000000       0.00000000      30.79397887 </v>
   </varray>
   <i name="volume">    271.35562051 </i>
   <varray name="rec_basis" >
    <v>       0.31349369       0.18099567       0.00000000 </v>
    <v>       0.00000000       0.36199134       0.00000000 </v>
    <v>       0.00000000       0.00000000       0.03247388 </v>
   </varray>
  </crystal>
  <varray name="positions" >
   <v>       0.33333300       0.66666700       0.12046214 </v>
   <v>       0.66666700       0.33333300       0.06984045 </v>
   <v>       0.66666600       0.33333300       0.17108384 </v>
  </varray>
 </structure>
 <calculation>
  <scstep>
   <time name="dav">    0.37    0.37</time>
   <time name="total">    0.43    0.48</time>
   <energy>
    <i name="alphaZ">     10.92610231 </i>
    <i name="ewald">   5354.53473861 </i>
    <i name="hartreedc">  -6027.92195658 </i>
    <i name="XCdc">    -36.28686252 </i>
    <i name="pawpsdc">    406.88651198 </i>
    <i name="pawaedc">   -329.34073203 </i>
    <i name="eentropy">      0.00000000 </i>
    <i name="bandstr">    -12.74833220 </i>
    <i name="atom">    771.15511399 </i>
    <i name="e_fr_energy">    137.20458357 </i>
    <i name="e_wo_entrp">    137.20458357 </i>
    <i name="e_0_energy">    137.20458357 </i>
   </energy>
  </scstep>
  <scstep>
   <time name="dav">    0.58    0.58</time>
   <time name="total">    0.58    0.58</time>
   <energy>
    <i name="e_fr_energy">     -6.02049864 </i>
    <i name="e_wo_entrp">     -6.02049864 </i>
    <i name="e_0_energy">     -6.02049864 </i>
   </energy>
  </scstep>
  <scstep>
   <time name="dav">    0.45    0.45</time>
   <time name="total">    0.45    0.45</time>
   <energy>
    <i name="e_fr_energy">    -23.04653192 </i>
    <i name="e_wo_entrp">    -23.04653192 </i>
    <i name="e_0_energy">    -23.04653192 </i>
   </energy>
  </scstep>
  <scstep>
   <time name="dav">    0.45    0.45</time>
   <time name="total">    0.45    0.45</time>
   <energy>
    <i name="e_fr_energy">    -23.39208731 </i>
    <i name="e_wo_entrp">    -23.39208731 </i>
    <i name="e_0_energy">    -23.39208731 </i>
   </energy>
  </scstep>
  <scstep>
   <time name="dav">    0.45    0.45</time>
   <time name="total">    0.49    0.49</time>
   <energy>
    <i name="e_fr_energy">    -23.40073883 </i>
    <i name="e_wo_entrp">    -23.40073883 </i>
    <i name="e_0_energy">    -23.40073883 </i>
   </energy>
  </scstep>
  <scstep>
   <time name="diag">    0.08    0.08</time>
   <time name="diis">    0.32    0.32</time>
   <time name="orth">    0.01    0.01</time>
   <time name="total">    0.49    0.49</time>
   <energy>
    <i name="e_fr_energy">    -22.23579700 </i>
    <i name="e_wo_entrp">    -22.23579700 </i>
    <i name="e_0_energy">    -22.23579700 </i>
   </energy>
  </scstep>
  <scstep>
   <time name="diag">    0.07    0.08</time>
   <time name="diis">    0.31    0.31</time>
   <time name="orth">    0.01    0.01</time>
   <time name="total">    0.48    0.48</time>
   <energy>
    <i name="e_fr_energy">    -21.86160759 </i>
    <i name="e_wo_entrp">    -21.86160759 </i>
    <i name="e_0_energy">    -21.86160759 </i>
   </energy>
  </scstep>
  <scstep>
   <time name="diag">    0.07    0.08</time>
   <time name="diis">    0.33    0.33</time>
   <time name="orth">    0.01    0.01</time>
   <time name="total">    0.50    0.50</time>
   <energy>
    <i name="e_fr_energy">    -21.80230539 </i>
    <i name="e_wo_entrp">    -21.80230539 </i>
    <i name="e_0_energy">    -21.80230539 </i>
   </energy>
  </scstep>
  <scstep>
   <time name="diag">    0.07    0.08</time>
   <time name="diis">    0.36    0.36</time>
   <time name="orth">    0.01    0.01</time>
   <time name="total">    0.53    0.53</time>
   <energy>
    <i name="e_fr_energy">    -21.79746278 </i>
    <i name="e_wo_entrp">    -21.79746278 </i>
    <i name="e_0_energy">    -21.79746278 </i>
   </energy>
  </scstep>
  <scstep>
   <time name="diag">    0.07    0.08</time>
   <time name="diis">    0.36    0.36</time>
   <time name="orth">    0.01    0.01</time>
   <time name="total">    0.53    0.53</time>
   <energy>
    <i name="e_fr_energy">    -21.79671875 </i>
    <i name="e_wo_entrp">    -21.79671875 </i>
    <i name="e_0_energy">    -21.79671875 </i>
   </energy>
  </scstep>
  <scstep>
   <time name="diag">    0.08    0.08</time>
   <time name="diis">    0.34    0.34</time>
   <time name="orth">    0.01    0.01</time>
   <time name="total">    0.51    0.51</time>
   <energy>
    <i name="e_fr_energy">    -21.79665282 </i>
    <i name="e_wo_entrp">    -21.79665282 </i>
    <i name="e_0_energy">    -21.79665282 </i>
   </energy>
  </scstep>
  <scstep>
   <time name="diag">    0.07    0.08</time>
   <time name="diis">    0.33    0.33</time>
   <time name="orth">    0.01    0.01</time>
   <time name="total">    0.50    0.50</time>
   <energy>
    <i name="e_fr_energy">    -21.79649261 </i>
    <i name="e_wo_entrp">    -21.79649261 </i>
    <i name="e_0_energy">    -21.79649261 </i>
   </energy>
  </scstep>
  <scstep>
   <time name="diag">    0.07    0.08</time>
   <time name="diis">    0.31    0.31</time>
   <time name="orth">    0.01    0.01</time>
   <time name="total">    0.49    0.49</time>
   <energy>
    <i name="e_fr_energy">    -21.79682600 </i>
    <i name="e_wo_entrp">    -21.79682600 </i>
    <i name="e_0_energy">    -21.79682600 </i>
   </energy>
  </scstep>
  <scstep>
   <time name="diag">    0.07    0.08</time>
   <time name="diis">    0.34    0.34</time>
   <time name="orth">    0.01    0.01</time>
   <time name="total">    0.51    0.51</time>
   <energy>
    <i name="e_fr_energy">    -21.79688490 </i>
    <i name="e_wo_entrp">    -21.79688490 </i>
    <i name="e_0_energy">    -21.79688490 </i>
   </energy>
  </scstep>
  <scstep>
   <time name="diag">    0.07    0.08</time>
   <time name="diis">    0.32    0.32</time>
   <time name="orth">    0.01    0.01</time>
   <time name="total">    0.50    0.50</time>
   <energy>
    <i name="e_fr_energy">    -21.79700874 </i>
    <i name="e_wo_entrp">    -21.79700874 </i>
    <i name="e_0_energy">    -21.79700874 </i>
   </energy>
  </scstep>
  <scstep>
   <time name="diag">    0.07    0.08</time>
   <time name="diis">    0.26    0.26</time>
   <time name="orth">    0.01    0.01</time>
   <time name="total">    0.43    0.44</time>
   <energy>
    <i name="e_fr_energy">    -21.79704895 </i>
    <i name="e_wo_entrp">    -21.79704895 </i>
    <i name="e_0_energy">    -21.79704895 </i>
   </energy>
  </scstep>
  <scstep>
   <time name="diag">    0.07    0.08</time>
   <time name="diis">    0.24    0.24</time>
   <time name="orth">    0.01    0.01</time>
   <time name="total">    0.41    0.41</time>
   <energy>
    <i name="e_fr_energy">    -21.79707949 </i>
    <i name="e_wo_entrp">    -21.79707949 </i>
    <i name="e_0_energy">    -21.79707949 </i>
   </energy>
  </scstep>
  <scstep>
   <time name="diag">    0.07    0.08</time>
   <time name="diis">    0.23    0.23</time>
   <time name="orth">    0.01    0.01</time>
   <time name="total">    0.40    0.40</time>
   <energy>
    <i name="e_fr_energy">    -21.79708428 </i>
    <i name="e_wo_entrp">    -21.79708428 </i>
    <i name="e_0_energy">    -21.79708428 </i>
   </energy>
  </scstep>
  <scstep>
   <time name="diag">    0.07    0.08</time>
   <time name="diis">    0.23    0.23</time>
   <time name="orth">    0.01    0.01</time>
   <time name="total">    0.40    0.40</time>
   <energy>
    <i name="e_fr_energy">    -21.79709096 </i>
    <i name="e_wo_entrp">    -21.79709096 </i>
    <i name="e_0_energy">    -21.79709096 </i>
   </energy>
  </scstep>
  <scstep>
   <time name="diag">    0.07    0.08</time>
   <time name="diis">    0.22    0.22</time>
   <time name="orth">    0.01    0.01</time>
   <time name="total">    0.39    0.39</time>
   <energy>
    <i name="e_fr_energy">    -21.79709354 </i>
    <i name="e_wo_entrp">    -21.79709354 </i>
    <i name="e_0_energy">    -21.79709354 </i>
   </energy>
  </scstep>
  <scstep>
   <time name="diag">    0.07    0.08</time>
   <time name="diis">    0.19    0.19</time>
   <time name="orth">    0.01    0.01</time>
   <time name="total">    0.36    0.36</time>
   <energy>
    <i name="e_fr_energy">    -21.79709460 </i>
    <i name="e_wo_entrp">    -21.79709460 </i>
    <i name="e_0_energy">    -21.79709460 </i>
   </energy>
  </scstep>
  <scstep>
   <time name="diag">    0.08    0.08</time>
   <time name="diis">    0.17    0.17</time>
   <time name="orth">    0.01    0.01</time>
   <time name="total">    0.31    0.31</time>
   <energy>
    <i name="alphaZ">     10.92610231 </i>
    <i name="ewald">   5354.53473861 </i>
    <i name="hartreedc">  -6041.39122727 </i>
    <i name="XCdc">    -35.17120762 </i>
    <i name="pawpsdc">    473.39889225 </i>
    <i name="pawaedc">   -397.60765818 </i>
    <i name="eentropy">      0.00000000 </i>
    <i name="bandstr">   -157.64184920 </i>
    <i name="atom">    771.15511399 </i>
    <i name="e_fr_energy">    -21.79709511 </i>
    <i name="e_wo_entrp">    -21.79709511 </i>
    <i name="e_0_energy">    -21.79709511 </i>
   </energy>
  </scstep>
  <structure>
   <crystal>
    <varray name="basis" >
     <v>       3.18985683       0.00000000       0.00000000 </v>
     <v>      -1.59492842       2.76249705       0.00000000 </v>
     <v>       0.00000000       0.00000000      30.79397887 </v>
    </varray>
    <i name="volume">    271.35562051 </i>
    <varray name="rec_basis" >
     <v>       0.31349369       0.18099567       0.00000000 </v>
     <v>       0.00000000       0.36199134       0.00000000 </v>
     <v>       0.00000000       0.00000000       0.03247388 </v>
    </varray>
   </crystal>
   <varray name="positions" >
    <v>       0.33333300       0.66666700       0.12046214 </v>
    <v>       0.66666700       0.33333300       0.06984045 </v>
    <v>       0.66666600       0.33333300       0.17108384 </v>
   </varray>
  </structure>
  <varray name="forces" >
   <v>      -0.00000000       0.00000000      -0.00000000 </v>
   <v>       0.00000000       0.00000000      -0.00037346 </v>
   <v>       0.00000000      -0.00000000       0.00037346 </v>
  </varray>
  <varray name="stress" >
   <v>      -0.03364062      -0.00000000       0.00000000 </v>
   <v>       0.00000000      -0.03364062       0.00000000 </v>
   <v>       0.00000000      -0.00000000      -0.11166982 </v>
  </varray>
  <energy>
   <i name="e_fr_energy">    -22.38836953 </i>
   <i name="e_wo_entrp">    -22.38836953 </i>
   <i name="e_0_energy">      0.00000000 </i>
  </energy>
  <time name="totalsc">   11.11   11.44</time>
  <eigenvalues>
   <array>
    <dimension dim="1">band</dimension>
    <dimension dim="2">kpoint</dimension>
    <dimension dim="3">spin</dimension>
    <field>eigene</field>
    <field>occ</field>
    <set>
     <set comment="spin 1">
      <set comment="kpoint 1">
       <r>  -17.8062    1.0000 </r>
       <r>  -16.5777    1.0000 </r>
       <r>   -9.3240    1.0000 </r>
       <r>   -6.3791    1.0000 </r>
       <r>   -6.3791    1.0000 </r>
       <r>   -5.4680    1.0000 </r>
       <r>   -5.2637    1.0000 </r>
       <r>   -5.2637    1.0000 </r>
       <r>   -3.7423    1.0000 </r>
       <r>   -0.9856    0.0000 </r>
       <r>   -0.9855    0.0000 </r>
       <r>   -0.7475    0.0000 </r>
       <r>   -0.7475    0.0000 </r>
       <r>    1.6669    0.0000 </r>
      </set>
      <set comment="kpoint 2">
       <r>  -17.6675    1.0000 </r>
       <r>  -16.5122    1.0000 </r>
       <r>   -9.1631    1.0000 </r>
       <r>   -6.6895    1.0000 </r>
       <r>   -6.2263    1.0000 </r>
       <r>   -6.1074    1.0000 </r>
       <r>   -5.4896    1.0000 </r>
       <r>   -4.8519    1.0000 </r>
       <r>   -3.8254    1.0000 </r>
       <r>   -1.1605    0.0000 </r>
       <r>   -1.1121    0.0000 </r>
       <r>   -0.9080    0.0000 </r>
       <r>   -0.7432    0.0000 </r>
       <r>    1.9191    0.0000 </r>
      </set>
      <set comment="kpoint 3">
       <r>  -17.2813    1.0000 </r>
       <r>  -16.3309    1.0000 </r>
       <r>   -8.8081    1.0000 </r>
       <r>   -7.3233    1.0000 </r>
       <r>   -6.8903    1.0000 </r>
       <r>   -5.9803    1.0000 </r>
       <r>   -5.8142    1.0000 </r>
       <r>   -4.8757    1.0000 </r>
       <r>   -4.1968    1.0000 </r>
       <r>   -1.5394    0.0000 </r>
       <r>   -1.2490    0.0000 </r>
       <r>   -1.1003    0.0000 </r>
       <r>   -0.2408    0.0000 </r>
       <r>    2.4866    0.0000 </r>
      </set>
      <set comment="kpoint 4">
       <r>  -16.7436    1.0000 </r>
       <r>  -16.0832    1.0000 </r>
       <r>   -8.8193    1.0000 </r>
       <r>   -7.6628    1.0000 </r>
       <r>   -7.6315    1.0000 </r>
       <r>   -6.4656    1.0000 </r>
       <r>   -5.2890    1.0000 </r>
       <r>   -5.2317    1.0000 </r>
       <r>   -4.6637    1.0000 </r>
       <r>   -1.5232    0.0000 </r>
       <r>   -1.5075    0.0000 </r>
       <r>   -0.5642    0.0000 </r>
       <r>    0.1966    0.0000 </r>
       <r>    3.2440    0.0000 </r>
      </set>
      <set comment="kpoint 5">
       <r>  -16.2372    1.0000 </r>
       <r>  -15.8582    1.0000 </r>
       <r>   -9.2629    1.0000 </r>
       <r>   -8.2738    1.0000 </r>
       <r>   -7.7133    1.0000 </r>
       <r>   -6.7978    1.0000 </r>
       <r>   -5.5037    1.0000 </r>
       <r>   -4.8721    1.0000 </r>
       <r>   -4.5988    1.0000 </r>
       <r>   -1.5999    0.0000 </r>
       <r>   -1.2349    0.0000 </r>
       <r>   -0.0328    0.0000 </r>
       <r>    0.4436    0.0000 </r>
       <r>    3.1048    0.0000 </r>
      </set>
      <set comment="kpoint 6">
       <r>  -16.0193    1.0000 </r>
       <r>  -15.7648    1.0000 </r>
       <r>   -9.4817    1.0000 </r>
       <r>   -8.5109    1.0000 </r>
       <r>   -7.8098    1.0000 </r>
       <r>   -6.9143    1.0000 </r>
       <r>   -5.5917    1.0000 </r>
       <r>   -4.7228    1.0000 </r>
       <r>   -4.3836    1.0000 </r>
       <r>   -1.5809    0.0000 </r>
       <r>   -1.0578    0.0000 </r>
       <r>    0.1594    0.0000 </r>
       <r>    0.5178    0.0000 </r>
       <r>    2.4277    0.0000 </r>
      </set>
      <set comment="kpoint 7">
       <r>  -17.4047    1.0000 </r>
       <r>  -16.3884    1.0000 </r>
       <r>   -8.8942    1.0000 </r>
       <r>   -7.1475    1.0000 </r>
       <r>   -6.5990    1.0000 </r>
       <r>   -6.0277    1.0000 </r>
       <r>   -5.9644    1.0000 </r>
       <r>   -4.6710    1.0000 </r>
       <r>   -4.0576    1.0000 </r>
       <r>   -1.4829    0.0000 </r>
       <r>   -1.2960    0.0000 </r>
       <r>   -1.1666    0.0000 </r>
       <r>   -0.3050    0.0000 </r>
       <r>    2.3194    0.0000 </r>
      </set>
      <set comment="kpoint 8">
       <r>  -16.9398    1.0000 </r>
       <r>  -16.1710    1.0000 </r>
       <r>   -8.6745    1.0000 </r>
       <r>   -7.5615    1.0000 </r>
       <r>   -7.2740    1.0000 </r>
       <r>   -6.6345    1.0000 </r>
       <r>   -5.6371    1.0000 </r>
       <r>   -4.8240    1.0000 </r>
       <r>   -4.4904    1.0000 </r>
       <r>   -1.7356    0.0000 </r>
       <r>   -1.3351    0.0000 </r>
       <r>   -1.0656    0.0000 </r>
       <r>    0.2158    0.0000 </r>
       <r>    3.0114    0.0000 </r>
      </set>
      <set comment="kpoint 9">
       <r>  -16.4076    1.0000 </r>
       <r>  -15.9269    1.0000 </r>
       <r>   -8.9689    1.0000 </r>
       <r>   -8.0619    1.0000 </r>
       <r>   -7.5858    1.0000 </r>
       <r>   -6.8688    1.0000 </r>
       <r>   -5.5295    1.0000 </r>
       <r>   -5.2307    1.0000 </r>
       <r>   -4.5340    1.0000 </r>
       <r>   -1.6494    0.0000 </r>
       <r>   -1.2930    0.0000 </r>
       <r>   -0.5099    0.0000 </r>
       <r>    0.4958    0.0000 </r>
       <r>    3.6864    0.0000 </r>
      </set>
      <set comment="kpoint 10">
       <r>  -16.0298    1.0000 </r>
       <r>  -15.7584    1.0000 </r>
       <r>   -9.2901    1.0000 </r>
       <r>   -8.5571    1.0000 </r>
       <r>   -7.7281    1.0000 </r>
       <r>   -6.9179    1.0000 </r>
       <r>   -5.5354    1.0000 </r>
       <r>   -5.4080    1.0000 </r>
       <r>   -4.2451    1.0000 </r>
       <r>   -1.5538    0.0000 </r>
       <r>   -1.0542    0.0000 </r>
       <r>   -0.0047    0.0000 </r>
       <r>    0.4443    0.0000 </r>
       <r>    2.7817    0.0000 </r>
      </set>
      <set comment="kpoint 11">
       <r>  -16.4726    1.0000 </r>
       <r>  -15.9506    1.0000 </r>
       <r>   -8.7738    1.0000 </r>
       <r>   -7.9286    1.0000 </r>
       <r>   -7.4592    1.0000 </r>
       <r>   -7.0417    1.0000 </r>
       <r>   -5.9850    1.0000 </r>
       <r>   -4.9738    1.0000 </r>
       <r>   -4.5285    1.0000 </r>
       <r>   -1.7294    0.0000 </r>
       <r>   -1.2624    0.0000 </r>
       <r>   -0.8915    0.0000 </r>
       <r>    0.6081    0.0000 </r>
       <r>    3.7770    0.0000 </r>
      </set>
      <set comment="kpoint 12">
       <r>  -16.0464    1.0000 </r>
       <r>  -15.7480    1.0000 </r>
       <r>   -8.9136    1.0000 </r>
       <r>   -8.6243    1.0000 </r>
       <r>   -7.4659    1.0000 </r>
       <r>   -6.9533    1.0000 </r>
       <r>   -6.4104    1.0000 </r>
       <r>   -5.3993    1.0000 </r>
       <r>   -4.2602    1.0000 </r>
       <r>   -1.5919    0.0000 </r>
       <r>   -1.0055    0.0000 </r>
       <r>   -0.5750    0.0000 </r>
       <r>    0.7575    0.0000 </r>
       <r>    3.5601    0.0000 </r>
      </set>
      <set comment="kpoint 13">
       <r>  -15.8688    1.0000 </r>
       <r>  -15.6633    1.0000 </r>
       <r>   -8.9341    1.0000 </r>
       <r>   -8.8928    1.0000 </r>
       <r>   -7.6632    1.0000 </r>
       <r>   -6.8271    1.0000 </r>
       <r>   -6.4665    1.0000 </r>
       <r>   -5.6584    1.0000 </r>
       <r>   -4.0098    1.0000 </r>
       <r>   -1.7735    0.0000 </r>
       <r>   -0.6341    0.0000 </r>
       <r>   -0.4321    0.0000 </r>
       <r>    0.7803    0.0000 </r>
       <r>    2.9715    0.0000 </r>
      </set>
      <set comment="kpoint 14">
       <r>  -15.8099    1.0000 </r>
       <r>  -15.6229    1.0000 </r>
       <r>   -9.0433    1.0000 </r>
       <r>   -8.5428    1.0000 </r>
       <r>   -7.5492    1.0000 </r>
       <r>   -7.2273    1.0000 </r>
       <r>   -6.7131    1.0000 </r>
       <r>   -5.7672    1.0000 </r>
       <r>   -3.8870    1.0000 </r>
       <r>   -1.9847    0.0000 </r>
       <r>   -0.6675    0.0000 </r>
       <r>   -0.4017    0.0000 </r>
       <r>    1.0139    0.0000 </r>
       <r>    3.4399    0.0000 </r>
      </set>
     </set>
    </set>
   </array>
  </eigenvalues>
  <separator name="orbital magnetization" >
   <v name="MAGDIPOLOUT">      0.00000000      0.00000000      0.00000000</v>
  </separator>
  <dos>
   <i name="efermi">     -3.73968750 </i>
   <total>
    <array>
     <dimension dim="1">gridpoints</dimension>
     <dimension dim="2">spin</dimension>
     <field>energy</field>
     <field>total</field>
     <field>integrated</field>
     <set>
      <set comment="spin 1">
       <r>   -12.0000     0.0000     4.0000 </r>
       <r>   -11.9900     0.0000     4.0000 </r>
       <r>   -11.9800     0.0000     4.0000 </r>
       <r>   -11.9700     0.0000     4.0000 </r>
       <r>   -11.9600     0.0000     4.0000 </r>
       <r>   -11.9500     0.0000     4.0000 </r>
       <r>   -11.9400     0.0000     4.0000 </r>
       <r>   -11.9300     0.0000     4.0000 </r>
       <r>   -11.9200     0.0000     4.0000 </r>
       <r>   -11.9100     0.0000     4.0000 </r>
       <r>   -11.9000     0.0000     4.0000 </r>
       <r>   -11.8900     0.0000     4.0000 </r>
       <r>   -11.8800     0.0000     4.0000 </r>
       <r>   -11.8700     0.0000     4.0000 </r>
       <r>   -11.8600     0.0000     4.0000 </r>
       <r>   -11.8500     0.0000     4.0000 </r>
       <r>   -11.8400     0.0000     4.0000 </r>
       <r>   -11.8300     0.0000     4.0000 </r>
       <r>   -11.8200     0.0000     4.0000 </r>
       <r>   -11.8100     0.0000     4.0000 </r>
       <r>   -11.8000     0.0000     4.0000 </r>
       <r>   -11.7900     0.0000     4.0000 </r>
       <r>   -11.7800     0.0000     4.0000 </r>
       <r>   -11.7700     0.0000     4.0000 </r>
       <r>   -11.7600     0.0000     4.0000 </r>
       <r>   -11.7500     0.0000     4.0000 </r>
       <r>   -11.7400     0.0000     4.0000 </r>
       <r>   -11.7300     0.0000     4.0000 </r>
       <r>   -11.7200     0.0000     4.0000 </r>
       <r>   -11.7100     0.0000     4.0000 </r>
       <r>   -11.7000     0.0000     4.0000 </r>
       <r>   -11.6900     0.0000     4.0000 </r>
       <r>   -11.6800     0.0000     4.0000 </r>
       <r>   -11.6700     0.0000     4.0000 </r>
       <r>   -11.6600     0.0000     4.0000 </r>
       <r>   -11.6500     0.0000     4.0000 </r>
       <r>   -11.6400     0.0000     4.0000 </r>
       <r>   -11.6300     0.0000     4.0000 </r>
       <r>   -11.6200     0.0000     4.0000 </r>
       <r>   -11.6100     0.0000     4.0000 </r>
       <r>   -11.6000     0.0000     4.0000 </r>
       <r>   -11.5900     0.0000     4.0000 </r>
       <r>   -11.5800     0.0000     4.0000 </r>
       <r>   -11.5700     0.0000     4.0000 </r>
       <r>   -11.5600     0.0000     4.0000 </r>
       <r>   -11.5500     0.0000     4.0000 </r>
       <r>   -11.5400     0.0000     4.0000 </r>
       <r>   -11.5300     0.0000     4.0000 </r>
       <r>   -11.5200     0.0000     4.0000 </r>
       <r>   -11.5100     0.0000     4.0000 </r>
       <r>   -11.5000     0.0000     4.0000 </r>
       <r>   -11.4900     0.0000     4.0000 </r>
       <r>   -11.4800     0.0000     4.0000 </r>
       <r>   -11.4700     0.0000     4.0000 </r>
       <r>   -11.4600     0.0000     4.0000 </r>
       <r>   -11.4500     0.0000     4.0000 </r>
       <r>   -11.4400     0.0000     4.0000 </r>
       <r>   -11.4300     0.0000     4.0000 </r>
       <r>   -11.4200     0.0000     4.0000 </r>
       <r>   -11.4100     0.0000     4.0000 </r>
       <r>   -11.4000     0.0000     4.0000 </r>
       <r>   -11.3900     0.0000     4.0000 </r>
       <r>   -11.3800     0.0000     4.0000 </r>
       <r>   -11.3700     0.0000     4.0000 </r>
       <r>   -11.3600     0.0000     4.0000 </r>
       <r>   -11.3500     0.0000     4.0000 </r>
       <r>   -11.3400     0.0000     4.0000 </r>
       <r>   -11.3300     0.0000     4.0000 </r>
       <r>   -11.3200     0.0000     4.0000 </r>
       <r>   -11.3100     0.0000     4.0000 </r>
       <r>   -11.3000     0.0000     4.0000 </r>
       <r>   -11.2900     0.0000     4.0000 </r>
       <r>   -11.2800     0.0000     4.0000 </r>
       <r>   -11.2700     0.0000     4.0000 </r>
       <r>   -11.2600     0.0000     4.0000 </r>
       <r>   -11.2500     0.0000     4.0000 </r>
       <r>   -11.2400     0.0000     4.0000 </r>
       <r>   -11.2300     0.0000     4.0000 </r>
       <r>   -11.2200     0.0000     4.0000 </r>
       <r>   -11.2100     0.0000     4.0000 </r>
       <r>   -11.2000     0.0000     4.0000 </r>
       <r>   -11.1900     0.0000     4.0000 </r>
       <r>   -11.1800     0.0000     4.0000 </r>
       <r>   -11.1700     0.0000     4.0000 </r>
       <r>   -11.1600     0.0000     4.0000 </r>
       <r>   -11.1500     0.0000     4.0000 </r>
       <r>   -11.1400     0.0000     4.0000 </r>
       <r>   -11.1300     0.0000     4.0000 </r>
       <r>   -11.1200     0.0000     4.0000 </r>
       <r>   -11.1100     0.0000     4.0000 </r>
       <r>   -11.1000     0.0000     4.0000 </r>
       <r>   -11.0900     0.0000     4.0000 </r>
       <r>   -11.0800     0.0000     4.0000 </r>
       <r>   -11.0700     0.0000     4.0000 </r>
       <r>   -11.0600     0.0000     4.0000 </r>
       <r>   -11.0500     0.0000     4.0000 </r>
       <r>   -11.0400     0.0000     4.0000 </r>
       <r>   -11.0300     0.0000     4.0000 </r>
       <r>   -11.0200     0.0000     4.0000 </r>
       <r>   -11.0100     0.0000     4.0000 </r>
       <r>   -11.0000     0.0000     4.0000 </r>
       <r>   -10.9900     0.0000     4.0000 </r>
       <r>   -10.9800     0.0000     4.0000 </r>
       <r>   -10.9700     0.0000     4.0000 </r>
       <r>   -10.9600     0.0000     4.0000 </r>
       <r>   -10.9500     0.0000     4.0000 </r>
       <r>   -10.9400     0.0000     4.0000 </r>
       <r>   -10.9300     0.0000     4.0000 </r>
       <r>   -10.9200     0.0000     4.0000 </r>
       <r>   -10.9100     0.0000     4.0000 </r>
       <r>   -10.9000     0.0000     4.0000 </r>
       <r>   -10.8900     0.0000     4.0000 </r>
       <r>   -10.8800     0.0000     4.0000 </r>
       <r>   -10.8700     0.0000     4.0000 </r>
       <r>   -10.8600     0.0000     4.0000 </r>
       <r>   -10.8500     0.0000     4.0000 </r>
       <r>   -10.8400     0.0000     4.0000 </r>
       <r>   -10.8300     0.0000     4.0000 </r>
       <r>   -10.8200     0.0000     4.0000 </r>
       <r>   -10.8100     0.0000     4.0000 </r>
       <r>   -10.8000     0.0000     4.0000 </r>
       <r>   -10.7900     0.0000     4.0000 </r>
       <r>   -10.7800     0.0000     4.0000 </r>
       <r>   -10.7700     0.0000     4.0000 </r>
       <r>   -10.7600     0.0000     4.0000 </r>
       <r>   -10.7500     0.0000     4.0000 </r>
       <r>   -10.7400     0.0000     4.0000 </r>
       <r>   -10.7300     0.0000     4.0000 </r>
       <r>   -10.7200     0.0000     4.0000 </r>
       <r>   -10.7100     0.0000     4.0000 </r>
       <r>   -10.7000     0.0000     4.0000 </r>
       <r>   -10.6900     0.0000     4.0000 </r>
       <r>   -10.6800     0.0000     4.0000 </r>
       <r>   -10.6700     0.0000     4.0000 </r>
       <r>   -10.6600     0.0000     4.0000 </r>
       <r>   -10.6500     0.0000     4.0000 </r>
       <r>   -10.6400     0.0000     4.0000 </r>
       <r>   -10.6300     0.0000     4.0000 </r>
       <r>   -10.6200     0.0000     4.0000 </r>
       <r>   -10.6100     0.0000     4.0000 </r>
       <r>   -10.6000     0.0000     4.0000 </r>
       <r>   -10.5900     0.0000     4.0000 </r>
       <r>   -10.5800     0.0000     4.0000 </r>
       <r>   -10.5700     0.0000     4.0000 </r>
       <r>   -10.5600     0.0000     4.0000 </r>
       <r>   -10.5500     0.0000     4.0000 </r>
       <r>   -10.5400     0.0000     4.0000 </r>
       <r>   -10.5300     0.0000     4.0000 </r>
       <r>   -10.5200     0.0000     4.0000 </r>
       <r>   -10.5100     0.0000     4.0000 </r>
       <r>   -10.5000     0.0000     4.0000 </r>
       <r>   -10.4900     0.0000     4.0000 </r>
       <r>   -10.4800     0.0000     4.0000 </r>
       <r>   -10.4700     0.0000     4.0000 </r>
       <r>   -10.4600     0.0000     4.0000 </r>
       <r>   -10.4500     0.0000     4.0000 </r>
       <r>   -10.4400     0.0000     4.0000 </r>
       <r>   -10.4300     0.0000     4.0000 </r>
       <r>   -10.4200     0.0000     4.0000 </r>
       <r>   -10.4100     0.0000     4.0000 </r>
       <r>   -10.4000     0.0000     4.0000 </r>
       <r>   -10.3900     0.0000     4.0000 </r>
       <r>   -10.3800     0.0000     4.0000 </r>
       <r>   -10.3700     0.0000     4.0000 </r>
       <r>   -10.3600     0.0000     4.0000 </r>
       <r>   -10.3500     0.0000     4.0000 </r>
       <r>   -10.3400     0.0000     4.0000 </r>
       <r>   -10.3300     0.0000     4.0000 </r>
       <r>   -10.3200     0.0000     4.0000 </r>
       <r>   -10.3100     0.0000     4.0000 </r>
       <r>   -10.3000     0.0000     4.0000 </r>
       <r>   -10.2900     0.0000     4.0000 </r>
       <r>   -10.2800     0.0000     4.0000 </r>
       <r>   -10.2700     0.0000     4.0000 </r>
       <r>   -10.2600     0.0000     4.0000 </r>
       <r>   -10.2500     0.0000     4.0000 </r>
       <r>   -10.2400     0.0000     4.0000 </r>
       <r>   -10.2300     0.0000     4.0000 </r>
       <r>   -10.2200     0.0000     4.0000 </r>
       <r>   -10.2100     0.0000     4.0000 </r>
       <r>   -10.2000     0.0000     4.0000 </r>
       <r>   -10.1900     0.0000     4.0000 </r>
       <r>   -10.1800     0.0000     4.0000 </r>
       <r>   -10.1700     0.0000     4.0000 </r>
       <r>   -10.1600     0.0000     4.0000 </r>
       <r>   -10.1500     0.0000     4.0000 </r>
       <r>   -10.1400     0.0000     4.0000 </r>
       <r>   -10.1300     0.0000     4.0000 </r>
       <r>   -10.1200     0.0000     4.0000 </r>
       <r>   -10.1100     0.0000     4.0000 </r>
       <r>   -10.1000     0.0000     4.0000 </r>
       <r>   -10.0900     0.0000     4.0000 </r>
       <r>   -10.0800     0.0000     4.0000 </r>
       <r>   -10.0700     0.0000     4.0000 </r>
       <r>   -10.0600     0.0000     4.0000 </r>
       <r>   -10.0500     0.0000     4.0000 </r>
       <r>   -10.0400     0.0000     4.0000 </r>
       <r>   -10.0300     0.0000     4.0000 </r>
       <r>   -10.0200     0.0000     4.0000 </r>
       <r>   -10.0100     0.0000     4.0000 </r>
       <r>   -10.0000     0.0000     4.0000 </r>
       <r>    -9.9900     0.0000     4.0000 </r>
       <r>    -9.9800     0.0000     4.0000 </r>
       <r>    -9.9700     0.0000     4.0000 </r>
       <r>    -9.9600     0.0000     4.0000 </r>
       <r>    -9.9500     0.0000     4.0000 </r>
       <r>    -9.9400     0.0000     4.0000 </r>
       <r>    -9.9300     0.0000     4.0000 </r>
       <r>    -9.9200     0.0000     4.0000 </r>
       <r>    -9.9100     0.0000     4.0000 </r>
       <r>    -9.9000     0.0000     4.0000 </r>
       <r>    -9.8900     0.0000     4.0000 </r>
       <r>    -9.8800     0.0000     4.0000 </r>
       <r>    -9.8700     0.0000     4.0000 </r>
       <r>    -9.8600     0.0000     4.0000 </r>
       <r>    -9.8500     0.0000     4.0000 </r>
       <r>    -9.8400     0.0000     4.0000 </r>
       <r>    -9.8300     0.0000     4.0000 </r>
       <r>    -9.8200     0.0000     4.0000 </r>
       <r>    -9.8100     0.0000     4.0000 </r>
       <r>    -9.8000     0.0000     4.0000 </r>
       <r>    -9.7900     0.0000     4.0000 </r>
       <r>    -9.7800     0.0000     4.0000 </r>
       <r>    -9.7700     0.0000     4.0000 </r>
       <r>    -9.7600     0.0000     4.0000 </r>
       <r>    -9.7500     0.0000     4.0000 </r>
       <r>    -9.7400     0.0000     4.0000 </r>
       <r>    -9.7300     0.0000     4.0000 </r>
       <r>    -9.7200     0.0000     4.0000 </r>
       <r>    -9.7100     0.0000     4.0000 </r>
       <r>    -9.7000     0.0000     4.0000 </r>
       <r>    -9.6900     0.0000     4.0000 </r>
       <r>    -9.6800     0.0000     4.0000 </r>
       <r>    -9.6700     0.0000     4.0000 </r>
       <r>    -9.6600     0.0000     4.0000 </r>
       <r>    -9.6500     0.0000     4.0000 </r>
       <r>    -9.6400     0.0000     4.0000 </r>
       <r>    -9.6300     0.0000     4.0000 </r>
       <r>    -9.6200     0.0000     4.0000 </r>
       <r>    -9.6100     0.0000     4.0000 </r>
       <r>    -9.6000     0.0000     4.0000 </r>
       <r>    -9.5900     0.0000     4.0000 </r>
       <r>    -9.5800     0.0000     4.0000 </r>
       <r>    -9.5700     0.0000     4.0000 </r>
       <r>    -9.5600     0.0000     4.0000 </r>
       <r>    -9.5500     0.0000     4.0000 </r>
       <r>    -9.5400     0.0000     4.0000 </r>
       <r>    -9.5300     0.0000     4.0000 </r>
       <r>    -9.5200     0.0000     4.0000 </r>
       <r>    -9.5100     0.0000     4.0000 </r>
       <r>    -9.5000     0.0000     4.0000 </r>
       <r>    -9.4900     0.0000     4.0000 </r>
       <r>    -9.4800     0.0154     4.0000 </r>
       <r>    -9.4700     0.1054     4.0006 </r>
       <r>    -9.4600     0.1953     4.0021 </r>
       <r>    -9.4500     0.2853     4.0045 </r>
       <r>    -9.4400     0.3752     4.0078 </r>
       <r>    -9.4300     0.4652     4.0120 </r>
       <r>    -9.4200     0.5551     4.0171 </r>
       <r>    -9.4100     0.6451     4.0231 </r>
       <r>    -9.4000     0.7350     4.0300 </r>
       <r>    -9.3900     0.8250     4.0378 </r>
       <r>    -9.3800     0.9149     4.0465 </r>
       <r>    -9.3700     1.0049     4.0561 </r>
       <r>    -9.3600     1.0948     4.0666 </r>
       <r>    -9.3500     1.1847     4.0780 </r>
       <r>    -9.3400     1.2747     4.0903 </r>
       <r>    -9.3300     1.3646     4.1035 </r>
       <r>    -9.3200     1.4730     4.1177 </r>
       <r>    -9.3100     1.6094     4.1331 </r>
       <r>    -9.3000     1.7457     4.1498 </r>
       <r>    -9.2900     1.5900     4.1679 </r>
       <r>    -9.2800     1.5363     4.1836 </r>
       <r>    -9.2700     1.4825     4.1987 </r>
       <r>    -9.2600     1.4639     4.2133 </r>
       <r>    -9.2500     1.5316     4.2282 </r>
       <r>    -9.2400     1.5992     4.2439 </r>
       <r>    -9.2300     1.6669     4.2602 </r>
       <r>    -9.2200     1.7345     4.2772 </r>
       <r>    -9.2100     1.8022     4.2949 </r>
       <r>    -9.2000     1.8698     4.3133 </r>
       <r>    -9.1900     1.9375     4.3323 </r>
       <r>    -9.1800     2.0051     4.3520 </r>
       <r>    -9.1700     2.0728     4.3724 </r>
       <r>    -9.1600     1.8289     4.3925 </r>
       <r>    -9.1500     1.8588     4.4110 </r>
       <r>    -9.1400     1.8886     4.4297 </r>
       <r>    -9.1300     1.9184     4.4487 </r>
       <r>    -9.1200     1.9482     4.4681 </r>
       <r>    -9.1100     1.9780     4.4877 </r>
       <r>    -9.1000     2.0079     4.5076 </r>
       <r>    -9.0900     2.0377     4.5279 </r>
       <r>    -9.0800     2.0675     4.5484 </r>
       <r>    -9.0700     2.0973     4.5692 </r>
       <r>    -9.0600     2.1271     4.5903 </r>
       <r>    -9.0500     2.1570     4.6118 </r>
       <r>    -9.0400     3.3319     4.6572 </r>
       <r>    -9.0300     3.5018     4.6914 </r>
       <r>    -9.0200     3.6718     4.7273 </r>
       <r>    -9.0100     3.8417     4.7648 </r>
       <r>    -9.0000     4.0117     4.8041 </r>
       <r>    -8.9900     4.1816     4.8451 </r>
       <r>    -8.9800     4.3516     4.8877 </r>
       <r>    -8.9700     4.5215     4.9321 </r>
       <r>    -8.9600     4.8286     4.9788 </r>
       <r>    -8.9500     5.1532     5.0287 </r>
       <r>    -8.9400     5.4777     5.0818 </r>
       <r>    -8.9300     5.2747     5.1372 </r>
       <r>    -8.9200     4.3061     5.1851 </r>
       <r>    -8.9100     3.5921     5.2236 </r>
       <r>    -8.9000     3.5114     5.2591 </r>
       <r>    -8.8900     3.4785     5.2939 </r>
       <r>    -8.8800     3.5351     5.3290 </r>
       <r>    -8.8700     3.5917     5.3646 </r>
       <r>    -8.8600     3.6483     5.4008 </r>
       <r>    -8.8500     3.7049     5.4376 </r>
       <r>    -8.8400     3.7615     5.4749 </r>
       <r>    -8.8300     3.8181     5.5128 </r>
       <r>    -8.8200     3.8747     5.5513 </r>
       <r>    -8.8100     5.2425     5.5964 </r>
       <r>    -8.8000     5.2940     5.6504 </r>
       <r>    -8.7900     5.0219     5.7020 </r>
       <r>    -8.7800     4.7497     5.7509 </r>
       <r>    -8.7700     4.5333     5.7971 </r>
       <r>    -8.7600     4.4083     5.8418 </r>
       <r>    -8.7500     4.2834     5.8853 </r>
       <r>    -8.7400     4.1584     5.9275 </r>
       <r>    -8.7300     4.0334     5.9685 </r>
       <r>    -8.7200     3.9085     6.0082 </r>
       <r>    -8.7100     3.7835     6.0466 </r>
       <r>    -8.7000     3.6585     6.0838 </r>
       <r>    -8.6900     3.5336     6.1198 </r>
       <r>    -8.6800     3.4086     6.1545 </r>
       <r>    -8.6700     1.6180     6.1802 </r>
       <r>    -8.6600     1.6906     6.1968 </r>
       <r>    -8.6500     1.7632     6.2141 </r>
       <r>    -8.6400     1.8358     6.2320 </r>
       <r>    -8.6300     1.9084     6.2508 </r>
       <r>    -8.6200     3.4717     6.2770 </r>
       <r>    -8.6100     3.1882     6.3103 </r>
       <r>    -8.6000     2.9047     6.3408 </r>
       <r>    -8.5900     2.6212     6.3684 </r>
       <r>    -8.5800     2.3377     6.3932 </r>
       <r>    -8.5700     2.0542     6.4151 </r>
       <r>    -8.5600     1.7707     6.4343 </r>
       <r>    -8.5500     3.4847     6.4657 </r>
       <r>    -8.5400     2.5921     6.5165 </r>
       <r>    -8.5300     2.2259     6.5406 </r>
       <r>    -8.5200     1.8597     6.5611 </r>
       <r>    -8.5100     1.5248     6.5778 </r>
       <r>    -8.5000     1.5012     6.5930 </r>
       <r>    -8.4900     1.4777     6.6079 </r>
       <r>    -8.4800     1.4541     6.6225 </r>
       <r>    -8.4700     1.4305     6.6370 </r>
       <r>    -8.4600     1.4069     6.6511 </r>
       <r>    -8.4500     1.3833     6.6651 </r>
       <r>    -8.4400     1.3597     6.6788 </r>
       <r>    -8.4300     1.3361     6.6923 </r>
       <r>    -8.4200     1.3126     6.7055 </r>
       <r>    -8.4100     1.2890     6.7185 </r>
       <r>    -8.4000     1.2654     6.7313 </r>
       <r>    -8.3900     1.2418     6.7438 </r>
       <r>    -8.3800     1.2182     6.7561 </r>
       <r>    -8.3700     1.1946     6.7682 </r>
       <r>    -8.3600     1.1710     6.7800 </r>
       <r>    -8.3500     1.1475     6.7916 </r>
       <r>    -8.3400     1.1239     6.8030 </r>
       <r>    -8.3300     1.1003     6.8141 </r>
       <r>    -8.3200     1.0767     6.8250 </r>
       <r>    -8.3100     1.0531     6.8356 </r>
       <r>    -8.3000     1.0295     6.8461 </r>
       <r>    -8.2900     1.0059     6.8562 </r>
       <r>    -8.2800     0.9824     6.8662 </r>
       <r>    -8.2700     0.9642     6.8759 </r>
       <r>    -8.2600     0.9549     6.8855 </r>
       <r>    -8.2500     0.9456     6.8950 </r>
       <r>    -8.2400     0.9363     6.9044 </r>
       <r>    -8.2300     0.9271     6.9137 </r>
       <r>    -8.2200     0.9178     6.9229 </r>
       <r>    -8.2100     0.9085     6.9321 </r>
       <r>    -8.2000     0.8992     6.9411 </r>
       <r>    -8.1900     0.8899     6.9501 </r>
       <r>    -8.1800     0.8806     6.9589 </r>
       <r>    -8.1700     0.8713     6.9677 </r>
       <r>    -8.1600     0.8620     6.9763 </r>
       <r>    -8.1500     0.8527     6.9849 </r>
       <r>    -8.1400     0.8434     6.9934 </r>
       <r>    -8.1300     0.8341     7.0018 </r>
       <r>    -8.1200     0.8248     7.0101 </r>
       <r>    -8.1100     0.8155     7.0183 </r>
       <r>    -8.1000     0.8062     7.0264 </r>
       <r>    -8.0900     0.7969     7.0344 </r>
       <r>    -8.0800     0.7876     7.0423 </r>
       <r>    -8.0700     0.7783     7.0501 </r>
       <r>    -8.0600     0.7726     7.0579 </r>
       <r>    -8.0500     0.7824     7.0657 </r>
       <r>    -8.0400     0.7922     7.0735 </r>
       <r>    -8.0300     0.8020     7.0815 </r>
       <r>    -8.0200     0.8118     7.0896 </r>
       <r>    -8.0100     0.8216     7.0977 </r>
       <r>    -8.0000     0.8314     7.1060 </r>
       <r>    -7.9900     0.8412     7.1144 </r>
       <r>    -7.9800     0.8510     7.1228 </r>
       <r>    -7.9700     0.8608     7.1314 </r>
       <r>    -7.9600     0.8706     7.1401 </r>
       <r>    -7.9500     0.8804     7.1488 </r>
       <r>    -7.9400     0.8902     7.1577 </r>
       <r>    -7.9300     0.9000     7.1666 </r>
       <r>    -7.9200     0.8996     7.1756 </r>
       <r>    -7.9100     0.8976     7.1846 </r>
       <r>    -7.9000     0.8957     7.1936 </r>
       <r>    -7.8900     0.8937     7.2025 </r>
       <r>    -7.8800     0.8917     7.2114 </r>
       <r>    -7.8700     0.8897     7.2203 </r>
       <r>    -7.8600     0.8877     7.2292 </r>
       <r>    -7.8500     0.8857     7.2381 </r>
       <r>    -7.8400     0.8838     7.2470 </r>
       <r>    -7.8300     0.8818     7.2558 </r>
       <r>    -7.8200     0.8798     7.2646 </r>
       <r>    -7.8100     0.8778     7.2734 </r>
       <r>    -7.8000     1.3518     7.2845 </r>
       <r>    -7.7900     1.8343     7.3004 </r>
       <r>    -7.7800     2.3167     7.3212 </r>
       <r>    -7.7700     2.7991     7.3467 </r>
       <r>    -7.7600     3.2815     7.3771 </r>
       <r>    -7.7500     3.7639     7.4124 </r>
       <r>    -7.7400     4.2463     7.4524 </r>
       <r>    -7.7300     4.7288     7.4973 </r>
       <r>    -7.7200     4.6899     7.5464 </r>
       <r>    -7.7100     4.2808     7.5906 </r>
       <r>    -7.7000     4.2972     7.6335 </r>
       <r>    -7.6900     4.3136     7.6765 </r>
       <r>    -7.6800     4.3300     7.7197 </r>
       <r>    -7.6700     4.3464     7.7631 </r>
       <r>    -7.6600     4.4639     7.8068 </r>
       <r>    -7.6500     4.7970     7.8531 </r>
       <r>    -7.6400     5.1301     7.9028 </r>
       <r>    -7.6300     5.3886     7.9557 </r>
       <r>    -7.6200     5.2360     8.0088 </r>
       <r>    -7.6100     5.0834     8.0604 </r>
       <r>    -7.6000     4.9307     8.1105 </r>
       <r>    -7.5900     4.7781     8.1590 </r>
       <r>    -7.5800     4.8889     8.2068 </r>
       <r>    -7.5700     5.1900     8.2572 </r>
       <r>    -7.5600     5.4497     8.3105 </r>
       <r>    -7.5500     5.7202     8.3664 </r>
       <r>    -7.5400     4.7786     8.4345 </r>
       <r>    -7.5300     4.8767     8.4827 </r>
       <r>    -7.5200     4.9749     8.5320 </r>
       <r>    -7.5100     5.0731     8.5822 </r>
       <r>    -7.5000     5.1713     8.6335 </r>
       <r>    -7.4900     5.2695     8.6857 </r>
       <r>    -7.4800     5.3677     8.7388 </r>
       <r>    -7.4700     5.4659     8.7930 </r>
       <r>    -7.4600     4.5233     8.8939 </r>
       <r>    -7.4500     2.1661     8.9166 </r>
       <r>    -7.4400     2.1347     8.9381 </r>
       <r>    -7.4300     2.1033     8.9593 </r>
       <r>    -7.4200     2.0719     8.9802 </r>
       <r>    -7.4100     2.0405     9.0007 </r>
       <r>    -7.4000     2.0091     9.0210 </r>
       <r>    -7.3900     1.9777     9.0409 </r>
       <r>    -7.3800     1.9463     9.0605 </r>
       <r>    -7.3700     1.9150     9.0798 </r>
       <r>    -7.3600     1.8836     9.0988 </r>
       <r>    -7.3500     1.8522     9.1175 </r>
       <r>    -7.3400     1.8208     9.1359 </r>
       <r>    -7.3300     1.7894     9.1539 </r>
       <r>    -7.3200     1.7560     9.1717 </r>
       <r>    -7.3100     1.7185     9.1890 </r>
       <r>    -7.3000     1.6810     9.2060 </r>
       <r>    -7.2900     1.6436     9.2227 </r>
       <r>    -7.2800     1.6061     9.2389 </r>
       <r>    -7.2700     1.1055     9.2529 </r>
       <r>    -7.2600     1.0852     9.2639 </r>
       <r>    -7.2500     1.0650     9.2746 </r>
       <r>    -7.2400     1.0447     9.2852 </r>
       <r>    -7.2300     1.0245     9.2955 </r>
       <r>    -7.2200     1.3262     9.3279 </r>
       <r>    -7.2100     1.3363     9.3412 </r>
       <r>    -7.2000     1.3465     9.3547 </r>
       <r>    -7.1900     1.3566     9.3682 </r>
       <r>    -7.1800     1.3667     9.3818 </r>
       <r>    -7.1700     1.3769     9.3955 </r>
       <r>    -7.1600     1.3870     9.4093 </r>
       <r>    -7.1500     1.3971     9.4232 </r>
       <r>    -7.1400     1.4192     9.4373 </r>
       <r>    -7.1300     1.4452     9.4516 </r>
       <r>    -7.1200     1.4712     9.4662 </r>
       <r>    -7.1100     1.4972     9.4811 </r>
       <r>    -7.1000     1.5233     9.4962 </r>
       <r>    -7.0900     1.5493     9.5115 </r>
       <r>    -7.0800     1.5753     9.5271 </r>
       <r>    -7.0700     1.6013     9.5430 </r>
       <r>    -7.0600     1.6274     9.5592 </r>
       <r>    -7.0500     1.6534     9.5756 </r>
       <r>    -7.0400     1.7384     9.5923 </r>
       <r>    -7.0300     2.1164     9.6116 </r>
       <r>    -7.0200     2.4945     9.6346 </r>
       <r>    -7.0100     2.8725     9.6615 </r>
       <r>    -7.0000     3.2506     9.6921 </r>
       <r>    -6.9900     3.6286     9.7265 </r>
       <r>    -6.9800     4.0067     9.7646 </r>
       <r>    -6.9700     4.3847     9.8066 </r>
       <r>    -6.9600     4.7628     9.8523 </r>
       <r>    -6.9500     3.6016     9.8964 </r>
       <r>    -6.9400     4.7603     9.9382 </r>
       <r>    -6.9300     5.9191     9.9916 </r>
       <r>    -6.9200     7.0778    10.0566 </r>
       <r>    -6.9100    10.0043    10.2098 </r>
       <r>    -6.9000     9.1236    10.3054 </r>
       <r>    -6.8900     8.2428    10.3922 </r>
       <r>    -6.8800     7.3614    10.4702 </r>
       <r>    -6.8700     6.4801    10.5395 </r>
       <r>    -6.8600     5.6916    10.6003 </r>
       <r>    -6.8500     4.9153    10.6533 </r>
       <r>    -6.8400     4.1390    10.6986 </r>
       <r>    -6.8300     3.3627    10.7361 </r>
       <r>    -6.8200     2.8761    10.7668 </r>
       <r>    -6.8100     2.5095    10.7938 </r>
       <r>    -6.8000     2.1429    10.8170 </r>
       <r>    -6.7900     2.0503    10.8377 </r>
       <r>    -6.7800     2.0349    10.8581 </r>
       <r>    -6.7700     2.0195    10.8784 </r>
       <r>    -6.7600     2.0040    10.8985 </r>
       <r>    -6.7500     1.9886    10.9185 </r>
       <r>    -6.7400     1.9732    10.9383 </r>
       <r>    -6.7300     1.9578    10.9579 </r>
       <r>    -6.7200     1.9424    10.9774 </r>
       <r>    -6.7100     2.4215    11.0183 </r>
       <r>    -6.7000     2.4316    11.0426 </r>
       <r>    -6.6900     2.4417    11.0670 </r>
       <r>    -6.6800     2.5669    11.0926 </r>
       <r>    -6.6700     2.5671    11.1182 </r>
       <r>    -6.6600     2.5673    11.1439 </r>
       <r>    -6.6500     2.5675    11.1696 </r>
       <r>    -6.6400     2.5676    11.1953 </r>
       <r>    -6.6300     2.4626    11.2205 </r>
       <r>    -6.6200     2.4446    11.2450 </r>
       <r>    -6.6100     2.4266    11.2694 </r>
       <r>    -6.6000     2.4086    11.2935 </r>
       <r>    -6.5900     2.3918    11.3175 </r>
       <r>    -6.5800     2.3751    11.3414 </r>
       <r>    -6.5700     2.3585    11.3650 </r>
       <r>    -6.5600     2.3418    11.3885 </r>
       <r>    -6.5500     2.3252    11.4119 </r>
       <r>    -6.5400     2.3086    11.4351 </r>
       <r>    -6.5300     2.2919    11.4581 </r>
       <r>    -6.5200     2.2753    11.4809 </r>
       <r>    -6.5100     2.2586    11.5036 </r>
       <r>    -6.5000     2.2420    11.5261 </r>
       <r>    -6.4900     2.2253    11.5484 </r>
       <r>    -6.4800     2.2087    11.5706 </r>
       <r>    -6.4700     2.1920    11.5926 </r>
       <r>    -6.4600     2.1198    11.6142 </r>
       <r>    -6.4500     2.0206    11.6349 </r>
       <r>    -6.4400     1.9214    11.6546 </r>
       <r>    -6.4300     1.8222    11.6734 </r>
       <r>    -6.4200     1.7230    11.6911 </r>
       <r>    -6.4100     1.5127    11.7078 </r>
       <r>    -6.4000     1.4958    11.7228 </r>
       <r>    -6.3900     1.4788    11.7377 </r>
       <r>    -6.3800     1.4618    11.7524 </r>
       <r>    -6.3700     1.5031    11.7672 </r>
       <r>    -6.3600     1.5500    11.7825 </r>
       <r>    -6.3500     1.5969    11.7982 </r>
       <r>    -6.3400     1.6437    11.8144 </r>
       <r>    -6.3300     1.6906    11.8311 </r>
       <r>    -6.3200     1.7374    11.8482 </r>
       <r>    -6.3100     1.7843    11.8658 </r>
       <r>    -6.3000     1.8312    11.8839 </r>
       <r>    -6.2900     1.8780    11.9024 </r>
       <r>    -6.2800     1.9249    11.9214 </r>
       <r>    -6.2700     1.9717    11.9409 </r>
       <r>    -6.2600     2.0186    11.9609 </r>
       <r>    -6.2500     2.0654    11.9813 </r>
       <r>    -6.2400     2.1123    12.0022 </r>
       <r>    -6.2300     2.1592    12.0235 </r>
       <r>    -6.2200     1.0673    12.0383 </r>
       <r>    -6.2100     1.0639    12.0490 </r>
       <r>    -6.2000     1.0604    12.0596 </r>
       <r>    -6.1900     1.0570    12.0702 </r>
       <r>    -6.1800     1.0535    12.0807 </r>
       <r>    -6.1700     1.0501    12.0913 </r>
       <r>    -6.1600     1.0466    12.1017 </r>
       <r>    -6.1500     1.0432    12.1122 </r>
       <r>    -6.1400     1.0397    12.1226 </r>
       <r>    -6.1300     1.0363    12.1330 </r>
       <r>    -6.1200     1.0329    12.1433 </r>
       <r>    -6.1100     1.0294    12.1536 </r>
       <r>    -6.1000     2.7530    12.1766 </r>
       <r>    -6.0900     2.7947    12.2043 </r>
       <r>    -6.0800     2.8363    12.2325 </r>
       <r>    -6.0700     2.8779    12.2611 </r>
       <r>    -6.0600     2.9195    12.2900 </r>
       <r>    -6.0500     2.9611    12.3194 </r>
       <r>    -6.0400     3.0027    12.3493 </r>
       <r>    -6.0300     3.0443    12.3795 </r>
       <r>    -6.0200     2.6787    12.4086 </r>
       <r>    -6.0100     2.1938    12.4329 </r>
       <r>    -6.0000     1.7089    12.4525 </r>
       <r>    -5.9900     1.2241    12.4671 </r>
       <r>    -5.9800     0.7646    12.4770 </r>
       <r>    -5.9700     0.7823    12.4847 </r>
       <r>    -5.9600     0.8439    12.4927 </r>
       <r>    -5.9500     0.9606    12.5017 </r>
       <r>    -5.9400     1.0773    12.5119 </r>
       <r>    -5.9300     1.1940    12.5233 </r>
       <r>    -5.9200     1.3107    12.5358 </r>
       <r>    -5.9100     1.4274    12.5495 </r>
       <r>    -5.9000     1.5440    12.5643 </r>
       <r>    -5.8900     1.6607    12.5804 </r>
       <r>    -5.8800     1.7774    12.5976 </r>
       <r>    -5.8700     1.8941    12.6159 </r>
       <r>    -5.8600     2.0108    12.6354 </r>
       <r>    -5.8500     2.1275    12.6561 </r>
       <r>    -5.8400     2.2442    12.6780 </r>
       <r>    -5.8300     2.3609    12.7010 </r>
       <r>    -5.8200     2.4776    12.7252 </r>
       <r>    -5.8100     2.5462    12.7505 </r>
       <r>    -5.8000     2.5492    12.7759 </r>
       <r>    -5.7900     2.5523    12.8015 </r>
       <r>    -5.7800     2.5553    12.8270 </r>
       <r>    -5.7700     2.5584    12.8526 </r>
       <r>    -5.7600     3.6416    12.9060 </r>
       <r>    -5.7500     3.6121    12.9422 </r>
       <r>    -5.7400     3.5825    12.9782 </r>
       <r>    -5.7300     3.5530    13.0139 </r>
       <r>    -5.7200     3.5234    13.0493 </r>
       <r>    -5.7100     3.4939    13.0844 </r>
       <r>    -5.7000     3.4643    13.1191 </r>
       <r>    -5.6900     3.4348    13.1536 </r>
       <r>    -5.6800     3.4052    13.1878 </r>
       <r>    -5.6700     3.3757    13.2217 </r>
       <r>    -5.6600     3.3461    13.2554 </r>
       <r>    -5.6500     3.3774    13.2889 </r>
       <r>    -5.6400     3.4203    13.3229 </r>
       <r>    -5.6300     2.7382    13.3522 </r>
       <r>    -5.6200     2.7624    13.3797 </r>
       <r>    -5.6100     2.7866    13.4075 </r>
       <r>    -5.6000     2.8108    13.4354 </r>
       <r>    -5.5900     2.9814    13.4638 </r>
       <r>    -5.5800     3.8683    13.4980 </r>
       <r>    -5.5700     4.7552    13.5412 </r>
       <r>    -5.5600     5.6420    13.5931 </r>
       <r>    -5.5500     6.5289    13.6540 </r>
       <r>    -5.5400     7.4158    13.7237 </r>
       <r>    -5.5300    11.7703    13.8056 </r>
       <r>    -5.5200     9.1194    13.9136 </r>
       <r>    -5.5100     5.7048    13.9878 </r>
       <r>    -5.5000     3.5154    14.0300 </r>
       <r>    -5.4900     3.4538    14.0648 </r>
       <r>    -5.4800     3.6579    14.1017 </r>
       <r>    -5.4700     3.5830    14.1379 </r>
       <r>    -5.4600     3.5104    14.1733 </r>
       <r>    -5.4500     3.4384    14.2081 </r>
       <r>    -5.4400     3.3664    14.2421 </r>
       <r>    -5.4300     3.2944    14.2754 </r>
       <r>    -5.4200     3.2224    14.3080 </r>
       <r>    -5.4100     3.1504    14.3399 </r>
       <r>    -5.4000     3.1478    14.3701 </r>
       <r>    -5.3900     3.0023    14.4008 </r>
       <r>    -5.3800     2.8663    14.4301 </r>
       <r>    -5.3700     2.7302    14.4581 </r>
       <r>    -5.3600     2.5942    14.4847 </r>
       <r>    -5.3500     2.4581    14.5100 </r>
       <r>    -5.3400     2.3221    14.5339 </r>
       <r>    -5.3300     2.1860    14.5564 </r>
       <r>    -5.3200     2.0500    14.5776 </r>
       <r>    -5.3100     1.9140    14.5974 </r>
       <r>    -5.3000     1.7779    14.6159 </r>
       <r>    -5.2900     1.6419    14.6330 </r>
       <r>    -5.2800     1.5855    14.6491 </r>
       <r>    -5.2700     1.5377    14.6647 </r>
       <r>    -5.2600     1.5013    14.6799 </r>
       <r>    -5.2500     1.4841    14.6948 </r>
       <r>    -5.2400     1.4670    14.7095 </r>
       <r>    -5.2300     2.7069    14.7256 </r>
       <r>    -5.2200     2.6833    14.7526 </r>
       <r>    -5.2100     2.6598    14.7793 </r>
       <r>    -5.2000     2.6362    14.8058 </r>
       <r>    -5.1900     2.6126    14.8320 </r>
       <r>    -5.1800     2.5890    14.8580 </r>
       <r>    -5.1700     2.5654    14.8838 </r>
       <r>    -5.1600     2.5418    14.9094 </r>
       <r>    -5.1500     2.5182    14.9347 </r>
       <r>    -5.1400     2.4946    14.9597 </r>
       <r>    -5.1300     2.4711    14.9845 </r>
       <r>    -5.1200     2.4475    15.0091 </r>
       <r>    -5.1100     2.4239    15.0335 </r>
       <r>    -5.1000     2.4003    15.0576 </r>
       <r>    -5.0900     2.3767    15.0815 </r>
       <r>    -5.0800     2.3531    15.1052 </r>
       <r>    -5.0700     2.3295    15.1286 </r>
       <r>    -5.0600     2.3060    15.1517 </r>
       <r>    -5.0500     2.2824    15.1747 </r>
       <r>    -5.0400     2.2588    15.1974 </r>
       <r>    -5.0300     2.2352    15.2199 </r>
       <r>    -5.0200     2.2116    15.2421 </r>
       <r>    -5.0100     2.1880    15.2641 </r>
       <r>    -5.0000     2.1644    15.2859 </r>
       <r>    -4.9900     2.1408    15.3074 </r>
       <r>    -4.9800     2.1173    15.3287 </r>
       <r>    -4.9700     2.1012    15.3497 </r>
       <r>    -4.9600     2.0973    15.3707 </r>
       <r>    -4.9500     2.0934    15.3917 </r>
       <r>    -4.9400     2.0895    15.4126 </r>
       <r>    -4.9300     2.0856    15.4335 </r>
       <r>    -4.9200     2.0817    15.4543 </r>
       <r>    -4.9100     2.0778    15.4751 </r>
       <r>    -4.9000     2.0738    15.4959 </r>
       <r>    -4.8900     2.0699    15.5166 </r>
       <r>    -4.8800     2.0660    15.5373 </r>
       <r>    -4.8700     2.3975    15.5589 </r>
       <r>    -4.8600     2.9832    15.5858 </r>
       <r>    -4.8500     3.8289    15.6191 </r>
       <r>    -4.8400     3.8138    15.6573 </r>
       <r>    -4.8300     3.7987    15.6954 </r>
       <r>    -4.8200     3.6720    15.7330 </r>
       <r>    -4.8100     3.4164    15.7685 </r>
       <r>    -4.8000     3.1609    15.8014 </r>
       <r>    -4.7900     2.9053    15.8317 </r>
       <r>    -4.7800     2.6498    15.8595 </r>
       <r>    -4.7700     2.3942    15.8847 </r>
       <r>    -4.7600     2.1387    15.9074 </r>
       <r>    -4.7500     1.8831    15.9275 </r>
       <r>    -4.7400     1.6276    15.9450 </r>
       <r>    -4.7300     1.3720    15.9600 </r>
       <r>    -4.7200     1.1239    15.9725 </r>
       <r>    -4.7100     0.8944    15.9826 </r>
       <r>    -4.7000     0.6649    15.9904 </r>
       <r>    -4.6900     0.4353    15.9959 </r>
       <r>    -4.6800     0.2058    15.9991 </r>
       <r>    -4.6700     0.0000    16.0000 </r>
       <r>    -4.6600     0.1578    16.0003 </r>
       <r>    -4.6500     0.5791    16.0040 </r>
       <r>    -4.6400     1.0003    16.0119 </r>
       <r>    -4.6300     1.4216    16.0240 </r>
       <r>    -4.6200     1.8428    16.0403 </r>
       <r>    -4.6100     2.2641    16.0608 </r>
       <r>    -4.6000     2.6853    16.0856 </r>
       <r>    -4.5900     2.7248    16.1129 </r>
       <r>    -4.5800     2.7118    16.1401 </r>
       <r>    -4.5700     2.6988    16.1671 </r>
       <r>    -4.5600     2.6858    16.1940 </r>
       <r>    -4.5500     2.6728    16.2208 </r>
       <r>    -4.5400     2.6598    16.2475 </r>
       <r>    -4.5300     7.1762    16.2832 </r>
       <r>    -4.5200     8.1463    16.3676 </r>
       <r>    -4.5100     7.2630    16.4447 </r>
       <r>    -4.5000     6.3797    16.5129 </r>
       <r>    -4.4900     2.6577    16.5710 </r>
       <r>    -4.4800     2.6750    16.5977 </r>
       <r>    -4.4700     2.6924    16.6245 </r>
       <r>    -4.4600     2.7097    16.6515 </r>
       <r>    -4.4500     2.7271    16.6787 </r>
       <r>    -4.4400     2.7444    16.7061 </r>
       <r>    -4.4300     2.7618    16.7336 </r>
       <r>    -4.4200     2.7791    16.7613 </r>
       <r>    -4.4100     2.7965    16.7892 </r>
       <r>    -4.4000     2.8138    16.8172 </r>
       <r>    -4.3900     2.8312    16.8455 </r>
       <r>    -4.3800     2.8421    16.8739 </r>
       <r>    -4.3700     2.8415    16.9023 </r>
       <r>    -4.3600     2.8410    16.9307 </r>
       <r>    -4.3500     2.8404    16.9591 </r>
       <r>    -4.3400     2.8398    16.9875 </r>
       <r>    -4.3300     2.8392    17.0159 </r>
       <r>    -4.3200     2.8386    17.0443 </r>
       <r>    -4.3100     2.8380    17.0727 </r>
       <r>    -4.3000     2.8374    17.1010 </r>
       <r>    -4.2900     2.8368    17.1294 </r>
       <r>    -4.2800     2.8362    17.1578 </r>
       <r>    -4.2700     2.8356    17.1861 </r>
       <r>    -4.2600     2.7112    17.2144 </r>
       <r>    -4.2500     2.7975    17.2420 </r>
       <r>    -4.2400     2.4579    17.2684 </r>
       <r>    -4.2300     2.4076    17.2927 </r>
       <r>    -4.2200     2.3572    17.3166 </r>
       <r>    -4.2100     2.3069    17.3399 </r>
       <r>    -4.2000     2.2565    17.3627 </r>
       <r>    -4.1900     2.2097    17.3850 </r>
       <r>    -4.1800     2.1645    17.4069 </r>
       <r>    -4.1700     2.1194    17.4283 </r>
       <r>    -4.1600     2.0742    17.4493 </r>
       <r>    -4.1500     2.0291    17.4698 </r>
       <r>    -4.1400     1.9839    17.4899 </r>
       <r>    -4.1300     1.9388    17.5095 </r>
       <r>    -4.1200     1.8936    17.5286 </r>
       <r>    -4.1100     1.8485    17.5474 </r>
       <r>    -4.1000     1.8033    17.5656 </r>
       <r>    -4.0900     1.7582    17.5834 </r>
       <r>    -4.0800     1.7130    17.6008 </r>
       <r>    -4.0700     1.6679    17.6177 </r>
       <r>    -4.0600     1.6227    17.6341 </r>
       <r>    -4.0500     1.5732    17.6501 </r>
       <r>    -4.0400     1.5223    17.6656 </r>
       <r>    -4.0300     1.4714    17.6806 </r>
       <r>    -4.0200     1.4205    17.6950 </r>
       <r>    -4.0100     1.3696    17.7090 </r>
       <r>    -4.0000     1.3812    17.7227 </r>
       <r>    -3.9900     1.3943    17.7366 </r>
[...]
        <r>  0.0001  0.0240  0.0105  0.0057  0.0000  0.0000  0.0000  0.0000  0.0000 </r>
        <r>  0.0001  0.0240  0.0105  0.0057  0.0000  0.0000  0.0000  0.0000  0.0000 </r>
       </set>
       <set comment="band 11">
        <r>  0.0134  0.0050  0.0000  0.0109  0.3316  0.0000  0.2954  0.0000  0.1496 </r>
        <r>  0.0021  0.0029  0.0135  0.0201  0.0000  0.0000  0.0000  0.0000  0.0000 </r>
        <r>  0.0021  0.0029  0.0135  0.0201  0.0000  0.0000  0.0000  0.0000  0.0000 </r>
       </set>
       <set comment="band 12">
        <r>  0.0000  0.0000  0.0061  0.0000  0.0000  0.1405  0.0000  0.3414  0.0000 </r>
        <r>  0.0116  0.0697  0.0219  0.0115  0.0000  0.0000  0.0000  0.0000  0.0000 </r>
        <r>  0.0116  0.0697  0.0219  0.0115  0.0000  0.0000  0.0000  0.0000  0.0000 </r>
       </set>
       <set comment="band 13">
        <r>  0.0000  0.0000  0.0002  0.0000  0.0000  0.3397  0.0000  0.1160  0.0000 </r>
        <r>  0.0165  0.0225  0.0572  0.0330  0.0000  0.0000  0.0000  0.0000  0.0000 </r>
        <r>  0.0165  0.0225  0.0572  0.0330  0.0000  0.0000  0.0000  0.0000  0.0000 </r>
       </set>
       <set comment="band 14">
        <r>  0.2056  0.0089  0.0000  0.0448  0.0423  0.0000  0.0047  0.0000  0.0309 </r>
        <r>  0.0000  0.0014  0.0089  0.0046  0.0000  0.0000  0.0000  0.0000  0.0000 </r>
        <r>  0.0000  0.0014  0.0089  0.0046  0.0000  0.0000  0.0000  0.0000  0.0000 </r>
       </set>
      </set>
      <set comment="kpoint 11">
       <set comment="band 1">
        <r>  0.0522  0.0267  0.0000  0.0116  0.0102  0.0000  0.0007  0.0000  0.0179 </r>
        <r>  0.3044  0.0017  0.0054  0.0006  0.0000  0.0000  0.0000  0.0000  0.0000 </r>
        <r>  0.3044  0.0017  0.0054  0.0006  0.0000  0.0000  0.0000  0.0000  0.0000 </r>
       </set>
       <set comment="band 2">
        <r>  0.0000  0.0000  0.0215  0.0000  0.0000  0.0567  0.0000  0.0242  0.0000 </r>
        <r>  0.3257  0.0009  0.0019  0.0004  0.0000  0.0000  0.0000  0.0000  0.0000 </r>
        <r>  0.3257  0.0009  0.0019  0.0004  0.0000  0.0000  0.0000  0.0000  0.0000 </r>
       </set>
       <set comment="band 3">
        <r>  0.0182  0.0128  0.0000  0.0254  0.0603  0.0000  0.0679  0.0000  0.1738 </r>
        <r>  0.0002  0.0796  0.0428  0.0265  0.0000  0.0000  0.0000  0.0000  0.0000 </r>
        <r>  0.0002  0.0796  0.0428  0.0265  0.0000  0.0000  0.0000  0.0000  0.0000 </r>
       </set>
       <set comment="band 4">
        <r>  0.0000  0.0000  0.0131  0.0000  0.0000  0.0885  0.0000  0.2373  0.0000 </r>
        <r>  0.0057  0.1071  0.0024  0.0614  0.0000  0.0000  0.0000  0.0000  0.0000 </r>
        <r>  0.0057  0.1071  0.0024  0.0614  0.0000  0.0000  0.0000  0.0000  0.0000 </r>
       </set>
       <set comment="band 5">
        <r>  0.1315  0.0246  0.0000  0.0090  0.0394  0.0000  0.0224  0.0000  0.0132 </r>
        <r>  0.0360  0.0347  0.1214  0.0127  0.0000  0.0000  0.0000  0.0000  0.0000 </r>
        <r>  0.0360  0.0347  0.1214  0.0127  0.0000  0.0000  0.0000  0.0000  0.0000 </r>
       </set>
       <set comment="band 6">
        <r>  0.0000  0.0000  0.0156  0.0000  0.0000  0.2491  0.0000  0.0841  0.0000 </r>
        <r>  0.0037  0.0431  0.0663  0.0676  0.0000  0.0000  0.0000  0.0000  0.0000 </r>
        <r>  0.0037  0.0431  0.0663  0.0676  0.0000  0.0000  0.0000  0.0000  0.0000 </r>
       </set>
       <set comment="band 7">
        <r>  0.0110  0.0482  0.0000  0.0296  0.0382  0.0000  0.1402  0.0000  0.0435 </r>
        <r>  0.0008  0.0441  0.0000  0.1307  0.0000  0.0000  0.0000  0.0000  0.0000 </r>
        <r>  0.0008  0.0441  0.0000  0.1307  0.0000  0.0000  0.0000  0.0000  0.0000 </r>
       </set>
       <set comment="band 8">
        <r>  0.0000  0.0000  0.0698  0.0000  0.0000  0.0220  0.0000  0.0432  0.0000 </r>
        <r>  0.0089  0.0525  0.1474  0.0584  0.0000  0.0000  0.0000  0.0000  0.0000 </r>
        <r>  0.0089  0.0525  0.1474  0.0584  0.0000  0.0000  0.0000  0.0000  0.0000 </r>
       </set>
       <set comment="band 9">
        <r>  0.0001  0.0005  0.0000  0.0004  0.2254  0.0000  0.2056  0.0000  0.2257 </r>
        <r>  0.0039  0.0284  0.0138  0.0378  0.0000  0.0000  0.0000  0.0000  0.0000 </r>
        <r>  0.0039  0.0284  0.0138  0.0378  0.0000  0.0000  0.0000  0.0000  0.0000 </r>
       </set>
       <set comment="band 10">
        <r>  0.0086  0.0129  0.0000  0.0063  0.1941  0.0000  0.1062  0.0000  0.2344 </r>
        <r>  0.0035  0.0299  0.0324  0.0155  0.0000  0.0000  0.0000  0.0000  0.0000 </r>
        <r>  0.0035  0.0299  0.0324  0.0155  0.0000  0.0000  0.0000  0.0000  0.0000 </r>
       </set>
       <set comment="band 11">
        <r>  0.0165  0.0012  0.0000  0.0005  0.3234  0.0000  0.3228  0.0000  0.1117 </r>
        <r>  0.0000  0.0190  0.0039  0.0324  0.0000  0.0000  0.0000  0.0000  0.0000 </r>
        <r>  0.0000  0.0190  0.0039  0.0324  0.0000  0.0000  0.0000  0.0000  0.0000 </r>
       </set>
       <set comment="band 12">
        <r>  0.0000  0.0000  0.0024  0.0000  0.0000  0.1546  0.0000  0.3989  0.0000 </r>
        <r>  0.0188  0.0202  0.0198  0.0219  0.0000  0.0000  0.0000  0.0000  0.0000 </r>
        <r>  0.0188  0.0202  0.0198  0.0219  0.0000  0.0000  0.0000  0.0000  0.0000 </r>
       </set>
       <set comment="band 13">
        <r>  0.0000  0.0000  0.0029  0.0000  0.0000  0.3666  0.0000  0.1342  0.0000 </r>
        <r>  0.0112  0.0242  0.0388  0.0681  0.0000  0.0000  0.0000  0.0000  0.0000 </r>
        <r>  0.0112  0.0242  0.0388  0.0681  0.0000  0.0000  0.0000  0.0000  0.0000 </r>
       </set>
       <set comment="band 14">
        <r>  0.0017  0.0185  0.0000  0.0118  0.0039  0.0000  0.0104  0.0000  0.0118 </r>
        <r>  0.0069  0.0042  0.0074  0.0017  0.0000  0.0000  0.0000  0.0000  0.0000 </r>
        <r>  0.0072  0.0047  0.0099  0.0016  0.0000  0.0000  0.0000  0.0000  0.0000 </r>
       </set>
      </set>
      <set comment="kpoint 12">
       <set comment="band 1">
        <r>  0.0219  0.0268  0.0000  0.0237  0.0232  0.0000  0.0004  0.0000  0.0211 </r>
        <r>  0.3178  0.0008  0.0059  0.0003  0.0000  0.0000  0.0000  0.0000  0.0000 </r>
        <r>  0.3178  0.0008  0.0059  0.0003  0.0000  0.0000  0.0000  0.0000  0.0000 </r>
       </set>
       <set comment="band 2">
        <r>  0.0000  0.0000  0.0082  0.0000  0.0000  0.0561  0.0000  0.0510  0.0000 </r>
        <r>  0.3312  0.0004  0.0026  0.0003  0.0000  0.0000  0.0000  0.0000  0.0000 </r>
        <r>  0.3312  0.0004  0.0026  0.0003  0.0000  0.0000  0.0000  0.0000  0.0000 </r>
       </set>
       <set comment="band 3">
        <r>  0.0751  0.0033  0.0000  0.0333  0.0525  0.0000  0.0526  0.0000  0.0800 </r>
        <r>  0.0014  0.0774  0.0146  0.0668  0.0000  0.0000  0.0000  0.0000  0.0000 </r>
        <r>  0.0014  0.0774  0.0146  0.0668  0.0000  0.0000  0.0000  0.0000  0.0000 </r>
       </set>
       <set comment="band 4">
        <r>  0.0000  0.0000  0.0132  0.0000  0.0000  0.1066  0.0000  0.2211  0.0000 </r>
        <r>  0.0047  0.0769  0.0011  0.0847  0.0000  0.0000  0.0000  0.0000  0.0000 </r>
        <r>  0.0047  0.0769  0.0011  0.0847  0.0000  0.0000  0.0000  0.0000  0.0000 </r>
       </set>
       <set comment="band 5">
        <r>  0.0534  0.0314  0.0000  0.0081  0.0972  0.0000  0.0382  0.0000  0.0467 </r>
        <r>  0.0279  0.0068  0.1353  0.0298  0.0000  0.0000  0.0000  0.0000  0.0000 </r>
        <r>  0.0279  0.0068  0.1353  0.0298  0.0000  0.0000  0.0000  0.0000  0.0000 </r>
       </set>
       <set comment="band 6">
        <r>  0.0000  0.0000  0.0441  0.0000  0.0000  0.2287  0.0000  0.0118  0.0000 </r>
        <r>  0.0035  0.0846  0.0479  0.0619  0.0000  0.0000  0.0000  0.0000  0.0000 </r>
        <r>  0.0035  0.0846  0.0479  0.0619  0.0000  0.0000  0.0000  0.0000  0.0000 </r>
       </set>
       <set comment="band 7">
        <r>  0.0243  0.0486  0.0000  0.0436  0.0008  0.0000  0.0907  0.0000  0.0270 </r>
        <r>  0.0050  0.0843  0.0231  0.0767  0.0000  0.0000  0.0000  0.0000  0.0000 </r>
        <r>  0.0050  0.0843  0.0231  0.0767  0.0000  0.0000  0.0000  0.0000  0.0000 </r>
       </set>
       <set comment="band 8">
        <r>  0.0000  0.0000  0.0489  0.0000  0.0000  0.0282  0.0000  0.1122  0.0000 </r>
        <r>  0.0127  0.0304  0.1583  0.0470  0.0000  0.0000  0.0000  0.0000  0.0000 </r>
        <r>  0.0127  0.0304  0.1583  0.0470  0.0000  0.0000  0.0000  0.0000  0.0000 </r>
       </set>
       <set comment="band 9">
        <r>  0.0065  0.0041  0.0000  0.0032  0.2323  0.0000  0.1484  0.0000  0.2601 </r>
        <r>  0.0009  0.0363  0.0059  0.0359  0.0000  0.0000  0.0000  0.0000  0.0000 </r>
        <r>  0.0009  0.0363  0.0059  0.0359  0.0000  0.0000  0.0000  0.0000  0.0000 </r>
       </set>
       <set comment="band 10">
        <r>  0.0076  0.0135  0.0000  0.0038  0.0213  0.0000  0.4954  0.0000  0.1756 </r>
        <r>  0.0005  0.0284  0.0240  0.0107  0.0000  0.0000  0.0000  0.0000  0.0000 </r>
        <r>  0.0005  0.0284  0.0240  0.0107  0.0000  0.0000  0.0000  0.0000  0.0000 </r>
       </set>
       <set comment="band 11">
        <r>  0.0228  0.0095  0.0000  0.0077  0.4529  0.0000  0.0703  0.0000  0.2298 </r>
        <r>  0.0023  0.0012  0.0249  0.0109  0.0000  0.0000  0.0000  0.0000  0.0000 </r>
        <r>  0.0023  0.0012  0.0249  0.0109  0.0000  0.0000  0.0000  0.0000  0.0000 </r>
       </set>
       <set comment="band 12">
        <r>  0.0000  0.0000  0.0034  0.0000  0.0000  0.1598  0.0000  0.3614  0.0000 </r>
        <r>  0.0079  0.0416  0.0096  0.0265  0.0000  0.0000  0.0000  0.0000  0.0000 </r>
        <r>  0.0079  0.0416  0.0096  0.0265  0.0000  0.0000  0.0000  0.0000  0.0000 </r>
       </set>
       <set comment="band 13">
        <r>  0.0000  0.0000  0.0013  0.0000  0.0000  0.3682  0.0000  0.1584  0.0000 </r>
        <r>  0.0208  0.0097  0.0732  0.0250  0.0000  0.0000  0.0000  0.0000  0.0000 </r>
        <r>  0.0208  0.0097  0.0732  0.0250  0.0000  0.0000  0.0000  0.0000  0.0000 </r>
       </set>
       <set comment="band 14">
        <r>  0.1380  0.0046  0.0000  0.0696  0.0278  0.0000  0.0096  0.0000  0.0596 </r>
        <r>  0.0004  0.0010  0.0207  0.0051  0.0000  0.0000  0.0000  0.0000  0.0000 </r>
        <r>  0.0004  0.0010  0.0207  0.0051  0.0000  0.0000  0.0000  0.0000  0.0000 </r>
       </set>
      </set>
      <set comment="kpoint 13">
       <set comment="band 1">
        <r>  0.0081  0.0206  0.0000  0.0352  0.0334  0.0000  0.0001  0.0000  0.0195 </r>
        <r>  0.3242  0.0001  0.0061  0.0001  0.0000  0.0000  0.0000  0.0000  0.0000 </r>
        <r>  0.3242  0.0001  0.0061  0.0001  0.0000  0.0000  0.0000  0.0000  0.0000 </r>
       </set>
       <set comment="band 2">
        <r>  0.0000  0.0000  0.0025  0.0000  0.0000  0.0414  0.0000  0.0766  0.0000 </r>
        <r>  0.3340  0.0001  0.0030  0.0001  0.0000  0.0000  0.0000  0.0000  0.0000 </r>
        <r>  0.3340  0.0001  0.0030  0.0001  0.0000  0.0000  0.0000  0.0000  0.0000 </r>
       </set>
       <set comment="band 3">
        <r>  0.1144  0.0140  0.0000  0.0202  0.0373  0.0000  0.0474  0.0000  0.0150 </r>
        <r>  0.0023  0.0420  0.0024  0.1239  0.0000  0.0000  0.0000  0.0000  0.0000 </r>
        <r>  0.0023  0.0420  0.0024  0.1240  0.0000  0.0000  0.0000  0.0000  0.0000 </r>
       </set>
       <set comment="band 4">
        <r>  0.0000  0.0000  0.0145  0.0000  0.0000  0.1695  0.0000  0.1547  0.0000 </r>
        <r>  0.0034  0.0619  0.0010  0.0977  0.0000  0.0000  0.0000  0.0000  0.0000 </r>
        <r>  0.0034  0.0619  0.0010  0.0977  0.0000  0.0000  0.0000  0.0000  0.0000 </r>
       </set>
       <set comment="band 5">
        <r>  0.0031  0.0281  0.0000  0.0177  0.1542  0.0000  0.0723  0.0000  0.0697 </r>
        <r>  0.0172  0.0228  0.1202  0.0102  0.0000  0.0000  0.0000  0.0000  0.0000 </r>
        <r>  0.0172  0.0228  0.1202  0.0102  0.0000  0.0000  0.0000  0.0000  0.0000 </r>
       </set>
       <set comment="band 6">
        <r>  0.0000  0.0000  0.0654  0.0000  0.0000  0.1307  0.0000  0.0528  0.0000 </r>
        <r>  0.0027  0.1040  0.0269  0.0742  0.0000  0.0000  0.0000  0.0000  0.0000 </r>
        <r>  0.0027  0.1040  0.0269  0.0742  0.0000  0.0000  0.0000  0.0000  0.0000 </r>
       </set>
       <set comment="band 7">
        <r>  0.0316  0.0339  0.0000  0.0572  0.0051  0.0000  0.0359  0.0000  0.0154 </r>
        <r>  0.0118  0.1132  0.0507  0.0391  0.0000  0.0000  0.0000  0.0000  0.0000 </r>
        <r>  0.0118  0.1132  0.0507  0.0391  0.0000  0.0000  0.0000  0.0000  0.0000 </r>
       </set>
       <set comment="band 8">
        <r>  0.0000  0.0000  0.0292  0.0000  0.0000  0.0624  0.0000  0.1361  0.0000 </r>
        <r>  0.0149  0.0192  0.1762  0.0256  0.0000  0.0000  0.0000  0.0000  0.0000 </r>
        <r>  0.0149  0.0192  0.1762  0.0256  0.0000  0.0000  0.0000  0.0000  0.0000 </r>
       </set>
       <set comment="band 9">
        <r>  0.0045  0.0065  0.0000  0.0134  0.2466  0.0000  0.1027  0.0000  0.2759 </r>
        <r>  0.0001  0.0436  0.0112  0.0230  0.0000  0.0000  0.0000  0.0000  0.0000 </r>
        <r>  0.0001  0.0436  0.0112  0.0230  0.0000  0.0000  0.0000  0.0000  0.0000 </r>
       </set>
       <set comment="band 10">
        <r>  0.0266  0.0029  0.0000  0.0011  0.0751  0.0000  0.6090  0.0000  0.1125 </r>
        <r>  0.0000  0.0127  0.0044  0.0202  0.0000  0.0000  0.0000  0.0000  0.0000 </r>
        <r>  0.0000  0.0127  0.0044  0.0202  0.0000  0.0000  0.0000  0.0000  0.0000 </r>
       </set>
       <set comment="band 11">
        <r>  0.0044  0.0090  0.0000  0.0225  0.2831  0.0000  0.0384  0.0000  0.3908 </r>
        <r>  0.0032  0.0022  0.0508  0.0034  0.0000  0.0000  0.0000  0.0000  0.0000 </r>
        <r>  0.0032  0.0022  0.0508  0.0034  0.0000  0.0000  0.0000  0.0000  0.0000 </r>
       </set>
       <set comment="band 12">
        <r>  0.0000  0.0000  0.0033  0.0000  0.0000  0.3362  0.0000  0.1645  0.0000 </r>
        <r>  0.0018  0.0588  0.0002  0.0274  0.0000  0.0000  0.0000  0.0000  0.0000 </r>
        <r>  0.0018  0.0588  0.0002  0.0274  0.0000  0.0000  0.0000  0.0000  0.0000 </r>
       </set>
       <set comment="band 13">
        <r>  0.0000  0.0000  0.0004  0.0000  0.0000  0.1904  0.0000  0.3423  0.0000 </r>
        <r>  0.0262  0.0024  0.0924  0.0041  0.0000  0.0000  0.0000  0.0000  0.0000 </r>
        <r>  0.0262  0.0024  0.0924  0.0041  0.0000  0.0000  0.0000  0.0000  0.0000 </r>
       </set>
       <set comment="band 14">
        <r>  0.1538  0.0358  0.0000  0.0498  0.0522  0.0000  0.0060  0.0000  0.0249 </r>
        <r>  0.0004  0.0026  0.0043  0.0041  0.0000  0.0000  0.0000  0.0000  0.0000 </r>
        <r>  0.0004  0.0026  0.0043  0.0041  0.0000  0.0000  0.0000  0.0000  0.0000 </r>
       </set>
      </set>
      <set comment="kpoint 14">
       <set comment="band 1">
        <r>  0.0034  0.0329  0.0000  0.0255  0.0245  0.0000  0.0001  0.0000  0.0299 </r>
        <r>  0.3259  0.0001  0.0062  0.0000  0.0000  0.0000  0.0000  0.0000  0.0000 </r>
        <r>  0.3259  0.0001  0.0062  0.0000  0.0000  0.0000  0.0000  0.0000  0.0000 </r>
       </set>
       <set comment="band 2">
        <r>  0.0000  0.0000  0.0012  0.0000  0.0000  0.0681  0.0000  0.0510  0.0000 </r>
        <r>  0.3359  0.0001  0.0031  0.0000  0.0000  0.0000  0.0000  0.0000  0.0000 </r>
        <r>  0.3359  0.0001  0.0031  0.0000  0.0000  0.0000  0.0000  0.0000  0.0000 </r>
       </set>
       <set comment="band 3">
        <r>  0.0000  0.0000  0.0020  0.0000  0.0000  0.1683  0.0000  0.2007  0.0000 </r>
        <r>  0.0009  0.0837  0.0000  0.0711  0.0000  0.0000  0.0000  0.0000  0.0000 </r>
        <r>  0.0009  0.0837  0.0000  0.0711  0.0000  0.0000  0.0000  0.0000  0.0000 </r>
       </set>
       <set comment="band 4">
        <r>  0.1094  0.0096  0.0000  0.0211  0.0120  0.0000  0.0826  0.0000  0.0340 </r>
        <r>  0.0000  0.1211  0.0043  0.0459  0.0000  0.0000  0.0000  0.0000  0.0000 </r>
        <r>  0.0000  0.1211  0.0043  0.0459  0.0000  0.0000  0.0000  0.0000  0.0000 </r>
       </set>
       <set comment="band 5">
        <r>  0.0439  0.0203  0.0000  0.0418  0.0281  0.0000  0.0387  0.0000  0.0792 </r>
        <r>  0.0083  0.0334  0.0392  0.0989  0.0000  0.0000  0.0000  0.0000  0.0000 </r>
        <r>  0.0083  0.0334  0.0392  0.0989  0.0000  0.0000  0.0000  0.0000  0.0000 </r>
       </set>
       <set comment="band 6">
        <r>  0.0002  0.0622  0.0000  0.0207  0.0883  0.0000  0.0156  0.0000  0.0539 </r>
        <r>  0.0235  0.0177  0.1327  0.0296  0.0000  0.0000  0.0000  0.0000  0.0000 </r>
        <r>  0.0235  0.0177  0.1327  0.0296  0.0000  0.0000  0.0000  0.0000  0.0000 </r>
       </set>
       <set comment="band 7">
        <r>  0.0000  0.0000  0.0945  0.0000  0.0000  0.0499  0.0000  0.0211  0.0000 </r>
        <r>  0.0020  0.0983  0.0205  0.1032  0.0000  0.0000  0.0000  0.0000  0.0000 </r>
        <r>  0.0020  0.0983  0.0205  0.1032  0.0000  0.0000  0.0000  0.0000  0.0000 </r>
       </set>
       <set comment="band 8">
        <r>  0.0000  0.0000  0.0192  0.0000  0.0000  0.1212  0.0000  0.1188  0.0000 </r>
        <r>  0.0180  0.0140  0.1823  0.0167  0.0000  0.0000  0.0000  0.0000  0.0000 </r>
        <r>  0.0180  0.0140  0.1823  0.0167  0.0000  0.0000  0.0000  0.0000  0.0000 </r>
       </set>
       <set comment="band 9">
        <r>  0.0043  0.0021  0.0000  0.0010  0.3209  0.0000  0.0507  0.0000  0.3219 </r>
        <r>  0.0001  0.0267  0.0001  0.0372  0.0000  0.0000  0.0000  0.0000  0.0000 </r>
        <r>  0.0001  0.0267  0.0001  0.0372  0.0000  0.0000  0.0000  0.0000  0.0000 </r>
       </set>
       <set comment="band 10">
        <r>  0.0389  0.0026  0.0000  0.0010  0.0288  0.0000  0.7107  0.0000  0.0302 </r>
        <r>  0.0000  0.0205  0.0036  0.0133  0.0000  0.0000  0.0000  0.0000  0.0000 </r>
        <r>  0.0000  0.0205  0.0036  0.0133  0.0000  0.0000  0.0000  0.0000  0.0000 </r>
       </set>
       <set comment="band 11">
        <r>  0.0000  0.0000  0.0005  0.0000  0.0000  0.1992  0.0000  0.3096  0.0000 </r>
        <r>  0.0009  0.0315  0.0007  0.0419  0.0000  0.0000  0.0000  0.0000  0.0000 </r>
        <r>  0.0009  0.0315  0.0007  0.0419  0.0000  0.0000  0.0000  0.0000  0.0000 </r>
       </set>
       <set comment="band 12">
        <r>  0.0041  0.0208  0.0000  0.0110  0.3811  0.0000  0.0028  0.0000  0.2886 </r>
        <r>  0.0038  0.0006  0.0689  0.0007  0.0000  0.0000  0.0000  0.0000  0.0000 </r>
        <r>  0.0038  0.0006  0.0689  0.0007  0.0000  0.0000  0.0000  0.0000  0.0000 </r>
       </set>
       <set comment="band 13">
        <r>  0.0000  0.0000  0.0004  0.0000  0.0000  0.3446  0.0000  0.2399  0.0000 </r>
        <r>  0.0268  0.0011  0.0989  0.0026  0.0000  0.0000  0.0000  0.0000  0.0000 </r>
        <r>  0.0268  0.0011  0.0989  0.0026  0.0000  0.0000  0.0000  0.0000  0.0000 </r>
       </set>
       <set comment="band 14">
        <r>  0.0777  0.0634  0.0000  0.0818  0.0343  0.0000  0.0103  0.0000  0.0682 </r>
        <r>  0.0003  0.0037  0.0070  0.0014  0.0000  0.0000  0.0000  0.0000  0.0000 </r>
        <r>  0.0003  0.0037  0.0070  0.0014  0.0000  0.0000  0.0000  0.0000  0.0000 </r>
       </set>
      </set>
     </set>
    </set>
   </array>
  </projected>
 </calculation>
 <structure name="finalpos" >
  <crystal>
   <varray name="basis" >
    <v>       3.18985683       0.00000000       0.00000000 </v>
    <v>      -1.59492842       2.76249705       0.00000000 </v>
    <v>       0.00000000       0.00000000      30.79397887 </v>
   </varray>
   <i name="volume">    271.35562051 </i>
   <varray name="rec_basis" >
    <v>       0.31349369       0.18099567       0.00000000 </v>
    <v>       0.00000000       0.36199134       0.00000000 </v>
    <v>       0.00000000       0.00000000       0.03247388 </v>
   </varray>
  </crystal>
  <varray name="positions" >
   <v>       0.33333300       0.66666700       0.12046214 </v>
   <v>       0.66666700       0.33333300       0.06984045 </v>
   <v>       0.66666600       0.33333300       0.17108384 </v>
  </varray>
 </structure>
</modeling>
