   6   6   0   0
  0.2185851E+02  0.3190316E-09  0.3190316E-09  0.1487900E-08  0.5000000E-15
  1.000000000000000E-004
  CAR 
 unknown system                          
      8.33891146    -12.92956023  301      3.31423503      1.00000000
    -12.930  0.0000E+00  0.0000E+00
    -12.859  0.0000E+00  0.0000E+00
    -12.788  0.0000E+00  0.0000E+00
    -12.717  0.0000E+00  0.0000E+00
    -12.646  0.0000E+00  0.0000E+00
    -12.575  0.0000E+00  0.0000E+00
    -12.504  0.0000E+00  0.0000E+00
    -12.433  0.0000E+00  0.0000E+00
    -12.362  0.0000E+00  0.0000E+00
    -12.292  0.0000E+00  0.0000E+00
    -12.221  0.0000E+00  0.0000E+00
    -12.150  0.0000E+00  0.0000E+00
    -12.079  0.0000E+00  0.0000E+00
    -12.008  0.0000E+00  0.0000E+00
    -11.937  0.0000E+00  0.0000E+00
    -11.866  0.0000E+00  0.0000E+00
    -11.795  0.0000E+00  0.0000E+00
    -11.724  0.0000E+00  0.0000E+00
    -11.653  0.0000E+00  0.0000E+00
    -11.583  0.0000E+00  0.0000E+00
    -11.512  0.0000E+00  0.0000E+00
    -11.441  0.0000E+00  0.0000E+00
    -11.370  0.0000E+00  0.0000E+00
    -11.299  0.0000E+00  0.0000E+00
    -11.228  0.0000E+00  0.0000E+00
    -11.157  0.0000E+00  0.0000E+00
    -11.086  0.0000E+00  0.0000E+00
    -11.015  0.0000E+00  0.0000E+00
    -10.945  0.0000E+00  0.0000E+00
    -10.874  0.3803E+00  0.8966E-02
    -10.803  0.9601E+00  0.5648E-01
    -10.732  0.1540E+01  0.1451E+00
    -10.661  0.9964E+00  0.2315E+00
    -10.590  0.1062E+01  0.3044E+00
    -10.519  0.1128E+01  0.3821E+00
    -10.448  0.1193E+01  0.4643E+00
    -10.377  0.1259E+01  0.5513E+00
    -10.306  0.1320E+01  0.6428E+00
    -10.236  0.1332E+01  0.7368E+00
    -10.165  0.1343E+01  0.8317E+00
    -10.094  0.1382E+01  0.9279E+00
    -10.023  0.1437E+01  0.1028E+01
     -9.952  0.1492E+01  0.1132E+01
     -9.881  0.1547E+01  0.1239E+01
     -9.810  0.1602E+01  0.1351E+01
     -9.739  0.1656E+01  0.1466E+01
     -9.668  0.3424E+01  0.1623E+01
     -9.597  0.4299E+01  0.1939E+01
     -9.527  0.4607E+01  0.2248E+01
     -9.456  0.5107E+01  0.2592E+01
     -9.385  0.5569E+01  0.2973E+01
     -9.314  0.5999E+01  0.3381E+01
     -9.243  0.6562E+01  0.3826E+01
     -9.172  0.7126E+01  0.4312E+01
     -9.101  0.8476E+01  0.5102E+01
     -9.030  0.8344E+01  0.5698E+01
     -8.959  0.8692E+01  0.6301E+01
     -8.889  0.1325E+02  0.6947E+01
     -8.818  0.6143E+01  0.7632E+01
     -8.747  0.0000E+00  0.8000E+01
     -8.676  0.0000E+00  0.8000E+01
     -8.605  0.0000E+00  0.8000E+01
     -8.534  0.0000E+00  0.8000E+01
     -8.463  0.0000E+00  0.8000E+01
     -8.392  0.0000E+00  0.8000E+01
     -8.321  0.0000E+00  0.8000E+01
     -8.250  0.0000E+00  0.8000E+01
     -8.180  0.0000E+00  0.8000E+01
     -8.109  0.0000E+00  0.8000E+01
     -8.038  0.0000E+00  0.8000E+01
     -7.967  0.0000E+00  0.8000E+01
     -7.896  0.0000E+00  0.8000E+01
     -7.825  0.0000E+00  0.8000E+01
     -7.754  0.0000E+00  0.8000E+01
     -7.683  0.0000E+00  0.8000E+01
     -7.612  0.0000E+00  0.8000E+01
     -7.542  0.0000E+00  0.8000E+01
     -7.471  0.0000E+00  0.8000E+01
     -7.400  0.0000E+00  0.8000E+01
     -7.329  0.0000E+00  0.8000E+01
     -7.258  0.0000E+00  0.8000E+01
     -7.187  0.0000E+00  0.8000E+01
     -7.116  0.0000E+00  0.8000E+01
     -7.045  0.0000E+00  0.8000E+01
     -6.974  0.0000E+00  0.8000E+01
     -6.903  0.0000E+00  0.8000E+01
     -6.833  0.0000E+00  0.8000E+01
     -6.762  0.0000E+00  0.8000E+01
     -6.691  0.0000E+00  0.8000E+01
     -6.620  0.0000E+00  0.8000E+01
     -6.549  0.0000E+00  0.8000E+01
     -6.478  0.0000E+00  0.8000E+01
     -6.407  0.0000E+00  0.8000E+01
     -6.336  0.0000E+00  0.8000E+01
     -6.265  0.0000E+00  0.8000E+01
     -6.195  0.0000E+00  0.8000E+01
     -6.124  0.0000E+00  0.8000E+01
     -6.053  0.0000E+00  0.8000E+01
     -5.982  0.0000E+00  0.8000E+01
     -5.911  0.0000E+00  0.8000E+01
     -5.840  0.0000E+00  0.8000E+01
     -5.769  0.0000E+00  0.8000E+01
     -5.698  0.0000E+00  0.8000E+01
     -5.627  0.0000E+00  0.8000E+01
     -5.556  0.0000E+00  0.8000E+01
     -5.486  0.0000E+00  0.8000E+01
     -5.415  0.0000E+00  0.8000E+01
     -5.344  0.0000E+00  0.8000E+01
     -5.273  0.0000E+00  0.8000E+01
     -5.202  0.0000E+00  0.8000E+01
     -5.131  0.0000E+00  0.8000E+01
     -5.060  0.0000E+00  0.8000E+01
     -4.989  0.0000E+00  0.8000E+01
     -4.918  0.0000E+00  0.8000E+01
     -4.848  0.0000E+00  0.8000E+01
     -4.777  0.0000E+00  0.8000E+01
     -4.706  0.0000E+00  0.8000E+01
     -4.635  0.0000E+00  0.8000E+01
     -4.564  0.0000E+00  0.8000E+01
     -4.493  0.0000E+00  0.8000E+01
     -4.422  0.0000E+00  0.8000E+01
     -4.351  0.0000E+00  0.8000E+01
     -4.280  0.0000E+00  0.8000E+01
     -4.209  0.0000E+00  0.8000E+01
     -4.139  0.0000E+00  0.8000E+01
     -4.068  0.0000E+00  0.8000E+01
     -3.997  0.0000E+00  0.8000E+01
     -3.926  0.0000E+00  0.8000E+01
     -3.855  0.0000E+00  0.8000E+01
     -3.784  0.0000E+00  0.8000E+01
     -3.713  0.0000E+00  0.8000E+01
     -3.642  0.0000E+00  0.8000E+01
     -3.571  0.0000E+00  0.8000E+01
     -3.501  0.0000E+00  0.8000E+01
     -3.430  0.0000E+00  0.8000E+01
     -3.359  0.0000E+00  0.8000E+01
     -3.288  0.0000E+00  0.8000E+01
     -3.217  0.0000E+00  0.8000E+01
     -3.146  0.0000E+00  0.8000E+01
     -3.075  0.0000E+00  0.8000E+01
     -3.004  0.0000E+00  0.8000E+01
     -2.933  0.0000E+00  0.8000E+01
     -2.862  0.0000E+00  0.8000E+01
     -2.792  0.0000E+00  0.8000E+01
     -2.721  0.0000E+00  0.8000E+01
     -2.650  0.0000E+00  0.8000E+01
     -2.579  0.2672E+00  0.8003E+01
     -2.508  0.1152E+01  0.8053E+01
     -2.437  0.2176E+01  0.8170E+01
     -2.366  0.3394E+01  0.8366E+01
     -2.295  0.5214E+01  0.8665E+01
     -2.224  0.5588E+01  0.9045E+01
     -2.154  0.6029E+01  0.9457E+01
     -2.083  0.7406E+01  0.1004E+02
     -2.012  0.6293E+01  0.1052E+02
     -1.941  0.8625E+01  0.1096E+02
     -1.870  0.7395E+01  0.1169E+02
     -1.799  0.1491E+01  0.1199E+02
     -1.728  0.8489E+01  0.1263E+02
     -1.657  0.4091E+01  0.1307E+02
     -1.586  0.2656E+01  0.1328E+02
     -1.515  0.2429E+01  0.1346E+02
     -1.445  0.2201E+01  0.1363E+02
     -1.374  0.1974E+01  0.1377E+02
     -1.303  0.1748E+01  0.1391E+02
     -1.232  0.1671E+01  0.1403E+02
     -1.161  0.1679E+01  0.1414E+02
     -1.090  0.1686E+01  0.1426E+02
     -1.019  0.1694E+01  0.1438E+02
     -0.948  0.1926E+01  0.1451E+02
     -0.877  0.5785E+01  0.1476E+02
     -0.807  0.1124E+02  0.1536E+02
     -0.736  0.1036E+02  0.1625E+02
     -0.665  0.9838E+01  0.1695E+02
     -0.594  0.7816E+01  0.1760E+02
     -0.523  0.4608E+01  0.1804E+02
     -0.452  0.2602E+01  0.1827E+02
     -0.381  0.2348E+01  0.1845E+02
     -0.310  0.2182E+01  0.1861E+02
     -0.239  0.2022E+01  0.1876E+02
     -0.168  0.1862E+01  0.1890E+02
     -0.098  0.1755E+02  0.1924E+02
     -0.027  0.1962E+02  0.2067E+02
      0.044  0.7282E+01  0.2136E+02
      0.115  0.6399E+01  0.2181E+02
      0.186  0.5557E+01  0.2229E+02
      0.257  0.3762E+01  0.2260E+02
      0.328  0.3576E+01  0.2286E+02
      0.399  0.3390E+01  0.2310E+02
      0.470  0.3653E+01  0.2334E+02
      0.540  0.5312E+01  0.2365E+02
      0.611  0.5036E+01  0.2402E+02
      0.682  0.4047E+01  0.2436E+02
      0.753  0.2525E+01  0.2459E+02
      0.824  0.1787E+01  0.2472E+02
      0.895  0.1745E+01  0.2484E+02
      0.966  0.1709E+01  0.2497E+02
      1.037  0.1680E+01  0.2509E+02
      1.108  0.5366E+01  0.2528E+02
      1.179  0.1150E+02  0.2584E+02
      1.249  0.1759E+02  0.2696E+02
      1.320  0.1282E+02  0.2808E+02
      1.391  0.4611E+01  0.2866E+02
      1.462  0.3108E+01  0.2892E+02
      1.533  0.2944E+01  0.2913E+02
      1.604  0.2866E+01  0.2934E+02
      1.675  0.3053E+01  0.2954E+02
      1.746  0.3801E+01  0.2978E+02
      1.817  0.6912E+01  0.3014E+02
      1.887  0.8474E+01  0.3071E+02
      1.958  0.4881E+01  0.3117E+02
      2.029  0.4319E+01  0.3150E+02
      2.100  0.2940E+01  0.3176E+02
      2.171  0.1530E+01  0.3191E+02
      2.242  0.2863E+01  0.3205E+02
      2.313  0.8697E+01  0.3238E+02
      2.384  0.7740E+01  0.3296E+02
      2.455  0.7150E+01  0.3349E+02
      2.526  0.6595E+01  0.3398E+02
      2.596  0.6114E+01  0.3443E+02
      2.667  0.4253E+01  0.3480E+02
      2.738  0.3729E+01  0.3508E+02
      2.809  0.3204E+01  0.3533E+02
      2.880  0.2959E+01  0.3554E+02
      2.951  0.2333E+01  0.3573E+02
      3.022  0.9632E+00  0.3589E+02
      3.093  0.7535E+00  0.3595E+02
      3.164  0.2809E+00  0.3599E+02
      3.234  0.6276E-01  0.3600E+02
      3.305  0.0000E+00  0.3600E+02
      3.376  0.0000E+00  0.3600E+02
      3.447  0.0000E+00  0.3600E+02
      3.518  0.0000E+00  0.3600E+02
      3.589  0.0000E+00  0.3600E+02
      3.660  0.0000E+00  0.3600E+02
      3.731  0.0000E+00  0.3600E+02
      3.802  0.0000E+00  0.3600E+02
      3.873  0.0000E+00  0.3600E+02
      3.943  0.0000E+00  0.3600E+02
      4.014  0.0000E+00  0.3600E+02
      4.085  0.0000E+00  0.3600E+02
      4.156  0.0000E+00  0.3600E+02
      4.227  0.0000E+00  0.3600E+02
      4.298  0.0000E+00  0.3600E+02
      4.369  0.0000E+00  0.3600E+02
      4.440  0.0000E+00  0.3600E+02
      4.511  0.0000E+00  0.3600E+02
      4.581  0.0000E+00  0.3600E+02
      4.652  0.0000E+00  0.3600E+02
      4.723  0.0000E+00  0.3600E+02
      4.794  0.0000E+00  0.3600E+02
      4.865  0.0000E+00  0.3600E+02
      4.936  0.1231E+01  0.3607E+02
      5.007  0.2000E+01  0.3617E+02
      5.078  0.5569E+01  0.3644E+02
      5.149  0.9246E+01  0.3696E+02
      5.220  0.1321E+02  0.3777E+02
      5.290  0.2175E+02  0.3899E+02
      5.361  0.2161E+01  0.3948E+02
      5.432  0.1609E+01  0.3961E+02
      5.503  0.7545E+01  0.3991E+02
      5.574  0.1104E+02  0.4063E+02
      5.645  0.7863E+01  0.4144E+02
      5.716  0.7596E+01  0.4199E+02
      5.787  0.9802E+01  0.4254E+02
      5.858  0.3953E+01  0.4307E+02
      5.928  0.2808E+01  0.4330E+02
      5.999  0.2219E+01  0.4348E+02
      6.070  0.1829E+01  0.4362E+02
      6.141  0.1591E+01  0.4374E+02
      6.212  0.1384E+01  0.4386E+02
      6.283  0.7880E+00  0.4393E+02
      6.354  0.0000E+00  0.4400E+02
      6.425  0.0000E+00  0.4400E+02
      6.496  0.0000E+00  0.4400E+02
      6.567  0.0000E+00  0.4400E+02
      6.637  0.0000E+00  0.4400E+02
      6.708  0.0000E+00  0.4400E+02
      6.779  0.0000E+00  0.4400E+02
      6.850  0.0000E+00  0.4400E+02
      6.921  0.0000E+00  0.4400E+02
      6.992  0.0000E+00  0.4400E+02
      7.063  0.0000E+00  0.4400E+02
      7.134  0.0000E+00  0.4400E+02
      7.205  0.0000E+00  0.4400E+02
      7.275  0.0000E+00  0.4400E+02
      7.346  0.0000E+00  0.4400E+02
      7.417  0.0000E+00  0.4400E+02
      7.488  0.0000E+00  0.4400E+02
      7.559  0.0000E+00  0.4400E+02
      7.630  0.0000E+00  0.4400E+02
      7.701  0.0000E+00  0.4400E+02
      7.772  0.0000E+00  0.4400E+02
      7.843  0.0000E+00  0.4400E+02
      7.914  0.0000E+00  0.4400E+02
      7.984  0.0000E+00  0.4400E+02
      8.055  0.0000E+00  0.4400E+02
      8.126  0.0000E+00  0.4400E+02
      8.197  0.0000E+00  0.4400E+02
      8.268  0.0000E+00  0.4400E+02
      8.339  0.0000E+00  0.4400E+02
