       N       E                     dE             d eps       ncg     rms          rms(c)
DAV:   1     0.290318066912E+03    0.29032E+03   -0.21579E+04   880   0.220E+03
DAV:   2    -0.163290997585E+02   -0.30665E+03   -0.29903E+03  1134   0.340E+02
DAV:   3    -0.459361043317E+02   -0.29607E+02   -0.29461E+02  1220   0.948E+01
DAV:   4    -0.467953501041E+02   -0.85925E+00   -0.85784E+00  1136   0.178E+01
DAV:   5    -0.468244043585E+02   -0.29054E-01   -0.29048E-01  1272   0.316E+00    0.974E+00
RMM:   6    -0.444400034197E+02    0.23844E+01   -0.24474E+01   982   0.198E+01    0.337E+00
RMM:   7    -0.436991500467E+02    0.74085E+00   -0.19406E+00   961   0.565E+00    0.178E+00
RMM:   8    -0.436376274915E+02    0.61523E-01   -0.92220E-01  1004   0.339E+00    0.848E-01
RMM:   9    -0.436277075537E+02    0.99199E-02   -0.31927E-01  1032   0.237E+00    0.602E-01
RMM:  10    -0.436097429942E+02    0.17965E-01   -0.74295E-02  1038   0.117E+00    0.819E-02
RMM:  11    -0.436097692945E+02   -0.26300E-04   -0.32022E-03  1115   0.240E-01    0.300E-02
RMM:  12    -0.436099139672E+02   -0.14467E-03   -0.51990E-04  1120   0.118E-01    0.179E-02
RMM:  13    -0.436099260157E+02   -0.12049E-04   -0.28997E-04  1159   0.682E-02    0.183E-02
RMM:  14    -0.436099136115E+02    0.12404E-04   -0.70363E-05   893   0.379E-02    0.246E-03
RMM:  15    -0.436099140936E+02   -0.48218E-06   -0.94819E-06   679   0.143E-02
   1 F= -.44941201E+02 E0= -.44941201E+02  d E =0.000000E+00
