 vasp.5.4.4.18Apr17-6-g9f103f2a35 (build Jun 30 2017 11:15:00) complex          
  
 executed on    STALLO_VASP_5.4.4 date 2019.11.08  11:38:51
 running on    4 total cores
 distrk:  each k-point on    4 cores,    1 groups
 distr:  one band on NCORES_PER_BAND=   2 cores,    2 groups


--------------------------------------------------------------------------------------------------------


 INCAR:
 POTCAR:   PAW_PBE Mo 08Apr2002                   
 POTCAR:    PAW_PBE S 17Jan2003                   
 POTCAR:   PAW_PBE Mo 08Apr2002                   
   VRHFIN =Mo: 4p5s4d                                                           
   LEXCH  = PE                                                                  
   EATOM  =   217.5180 eV,   15.9871 Ry                                         
                                                                                
   TITEL  = PAW_PBE Mo 08Apr2002                                                
   LULTRA =        F    use ultrasoft PP ?                                      
   IUNSCR =        1    unscreen: 0-lin 1-nonlin 2-no                           
   RPACOR =    2.200    partial core radius                                     
   POMASS =   95.940; ZVAL   =    6.000    mass and valenz                      
   RCORE  =    2.750    outmost cutoff radius                                   
   RWIGS  =    2.750; RWIGS  =    1.455    wigner-seitz radius (au A)           
   ENMAX  =  224.584; ENMIN  =  168.438 eV                                      
   RCLOC  =    2.111    cutoff for local pot                                    
   LCOR   =        T    correct aug charges                                     
   LPAW   =        T    paw PP                                                  
   EAUG   =  345.278                                                            
   DEXC   =    -.088                                                            
   RMAX   =    3.077    core radius for proj-oper                               
   RAUG   =    1.300    factor for augmentation sphere                          
   RDEP   =    2.815    radius for radial grids                                 
   QCUT   =   -4.063; QGAM   =    8.126    optimization parameters              
                                                                                
   Description                                                                  
     l     E      TYP  RCUT    TYP  RCUT                                        
     2   .000     23  2.500                                                     
     2   .000     23  2.500                                                     
     0   .000     23  2.600                                                     
     0  1.000     23  2.600                                                     
     1   .400     23  2.750                                                     
     1  2.000     23  2.750                                                     
     3   .000      7   .000                                                     
  local pseudopotential read in
  partial core-charges read in
  atomic valenz-charges read in
  non local Contribution for L=           2  read in
    real space projection operators read in
  non local Contribution for L=           2  read in
    real space projection operators read in
  non local Contribution for L=           0  read in
    real space projection operators read in
  non local Contribution for L=           0  read in
    real space projection operators read in
  non local Contribution for L=           1  read in
    real space projection operators read in
  non local Contribution for L=           1  read in
    real space projection operators read in
    PAW grid and wavefunctions read in
 
   number of l-projection  operators is LMAX  =           6
   number of lm-projection operators is LMMAX =          18
 
 POTCAR:    PAW_PBE S 17Jan2003                   
   VRHFIN =S : s2p4                                                             
   LEXCH  = PE                                                                  
   EATOM  =   276.8230 eV,   20.3459 Ry                                         
                                                                                
   TITEL  = PAW_PBE S 17Jan2003                                                 
   LULTRA =        F    use ultrasoft PP ?                                      
   IUNSCR =        1    unscreen: 0-lin 1-nonlin 2-no                           
   RPACOR =    1.500    partial core radius                                     
   POMASS =   32.066; ZVAL   =    6.000    mass and valenz                      
   RCORE  =    1.900    outmost cutoff radius                                   
   RWIGS  =    2.200; RWIGS  =    1.164    wigner-seitz radius (au A)           
   ENMAX  =  280.000; ENMIN  =  194.016 eV                                      
   ICORE  =        2    local potential                                         
   LCOR   =        T    correct aug charges                                     
   LPAW   =        T    paw PP                                                  
   EAUG   =  335.092                                                            
   DEXC   =     .000                                                            
   RMAX   =    2.867    core radius for proj-oper                               
   RAUG   =    1.300    factor for augmentation sphere                          
   RDEP   =    1.954    radius for radial grids                                 
   QCUT   =   -4.360; QGAM   =    8.721    optimization parameters              
                                                                                
   Description                                                                  
     l     E      TYP  RCUT    TYP  RCUT                                        
     0   .000     23  1.900                                                     
     0   .000     23  1.900                                                     
     1   .000     23  1.900                                                     
     1   .000     23  1.900                                                     
     2   .000     23  1.900                                                     
  local pseudopotential read in
  partial core-charges read in
  atomic valenz-charges read in
  non local Contribution for L=           0  read in
    real space projection operators read in
  non local Contribution for L=           0  read in
    real space projection operators read in
  non local Contribution for L=           1  read in
    real space projection operators read in
  non local Contribution for L=           1  read in
    real space projection operators read in
    PAW grid and wavefunctions read in
 
   number of l-projection  operators is LMAX  =           4
   number of lm-projection operators is LMMAX =           8
 
 WARNING: PSMAXN for non-local potential too small
          PSMAXN should be >   15.3694255016867       NTYP=           1
 PAW_PBE Mo 08Apr2002                   :
 energy of atom  1       EATOM= -217.5180
 kinetic energy error for atom=    0.0001 (will be added to EATOM!!)
  PAW_PBE S 17Jan2003                   :
 energy of atom  2       EATOM= -276.8230
 kinetic energy error for atom=    0.0003 (will be added to EATOM!!)
 
 
 POSCAR: MoS2_mp-2815_computed                   
  positions in direct lattice
  No initial velocities read in
 exchange correlation table for  LEXCH =        8
   RHO(1)=    0.500       N(1)  =     2000
   RHO(2)=  100.500       N(2)  =     4000
 


--------------------------------------------------------------------------------------------------------


 ion  position               nearest neighbor table
   1  0.333  0.667  0.250-   5 2.42   4 2.42   4 2.42   5 2.42   5 2.42   4 2.42
   2  0.667  0.333  0.750-   6 2.42   3 2.42   3 2.42   6 2.42   6 2.42   3 2.42
   3  0.333  0.667  0.855-   2 2.42   2 2.42   2 2.42
   4  0.667  0.333  0.145-   1 2.42   1 2.42   1 2.42
   5  0.667  0.333  0.355-   1 2.42   1 2.42   1 2.42
   6  0.333  0.667  0.645-   2 2.42   2 2.42   2 2.42
 
  LATTYP: Found a hexagonal cell.
 ALAT       =     3.1903157300
 C/A-ratio  =     4.6638030713
  
  Lattice vectors:
  
 A1 = (   3.1903157300,   0.0000000000,   0.0000000000)
 A2 = (  -1.5951578650,   2.7628944683,   0.0000000000)
 A3 = (   0.0000000000,   0.0000000000,  14.8790043000)


Analysis of symmetry for initial positions (statically):
=====================================================================
 Subroutine PRICEL returns:
 Original cell was already a primitive cell.
 

 Routine SETGRP: Setting up the symmetry group for a 
 hexagonal supercell.


 Subroutine GETGRP returns: Found 24 space group operations
 (whereof 12 operations were pure point group operations)
 out of a pool of 24 trial point group operations.


The static configuration has the point symmetry D_3d.
 The point group associated with its full space group is D_6h.


Analysis of symmetry for dynamics (positions and initial velocities):
=====================================================================
 Subroutine PRICEL returns:
 Original cell was already a primitive cell.
 

 Routine SETGRP: Setting up the symmetry group for a 
 hexagonal supercell.


 Subroutine GETGRP returns: Found 24 space group operations
 (whereof 12 operations were pure point group operations)
 out of a pool of 24 trial point group operations.


The dynamic configuration has the point symmetry D_3d.
 The point group associated with its full space group is D_6h.


 Subroutine INISYM returns: Found 24 space group operations
 (whereof 12 operations are pure point group operations),
 and found     1 'primitive' translations

 
 
 KPOINTS: k-density: 4.0                          

Automatic generation of k-mesh.
Space group operators:
 irot       det(A)        alpha          n_x          n_y          n_z        tau_x        tau_y        tau_z
    1     1.000000     0.000001     1.000000     0.000000     0.000000     0.000000     0.000000     0.000000
    2    -1.000000     0.000001     1.000000     0.000000     0.000000     0.000000     0.000000     0.000000
    3     1.000000   120.000000     0.000000     0.000000    -1.000000     0.000000     0.000000     0.000000
    4    -1.000000   120.000000     0.000000     0.000000    -1.000000     0.000000     0.000000     0.000000
    5     1.000000   120.000000     0.000000     0.000000     1.000000     0.000000     0.000000     0.000000
    6    -1.000000   120.000000     0.000000     0.000000     1.000000     0.000000     0.000000     0.000000
    7     1.000000   179.999999     1.000000    -0.000000     0.000000     0.000000     0.000000     0.000000
    8    -1.000000   179.999999     1.000000    -0.000000     0.000000     0.000000     0.000000     0.000000
    9     1.000000   180.000000     0.500000    -0.866025     0.000000     0.000000     0.000000     0.000000
   10    -1.000000   180.000000     0.500000    -0.866025     0.000000     0.000000     0.000000     0.000000
   11     1.000000   180.000000    -0.500000    -0.866025     0.000000     0.000000     0.000000     0.000000
   12    -1.000000   180.000000    -0.500000    -0.866025     0.000000     0.000000     0.000000     0.000000
   13     1.000000    60.000000     0.000000     0.000000    -1.000000     0.000001     0.000000     0.500000
   14    -1.000000    60.000000     0.000000     0.000000    -1.000000     0.000001     0.000000     0.500000
   15     1.000000   180.000000     0.000000     0.000000     1.000000     0.000000     0.000000     0.500000
   16    -1.000000   180.000000     0.000000     0.000000     1.000000     0.000000     0.000000     0.500000
   17     1.000000    60.000000     0.000000     0.000000     1.000000     0.000000     0.000000     0.500000
   18    -1.000000    60.000000     0.000000     0.000000     1.000000     0.000000     0.000000     0.500000
   19     1.000000   179.999999     0.866025    -0.500000     0.000000     0.000000     0.000000     0.500000
   20    -1.000000   179.999999     0.866025    -0.500000     0.000000     0.000000     0.000000     0.500000
   21     1.000000   180.000000     0.000000     1.000000     0.000000     0.000001     0.000000     0.500000
   22    -1.000000   180.000000     0.000000     1.000000     0.000000     0.000001     0.000000     0.500000
   23     1.000000   179.999999     0.866025     0.500000     0.000000     0.000000     0.000000     0.500000
   24    -1.000000   179.999999     0.866025     0.500000     0.000000     0.000000     0.000000     0.500000
 
 Subroutine IBZKPT returns following result:
 ===========================================
 
 Found     20 irreducible k-points:
 
 Following reciprocal coordinates:
            Coordinates               Weight
  0.000000  0.000000  0.000000      1.000000
  0.125000 -0.000000  0.000000      6.000000
  0.250000 -0.000000  0.000000      6.000000
  0.375000 -0.000000  0.000000      6.000000
  0.500000 -0.000000  0.000000      3.000000
  0.125000  0.125000  0.000000      6.000000
  0.250000  0.125000  0.000000     12.000000
  0.375000  0.125000  0.000000     12.000000
  0.250000  0.250000  0.000000      6.000000
  0.375000  0.250000  0.000000      6.000000
  0.000000  0.000000  0.500000      1.000000
  0.125000 -0.000000  0.500000      6.000000
  0.250000 -0.000000  0.500000      6.000000
  0.375000 -0.000000  0.500000      6.000000
  0.500000 -0.000000  0.500000      3.000000
  0.125000  0.125000  0.500000      6.000000
  0.250000  0.125000  0.500000     12.000000
  0.375000  0.125000  0.500000     12.000000
  0.250000  0.250000  0.500000      6.000000
  0.375000  0.250000  0.500000      6.000000
 
 Following cartesian coordinates:
            Coordinates               Weight
  0.000000  0.000000  0.000000      1.000000
  0.039181  0.022621  0.000000      6.000000
  0.078362  0.045242  0.000000      6.000000
  0.117543  0.067864  0.000000      6.000000
  0.156724  0.090485  0.000000      3.000000
  0.039181  0.067864  0.000000      6.000000
  0.078362  0.090485  0.000000     12.000000
  0.117543  0.113106  0.000000     12.000000
  0.078362  0.135727  0.000000      6.000000
  0.117543  0.158348  0.000000      6.000000
  0.000000  0.000000  0.033604      1.000000
  0.039181  0.022621  0.033604      6.000000
  0.078362  0.045242  0.033604      6.000000
  0.117543  0.067864  0.033604      6.000000
  0.156724  0.090485  0.033604      3.000000
  0.039181  0.067864  0.033604      6.000000
  0.078362  0.090485  0.033604     12.000000
  0.117543  0.113106  0.033604     12.000000
  0.078362  0.135727  0.033604      6.000000
  0.117543  0.158348  0.033604      6.000000
 
 TETIRR: Found    136 inequivalent tetrahedra from      768


--------------------------------------------------------------------------------------------------------




 Dimension of arrays:
   k-points           NKPTS =     20   k-points in BZ     NKDIM =     20   number of bands    NBANDS=     22
   number of dos      NEDOS =    301   number of ions     NIONS =      6
   non local maximal  LDIM  =      6   non local SUM 2l+1 LMDIM =     18
   total plane-waves  NPLWV =  64512
   max r-space proj   IRMAX =      1   max aug-charges    IRDMAX=  31777
   dimension x,y,z NGX =    24 NGY =   24 NGZ =  112
   dimension x,y,z NGXF=    48 NGYF=   48 NGZF=  224
   support grid    NGXF=    48 NGYF=   48 NGZF=  224
   ions per type =               2   4
   NGX,Y,Z   is equivalent  to a cutoff of  12.51, 12.51, 12.51 a.u.
   NGXF,Y,Z  is equivalent  to a cutoff of  25.01, 25.01, 25.03 a.u.

 SYSTEM =  unknown system                          
 POSCAR =  MoS2_mp-2815_computed                   

 Startparameter for this run:
   NWRITE =      2    write-flag & timer
   PREC   = normal    normal or accurate (medium, high low for compatibility)
   ISTART =      0    job   : 0-new  1-cont  2-samecut
   ICHARG =      2    charge: 1-file 2-atom 10-const
   ISPIN  =      1    spin polarized calculation?
   LNONCOLLINEAR =      F non collinear calculations
   LSORBIT =      F    spin-orbit coupling
   INIWAV =      1    electr: 0-lowe 1-rand  2-diag
   LASPH  =      F    aspherical Exc in radial PAW
   METAGGA=      F    non-selfconsistent MetaGGA calc.

 Electronic Relaxation 1
   ENCUT  =  900.0 eV  66.15 Ry    8.13 a.u.   7.80  7.80 36.40*2*pi/ulx,y,z
   ENINI  =  900.0     initial cutoff
   ENAUG  =  345.3 eV  augmentation charge cutoff
   NELM   =     60;   NELMIN=  4; NELMDL=  0     # of ELM steps 
   EDIFF  = 0.1E-04   stopping-criterion for ELM
   LREAL  =      F    real-space projection
   NLSPLINE    = F    spline interpolate recip. space projectors
   LCOMPAT=      F    compatible to vasp.4.4
   GGA_COMPAT  = T    GGA compatible to vasp.4.4-vasp.4.6
   LMAXPAW     = -100 max onsite density
   LMAXMIX     =    2 max onsite mixed and CHGCAR
   VOSKOWN=      0    Vosko Wilk Nusair interpolation
   ROPT   =    0.00000   0.00000
 Ionic relaxation
   EDIFFG = 0.1E-03   stopping-criterion for IOM
   NSW    =      0    number of steps for IOM
   NBLOCK =      1;   KBLOCK =      1    inner block; outer block 
   IBRION =     -1    ionic relax: 0-MD 1-quasi-New 2-CG
   NFREE  =      0    steps in history (QN), initial steepest desc. (CG)
   ISIF   =      2    stress and relaxation
   IWAVPR =     10    prediction:  0-non 1-charg 2-wave 3-comb
   ISYM   =      2    0-nonsym 1-usesym 2-fastsym
   LCORR  =      T    Harris-Foulkes like correction to forces

   POTIM  = 0.5000    time-step for ionic-motion
   TEIN   =    0.0    initial temperature
   TEBEG  =    0.0;   TEEND  =   0.0 temperature during run
   SMASS  =  -3.00    Nose mass-parameter (am)
   estimated Nose-frequenzy (Omega)   =  0.10E-29 period in steps =****** mass=  -0.233E-27a.u.
   SCALEE = 1.0000    scale energy and forces
   NPACO  =    256;   APACO  = 16.0  distance and # of slots for P.C.
   PSTRESS=    0.0 pullay stress

  Mass of Ions in am
   POMASS =  95.94 32.07
  Ionic Valenz
   ZVAL   =   6.00  6.00
  Atomic Wigner-Seitz radii
   RWIGS  =  -1.00 -1.00
  virtual crystal weights 
   VCA    =   1.00  1.00
   NELECT =      36.0000    total number of electrons
   NUPDOWN=      -1.0000    fix difference up-down

 DOS related values:
   EMIN   =  10.00;   EMAX   =-10.00  energy-range for DOS
   EFERMI =   0.00
   ISMEAR =    -5;   SIGMA  =   0.20  broadening in eV -4-tet -1-fermi 0-gaus

 Electronic relaxation 2 (details)
   IALGO  =     68    algorithm
   LDIAG  =      T    sub-space diagonalisation (order eigenvalues)
   LSUBROT=      F    optimize rotation matrix (better conditioning)
   TURBO    =      0    0=normal 1=particle mesh
   IRESTART =      0    0=no restart 2=restart with 2 vectors
   NREBOOT  =      0    no. of reboots
   NMIN     =      0    reboot dimension
   EREF     =   0.00    reference energy to select bands
   IMIX   =      4    mixing-type and parameters
     AMIX     =   0.40;   BMIX     =  1.00
     AMIX_MAG =   1.60;   BMIX_MAG =  1.00
     AMIN     =   0.10
     WC   =   100.;   INIMIX=   1;  MIXPRE=   1;  MAXMIX= -45

 Intra band minimization:
   WEIMIN = 0.0000     energy-eigenvalue tresh-hold
   EBREAK =  0.11E-06  absolut break condition
   DEPER  =   0.30     relativ break condition  

   TIME   =   0.40     timestep for ELM

  volume/ion in A,a.u.               =      21.86       147.51
  Fermi-wavevector in a.u.,A,eV,Ry     =   1.063943  2.010561 15.401453  1.131975
  Thomas-Fermi vector in A             =   2.199445
 
 Write flags
   LWAVE        =      F    write WAVECAR
   LDOWNSAMPLE  =      F    k-point downsampling of WAVECAR
   LCHARG       =      T    write CHGCAR
   LVTOT        =      F    write LOCPOT, total local potential
   LVHAR        =      F    write LOCPOT, Hartree potential only
   LELF         =      F    write electronic localiz. function (ELF)
   LORBIT       =      0    0 simple, 1 ext, 2 COOP (PROOUT), +10 PAW based schemes


 Dipole corrections
   LMONO  =      F    monopole corrections only (constant potential shift)
   LDIPOL =      F    correct potential (dipole corrections)
   IDIPOL =      0    1-x, 2-y, 3-z, 4-all directions 
   EPSILON=  1.0000000 bulk dielectric constant

 Exchange correlation treatment:
   GGA     =    --    GGA type
   LEXCH   =     8    internal setting for exchange type
   VOSKOWN=      0    Vosko Wilk Nusair interpolation
   LHFCALC =     F    Hartree Fock is set to
   LHFONE  =     F    Hartree Fock one center treatment
   AEXX    =    0.0000 exact exchange contribution

 Linear response parameters
   LEPSILON=     F    determine dielectric tensor
   LRPA    =     F    only Hartree local field effects (RPA)
   LNABLA  =     F    use nabla operator in PAW spheres
   LVEL    =     F    velocity operator in full k-point grid
   LINTERFAST=   F  fast interpolation
   KINTER  =     0    interpolate to denser k-point grid
   CSHIFT  =0.1000    complex shift for real part using Kramers Kronig
   OMEGAMAX=  -1.0    maximum frequency
   DEG_THRESHOLD= 0.2000000E-02 threshold for treating states as degnerate
   RTIME   =   -0.100 relaxation time in fs
  (WPLASMAI=    0.000 imaginary part of plasma frequency in eV, 0.658/RTIME)
   DFIELD  = 0.0000000 0.0000000 0.0000000 field for delta impulse in time
 
 Orbital magnetization related:
   ORBITALMAG=     F  switch on orbital magnetization
   LCHIMAG   =     F  perturbation theory with respect to B field
   DQ        =  0.001000  dq finite difference perturbation B field
   LLRAUG    =     F  two centre corrections for induced B field



--------------------------------------------------------------------------------------------------------


 Static calculation
 charge density and potential will be updated during run
 non-spin polarized calculation
 RMM-DIIS sequential band-by-band and
  variant of blocked Davidson during initial phase
 perform sub-space diagonalisation
    before iterative eigenvector-optimisation
 modified Broyden-mixing scheme, WC =      100.0
 initial mixing is a Kerker type mixing with AMIX =  0.4000 and BMIX =      1.0000
 Hartree-type preconditioning will be used
 using additional bands            4
 reciprocal scheme for non local part
 use partial core corrections
 calculate Harris-corrections to forces 
   (improved forces if not selfconsistent)
 use gradient corrections 
 use of overlap-Matrix (Vanderbilt PP)
 Fermi weights with tetrahedron method with Bloechl corrections


--------------------------------------------------------------------------------------------------------


  energy-cutoff  :      900.00
  volume of cell :      131.15
      direct lattice vectors                 reciprocal lattice vectors
     3.190315730  0.000000000  0.000000000     0.313448600  0.180969634  0.000000000
    -1.595157865  2.762894468  0.000000000     0.000000000  0.361939267  0.000000000
     0.000000000  0.000000000 14.879004300     0.000000000  0.000000000  0.067208798

  length of vectors
     3.190315730  3.190315730 14.879004300     0.361939267  0.361939267  0.067208798


 
 k-points in units of 2pi/SCALE and weight: k-density: 4.0                          
   0.00000000  0.00000000  0.00000000       0.008
   0.03918108  0.02262120  0.00000000       0.047
   0.07836215  0.04524241  0.00000000       0.047
   0.11754323  0.06786361  0.00000000       0.047
   0.15672430  0.09048482  0.00000000       0.023
   0.03918108  0.06786361  0.00000000       0.047
   0.07836215  0.09048482  0.00000000       0.094
   0.11754323  0.11310602  0.00000000       0.094
   0.07836215  0.13572723  0.00000000       0.047
   0.11754323  0.15834843  0.00000000       0.047
   0.00000000  0.00000000  0.03360440       0.008
   0.03918108  0.02262120  0.03360440       0.047
   0.07836215  0.04524241  0.03360440       0.047
   0.11754323  0.06786361  0.03360440       0.047
   0.15672430  0.09048482  0.03360440       0.023
   0.03918108  0.06786361  0.03360440       0.047
   0.07836215  0.09048482  0.03360440       0.094
   0.11754323  0.11310602  0.03360440       0.094
   0.07836215  0.13572723  0.03360440       0.047
   0.11754323  0.15834843  0.03360440       0.047
 
 k-points in reciprocal lattice and weights: k-density: 4.0                          
   0.00000000  0.00000000  0.00000000       0.008
   0.12500000 -0.00000000  0.00000000       0.047
   0.25000000 -0.00000000  0.00000000       0.047
   0.37500000 -0.00000000  0.00000000       0.047
   0.50000000 -0.00000000  0.00000000       0.023
   0.12500000  0.12500000  0.00000000       0.047
   0.25000000  0.12500000  0.00000000       0.094
   0.37500000  0.12500000  0.00000000       0.094
   0.25000000  0.25000000  0.00000000       0.047
   0.37500000  0.25000000  0.00000000       0.047
   0.00000000  0.00000000  0.50000000       0.008
   0.12500000 -0.00000000  0.50000000       0.047
   0.25000000 -0.00000000  0.50000000       0.047
   0.37500000 -0.00000000  0.50000000       0.047
   0.50000000 -0.00000000  0.50000000       0.023
   0.12500000  0.12500000  0.50000000       0.047
   0.25000000  0.12500000  0.50000000       0.094
   0.37500000  0.12500000  0.50000000       0.094
   0.25000000  0.25000000  0.50000000       0.047
   0.37500000  0.25000000  0.50000000       0.047
 
 position of ions in fractional coordinates (direct lattice) 
   0.33333300  0.66666700  0.25000000
   0.66666700  0.33333300  0.75000000
   0.33333300  0.66666700  0.85517400
   0.66666700  0.33333300  0.14482600
   0.66666600  0.33333300  0.35517400
   0.33333400  0.66666700  0.64482600
 
 position of ions in cartesian coordinates  (Angst):
  -0.00000160  1.84193057  3.71975108
   1.59515946  0.92096390 11.15925323
  -0.00000160  1.84193057 12.72413762
   1.59515946  0.92096390  2.15486668
   1.59515627  0.92096390  5.28463547
   0.00000160  1.84193057  9.59436883
 


--------------------------------------------------------------------------------------------------------


 k-point  1 :   0.0000 0.0000 0.0000  plane waves:    7999
 k-point  2 :   0.1250-0.0000 0.0000  plane waves:    8039
 k-point  3 :   0.2500-0.0000 0.0000  plane waves:    8016
 k-point  4 :   0.3750-0.0000 0.0000  plane waves:    8066
 k-point  5 :   0.5000-0.0000 0.0000  plane waves:    8038
 k-point  6 :   0.1250 0.1250 0.0000  plane waves:    8018
 k-point  7 :   0.2500 0.1250 0.0000  plane waves:    8040
 k-point  8 :   0.3750 0.1250 0.0000  plane waves:    8037
 k-point  9 :   0.2500 0.2500 0.0000  plane waves:    8062
 k-point 10 :   0.3750 0.2500 0.0000  plane waves:    8060
 k-point 11 :   0.0000 0.0000 0.5000  plane waves:    8076
 k-point 12 :   0.1250-0.0000 0.5000  plane waves:    8036
 k-point 13 :   0.2500-0.0000 0.5000  plane waves:    8028
 k-point 14 :   0.3750-0.0000 0.5000  plane waves:    8040
 k-point 15 :   0.5000-0.0000 0.5000  plane waves:    8040
 k-point 16 :   0.1250 0.1250 0.5000  plane waves:    8020
 k-point 17 :   0.2500 0.1250 0.5000  plane waves:    8036
 k-point 18 :   0.3750 0.1250 0.5000  plane waves:    8054
 k-point 19 :   0.2500 0.2500 0.5000  plane waves:    8062
 k-point 20 :   0.3750 0.2500 0.5000  plane waves:    8048

 maximum and minimum number of plane-waves per node :      4043     3996

 maximum number of plane-waves:      8076
 maximum index in each direction: 
   IXMAX=    7   IYMAX=    7   IZMAX=   36
   IXMIN=   -8   IYMIN=   -8   IZMIN=  -36


 parallel 3D FFT for wavefunctions:
    minimum data exchange during FFTs selected (reduces bandwidth)
 parallel 3D FFT for charge:
    minimum data exchange during FFTs selected (reduces bandwidth)


 total amount of memory used by VASP MPI-rank0    81994. kBytes
=======================================================================

   base      :      30000. kBytes
   nonl-proj :      23681. kBytes
   fftplans  :       5347. kBytes
   grid      :       8566. kBytes
   one-center:         46. kBytes
   wavefun   :      14354. kBytes
 
     INWAV:  cpu time    0.0000: real time    0.0004
 Broyden mixing: mesh for mixing (old mesh)
   NGX = 15   NGY = 15   NGZ = 73
  (NGX  = 48   NGY  = 48   NGZ  =224)
  gives a total of  16425 points

 initial charge density was supplied:
 charge density of overlapping atoms calculated
 number of electron      36.0000000 magnetization 
 keeping initial charge density in first step


--------------------------------------------------------------------------------------------------------


 Maximum index for augmentation-charges         7767 (set IRDMAX)


--------------------------------------------------------------------------------------------------------


 First call to EWALD:  gamma=   0.349
 Maximum number of real-space cells 5x 5x 1
 Maximum number of reciprocal cells 2x 2x 7

    FEWALD:  cpu time    0.0020: real time    0.0016


--------------------------------------- Iteration      1(   1)  ---------------------------------------


    POTLOK:  cpu time    0.0850: real time    0.1336
    SETDIJ:  cpu time    0.0080: real time    0.0074
     EDDAV:  cpu time    1.4228: real time    1.4235
 BZINTS: Fermi energy: 17.712015; 36.000000 electrons
         Band energy: 257.059316;  BLOECHL correction: -0.200089
       DOS:  cpu time    0.0060: real time    0.0054
    --------------------------------------------
      LOOP:  cpu time    1.5218: real time    1.5699

 eigenvalue-minimisations  :   880
 total energy-change (2. order) : 0.2903181E+03  (-0.2157857E+04)
 number of electron      36.0000000 magnetization 
 augmentation part       36.0000000 magnetization 

 Free energy of the ion-electron system (eV)
  ---------------------------------------------------
  alpha Z        PSCENC =        90.42577596
  Ewald energy   TEWEN  =     -1146.88905665
  -Hartree energ DENC   =      -535.10238363
  -exchange      EXHF   =         0.00000000
  -V(xc)+E(xc)   XCENC  =       -72.59367983
  PAW double counting   =       813.77302396     -658.68146406
  entropy T*S    EENTRO =         0.00000000
  eigenvalues    EBANDS =       257.05931639
  atomic energy  EATOM  =      1542.32653476
  Solvation  Ediel_sol  =         0.00000000
  ---------------------------------------------------
  free energy    TOTEN  =       290.31806691 eV

  energy without entropy =      290.31806691  energy(sigma->0) =      290.31806691


--------------------------------------------------------------------------------------------------------




--------------------------------------- Iteration      1(   2)  ---------------------------------------


     EDDAV:  cpu time    1.6967: real time    1.6973
 BZINTS: Fermi energy:  6.028074; 36.000000 electrons
         Band energy: -49.587850;  BLOECHL correction:  0.000000
       DOS:  cpu time    0.0010: real time    0.0015
    --------------------------------------------
      LOOP:  cpu time    1.6977: real time    1.6988

 eigenvalue-minimisations  :  1134
 total energy-change (2. order) :-0.3066472E+03  (-0.2990261E+03)
 number of electron      36.0000000 magnetization 
 augmentation part       36.0000000 magnetization 

 Free energy of the ion-electron system (eV)
  ---------------------------------------------------
  alpha Z        PSCENC =        90.42577596
  Ewald energy   TEWEN  =     -1146.88905665
  -Hartree energ DENC   =      -535.10238363
  -exchange      EXHF   =         0.00000000
  -V(xc)+E(xc)   XCENC  =       -72.59367983
  PAW double counting   =       813.77302396     -658.68146406
  entropy T*S    EENTRO =         0.00000000
  eigenvalues    EBANDS =       -49.58785028
  atomic energy  EATOM  =      1542.32653476
  Solvation  Ediel_sol  =         0.00000000
  ---------------------------------------------------
  free energy    TOTEN  =       -16.32909976 eV

  energy without entropy =      -16.32909976  energy(sigma->0) =      -16.32909976


--------------------------------------------------------------------------------------------------------




--------------------------------------- Iteration      1(   3)  ---------------------------------------


     EDDAV:  cpu time    1.8047: real time    1.8044
 BZINTS: Fermi energy:  3.950704; 36.000000 electrons
         Band energy: -79.194855;  BLOECHL correction:  0.000000
       DOS:  cpu time    0.0010: real time    0.0013
    --------------------------------------------
      LOOP:  cpu time    1.8057: real time    1.8056

 eigenvalue-minimisations  :  1220
 total energy-change (2. order) :-0.2960700E+02  (-0.2946098E+02)
 number of electron      36.0000000 magnetization 
 augmentation part       36.0000000 magnetization 

 Free energy of the ion-electron system (eV)
  ---------------------------------------------------
  alpha Z        PSCENC =        90.42577596
  Ewald energy   TEWEN  =     -1146.88905665
  -Hartree energ DENC   =      -535.10238363
  -exchange      EXHF   =         0.00000000
  -V(xc)+E(xc)   XCENC  =       -72.59367983
  PAW double counting   =       813.77302396     -658.68146406
  entropy T*S    EENTRO =         0.00000000
  eigenvalues    EBANDS =       -79.19485485
  atomic energy  EATOM  =      1542.32653476
  Solvation  Ediel_sol  =         0.00000000
  ---------------------------------------------------
  free energy    TOTEN  =       -45.93610433 eV

  energy without entropy =      -45.93610433  energy(sigma->0) =      -45.93610433


--------------------------------------------------------------------------------------------------------




--------------------------------------- Iteration      1(   4)  ---------------------------------------


     EDDAV:  cpu time    1.7027: real time    1.7037
 BZINTS: Fermi energy:  3.928461; 36.000000 electrons
         Band energy: -80.054101;  BLOECHL correction:  0.000000
       DOS:  cpu time    0.0010: real time    0.0014
    --------------------------------------------
      LOOP:  cpu time    1.7037: real time    1.7051

 eigenvalue-minimisations  :  1136
 total energy-change (2. order) :-0.8592458E+00  (-0.8578384E+00)
 number of electron      36.0000000 magnetization 
 augmentation part       36.0000000 magnetization 

 Free energy of the ion-electron system (eV)
  ---------------------------------------------------
  alpha Z        PSCENC =        90.42577596
  Ewald energy   TEWEN  =     -1146.88905665
  -Hartree energ DENC   =      -535.10238363
  -exchange      EXHF   =         0.00000000
  -V(xc)+E(xc)   XCENC  =       -72.59367983
  PAW double counting   =       813.77302396     -658.68146406
  entropy T*S    EENTRO =         0.00000000
  eigenvalues    EBANDS =       -80.05410062
  atomic energy  EATOM  =      1542.32653476
  Solvation  Ediel_sol  =         0.00000000
  ---------------------------------------------------
  free energy    TOTEN  =       -46.79535010 eV

  energy without entropy =      -46.79535010  energy(sigma->0) =      -46.79535010


--------------------------------------------------------------------------------------------------------




--------------------------------------- Iteration      1(   5)  ---------------------------------------


     EDDAV:  cpu time    1.8367: real time    1.8377
 BZINTS: Fermi energy:  3.861862; 36.000000 electrons
         Band energy: -80.083155;  BLOECHL correction:  0.000000
       DOS:  cpu time    0.0020: real time    0.0013
    CHARGE:  cpu time    0.0920: real time    0.0921
    MIXING:  cpu time    0.0020: real time    0.0020
    --------------------------------------------
      LOOP:  cpu time    1.9327: real time    1.9331

 eigenvalue-minimisations  :  1272
 total energy-change (2. order) :-0.2905425E-01  (-0.2904789E-01)
 number of electron      36.0000005 magnetization 
 augmentation part       -1.8895142 magnetization 

 Broyden mixing:
  rms(total) = 0.97370E+00    rms(broyden)= 0.97370E+00
  rms(prec ) = 0.12183E+01
  weight for this iteration     100.00

 Free energy of the ion-electron system (eV)
  ---------------------------------------------------
  alpha Z        PSCENC =        90.42577596
  Ewald energy   TEWEN  =     -1146.88905665
  -Hartree energ DENC   =      -535.10238363
  -exchange      EXHF   =         0.00000000
  -V(xc)+E(xc)   XCENC  =       -72.59367983
  PAW double counting   =       813.77302396     -658.68146406
  entropy T*S    EENTRO =         0.00000000
  eigenvalues    EBANDS =       -80.08315488
  atomic energy  EATOM  =      1542.32653476
  Solvation  Ediel_sol  =         0.00000000
  ---------------------------------------------------
  free energy    TOTEN  =       -46.82440436 eV

  energy without entropy =      -46.82440436  energy(sigma->0) =      -46.82440436


--------------------------------------------------------------------------------------------------------




--------------------------------------- Iteration      1(   6)  ---------------------------------------


    POTLOK:  cpu time    0.0740: real time    0.0746
    SETDIJ:  cpu time    0.0070: real time    0.0073
    EDDIAG:  cpu time    0.2340: real time    0.2339
  RMM-DIIS:  cpu time    1.1978: real time    1.1975
    ORTHCH:  cpu time    0.0270: real time    0.0280
 BZINTS: Fermi energy:  2.865861; 36.000000 electrons
         Band energy: -79.182799;  BLOECHL correction:  0.000000
       DOS:  cpu time    0.0010: real time    0.0013
    CHARGE:  cpu time    0.0930: real time    0.0922
    MIXING:  cpu time    0.0020: real time    0.0022
    --------------------------------------------
      LOOP:  cpu time    1.6358: real time    1.6369

 eigenvalue-minimisations  :   982
 total energy-change (2. order) : 0.2384401E+01  (-0.2447398E+01)
 number of electron      36.0000005 magnetization 
 augmentation part       -0.8593172 magnetization 

 Broyden mixing:
  rms(total) = 0.33653E+00    rms(broyden)= 0.33653E+00
  rms(prec ) = 0.49269E+00
  weight for this iteration     100.00

 eigenvalues of (default mixing * dielectric matrix)
  average eigenvalue GAMMA=   0.8741
  0.8741

 Free energy of the ion-electron system (eV)
  ---------------------------------------------------
  alpha Z        PSCENC =        90.42577596
  Ewald energy   TEWEN  =     -1146.88905665
  -Hartree energ DENC   =      -533.60998036
  -exchange      EXHF   =         0.00000000
  -V(xc)+E(xc)   XCENC  =       -70.82309971
  PAW double counting   =       847.65640122     -694.34377939
  entropy T*S    EENTRO =         0.00000000
  eigenvalues    EBANDS =       -79.18279926
  atomic energy  EATOM  =      1542.32653476
  Solvation  Ediel_sol  =         0.00000000
  ---------------------------------------------------
  free energy    TOTEN  =       -44.44000342 eV

  energy without entropy =      -44.44000342  energy(sigma->0) =      -44.44000342


--------------------------------------------------------------------------------------------------------




--------------------------------------- Iteration      1(   7)  ---------------------------------------


    POTLOK:  cpu time    0.0730: real time    0.0742
    SETDIJ:  cpu time    0.0080: real time    0.0072
    EDDIAG:  cpu time    0.2340: real time    0.2343
  RMM-DIIS:  cpu time    1.1818: real time    1.1814
    ORTHCH:  cpu time    0.0280: real time    0.0279
 BZINTS: Fermi energy:  3.221689; 36.000000 electrons
         Band energy: -73.432516;  BLOECHL correction:  0.000000
       DOS:  cpu time    0.0010: real time    0.0012
    CHARGE:  cpu time    0.0920: real time    0.0924
    MIXING:  cpu time    0.0030: real time    0.0023
    --------------------------------------------
      LOOP:  cpu time    1.6208: real time    1.6209

 eigenvalue-minimisations  :   961
 total energy-change (2. order) : 0.7408534E+00  (-0.1940602E+00)
 number of electron      36.0000005 magnetization 
 augmentation part       -1.1093845 magnetization 

 Broyden mixing:
  rms(total) = 0.17838E+00    rms(broyden)= 0.17838E+00
  rms(prec ) = 0.21330E+00
  weight for this iteration     100.00

 eigenvalues of (default mixing * dielectric matrix)
  average eigenvalue GAMMA=   1.4122
  0.7601  2.0644

 Free energy of the ion-electron system (eV)
  ---------------------------------------------------
  alpha Z        PSCENC =        90.42577596
  Ewald energy   TEWEN  =     -1146.88905665
  -Hartree energ DENC   =      -537.93181439
  -exchange      EXHF   =         0.00000000
  -V(xc)+E(xc)   XCENC  =       -71.01426632
  PAW double counting   =       880.85477004     -728.03857771
  entropy T*S    EENTRO =         0.00000000
  eigenvalues    EBANDS =       -73.43251576
  atomic energy  EATOM  =      1542.32653476
  Solvation  Ediel_sol  =         0.00000000
  ---------------------------------------------------
  free energy    TOTEN  =       -43.69915005 eV

  energy without entropy =      -43.69915005  energy(sigma->0) =      -43.69915005


--------------------------------------------------------------------------------------------------------




--------------------------------------- Iteration      1(   8)  ---------------------------------------


    POTLOK:  cpu time    0.0730: real time    0.0746
    SETDIJ:  cpu time    0.0080: real time    0.0074
    EDDIAG:  cpu time    0.2350: real time    0.2351
  RMM-DIIS:  cpu time    1.2408: real time    1.2410
    ORTHCH:  cpu time    0.0270: real time    0.0273
 BZINTS: Fermi energy:  3.344458; 36.000000 electrons
         Band energy: -68.463291;  BLOECHL correction:  0.000000
       DOS:  cpu time    0.0010: real time    0.0014
    CHARGE:  cpu time    0.0930: real time    0.0923
    MIXING:  cpu time    0.0030: real time    0.0023
    --------------------------------------------
      LOOP:  cpu time    1.6807: real time    1.6813

 eigenvalue-minimisations  :  1004
 total energy-change (2. order) : 0.6152256E-01  (-0.9222043E-01)
 number of electron      36.0000005 magnetization 
 augmentation part       -1.1705299 magnetization 

 Broyden mixing:
  rms(total) = 0.84823E-01    rms(broyden)= 0.84823E-01
  rms(prec ) = 0.11368E+00
  weight for this iteration     100.00

 eigenvalues of (default mixing * dielectric matrix)
  average eigenvalue GAMMA=   1.4909
  2.1088  1.5422  0.8219

 Free energy of the ion-electron system (eV)
  ---------------------------------------------------
  alpha Z        PSCENC =        90.42577596
  Ewald energy   TEWEN  =     -1146.88905665
  -Hartree energ DENC   =      -542.23371338
  -exchange      EXHF   =         0.00000000
  -V(xc)+E(xc)   XCENC  =       -70.63130261
  PAW double counting   =       931.30387268     -779.47644742
  entropy T*S    EENTRO =         0.00000000
  eigenvalues    EBANDS =       -68.46329084
  atomic energy  EATOM  =      1542.32653476
  Solvation  Ediel_sol  =         0.00000000
  ---------------------------------------------------
  free energy    TOTEN  =       -43.63762749 eV

  energy without entropy =      -43.63762749  energy(sigma->0) =      -43.63762749


--------------------------------------------------------------------------------------------------------




--------------------------------------- Iteration      1(   9)  ---------------------------------------


    POTLOK:  cpu time    0.0720: real time    0.0741
    SETDIJ:  cpu time    0.0080: real time    0.0073
    EDDIAG:  cpu time    0.2350: real time    0.2346
  RMM-DIIS:  cpu time    1.2738: real time    1.2734
    ORTHCH:  cpu time    0.0270: real time    0.0279
 BZINTS: Fermi energy:  3.242797; 36.000000 electrons
         Band energy: -68.955250;  BLOECHL correction:  0.000000
       DOS:  cpu time    0.0020: real time    0.0014
    CHARGE:  cpu time    0.0920: real time    0.0928
    MIXING:  cpu time    0.0030: real time    0.0025
    --------------------------------------------
      LOOP:  cpu time    1.7127: real time    1.7139

 eigenvalue-minimisations  :  1032
 total energy-change (2. order) : 0.9919938E-02  (-0.3192693E-01)
 number of electron      36.0000005 magnetization 
 augmentation part       -1.0394734 magnetization 

 Broyden mixing:
  rms(total) = 0.60202E-01    rms(broyden)= 0.60202E-01
  rms(prec ) = 0.84123E-01
  weight for this iteration     100.00

 eigenvalues of (default mixing * dielectric matrix)
  average eigenvalue GAMMA=   1.5272
  2.1481  2.1481  0.9063  0.9063

 Free energy of the ion-electron system (eV)
  ---------------------------------------------------
  alpha Z        PSCENC =        90.42577596
  Ewald energy   TEWEN  =     -1146.88905665
  -Hartree energ DENC   =      -541.82632059
  -exchange      EXHF   =         0.00000000
  -V(xc)+E(xc)   XCENC  =       -70.36370703
  PAW double counting   =       937.75726560     -786.10294999
  entropy T*S    EENTRO =         0.00000000
  eigenvalues    EBANDS =       -68.95524961
  atomic energy  EATOM  =      1542.32653476
  Solvation  Ediel_sol  =         0.00000000
  ---------------------------------------------------
  free energy    TOTEN  =       -43.62770755 eV

  energy without entropy =      -43.62770755  energy(sigma->0) =      -43.62770755


--------------------------------------------------------------------------------------------------------




--------------------------------------- Iteration      1(  10)  ---------------------------------------


    POTLOK:  cpu time    0.0720: real time    0.0733
    SETDIJ:  cpu time    0.0090: real time    0.0073
    EDDIAG:  cpu time    0.2340: real time    0.2344
  RMM-DIIS:  cpu time    1.2878: real time    1.2875
    ORTHCH:  cpu time    0.0270: real time    0.0276
 BZINTS: Fermi energy:  3.315905; 36.000000 electrons
         Band energy: -68.021547;  BLOECHL correction:  0.000000
       DOS:  cpu time    0.0010: real time    0.0013
    CHARGE:  cpu time    0.0930: real time    0.0926
    MIXING:  cpu time    0.0030: real time    0.0025
    --------------------------------------------
      LOOP:  cpu time    1.7267: real time    1.7266

 eigenvalue-minimisations  :  1038
 total energy-change (2. order) : 0.1796456E-01  (-0.7429506E-02)
 number of electron      36.0000005 magnetization 
 augmentation part       -1.1045790 magnetization 

 Broyden mixing:
  rms(total) = 0.81919E-02    rms(broyden)= 0.81919E-02
  rms(prec ) = 0.10519E-01
  weight for this iteration     100.00

 eigenvalues of (default mixing * dielectric matrix)
  average eigenvalue GAMMA=   1.4315
  2.4485  1.6474  0.8875  0.8875  1.2867

 Free energy of the ion-electron system (eV)
  ---------------------------------------------------
  alpha Z        PSCENC =        90.42577596
  Ewald energy   TEWEN  =     -1146.88905665
  -Hartree energ DENC   =      -542.64198351
  -exchange      EXHF   =         0.00000000
  -V(xc)+E(xc)   XCENC  =       -70.42278383
  PAW double counting   =       943.68892570     -792.07560847
  entropy T*S    EENTRO =         0.00000000
  eigenvalues    EBANDS =       -68.02154696
  atomic energy  EATOM  =      1542.32653476
  Solvation  Ediel_sol  =         0.00000000
  ---------------------------------------------------
  free energy    TOTEN  =       -43.60974299 eV

  energy without entropy =      -43.60974299  energy(sigma->0) =      -43.60974299


--------------------------------------------------------------------------------------------------------




--------------------------------------- Iteration      1(  11)  ---------------------------------------


    POTLOK:  cpu time    0.0730: real time    0.0738
    SETDIJ:  cpu time    0.0080: real time    0.0072
    EDDIAG:  cpu time    0.2310: real time    0.2316
  RMM-DIIS:  cpu time    1.3738: real time    1.3726
    ORTHCH:  cpu time    0.0260: real time    0.0273
 BZINTS: Fermi energy:  3.311020; 36.000000 electrons
         Band energy: -67.904691;  BLOECHL correction:  0.000000
       DOS:  cpu time    0.0010: real time    0.0012
    CHARGE:  cpu time    0.0920: real time    0.0913
    MIXING:  cpu time    0.0030: real time    0.0027
    --------------------------------------------
      LOOP:  cpu time    1.8077: real time    1.8078

 eigenvalue-minimisations  :  1115
 total energy-change (2. order) :-0.2630023E-04  (-0.3202161E-03)
 number of electron      36.0000005 magnetization 
 augmentation part       -1.0981779 magnetization 

 Broyden mixing:
  rms(total) = 0.29992E-02    rms(broyden)= 0.29992E-02
  rms(prec ) = 0.36498E-02
  weight for this iteration     100.00

 eigenvalues of (default mixing * dielectric matrix)
  average eigenvalue GAMMA=   1.6455
  2.7802  2.5459  1.8123  0.8925  0.8925  0.9496

 Free energy of the ion-electron system (eV)
  ---------------------------------------------------
  alpha Z        PSCENC =        90.42577596
  Ewald energy   TEWEN  =     -1146.88905665
  -Hartree energ DENC   =      -542.77788307
  -exchange      EXHF   =         0.00000000
  -V(xc)+E(xc)   XCENC  =       -70.39555993
  PAW double counting   =       943.94096738     -792.33585683
  entropy T*S    EENTRO =         0.00000000
  eigenvalues    EBANDS =       -67.90469092
  atomic energy  EATOM  =      1542.32653476
  Solvation  Ediel_sol  =         0.00000000
  ---------------------------------------------------
  free energy    TOTEN  =       -43.60976929 eV

  energy without entropy =      -43.60976929  energy(sigma->0) =      -43.60976929


--------------------------------------------------------------------------------------------------------




--------------------------------------- Iteration      1(  12)  ---------------------------------------


    POTLOK:  cpu time    0.0730: real time    0.0738
    SETDIJ:  cpu time    0.0070: real time    0.0072
    EDDIAG:  cpu time    0.2350: real time    0.2343
  RMM-DIIS:  cpu time    1.3728: real time    1.3728
    ORTHCH:  cpu time    0.0270: real time    0.0271
 BZINTS: Fermi energy:  3.314437; 36.000000 electrons
         Band energy: -67.733822;  BLOECHL correction:  0.000000
       DOS:  cpu time    0.0010: real time    0.0013
    CHARGE:  cpu time    0.0910: real time    0.0915
    MIXING:  cpu time    0.0040: real time    0.0027
    --------------------------------------------
      LOOP:  cpu time    1.8107: real time    1.8107

 eigenvalue-minimisations  :  1120
 total energy-change (2. order) :-0.1446727E-03  (-0.5199001E-04)
 number of electron      36.0000005 magnetization 
 augmentation part       -1.0968820 magnetization 

 Broyden mixing:
  rms(total) = 0.17909E-02    rms(broyden)= 0.17909E-02
  rms(prec ) = 0.22594E-02
  weight for this iteration     100.00

 eigenvalues of (default mixing * dielectric matrix)
  average eigenvalue GAMMA=   1.5906
  2.9220  2.3769  1.5639  1.5639  0.8943  0.8943  0.9191

 Free energy of the ion-electron system (eV)
  ---------------------------------------------------
  alpha Z        PSCENC =        90.42577596
  Ewald energy   TEWEN  =     -1146.88905665
  -Hartree energ DENC   =      -542.97141749
  -exchange      EXHF   =         0.00000000
  -V(xc)+E(xc)   XCENC  =       -70.38613440
  PAW double counting   =       943.64489832     -792.02669220
  entropy T*S    EENTRO =         0.00000000
  eigenvalues    EBANDS =       -67.73382227
  atomic energy  EATOM  =      1542.32653476
  Solvation  Ediel_sol  =         0.00000000
  ---------------------------------------------------
  free energy    TOTEN  =       -43.60991397 eV

  energy without entropy =      -43.60991397  energy(sigma->0) =      -43.60991397


--------------------------------------------------------------------------------------------------------




--------------------------------------- Iteration      1(  13)  ---------------------------------------


    POTLOK:  cpu time    0.0720: real time    0.0739
    SETDIJ:  cpu time    0.0080: real time    0.0072
    EDDIAG:  cpu time    0.2360: real time    0.2355
  RMM-DIIS:  cpu time    1.4238: real time    1.4245
    ORTHCH:  cpu time    0.0270: real time    0.0271
 BZINTS: Fermi energy:  3.316331; 36.000000 electrons
         Band energy: -67.726670;  BLOECHL correction:  0.000000
       DOS:  cpu time    0.0010: real time    0.0013
    CHARGE:  cpu time    0.0920: real time    0.0919
    MIXING:  cpu time    0.0040: real time    0.0029
    --------------------------------------------
      LOOP:  cpu time    1.8637: real time    1.8642

 eigenvalue-minimisations  :  1159
 total energy-change (2. order) :-0.1204857E-04  (-0.2899745E-04)
 number of electron      36.0000005 magnetization 
 augmentation part       -1.1001458 magnetization 

 Broyden mixing:
  rms(total) = 0.18305E-02    rms(broyden)= 0.18305E-02
  rms(prec ) = 0.24743E-02
  weight for this iteration     100.00

 eigenvalues of (default mixing * dielectric matrix)
  average eigenvalue GAMMA=   1.7453
  3.3071  2.6253  2.6253  1.6218  0.8836  0.8836  1.1307  0.8849

 Free energy of the ion-electron system (eV)
  ---------------------------------------------------
  alpha Z        PSCENC =        90.42577596
  Ewald energy   TEWEN  =     -1146.88905665
  -Hartree energ DENC   =      -542.97422804
  -exchange      EXHF   =         0.00000000
  -V(xc)+E(xc)   XCENC  =       -70.38956559
  PAW double counting   =       943.77961267     -792.16232906
  entropy T*S    EENTRO =         0.00000000
  eigenvalues    EBANDS =       -67.72667007
  atomic energy  EATOM  =      1542.32653476
  Solvation  Ediel_sol  =         0.00000000
  ---------------------------------------------------
  free energy    TOTEN  =       -43.60992602 eV

  energy without entropy =      -43.60992602  energy(sigma->0) =      -43.60992602


--------------------------------------------------------------------------------------------------------




--------------------------------------- Iteration      1(  14)  ---------------------------------------


    POTLOK:  cpu time    0.0750: real time    0.0763
    SETDIJ:  cpu time    0.0080: real time    0.0076
    EDDIAG:  cpu time    0.2350: real time    0.2347
  RMM-DIIS:  cpu time    1.1118: real time    1.1126
    ORTHCH:  cpu time    0.0280: real time    0.0271
 BZINTS: Fermi energy:  3.314183; 36.000000 electrons
         Band energy: -67.745334;  BLOECHL correction:  0.000000
       DOS:  cpu time    0.0010: real time    0.0012
    CHARGE:  cpu time    0.0920: real time    0.0926
    MIXING:  cpu time    0.0040: real time    0.0034
    --------------------------------------------
      LOOP:  cpu time    1.5548: real time    1.5555

 eigenvalue-minimisations  :   893
 total energy-change (2. order) : 0.1240425E-04  (-0.7036293E-05)
 number of electron      36.0000005 magnetization 
 augmentation part       -1.0983969 magnetization 

 Broyden mixing:
  rms(total) = 0.24593E-03    rms(broyden)= 0.24593E-03
  rms(prec ) = 0.29735E-03
  weight for this iteration     100.00

 eigenvalues of (default mixing * dielectric matrix)
  average eigenvalue GAMMA=   1.6067
  3.0693  2.7710  2.3391  1.5141  1.2247  0.8773  0.8773  0.8937  0.8937

 Free energy of the ion-electron system (eV)
  ---------------------------------------------------
  alpha Z        PSCENC =        90.42577596
  Ewald energy   TEWEN  =     -1146.88905665
  -Hartree energ DENC   =      -542.95789136
  -exchange      EXHF   =         0.00000000
  -V(xc)+E(xc)   XCENC  =       -70.38684444
  PAW double counting   =       943.62975509     -792.01285322
  entropy T*S    EENTRO =         0.00000000
  eigenvalues    EBANDS =       -67.74533376
  atomic energy  EATOM  =      1542.32653476
  Solvation  Ediel_sol  =         0.00000000
  ---------------------------------------------------
  free energy    TOTEN  =       -43.60991361 eV

  energy without entropy =      -43.60991361  energy(sigma->0) =      -43.60991361


--------------------------------------------------------------------------------------------------------




--------------------------------------- Iteration      1(  15)  ---------------------------------------


    POTLOK:  cpu time    0.0780: real time    0.0785
    SETDIJ:  cpu time    0.0080: real time    0.0078
    EDDIAG:  cpu time    0.2370: real time    0.2368
  RMM-DIIS:  cpu time    0.8499: real time    0.8498
    ORTHCH:  cpu time    0.0270: real time    0.0268
 BZINTS: Fermi energy:  3.314235; 36.000000 electrons
         Band energy: -67.740262;  BLOECHL correction:  0.000000
       DOS:  cpu time    0.0010: real time    0.0012
    --------------------------------------------
      LOOP:  cpu time    1.2008: real time    1.2009

 eigenvalue-minimisations  :   679
 total energy-change (2. order) :-0.4821752E-06  (-0.9481910E-06)
 number of electron      36.0000005 magnetization 
 augmentation part       -1.0983969 magnetization 

 Free energy of the ion-electron system (eV)
  ---------------------------------------------------
  alpha Z        PSCENC =        90.42577596
  Ewald energy   TEWEN  =     -1146.88905665
  -Hartree energ DENC   =      -542.96385940
  -exchange      EXHF   =         0.00000000
  -V(xc)+E(xc)   XCENC  =       -70.38671629
  PAW double counting   =       943.59133393     -791.97366424
  entropy T*S    EENTRO =         0.00000000
  eigenvalues    EBANDS =       -67.74026217
  atomic energy  EATOM  =      1542.32653476
  Solvation  Ediel_sol  =         0.00000000
  ---------------------------------------------------
  free energy    TOTEN  =       -43.60991409 eV

  energy without entropy =      -43.60991409  energy(sigma->0) =      -43.60991409


--------------------------------------------------------------------------------------------------------




 average (electrostatic) potential at core
  the test charge radii are     1.2296  0.9698
  (the norm of the test charge is              1.0000)
       1 -40.3305       2 -40.3305       3 -88.1717       4 -88.1717       5 -88.1717
       6 -88.1717
 
 
 
 E-fermi :   3.3142     XC(G=0):  -9.3244     alpha+bet : -9.6368


 k-point     1 :       0.0000    0.0000    0.0000
  band No.  band energies     occupation 
      1     -10.9296      2.00000
      2     -10.9106      2.00000
      3      -9.7291      2.00000
      4      -9.6951      2.00000
      5      -2.5237      2.00000
      6      -2.3622      2.00000
      7       0.5194      2.00000
      8       0.5194      2.00000
      9       0.5199      2.00000
     10       0.5199      2.00000
     11       1.1060      2.00000
     12       1.6243      2.00000
     13       1.6243      2.00000
     14       1.6262      2.00000
     15       1.6263      2.00000
     16       1.6743      2.00000
     17       2.9222      2.00000
     18       3.2980      2.00000
     19       5.8754      0.00000
     20       5.8942      0.00000
     21       5.9212      0.00000
     22       6.0718      0.00000

 k-point     2 :       0.1250   -0.0000    0.0000
  band No.  band energies     occupation 
      1     -10.7152      2.00000
      2     -10.6966      2.00000
      3      -9.6254      2.00000
      4      -9.5940      2.00000
      5      -2.2778      2.00000
      6      -2.1190      2.00000
      7       0.0549      2.00000
      8       0.0576      2.00000
      9       0.4563      2.00000
     10       0.6724      2.00000
     11       0.7535      2.00000
     12       0.7547      2.00000
     13       1.2883      2.00000
     14       1.2908      2.00000
     15       1.9304      2.00000
     16       2.2143      2.00000
     17       2.8431      2.00000
     18       3.0851      2.00000
     19       5.5174      0.00000
     20       5.6465      0.00000
     21       5.7440      0.00000
     22       5.8520      0.00000

 k-point     3 :       0.2500   -0.0000    0.0000
  band No.  band energies     occupation 
      1     -10.1455      2.00000
      2     -10.1288      2.00000
      3      -9.3531      2.00000
      4      -9.3287      2.00000
      5      -1.8880      2.00000
      6      -1.7771      2.00000
      7      -0.6917      2.00000
      8      -0.6482      2.00000
      9      -0.4614      2.00000
     10      -0.3600      2.00000
     11       0.6528      2.00000
     12       0.6563      2.00000
     13       1.3395      2.00000
     14       1.3430      2.00000
     15       1.7039      2.00000
     16       1.9127      2.00000
     17       2.3695      2.00000
     18       2.4180      2.00000
     19       5.1186      0.00000
     20       5.4386      0.00000
     21       5.4524      0.00000
     22       5.6451      0.00000

 k-point     4 :       0.3750   -0.0000    0.0000
  band No.  band energies     occupation 
      1      -9.4680      2.00000
      2      -9.4561      2.00000
      3      -9.0395      2.00000
      4      -9.0253      2.00000
      5      -2.2855      2.00000
      6      -2.2507      2.00000
      7      -1.2977      2.00000
      8      -1.2547      2.00000
      9      -0.8467      2.00000
     10      -0.7617      2.00000
     11       0.1552      2.00000
     12       0.1592      2.00000
     13       1.3419      2.00000
     14       1.4494      2.00000
     15       1.9276      2.00000
     16       1.9362      2.00000
     17       2.1732      2.00000
     18       2.2239      2.00000
     19       5.2592      0.00000
     20       5.2682      0.00000
     21       5.4541      0.00000
     22       5.6326      0.00000

 k-point     5 :       0.5000   -0.0000    0.0000
  band No.  band energies     occupation 
      1      -9.1371      2.00000
      2      -9.1305      2.00000
      3      -8.8923      2.00000
      4      -8.8858      2.00000
      5      -2.6138      2.00000
      6      -2.5869      2.00000
      7      -1.6530      2.00000
      8      -1.6285      2.00000
      9      -0.9685      2.00000
     10      -0.8926      2.00000
     11      -0.0254      2.00000
     12      -0.0213      2.00000
     13       1.2464      2.00000
     14       1.2659      2.00000
     15       2.1530      2.00000
     16       2.1651      2.00000
     17       2.4768      2.00000
     18       2.4806      2.00000
     19       5.2840      0.00000
     20       5.2878      0.00000
     21       5.7741      0.00000
     22       5.8314      0.00000

 k-point     6 :       0.1250    0.1250    0.0000
  band No.  band energies     occupation 
      1     -10.3218      2.00000
      2     -10.3044      2.00000
      3      -9.4360      2.00000
      4      -9.4093      2.00000
      5      -1.9211      2.00000
      6      -1.7814      2.00000
      7      -0.5139      2.00000
      8      -0.5013      2.00000
      9      -0.0653      2.00000
     10       0.0767      2.00000
     11       0.4637      2.00000
     12       0.4898      2.00000
     13       1.0927      2.00000
     14       1.0945      2.00000
     15       2.0956      2.00000
     16       2.2980      2.00000
     17       2.5518      2.00000
     18       2.6274      2.00000
     19       5.0630      0.00000
     20       5.3218      0.00000
     21       5.5193      0.00000
     22       5.5509      0.00000

 k-point     7 :       0.2500    0.1250    0.0000
  band No.  band energies     occupation 
      1      -9.6865      2.00000
      2      -9.6725      2.00000
      3      -9.1332      2.00000
      4      -9.1150      2.00000
      5      -1.9397      2.00000
      6      -1.8867      2.00000
      7      -0.9513      2.00000
      8      -0.9201      2.00000
      9      -0.7086      2.00000
     10      -0.6351      2.00000
     11      -0.0669      2.00000
     12       0.0078      2.00000
     13       1.1901      2.00000
     14       1.1960      2.00000
     15       1.7871      2.00000
     16       1.8735      2.00000
     17       2.3020      2.00000
     18       2.3119      2.00000
     19       4.9959      0.00000
     20       5.2121      0.00000
     21       5.5851      0.00000
     22       5.6298      0.00000

 k-point     8 :       0.3750    0.1250    0.0000
  band No.  band energies     occupation 
      1      -9.1529      2.00000
      2      -9.1452      2.00000
      3      -8.8843      2.00000
      4      -8.8759      2.00000
      5      -2.3266      2.00000
      6      -2.2996      2.00000
      7      -1.7024      2.00000
      8      -1.6932      2.00000
      9      -0.8381      2.00000
     10      -0.7675      2.00000
     11      -0.0674      2.00000
     12      -0.0250      2.00000
     13       1.1998      2.00000
     14       1.2161      2.00000
     15       1.3282      2.00000
     16       1.3665      2.00000
     17       2.6244      2.00000
     18       2.6427      2.00000
     19       5.2704      0.00000
     20       5.3346      0.00000
     21       5.7784      0.00000
     22       5.8537      0.00000

 k-point     9 :       0.2500    0.2500    0.0000
  band No.  band energies     occupation 
      1      -9.1683      2.00000
      2      -9.1596      2.00000
      3      -8.8761      2.00000
      4      -8.8662      2.00000
      5      -1.9673      2.00000
      6      -1.9388      2.00000
      7      -1.7538      2.00000
      8      -1.7427      2.00000
      9      -0.4882      2.00000
     10      -0.4638      2.00000
     11      -0.1393      2.00000
     12      -0.0511      2.00000
     13       0.2146      2.00000
     14       0.2372      2.00000
     15       1.4761      2.00000
     16       1.4868      2.00000
     17       2.6004      2.00000
     18       2.6101      2.00000
     19       5.1853      0.00000
     20       5.3133      0.00000
     21       5.8875      0.00000
     22       6.0451      0.00000

 k-point    10 :       0.3750    0.2500    0.0000
  band No.  band energies     occupation 
      1      -8.9306      2.00000
      2      -8.9275      2.00000
      3      -8.7535      2.00000
      4      -8.7504      2.00000
      5      -2.1380      2.00000
      6      -2.1273      2.00000
      7      -1.7919      2.00000
      8      -1.7757      2.00000
      9      -0.7782      2.00000
     10      -0.7409      2.00000
     11      -0.1071      2.00000
     12      -0.0862      2.00000
     13       0.1068      2.00000
     14       0.1578      2.00000
     15       1.0756      2.00000
     16       1.1155      2.00000
     17       2.9619      2.00000
     18       2.9831      2.00000
     19       4.9234      0.00000
     20       4.9323      0.00000
     21       6.1546      0.00000
     22       6.3381      0.00000

 k-point    11 :       0.0000    0.0000    0.5000
  band No.  band energies     occupation 
      1     -10.9202      2.00000
      2     -10.9202      2.00000
      3      -9.7120      2.00000
      4      -9.7120      2.00000
      5      -2.4457      2.00000
      6      -2.4457      2.00000
      7       0.5197      2.00000
      8       0.5197      2.00000
      9       0.5197      2.00000
     10       0.5197      2.00000
     11       1.3627      2.00000
     12       1.3627      2.00000
     13       1.6253      2.00000
     14       1.6253      2.00000
     15       1.6253      2.00000
     16       1.6253      2.00000
     17       3.1408      2.00000
     18       3.1408      2.00000
     19       5.8744      0.00000
     20       5.8794      0.00000
     21       5.8910      0.00000
     22       5.9603      0.00000

 k-point    12 :       0.1250   -0.0000    0.5000
  band No.  band energies     occupation 
      1     -10.7060      2.00000
      2     -10.7060      2.00000
      3      -9.6096      2.00000
      4      -9.6096      2.00000
      5      -2.2014      2.00000
      6      -2.2014      2.00000
      7       0.0560      2.00000
      8       0.0560      2.00000
      9       0.5710      2.00000
     10       0.5710      2.00000
     11       0.7541      2.00000
     12       0.7541      2.00000
     13       1.2896      2.00000
     14       1.2896      2.00000
     15       2.0426      2.00000
     16       2.0426      2.00000
     17       2.9901      2.00000
     18       2.9901      2.00000
     19       5.5732      0.00000
     20       5.5773      0.00000
     21       5.7050      0.00000
     22       5.7883      0.00000

 k-point    13 :       0.2500   -0.0000    0.5000
  band No.  band energies     occupation 
      1     -10.1373      2.00000
      2     -10.1373      2.00000
      3      -9.3408      2.00000
      4      -9.3408      2.00000
      5      -1.8343      2.00000
      6      -1.8343      2.00000
      7      -0.6756      2.00000
      8      -0.6756      2.00000
      9      -0.4028      2.00000
     10      -0.4028      2.00000
     11       0.6545      2.00000
     12       0.6545      2.00000
     13       1.3413      2.00000
     14       1.3413      2.00000
     15       1.8005      2.00000
     16       1.8005      2.00000
     17       2.3992      2.00000
     18       2.3993      2.00000
     19       5.2599      0.00000
     20       5.2604      0.00000
     21       5.4455      0.00000
     22       5.4464      0.00000

 k-point    14 :       0.3750   -0.0000    0.5000
  band No.  band energies     occupation 
      1      -9.4621      2.00000
      2      -9.4621      2.00000
      3      -9.0323      2.00000
      4      -9.0323      2.00000
      5      -2.2683      2.00000
      6      -2.2683      2.00000
      7      -1.2781      2.00000
      8      -1.2781      2.00000
      9      -0.8022      2.00000
     10      -0.8022      2.00000
     11       0.1572      2.00000
     12       0.1572      2.00000
     13       1.3936      2.00000
     14       1.3936      2.00000
     15       1.9319      2.00000
     16       1.9319      2.00000
     17       2.2005      2.00000
     18       2.2005      2.00000
     19       5.2637      0.00000
     20       5.2637      0.00000
     21       5.5372      0.00000
     22       5.5373      0.00000

 k-point    15 :       0.5000   -0.0000    0.5000
  band No.  band energies     occupation 
      1      -9.1338      2.00000
      2      -9.1338      2.00000
      3      -8.8890      2.00000
      4      -8.8890      2.00000
      5      -2.6005      2.00000
      6      -2.6005      2.00000
      7      -1.6416      2.00000
      8      -1.6416      2.00000
      9      -0.9296      2.00000
     10      -0.9296      2.00000
     11      -0.0234      2.00000
     12      -0.0234      2.00000
     13       1.2560      2.00000
     14       1.2560      2.00000
     15       2.1590      2.00000
     16       2.1590      2.00000
     17       2.4788      2.00000
     18       2.4788      2.00000
     19       5.2859      0.00000
     20       5.2859      0.00000
     21       5.8015      0.00000
     22       5.8016      0.00000

 k-point    16 :       0.1250    0.1250    0.5000
  band No.  band energies     occupation 
      1     -10.3132      2.00000
      2     -10.3132      2.00000
      3      -9.4225      2.00000
      4      -9.4225      2.00000
      5      -1.8541      2.00000
      6      -1.8541      2.00000
      7      -0.5093      2.00000
      8      -0.5093      2.00000
      9       0.0125      2.00000
     10       0.0125      2.00000
     11       0.4757      2.00000
     12       0.4757      2.00000
     13       1.0936      2.00000
     14       1.0936      2.00000
     15       2.1815      2.00000
     16       2.1815      2.00000
     17       2.6013      2.00000
     18       2.6013      2.00000
     19       5.1818      0.00000
     20       5.1847      0.00000
     21       5.5536      0.00000
     22       5.5857      0.00000

 k-point    17 :       0.2500    0.1250    0.5000
  band No.  band energies     occupation 
      1      -9.6796      2.00000
      2      -9.6796      2.00000
      3      -9.1240      2.00000
      4      -9.1240      2.00000
      5      -1.9135      2.00000
      6      -1.9135      2.00000
      7      -0.9375      2.00000
      8      -0.9375      2.00000
      9      -0.6718      2.00000
     10      -0.6718      2.00000
     11      -0.0268      2.00000
     12      -0.0268      2.00000
     13       1.1929      2.00000
     14       1.1929      2.00000
     15       1.8282      2.00000
     16       1.8282      2.00000
     17       2.3076      2.00000
     18       2.3076      2.00000
     19       5.1024      0.00000
     20       5.1026      0.00000
     21       5.5535      0.00000
     22       5.6013      0.00000

 k-point    18 :       0.3750    0.1250    0.5000
  band No.  band energies     occupation 
      1      -9.1491      2.00000
      2      -9.1491      2.00000
      3      -8.8801      2.00000
      4      -8.8801      2.00000
      5      -2.3132      2.00000
      6      -2.3132      2.00000
      7      -1.6980      2.00000
      8      -1.6980      2.00000
      9      -0.8035      2.00000
     10      -0.8035      2.00000
     11      -0.0448      2.00000
     12      -0.0448      2.00000
     13       1.2073      2.00000
     14       1.2073      2.00000
     15       1.3473      2.00000
     16       1.3473      2.00000
     17       2.6338      2.00000
     18       2.6338      2.00000
     19       5.3029      0.00000
     20       5.3028      0.00000
     21       5.8119      0.00000
     22       5.8120      0.00000

 k-point    19 :       0.2500    0.2500    0.5000
  band No.  band energies     occupation 
      1      -9.1641      2.00000
      2      -9.1641      2.00000
      3      -8.8711      2.00000
      4      -8.8710      2.00000
      5      -1.9533      2.00000
      6      -1.9533      2.00000
      7      -1.7481      2.00000
      8      -1.7481      2.00000
      9      -0.4798      2.00000
     10      -0.4798      2.00000
     11      -0.0910      2.00000
     12      -0.0910      2.00000
     13       0.2260      2.00000
     14       0.2260      2.00000
     15       1.4805      2.00000
     16       1.4805      2.00000
     17       2.6053      2.00000
     18       2.6053      2.00000
     19       5.2492      0.00000
     20       5.2493      0.00000
     21       5.8653      0.00000
     22       6.1268      0.00000

 k-point    20 :       0.3750    0.2500    0.5000
  band No.  band energies     occupation 
      1      -8.9291      2.00000
      2      -8.9291      2.00000
      3      -8.7519      2.00000
      4      -8.7519      2.00000
      5      -2.1327      2.00000
      6      -2.1327      2.00000
      7      -1.7836      2.00000
      8      -1.7836      2.00000
      9      -0.7606      2.00000
     10      -0.7606      2.00000
     11      -0.0994      2.00000
     12      -0.0994      2.00000
     13       0.1371      2.00000
     14       0.1371      2.00000
     15       1.0940      2.00000
     16       1.0940      2.00000
     17       2.9725      2.00000
     18       2.9725      2.00000
     19       4.9280      0.00000
     20       4.9280      0.00000
     21       6.2286      0.00000
     22       6.3389      0.00000


--------------------------------------------------------------------------------------------------------


 soft charge-density along one line, spin component           1
         0         1         2         3         4         5         6         7         8         9
 total charge-density along one line
 
 pseudopotential strength for first ion, spin component:           1
 -8.238  -0.000   0.000   0.000  -0.000  -0.074   0.000  -0.000
 -0.000  -8.238   0.000  -0.000  -0.000   0.000  -0.074  -0.000
  0.000   0.000  -8.217  -0.000  -0.000  -0.000  -0.000  -0.075
  0.000  -0.000  -0.000  -8.238  -0.000  -0.000   0.000   0.000
 -0.000  -0.000  -0.000  -0.000  -8.238   0.000   0.000   0.000
 -0.074   0.000  -0.000  -0.000   0.000   0.112  -0.000   0.000
  0.000  -0.074  -0.000   0.000   0.000  -0.000   0.112   0.000
 -0.000  -0.000  -0.075   0.000   0.000   0.000   0.000   0.112
 -0.000   0.000   0.000  -0.074   0.000   0.000  -0.000  -0.000
  0.000   0.000   0.000   0.000  -0.074  -0.000  -0.000  -0.000
  0.000  -0.000  -0.005   0.000  -0.000  -0.000   0.000   0.000
 -0.000   0.000   0.001  -0.000   0.000   0.000  -0.000  -0.000
 -0.000   0.000  -0.000  -0.000  -0.007   0.000  -0.000   0.000
 -0.000   0.000   0.000  -0.000  -0.000  -0.000  -0.000  -0.000
 -0.007  -0.000   0.000   0.000  -0.000  -0.000  -0.000  -0.000
  0.000  -0.000   0.000   0.000   0.004  -0.000   0.000  -0.000
  0.000  -0.000  -0.000   0.000   0.000  -0.000   0.000   0.000
  0.004   0.000  -0.000  -0.000   0.000   0.000  -0.000   0.000
 total augmentation occupancy for first ion, spin component:           1
  0.965   0.000  -0.000  -0.000  -0.000   0.595   0.000  -0.000  -0.000  -0.000  -0.000  -0.000   0.000   0.000  -0.065  -0.000
  0.000   0.906   0.000   0.000   0.000   0.000   0.833   0.000   0.000   0.000   0.000   0.000  -0.000   0.000  -0.000  -0.000
 -0.000   0.000   1.029   0.000   0.000  -0.000  -0.000   0.495  -0.000   0.000   0.111  -0.019  -0.000   0.000   0.000   0.000
 -0.000   0.000  -0.000   0.906  -0.000   0.000   0.000   0.000   0.833  -0.000  -0.000   0.000  -0.000  -0.000   0.000  -0.000
 -0.000   0.000   0.000  -0.000   0.965   0.000   0.000   0.000  -0.000   0.595   0.000  -0.000  -0.065   0.000  -0.000   0.007
  0.595  -0.000  -0.000  -0.000  -0.000   0.670   0.000  -0.000   0.000  -0.000   0.000  -0.000   0.000   0.000  -0.136  -0.000
 -0.000   0.833   0.000   0.000  -0.000  -0.000   1.069  -0.000   0.000   0.000  -0.000   0.000  -0.000   0.000   0.000   0.000
 -0.000   0.000   0.495   0.000   0.000  -0.000  -0.000   0.470  -0.000   0.000   0.058  -0.021  -0.000  -0.000   0.000   0.000
 -0.000   0.000  -0.000   0.833  -0.000   0.000   0.000   0.000   1.069  -0.000   0.000   0.000  -0.000  -0.000   0.000   0.000
 -0.000   0.000   0.000  -0.000   0.595  -0.000   0.000   0.000  -0.000   0.670   0.000  -0.000  -0.136  -0.000  -0.000   0.023
 -0.000   0.000   0.111  -0.000   0.000   0.000   0.000   0.058   0.000   0.000   1.207  -0.185  -0.000   0.000   0.000   0.000
 -0.000  -0.000  -0.019   0.000  -0.000  -0.000   0.000  -0.021  -0.000  -0.000  -0.185   0.042  -0.000  -0.000   0.000   0.000
  0.000   0.000  -0.000  -0.000  -0.065   0.000   0.000  -0.000   0.000  -0.136   0.000   0.000   0.217  -0.000   0.000  -0.032
  0.000  -0.000   0.000  -0.000   0.000   0.000   0.000  -0.000  -0.000  -0.000   0.000  -0.000  -0.000   0.264   0.000   0.000
 -0.065   0.000   0.000  -0.000  -0.000  -0.136   0.000   0.000   0.000  -0.000   0.000  -0.000   0.000   0.000   0.217  -0.000
 -0.000  -0.000   0.000   0.000   0.007  -0.000   0.000   0.000  -0.000   0.023  -0.000  -0.000  -0.032   0.000  -0.000   0.005
  0.000  -0.000   0.000   0.000  -0.000   0.000   0.000  -0.000  -0.000  -0.000  -0.000  -0.000   0.000  -0.038   0.000   0.000
  0.007  -0.000  -0.000  -0.000   0.000   0.023   0.000  -0.000   0.000   0.000   0.000  -0.000  -0.000   0.000  -0.032   0.000


------------------------ aborting loop because EDIFF is reached ----------------------------------------


    CHARGE:  cpu time    0.0920: real time    0.0919
    FORLOC:  cpu time    0.0070: real time    0.0075
    FORNL :  cpu time    0.3080: real time    0.3076
    STRESS:  cpu time    0.9809: real time    0.9807
    FORCOR:  cpu time    0.0780: real time    0.0774
    FORHAR:  cpu time    0.0170: real time    0.0168
    MIXING:  cpu time    0.0020: real time    0.0030
    OFIELD:  cpu time    0.0000: real time    0.0000

  DFT-D2 method for vdW energy calculation
  -------------------------------------------------------------------

  Parameters of vdW forcefield:
         C6(Jnm^6/mol)     R0(A)
   -----------------------------
   Mo      24.670          1.639
   S        5.570          1.683

  IVDW =   1
  VDW_RADIUS =    50.000 A
  VDW_S6 =     0.750
  VDW_SR =     1.000
  VDW_D =    20.000
  LVDW_EWALD = F

  Number of pair interactions contributing to vdW energy:   84128
  Edisp (eV):   -1.33129
    FORVDW:  cpu time    0.0220: real time    0.0262

  FORCE on cell =-STRESS in cart. coord.  units (eV):
  Direction    XX          YY          ZZ          XY          YZ          ZX
  --------------------------------------------------------------------------------------
  Alpha Z    90.42578    90.42578    90.42578
  Ewald     -12.90873   -12.90785 -1121.07429     0.00038     0.00000     0.00025
  Hartree   466.60280   466.60281  -390.21500     0.00003     0.00000    -0.00001
  E(xc)    -140.61566  -140.61567  -141.80751    -0.00001    -0.00000    -0.00000
  Local   -1080.43884 -1080.43939   872.67194    -0.00032    -0.00000    -0.00011
  n-local   254.32947   251.57692   263.35818    -0.51741     0.00014     0.00004
  augment   -51.12662   -51.12660   -53.32912     0.00003    -0.00000    -0.00001
  Kinetic   471.76606   477.35558   479.52442   -14.79811     0.00020    -0.00014
  Fock        0.00000     0.00000     0.00000     0.00000     0.00000     0.00000
  vdW         0.17103     0.17103    -0.86546     0.00000     0.00000    -0.00000
  -------------------------------------------------------------------------------------
  Total      -0.37606    -0.37606    -1.31108    -0.00000    -0.00000     0.00000
  in kB      -4.59406    -4.59406   -16.01648    -0.00000    -0.00000     0.00000
  external pressure =       -8.40 kB  Pullay stress =        0.00 kB


 VOLUME and BASIS-vectors are now :
 -----------------------------------------------------------------------------
  energy-cutoff  :      900.00
  volume of cell :      131.15
      direct lattice vectors                 reciprocal lattice vectors
     3.190315730  0.000000000  0.000000000     0.313448600  0.180969634  0.000000000
    -1.595157865  2.762894468  0.000000000     0.000000000  0.361939267  0.000000000
     0.000000000  0.000000000 14.879004300     0.000000000  0.000000000  0.067208798

  length of vectors
     3.190315730  3.190315730 14.879004300     0.361939267  0.361939267  0.067208798


 FORCES acting on ions
    electron-ion (+dipol)            ewald-force                    non-local-force                 convergence-correction
 -----------------------------------------------------------------------------------------------
   0.471E-04 -.344E-04 -.957E-05   0.928E-04 -.107E-03 0.288E-09   -.156E-16 0.104E-16 0.000E+00   0.113E-08 -.291E-08 -.273E-09
   0.662E-04 -.310E-04 -.957E-05   -.928E-04 0.107E-03 -.288E-09   0.121E-16 -.243E-16 0.000E+00   0.888E-08 -.287E-08 -.272E-09
   0.526E-03 -.304E-03 -.242E+03   0.865E-04 -.537E-04 0.247E+03   -.139E-16 -.121E-16 -.479E+01   0.945E-08 -.576E-08 0.981E-02
   -.118E-02 0.680E-03 0.242E+03   -.865E-04 0.537E-04 -.247E+03   0.113E-16 0.121E-16 0.479E+01   -.259E-07 0.153E-07 -.981E-02
   0.524E-03 0.690E-03 -.242E+03   -.638E-05 0.537E-04 0.247E+03   0.134E-16 0.139E-16 -.479E+01   0.102E-07 0.129E-07 0.981E-02
   -.121E-02 -.293E-03 0.242E+03   0.638E-05 -.537E-04 -.247E+03   -.121E-16 -.139E-16 0.479E+01   -.186E-07 -.811E-08 -.981E-02
 -----------------------------------------------------------------------------------------------
   -.122E-02 0.707E-03 -.106E-04   -.561E-14 0.109E-13 0.284E-13   -.477E-17 -.139E-16 -.888E-15   -.148E-07 0.857E-08 -.743E-09
 
 
 POSITION                                       TOTAL-FORCE (eV/Angst)
 -----------------------------------------------------------------------------------
     -0.00000      1.84193      3.71975         0.000000      0.000000     -0.000000
      1.59516      0.92096     11.15925        -0.000000      0.000000     -0.000000
     -0.00000      1.84193     12.72414         0.000000     -0.000000     -0.085353
      1.59516      0.92096      2.15487        -0.000000      0.000000      0.085353
      1.59516      0.92096      5.28464        -0.000000     -0.000000     -0.085353
      0.00000      1.84193      9.59437         0.000000      0.000000      0.085353
 -----------------------------------------------------------------------------------
    total drift:                               -0.001225      0.000707     -0.000011


--------------------------------------------------------------------------------------------------------



  FREE ENERGIE OF THE ION-ELECTRON SYSTEM (eV)
  ---------------------------------------------------
  free  energy   TOTEN  =       -44.94120111 eV

  energy  without entropy=      -44.94120111  energy(sigma->0) =      -44.94120111
 


--------------------------------------------------------------------------------------------------------


    POTLOK:  cpu time    0.0760: real time    0.0754


--------------------------------------------------------------------------------------------------------


     LOOP+:  cpu time   27.4008: real time   27.5221
    4ORBIT:  cpu time    0.0000: real time    0.0000
 BZINTS: Fermi energy:  3.314235; 36.000000 electrons
         Band energy: -67.740262;  BLOECHL correction:  0.000000

 total amount of memory used by VASP MPI-rank0    81994. kBytes
=======================================================================

   base      :      30000. kBytes
   nonl-proj :      23681. kBytes
   fftplans  :       5347. kBytes
   grid      :       8566. kBytes
   one-center:         46. kBytes
   wavefun   :      14354. kBytes
 
  
  
 General timing and accounting informations for this job:
 ========================================================
  
                  Total CPU time used (sec):       28.914
                            User time (sec):       28.229
                          System time (sec):        0.685
                         Elapsed time (sec):       29.539
  
                   Maximum memory used (kb):       77104.
                   Average memory used (kb):           0.
  
                          Minor page faults:        19924
                          Major page faults:            5
                 Voluntary context switches:         2000
