perl: warning: Setting locale failed.
perl: warning: Please check that your locale settings:
	LANGUAGE = (unset),
	LC_ALL = (unset),
	LC_CTYPE = "UTF-8",
	LANG = "en_US.iso885915"
    are supported and installed on your system.
perl: warning: Falling back to the standard locale ("C").
Starting job 28526458 ("jobname") on c15-30 at Fri Nov 8 00:02:25 CET 2019
 running on    4 total cores
 distrk:  each k-point on    4 cores,    1 groups
 distr:  one band on    2 cores,    2 groups
 using from now: INCAR     
 vasp.5.4.4.18Apr17-6-g9f103f2a35 (build Jun 30 2017 11:15:00) complex          
  
 POSCAR found type information on POSCAR  Mo S 
 POSCAR found :  2 types and       6 ions
 scaLAPACK will be used
 WARNING: PSMAXN for non-local potential too small
 LDA part: xc-table for Pade appr. of Perdew
 POSCAR, INCAR and KPOINTS ok, starting setup
 FFT: planning ...
 WAVECAR not read
 WARNING: random wavefunctions but no delay for mixing, default for NELMDL
 entering main loop
       N       E                     dE             d eps       ncg     rms          rms(c)
DAV:   1     0.290318066912E+03    0.29032E+03   -0.21579E+04   880   0.220E+03
DAV:   2    -0.163290997585E+02   -0.30665E+03   -0.29903E+03  1134   0.340E+02
DAV:   3    -0.459361043317E+02   -0.29607E+02   -0.29461E+02  1220   0.948E+01
DAV:   4    -0.467953501041E+02   -0.85925E+00   -0.85784E+00  1136   0.178E+01
DAV:   5    -0.468244043585E+02   -0.29054E-01   -0.29048E-01  1272   0.316E+00    0.974E+00
RMM:   6    -0.444400034197E+02    0.23844E+01   -0.24474E+01   982   0.198E+01    0.337E+00
RMM:   7    -0.436991500467E+02    0.74085E+00   -0.19406E+00   961   0.565E+00    0.178E+00
RMM:   8    -0.436376274915E+02    0.61523E-01   -0.92220E-01  1004   0.339E+00    0.848E-01
RMM:   9    -0.436277075537E+02    0.99199E-02   -0.31927E-01  1032   0.237E+00    0.602E-01
RMM:  10    -0.436097429942E+02    0.17965E-01   -0.74295E-02  1038   0.117E+00    0.819E-02
RMM:  11    -0.436097692945E+02   -0.26300E-04   -0.32022E-03  1115   0.240E-01    0.300E-02
RMM:  12    -0.436099139672E+02   -0.14467E-03   -0.51990E-04  1120   0.118E-01    0.179E-02
RMM:  13    -0.436099260157E+02   -0.12049E-04   -0.28997E-04  1159   0.682E-02    0.183E-02
RMM:  14    -0.436099136115E+02    0.12404E-04   -0.70363E-05   893   0.379E-02    0.246E-03
RMM:  15    -0.436099140936E+02   -0.48218E-06   -0.94819E-06   679   0.143E-02
 Error reading item 'IVDW' from file INCAR
   1 F= -.43609914E+02 E0= -.43609914E+02  d E =0.000000E+00

Currently Loaded Modulefiles:
  1) Anaconda3/5.1.0       3) vesta/3.3.8           5) intel/2016.1
  2) gnuplot/5.0.4         4) imagemagick/6.7.9-0   6) vasp/5.4.1.Feb16

Job script resource usage:
       JobID  MaxVMSize     MaxRSS 
------------ ---------- ---------- 
28526458.ba+    499276K      5186K 

Job step resource usage:
       JobID    JobName  AllocCPUS  MaxVMSize     MaxRSS    Elapsed ExitCode 
------------ ---------- ---------- ---------- ---------- ---------- -------- 
28526458        jobname          4                         00:00:34      0:0 
28526458.0    pmi_proxy          1   1453488K    261679K   00:00:32      0:0 

Job 28526458 ("jobname") completed on c15-30 at Fri Nov 8 00:02:57 CET 2019
