<?xml version="1.0" encoding="ISO-8859-1"?>
<modeling>
 <generator>
  <i name="program" type="string">vasp </i>
  <i name="version" type="string">5.4.4.18Apr17-6-g9f103f2a35  </i>
  <i name="subversion" type="string">(build Jun 30 2017 11:15:00) complex            parallel </i>
  <i name="platform" type="string">STALLO_VASP_5.4.4 </i>
  <i name="date" type="string">2019 11 08 </i>
  <i name="time" type="string">11:38:51 </i>
 </generator>
 <incar>
  <i type="string" name="PREC">normal    ! low/normal/accurate</i>
  <i type="string" name="ALGO"> Fast      ! Algorithm for electronic re</i>
  <i type="int" name="ISPIN">     1</i>
  <i type="int" name="NELMIN">     4</i>
  <i name="EDIFF">      0.00001000</i>
  <i type="int" name="NSW">     0</i>
  <i name="ENCUT">    900.00000000</i>
  <i type="logical" name="LREAL"> F  </i>
  <i type="int" name="ISMEAR">    -5</i>
  <i name="SIGMA">      0.20000000</i>
  <i type="logical" name="LWAVE"> F  </i>
  <v type="int" name="KPOINT_BSE">    -1     0     0     0</v>
 </incar>
 <structure name="primitive_cell" >
  <crystal>
   <varray name="basis" >
    <v>       3.19031573       0.00000000       0.00000000 </v>
    <v>      -1.59515786       2.76289447       0.00000000 </v>
    <v>       0.00000000       0.00000000      14.87900430 </v>
   </varray>
   <i name="volume">    131.15106795 </i>
   <varray name="rec_basis" >
    <v>       0.31344860       0.18096963       0.00000000 </v>
    <v>       0.00000000       0.36193927       0.00000000 </v>
    <v>       0.00000000       0.00000000       0.06720880 </v>
   </varray>
  </crystal>
  <varray name="positions" >
   <v>       0.33333300      -0.33333300       0.25000000 </v>
   <v>      -0.33333400       0.33333300       0.35517400 </v>
   <v>      -0.33333300       0.33333300       0.14482600 </v>
   <v>       0.33333300      -0.33333300      -0.14482600 </v>
   <v>       0.33333400      -0.33333300      -0.35517400 </v>
   <v>      -0.33333300       0.33333300      -0.25000000 </v>
  </varray>
 </structure>
 <varray name="primitive_index" >
  <v type="int" >        1 </v>
  <v type="int" >        5 </v>
  <v type="int" >        4 </v>
  <v type="int" >        3 </v>
  <v type="int" >        6 </v>
  <v type="int" >        2 </v>
 </varray>
 <kpoints>
  <generation param="Gamma">
   <v type="int" name="divisions">       8        8        2 </v>
   <v name="usershift">      0.00000000       0.00000000       0.00000000 </v>
   <v name="genvec1">      0.12500000       0.00000000       0.00000000 </v>
   <v name="genvec2">      0.00000000       0.12500000       0.00000000 </v>
   <v name="genvec3">      0.00000000       0.00000000       0.50000000 </v>
   <v name="shift">      0.00000000       0.00000000       0.00000000 </v>
  </generation>
  <varray name="kpointlist" >
   <v>       0.00000000       0.00000000       0.00000000 </v>
   <v>       0.12500000      -0.00000000       0.00000000 </v>
   <v>       0.25000000      -0.00000000       0.00000000 </v>
   <v>       0.37500000      -0.00000000       0.00000000 </v>
   <v>       0.50000000      -0.00000000       0.00000000 </v>
   <v>       0.12500000       0.12500000       0.00000000 </v>
   <v>       0.25000000       0.12500000       0.00000000 </v>
   <v>       0.37500000       0.12500000       0.00000000 </v>
   <v>       0.25000000       0.25000000       0.00000000 </v>
   <v>       0.37500000       0.25000000       0.00000000 </v>
   <v>       0.00000000       0.00000000       0.50000000 </v>
   <v>       0.12500000      -0.00000000       0.50000000 </v>
   <v>       0.25000000      -0.00000000       0.50000000 </v>
   <v>       0.37500000      -0.00000000       0.50000000 </v>
   <v>       0.50000000      -0.00000000       0.50000000 </v>
   <v>       0.12500000       0.12500000       0.50000000 </v>
   <v>       0.25000000       0.12500000       0.50000000 </v>
   <v>       0.37500000       0.12500000       0.50000000 </v>
   <v>       0.25000000       0.25000000       0.50000000 </v>
   <v>       0.37500000       0.25000000       0.50000000 </v>
  </varray>
  <varray name="weights" >
   <v>       0.00781250 </v>
   <v>       0.04687500 </v>
   <v>       0.04687500 </v>
   <v>       0.04687500 </v>
   <v>       0.02343750 </v>
   <v>       0.04687500 </v>
   <v>       0.09375000 </v>
   <v>       0.09375000 </v>
   <v>       0.04687500 </v>
   <v>       0.04687500 </v>
   <v>       0.00781250 </v>
   <v>       0.04687500 </v>
   <v>       0.04687500 </v>
   <v>       0.04687500 </v>
   <v>       0.02343750 </v>
   <v>       0.04687500 </v>
   <v>       0.09375000 </v>
   <v>       0.09375000 </v>
   <v>       0.04687500 </v>
   <v>       0.04687500 </v>
  </varray>
  <varray name="tetrahedronlist"  type="int" >
   <v type="int" >        8        2        2        6       12 </v>
   <v type="int" >        8        1        2        2       12 </v>
   <v type="int" >        4        1        2       11       12 </v>
   <v type="int" >        4        2        6       12       16 </v>
   <v type="int" >        8        2       12       12       16 </v>
   <v type="int" >        8        2       11       12       12 </v>
   <v type="int" >        8        3        6        7       16 </v>
   <v type="int" >        8        2        3        6       16 </v>
   <v type="int" >        4        2        3       12       16 </v>
   <v type="int" >        4        3        7       16       17 </v>
   <v type="int" >        8        3       13       16       17 </v>
   <v type="int" >        8        3       12       13       16 </v>
   <v type="int" >        8        4        7        8       17 </v>
   <v type="int" >        8        3        4        7       17 </v>
   <v type="int" >        4        3        4       13       17 </v>
   <v type="int" >        4        4        8       17       18 </v>
   <v type="int" >        8        4       14       17       18 </v>
   <v type="int" >        8        4       13       14       17 </v>
   <v type="int" >        8        5        8        8       18 </v>
   <v type="int" >        8        4        5        8       18 </v>
   <v type="int" >        4        4        5       14       18 </v>
   <v type="int" >        4        5        8       18       18 </v>
   <v type="int" >        4        5       15       18       18 </v>
   <v type="int" >        8        5       14       15       18 </v>
   <v type="int" >        8        4        7        8       18 </v>
   <v type="int" >        4        4        5       15       18 </v>
   <v type="int" >        4        4        7       17       18 </v>
   <v type="int" >        8        4       14       15       18 </v>
   <v type="int" >        8        3        6        7       17 </v>
   <v type="int" >        4        3        4       14       17 </v>
   <v type="int" >        4        3        6       16       17 </v>
   <v type="int" >        8        3       13       14       17 </v>
   <v type="int" >        4        2        2        6       16 </v>
   <v type="int" >        4        2        3       13       16 </v>
   <v type="int" >        4        2        2       12       16 </v>
   <v type="int" >        8        2       12       13       16 </v>
   <v type="int" >        4        1        2       12       12 </v>
   <v type="int" >        4        1       11       12       12 </v>
   <v type="int" >        8        3        6        7       13 </v>
   <v type="int" >        8        2        3        6       13 </v>
   <v type="int" >        4        2        6       12       13 </v>
   <v type="int" >        4        6        7       13       17 </v>
   <v type="int" >        8        6       13       16       17 </v>
   <v type="int" >        8        6       12       13       16 </v>
   <v type="int" >        8        7        7        9       17 </v>
   <v type="int" >        8        6        7        7       17 </v>
   <v type="int" >        4        6        7       16       17 </v>
   <v type="int" >        4        7        9       17       19 </v>
   <v type="int" >        8        7       17       17       19 </v>
   <v type="int" >        8        7       16       17       17 </v>
   <v type="int" >        8        8        9       10       19 </v>
   <v type="int" >        8        7        8        9       19 </v>
   <v type="int" >        4        7        8       17       19 </v>
   <v type="int" >        4        8       10       19       20 </v>
   <v type="int" >        8        8       18       19       20 </v>
   <v type="int" >        8        8       17       18       19 </v>
   <v type="int" >        8        8        9       10       20 </v>
   <v type="int" >        4        8        8       10       20 </v>
   <v type="int" >        4        8        8       18       20 </v>
   <v type="int" >        4        8        9       19       20 </v>
   <v type="int" >        8        8       18       18       20 </v>
   <v type="int" >        4        7        7        9       19 </v>
   <v type="int" >        4        7        8       18       19 </v>
   <v type="int" >        4        7        7       17       19 </v>
   <v type="int" >        8        7       17       18       19 </v>
   <v type="int" >        4        6        7       17       17 </v>
   <v type="int" >        4        3        6       13       17 </v>
   <v type="int" >        4        6       16       17       17 </v>
   <v type="int" >        4        2        6       13       16 </v>
   <v type="int" >        8        4        7        8       14 </v>
   <v type="int" >        8        3        4        7       14 </v>
   <v type="int" >        4        3        7       13       14 </v>
   <v type="int" >        4        7        8       14       18 </v>
   <v type="int" >        8        7       14       17       18 </v>
   <v type="int" >        8        7       13       14       17 </v>
   <v type="int" >        8        8        9       10       18 </v>
   <v type="int" >        8        7        8        9       18 </v>
   <v type="int" >        4        7        9       17       18 </v>
   <v type="int" >        4        9       10       18       20 </v>
   <v type="int" >        8        9       18       19       20 </v>
   <v type="int" >        8        9       17       18       19 </v>
   <v type="int" >        4       10       10       10       20 </v>
   <v type="int" >        8        9       10       10       20 </v>
   <v type="int" >        4        9       10       19       20 </v>
   <v type="int" >        4       10       10       20       20 </v>
   <v type="int" >        4       10       20       20       20 </v>
   <v type="int" >        8       10       19       20       20 </v>
   <v type="int" >        4        9       10       20       20 </v>
   <v type="int" >        4        8        9       18       20 </v>
   <v type="int" >        4        9       19       20       20 </v>
   <v type="int" >        4        7        9       18       19 </v>
   <v type="int" >        4        4        7       14       18 </v>
   <v type="int" >        4        3        7       14       17 </v>
   <v type="int" >        4        5        8        8       15 </v>
   <v type="int" >        8        4        5        8       15 </v>
   <v type="int" >        4        4        8       14       15 </v>
   <v type="int" >        4        8        8       15       18 </v>
   <v type="int" >        8        8       15       18       18 </v>
   <v type="int" >        8        8       14       15       18 </v>
   <v type="int" >        8        8        8       10       18 </v>
   <v type="int" >        4        8       10       18       18 </v>
   <v type="int" >        4        9       10       18       19 </v>
   <v type="int" >        8       10       18       19       20 </v>
   <v type="int" >        4       10       18       18       20 </v>
   <v type="int" >        4        9       10       10       19 </v>
   <v type="int" >        4       10       10       19       20 </v>
   <v type="int" >        4        8       10       18       19 </v>
   <v type="int" >        4        8       10       18       20 </v>
   <v type="int" >        4        5        8       15       18 </v>
   <v type="int" >        4        4        8       15       18 </v>
   <v type="int" >        8        4        5        8       14 </v>
   <v type="int" >        4        5        8       14       15 </v>
   <v type="int" >        4        7        8       14       17 </v>
   <v type="int" >        8        8       14       17       18 </v>
   <v type="int" >        8        7        8        9       17 </v>
   <v type="int" >        4        8        9       17       18 </v>
   <v type="int" >        4        7        9       17       17 </v>
   <v type="int" >        4        9       17       17       19 </v>
   <v type="int" >        4        8        9       17       19 </v>
   <v type="int" >        4        4        8       14       17 </v>
   <v type="int" >        4        5        8       14       18 </v>
   <v type="int" >        8        3        4        7       13 </v>
   <v type="int" >        4        4        7       13       14 </v>
   <v type="int" >        4        6        7       13       16 </v>
   <v type="int" >        8        7       13       16       17 </v>
   <v type="int" >        4        6        7        7       16 </v>
   <v type="int" >        4        7        7       16       17 </v>
   <v type="int" >        4        3        7       13       16 </v>
   <v type="int" >        4        4        7       13       17 </v>
   <v type="int" >        8        2        3        6       12 </v>
   <v type="int" >        4        3        6       12       13 </v>
   <v type="int" >        4        2        6       12       12 </v>
   <v type="int" >        4        6       12       12       16 </v>
   <v type="int" >        4        3        6       12       16 </v>
   <v type="int" >        4        1        2        2       11 </v>
   <v type="int" >        4        2        2       11       12 </v>
  </varray>
  <i name="volumeweight">      0.00130208 </i>
 </kpoints>
 <parameters>
  <separator name="general" >
   <i type="string" name="SYSTEM">unknown system</i>
   <i type="logical" name="LCOMPAT"> F  </i>
  </separator>
  <separator name="electronic" >
   <i type="string" name="PREC">normal</i>
   <i name="ENMAX">    900.00000000</i>
   <i name="ENAUG">    345.27800000</i>
   <i name="EDIFF">      0.00001000</i>
   <i type="int" name="IALGO">    68</i>
   <i type="int" name="IWAVPR">    10</i>
   <i type="int" name="NBANDS">    22</i>
   <i name="NELECT">     36.00000000</i>
   <i type="int" name="TURBO">     0</i>
   <i type="int" name="IRESTART">     0</i>
   <i type="int" name="NREBOOT">     0</i>
   <i type="int" name="NMIN">     0</i>
   <i name="EREF">      0.00000000</i>
   <separator name="electronic smearing" >
    <i type="int" name="ISMEAR">    -5</i>
    <i name="SIGMA">      0.20000000</i>
    <i name="KSPACING">      0.50000000</i>
    <i type="logical" name="KGAMMA"> T  </i>
   </separator>
   <separator name="electronic projectors" >
    <i type="logical" name="LREAL"> F  </i>
    <v name="ROPT">      0.00000000      0.00000000</v>
    <i type="int" name="LMAXPAW">  -100</i>
    <i type="int" name="LMAXMIX">     2</i>
    <i type="logical" name="NLSPLINE"> F  </i>
   </separator>
   <separator name="electronic startup" >
    <i type="int" name="ISTART">     0</i>
    <i type="int" name="ICHARG">     2</i>
    <i type="int" name="INIWAV">     1</i>
   </separator>
   <separator name="electronic spin" >
    <i type="int" name="ISPIN">     1</i>
    <i type="logical" name="LNONCOLLINEAR"> F  </i>
    <v name="MAGMOM">      1.00000000      1.00000000      1.00000000      1.00000000      1.00000000      1.00000000</v>
    <i name="NUPDOWN">     -1.00000000</i>
    <i type="logical" name="LSORBIT"> F  </i>
    <v name="SAXIS">      0.00000000      0.00000000      1.00000000</v>
    <i type="logical" name="LSPIRAL"> F  </i>
    <v name="QSPIRAL">      0.00000000      0.00000000      0.00000000</v>
    <i type="logical" name="LZEROZ"> F  </i>
   </separator>
   <separator name="electronic exchange-correlation" >
    <i type="logical" name="LASPH"> F  </i>
    <i type="logical" name="LMETAGGA"> F  </i>
   </separator>
   <separator name="electronic convergence" >
    <i type="int" name="NELM">    60</i>
    <i type="int" name="NELMDL">     0</i>
    <i type="int" name="NELMIN">     4</i>
    <i name="ENINI">    900.00000000</i>
    <separator name="electronic convergence detail" >
     <i type="logical" name="LDIAG"> T  </i>
     <i type="logical" name="LSUBROT"> F  </i>
     <i name="WEIMIN">      0.00000000</i>
     <i name="EBREAK">      0.00000011</i>
     <i name="DEPER">      0.30000000</i>
     <i type="int" name="NRMM">     4</i>
     <i name="TIME">      0.40000000</i>
    </separator>
   </separator>
   <separator name="electronic mixer" >
    <i name="AMIX">      0.40000000</i>
    <i name="BMIX">      1.00000000</i>
    <i name="AMIN">      0.10000000</i>
    <i name="AMIX_MAG">      1.60000000</i>
    <i name="BMIX_MAG">      1.00000000</i>
    <separator name="electronic mixer details" >
     <i type="int" name="IMIX">     4</i>
     <i type="logical" name="MIXFIRST"> F  </i>
     <i type="int" name="MAXMIX">   -45</i>
     <i name="WC">    100.00000000</i>
     <i type="int" name="INIMIX">     1</i>
     <i type="int" name="MIXPRE">     1</i>
     <i type="int" name="MREMOVE">     5</i>
    </separator>
   </separator>
   <separator name="electronic dipolcorrection" >
    <i type="logical" name="LDIPOL"> F  </i>
    <i type="logical" name="LMONO"> F  </i>
    <i type="int" name="IDIPOL">     0</i>
    <i name="EPSILON">      1.00000000</i>
    <v name="DIPOL">   -100.00000000   -100.00000000   -100.00000000</v>
    <i name="EFIELD">      0.00000000</i>
   </separator>
  </separator>
  <separator name="grids" >
   <i type="int" name="NGX">    24</i>
   <i type="int" name="NGY">    24</i>
   <i type="int" name="NGZ">   112</i>
   <i type="int" name="NGXF">    48</i>
   <i type="int" name="NGYF">    48</i>
   <i type="int" name="NGZF">   224</i>
   <i type="logical" name="ADDGRID"> F  </i>
  </separator>
  <separator name="ionic" >
   <i type="int" name="NSW">     0</i>
   <i type="int" name="IBRION">    -1</i>
   <i type="int" name="MDALGO">     0</i>
   <i type="int" name="ISIF">     2</i>
   <i name="PSTRESS">      0.00000000</i>
   <i name="EDIFFG">      0.00010000</i>
   <i type="int" name="NFREE">     0</i>
   <i name="POTIM">      0.50000000</i>
   <i name="SMASS">     -3.00000000</i>
   <i name="SCALEE">      1.00000000</i>
  </separator>
  <separator name="ionic md" >
   <i name="TEBEG">      0.00010000</i>
   <i name="TEEND">      0.00010000</i>
   <i type="int" name="NBLOCK">     1</i>
   <i type="int" name="KBLOCK">     1</i>
   <i type="int" name="NPACO">   256</i>
   <i name="APACO">     16.00000000</i>
  </separator>
  <separator name="symmetry" >
   <i type="int" name="ISYM">     2</i>
   <i name="SYMPREC">      0.00001000</i>
  </separator>
  <separator name="dos" >
   <i type="int" name="LORBIT">     0</i>
   <v name="RWIGS">     -1.00000000     -1.00000000</v>
   <i type="int" name="NEDOS">   301</i>
   <i name="EMIN">     10.00000000</i>
   <i name="EMAX">    -10.00000000</i>
   <i name="EFERMI">      0.00000000</i>
  </separator>
  <separator name="writing" >
   <i type="int" name="NWRITE">     2</i>
   <i type="logical" name="LWAVE"> F  </i>
   <i type="logical" name="LDOWNSAMPLE"> F  </i>
   <i type="logical" name="LCHARG"> T  </i>
   <i type="logical" name="LPARD"> F  </i>
   <i type="logical" name="LVTOT"> F  </i>
   <i type="logical" name="LVHAR"> F  </i>
   <i type="logical" name="LELF"> F  </i>
   <i type="logical" name="LOPTICS"> F  </i>
   <v name="STM">      0.00000000      0.00000000      0.00000000      0.00000000      0.00000000      0.00000000      0.00000000</v>
  </separator>
  <separator name="performance" >
   <i type="int" name="NPAR">     2</i>
   <i type="int" name="NSIM">     4</i>
   <i type="int" name="NBLK">    -1</i>
   <i type="logical" name="LPLANE"> T  </i>
   <i type="logical" name="LSCALAPACK"> T  </i>
   <i type="logical" name="LSCAAWARE"> F  </i>
   <i type="logical" name="LSCALU"> F  </i>
   <i type="logical" name="LASYNC"> F  </i>
   <i type="logical" name="LORBITALREAL"> F  </i>
  </separator>
  <separator name="miscellaneous" >
   <i type="int" name="IDIOT">     3</i>
   <i type="int" name="ISPECIAL">     0</i>
   <i type="logical" name="LMUSIC"> F  </i>
   <v name="POMASS">     95.94000000     32.06600000</v>
   <v name="DARWINR">      0.00000000      0.00000000</v>
   <v name="DARWINV">      1.00000000      1.00000000</v>
   <i type="logical" name="LCORR"> T  </i>
  </separator>
  <i type="logical" name="GGA_COMPAT"> T  </i>
  <i type="logical" name="LBERRY"> F  </i>
  <i type="int" name="ICORELEVEL">     0</i>
  <i type="logical" name="LDAU"> F  </i>
  <i type="int" name="I_CONSTRAINED_M">     0</i>
  <separator name="electronic exchange-correlation" >
   <i type="string" name="GGA">--</i>
   <i type="int" name="VOSKOWN">     0</i>
   <i type="logical" name="LHFCALC"> F  </i>
   <i type="string" name="PRECFOCK"></i>
   <i type="logical" name="LSYMGRAD"> F  </i>
   <i type="logical" name="LHFONE"> F  </i>
   <i type="logical" name="LRHFCALC"> F  </i>
   <i type="logical" name="LTHOMAS"> F  </i>
   <i type="logical" name="LMODELHF"> F  </i>
   <i name="ENCUT4O">     -1.00000000</i>
   <i type="int" name="EXXOEP">     0</i>
   <i type="int" name="FOURORBIT">     0</i>
   <i name="AEXX">      0.00000000</i>
   <i name="HFALPHA">      0.00000000</i>
   <i name="MCALPHA">      0.00000000</i>
   <i name="ALDAX">      1.00000000</i>
   <i name="AGGAX">      1.00000000</i>
   <i name="ALDAC">      1.00000000</i>
   <i name="AGGAC">      1.00000000</i>
   <i type="int" name="NKREDX">     1</i>
   <i type="int" name="NKREDY">     1</i>
   <i type="int" name="NKREDZ">     1</i>
   <i type="logical" name="SHIFTRED"> F  </i>
   <i type="logical" name="ODDONLY"> F  </i>
   <i type="logical" name="EVENONLY"> F  </i>
   <i type="int" name="LMAXFOCK">     0</i>
   <i type="int" name="NMAXFOCKAE">     0</i>
   <i type="logical" name="LFOCKAEDFT"> F  </i>
   <i name="HFSCREEN">      0.00000000</i>
   <i name="HFSCREENC">      0.00000000</i>
   <i type="int" name="NBANDSGWLOW">     0</i>
  </separator>
  <separator name="vdW DFT" >
   <i type="logical" name="LUSE_VDW"> F  </i>
   <i name="Zab_VDW">     -0.84910000</i>
   <i name="PARAM1">      0.12340000</i>
   <i name="PARAM2">      1.00000000</i>
   <i name="PARAM3">      0.00000000</i>
  </separator>
  <separator name="model GW" >
   <i type="int" name="MODEL_GW">     0</i>
   <i name="MODEL_EPS0">     13.11510680</i>
   <i name="MODEL_ALPHA">      1.00000000</i>
  </separator>
  <separator name="linear response parameters" >
   <i type="logical" name="LEPSILON"> F  </i>
   <i type="logical" name="LRPA"> F  </i>
   <i type="logical" name="LNABLA"> F  </i>
   <i type="logical" name="LVEL"> F  </i>
   <i type="int" name="KINTER">     0</i>
   <i name="CSHIFT">      0.10000000</i>
   <i name="OMEGAMAX">     -1.00000000</i>
   <i name="DEG_THRESHOLD">      0.00200000</i>
   <i name="RTIME">     -0.10000000</i>
   <i name="WPLASMAI">      0.00000000</i>
   <v name="DFIELD">      0.00000000      0.00000000      0.00000000</v>
   <v name="WPLASMA">      0.00000000      0.00000000      0.00000000      0.00000000      0.00000000      0.00000000      0.00000000      0.00000000      0.00000000</v>
  </separator>
  <separator name="orbital magnetization" >
   <i type="logical" name="NUCIND"> F  </i>
   <v name="MAGPOS">      0.00000000      0.00000000      0.00000000</v>
   <i type="logical" name="LNICSALL"> T  </i>
   <i type="logical" name="ORBITALMAG"> F  </i>
   <i type="logical" name="LMAGBLOCH"> F  </i>
   <i type="logical" name="LCHIMAG"> F  </i>
   <i type="logical" name="LGAUGE"> T  </i>
   <i type="int" name="MAGATOM">     0</i>
   <v name="MAGDIPOL">      0.00000000      0.00000000      0.00000000</v>
   <v name="AVECCONST">      0.00000000      0.00000000      0.00000000</v>
  </separator>
  <separator name="response functions" >
   <i type="logical" name="LADDER"> F  </i>
   <i type="logical" name="LRPAFORCE"> F  </i>
   <i type="logical" name="LFXC"> F  </i>
   <i type="logical" name="LHARTREE"> T  </i>
   <i type="int" name="IBSE">     0</i>
   <v type="int" name="KPOINT">    -1     0     0     0</v>
   <i type="logical" name="LTCTE"> F  </i>
   <i type="logical" name="LTETE"> F  </i>
   <i type="logical" name="LTRIPLET"> F  </i>
   <i type="logical" name="LFXCEPS"> F  </i>
   <i type="logical" name="LFXHEG"> F  </i>
   <i type="int" name="NATURALO">     2</i>
   <i type="logical" name="L2ORDER"> F  </i>
   <i type="logical" name="LMP2LT"> F  </i>
   <i type="logical" name="LUSEW"> F  </i>
   <i name="ENCUTGW">     -2.00000000</i>
   <i name="ENCUTGWSOFT">     -2.00000000</i>
   <i name="ENCUTLF">     -1.00000000</i>
   <i type="int" name="LMAXMP2">    -1</i>
   <i name="SCISSOR">      0.00000000</i>
   <i type="int" name="NOMEGA">     0</i>
   <i type="int" name="NOMEGAR">     0</i>
   <i type="int" name="NBANDSGW">    -1</i>
   <i type="int" name="NBANDSO">    -1</i>
   <i type="int" name="NBANDSV">    -1</i>
   <i type="int" name="NELM">     1</i>
   <i type="int" name="NELMHF">     1</i>
   <i type="int" name="DIM">     3</i>
   <i type="int" name="ANTIRES">     0</i>
   <i name="OMEGAMAX">    -30.00000000</i>
   <i name="OMEGAMIN">    -30.00000000</i>
   <i name="OMEGATL">   -200.00000000</i>
   <i type="int" name="OMEGAGRID">   140</i>
   <i name="CSHIFT">     -0.10000000</i>
   <i type="logical" name="SELFENERGY"> F  </i>
   <i type="logical" name="LSPECTRAL"> F  </i>
   <i type="logical" name="LSPECTRALGW"> F  </i>
   <i type="logical" name="LSINGLES"> F  </i>
   <i type="logical" name="LFERMIGW"> F  </i>
   <i type="logical" name="ODDONLYGW"> F  </i>
   <i type="logical" name="EVENONLYGW"> F  </i>
   <i type="int" name="NKREDLFX">     1</i>
   <i type="int" name="NKREDLFY">     1</i>
   <i type="int" name="NKREDLFZ">     1</i>
   <i type="int" name="MAXMEM">  2800</i>
   <i type="int" name="TELESCOPE">     0</i>
   <i type="int" name="TAUPAR">     1</i>
   <i type="int" name="OMEGAPAR">    -1</i>
   <i name="LAMBDA">      1.00000000</i>
  </separator>
  <separator name="External order field" >
   <i name="OFIELD_KAPPA">      0.00000000</i>
   <v name="OFIELD_K">      0.00000000      0.00000000      0.00000000</v>
   <i name="OFIELD_Q6_NEAR">      0.00000000</i>
   <i name="OFIELD_Q6_FAR">      0.00000000</i>
   <i name="OFIELD_A">      0.00000000</i>
  </separator>
 </parameters>
 <atominfo>
  <atoms>       6 </atoms>
  <types>       2 </types>
  <array name="atoms" >
   <dimension dim="1">ion</dimension>
   <field type="string">element</field>
   <field type="int">atomtype</field>
   <set>
    <rc><c>Mo</c><c>   1</c></rc>
    <rc><c>Mo</c><c>   1</c></rc>
    <rc><c>S </c><c>   2</c></rc>
    <rc><c>S </c><c>   2</c></rc>
    <rc><c>S </c><c>   2</c></rc>
    <rc><c>S </c><c>   2</c></rc>
   </set>
  </array>
  <array name="atomtypes" >
   <dimension dim="1">type</dimension>
   <field type="int">atomspertype</field>
   <field type="string">element</field>
   <field>mass</field>
   <field>valence</field>
   <field type="string">pseudopotential</field>
   <set>
    <rc><c>   2</c><c>Mo</c><c>     95.94000000</c><c>      6.00000000</c><c> PAW_PBE Mo 08Apr2002                   </c></rc>
    <rc><c>   4</c><c>S </c><c>     32.06600000</c><c>      6.00000000</c><c>  PAW_PBE S 17Jan2003                   </c></rc>
   </set>
  </array>
 </atominfo>
 <structure name="initialpos" >
  <crystal>
   <varray name="basis" >
    <v>       3.19031573       0.00000000       0.00000000 </v>
    <v>      -1.59515786       2.76289447       0.00000000 </v>
    <v>       0.00000000       0.00000000      14.87900430 </v>
   </varray>
   <i name="volume">    131.15106795 </i>
   <varray name="rec_basis" >
    <v>       0.31344860       0.18096963       0.00000000 </v>
    <v>       0.00000000       0.36193927       0.00000000 </v>
    <v>       0.00000000       0.00000000       0.06720880 </v>
   </varray>
  </crystal>
  <varray name="positions" >
   <v>       0.33333300       0.66666700       0.25000000 </v>
   <v>       0.66666700       0.33333300       0.75000000 </v>
   <v>       0.33333300       0.66666700       0.85517400 </v>
   <v>       0.66666700       0.33333300       0.14482600 </v>
   <v>       0.66666600       0.33333300       0.35517400 </v>
   <v>       0.33333400       0.66666700       0.64482600 </v>
  </varray>
 </structure>
 <calculation>
  <scstep>
   <time name="dav">    1.42    1.42</time>
   <time name="total">    1.52    1.57</time>
   <energy>
    <i name="alphaZ">     90.42577596 </i>
    <i name="ewald">  -1146.88905665 </i>
    <i name="hartreedc">   -535.10238363 </i>
    <i name="XCdc">    -72.59367983 </i>
    <i name="pawpsdc">    813.77302396 </i>
    <i name="pawaedc">   -658.68146406 </i>
    <i name="eentropy">      0.00000000 </i>
    <i name="bandstr">    257.05931639 </i>
    <i name="atom">   1542.32653476 </i>
    <i name="e_fr_energy">    290.31806691 </i>
    <i name="e_wo_entrp">    290.31806691 </i>
    <i name="e_0_energy">    290.31806691 </i>
   </energy>
  </scstep>
  <scstep>
   <time name="dav">    1.70    1.70</time>
   <time name="total">    1.70    1.70</time>
   <energy>
    <i name="e_fr_energy">    -16.32909976 </i>
    <i name="e_wo_entrp">    -16.32909976 </i>
    <i name="e_0_energy">    -16.32909976 </i>
   </energy>
  </scstep>
  <scstep>
   <time name="dav">    1.80    1.80</time>
   <time name="total">    1.81    1.81</time>
   <energy>
    <i name="e_fr_energy">    -45.93610433 </i>
    <i name="e_wo_entrp">    -45.93610433 </i>
    <i name="e_0_energy">    -45.93610433 </i>
   </energy>
  </scstep>
  <scstep>
   <time name="dav">    1.70    1.70</time>
   <time name="total">    1.70    1.71</time>
   <energy>
    <i name="e_fr_energy">    -46.79535010 </i>
    <i name="e_wo_entrp">    -46.79535010 </i>
    <i name="e_0_energy">    -46.79535010 </i>
   </energy>
  </scstep>
  <scstep>
   <time name="dav">    1.84    1.84</time>
   <time name="total">    1.93    1.93</time>
   <energy>
    <i name="e_fr_energy">    -46.82440436 </i>
    <i name="e_wo_entrp">    -46.82440436 </i>
    <i name="e_0_energy">    -46.82440436 </i>
   </energy>
  </scstep>
  <scstep>
   <time name="diag">    0.23    0.23</time>
   <time name="diis">    1.20    1.20</time>
   <time name="orth">    0.03    0.03</time>
   <time name="total">    1.64    1.64</time>
   <energy>
    <i name="e_fr_energy">    -44.44000342 </i>
    <i name="e_wo_entrp">    -44.44000342 </i>
    <i name="e_0_energy">    -44.44000342 </i>
   </energy>
  </scstep>
  <scstep>
   <time name="diag">    0.23    0.23</time>
   <time name="diis">    1.18    1.18</time>
   <time name="orth">    0.03    0.03</time>
   <time name="total">    1.62    1.62</time>
   <energy>
    <i name="e_fr_energy">    -43.69915005 </i>
    <i name="e_wo_entrp">    -43.69915005 </i>
    <i name="e_0_energy">    -43.69915005 </i>
   </energy>
  </scstep>
  <scstep>
   <time name="diag">    0.23    0.24</time>
   <time name="diis">    1.24    1.24</time>
   <time name="orth">    0.03    0.03</time>
   <time name="total">    1.68    1.68</time>
   <energy>
    <i name="e_fr_energy">    -43.63762749 </i>
    <i name="e_wo_entrp">    -43.63762749 </i>
    <i name="e_0_energy">    -43.63762749 </i>
   </energy>
  </scstep>
  <scstep>
   <time name="diag">    0.23    0.23</time>
   <time name="diis">    1.27    1.27</time>
   <time name="orth">    0.03    0.03</time>
   <time name="total">    1.71    1.71</time>
   <energy>
    <i name="e_fr_energy">    -43.62770755 </i>
    <i name="e_wo_entrp">    -43.62770755 </i>
    <i name="e_0_energy">    -43.62770755 </i>
   </energy>
  </scstep>
  <scstep>
   <time name="diag">    0.23    0.23</time>
   <time name="diis">    1.29    1.29</time>
   <time name="orth">    0.03    0.03</time>
   <time name="total">    1.73    1.73</time>
   <energy>
    <i name="e_fr_energy">    -43.60974299 </i>
    <i name="e_wo_entrp">    -43.60974299 </i>
    <i name="e_0_energy">    -43.60974299 </i>
   </energy>
  </scstep>
  <scstep>
   <time name="diag">    0.23    0.23</time>
   <time name="diis">    1.37    1.37</time>
   <time name="orth">    0.03    0.03</time>
   <time name="total">    1.81    1.81</time>
   <energy>
    <i name="e_fr_energy">    -43.60976929 </i>
    <i name="e_wo_entrp">    -43.60976929 </i>
    <i name="e_0_energy">    -43.60976929 </i>
   </energy>
  </scstep>
  <scstep>
   <time name="diag">    0.23    0.23</time>
   <time name="diis">    1.37    1.37</time>
   <time name="orth">    0.03    0.03</time>
   <time name="total">    1.81    1.81</time>
   <energy>
    <i name="e_fr_energy">    -43.60991397 </i>
    <i name="e_wo_entrp">    -43.60991397 </i>
    <i name="e_0_energy">    -43.60991397 </i>
   </energy>
  </scstep>
  <scstep>
   <time name="diag">    0.24    0.24</time>
   <time name="diis">    1.42    1.42</time>
   <time name="orth">    0.03    0.03</time>
   <time name="total">    1.86    1.86</time>
   <energy>
    <i name="e_fr_energy">    -43.60992602 </i>
    <i name="e_wo_entrp">    -43.60992602 </i>
    <i name="e_0_energy">    -43.60992602 </i>
   </energy>
  </scstep>
  <scstep>
   <time name="diag">    0.23    0.23</time>
   <time name="diis">    1.11    1.11</time>
   <time name="orth">    0.03    0.03</time>
   <time name="total">    1.55    1.56</time>
   <energy>
    <i name="e_fr_energy">    -43.60991361 </i>
    <i name="e_wo_entrp">    -43.60991361 </i>
    <i name="e_0_energy">    -43.60991361 </i>
   </energy>
  </scstep>
  <scstep>
   <time name="diag">    0.24    0.24</time>
   <time name="diis">    0.85    0.85</time>
   <time name="orth">    0.03    0.03</time>
   <time name="total">    1.20    1.20</time>
   <energy>
    <i name="alphaZ">     90.42577596 </i>
    <i name="ewald">  -1146.88905665 </i>
    <i name="hartreedc">   -542.96385940 </i>
    <i name="XCdc">    -70.38671629 </i>
    <i name="pawpsdc">    943.59133393 </i>
    <i name="pawaedc">   -791.97366424 </i>
    <i name="eentropy">      0.00000000 </i>
    <i name="bandstr">    -67.74026217 </i>
    <i name="atom">   1542.32653476 </i>
    <i name="e_fr_energy">    -43.60991409 </i>
    <i name="e_wo_entrp">    -43.60991409 </i>
    <i name="e_0_energy">    -43.60991409 </i>
   </energy>
  </scstep>
  <structure>
   <crystal>
    <varray name="basis" >
     <v>       3.19031573       0.00000000       0.00000000 </v>
     <v>      -1.59515786       2.76289447       0.00000000 </v>
     <v>       0.00000000       0.00000000      14.87900430 </v>
    </varray>
    <i name="volume">    131.15106795 </i>
    <varray name="rec_basis" >
     <v>       0.31344860       0.18096963       0.00000000 </v>
     <v>       0.00000000       0.36193927       0.00000000 </v>
     <v>       0.00000000       0.00000000       0.06720880 </v>
    </varray>
   </crystal>
   <varray name="positions" >
    <v>       0.33333300       0.66666700       0.25000000 </v>
    <v>       0.66666700       0.33333300       0.75000000 </v>
    <v>       0.33333300       0.66666700       0.85517400 </v>
    <v>       0.66666700       0.33333300       0.14482600 </v>
    <v>       0.66666600       0.33333300       0.35517400 </v>
    <v>       0.33333400       0.66666700       0.64482600 </v>
   </varray>
  </structure>
  <varray name="forces" >
   <v>       0.00000000       0.00000000      -0.00000000 </v>
   <v>      -0.00000000       0.00000000      -0.00000000 </v>
   <v>       0.00000000      -0.00000000      -0.08535302 </v>
   <v>      -0.00000000       0.00000000       0.08535302 </v>
   <v>      -0.00000000      -0.00000000      -0.08535302 </v>
   <v>       0.00000000       0.00000000       0.08535302 </v>
  </varray>
  <varray name="stress" >
   <v>      -4.59406370       0.00000000       0.00000000 </v>
   <v>      -0.00000000      -4.59406370       0.00000000 </v>
   <v>       0.00000000      -0.00000000     -16.01648161 </v>
  </varray>
  <energy>
   <i name="e_fr_energy">    -44.94120111 </i>
   <i name="e_wo_entrp">    -44.94120111 </i>
   <i name="e_0_energy">      0.00000000 </i>
  </energy>
  <time name="totalsc">   27.40   27.52</time>
  <eigenvalues>
   <array>
    <dimension dim="1">band</dimension>
    <dimension dim="2">kpoint</dimension>
    <dimension dim="3">spin</dimension>
    <field>eigene</field>
    <field>occ</field>
    <set>
     <set comment="spin 1">
      <set comment="kpoint 1">
       <r>  -10.9296    1.0000 </r>
       <r>  -10.9106    1.0000 </r>
       <r>   -9.7291    1.0000 </r>
       <r>   -9.6951    1.0000 </r>
       <r>   -2.5237    1.0000 </r>
       <r>   -2.3622    1.0000 </r>
       <r>    0.5194    1.0000 </r>
       <r>    0.5194    1.0000 </r>
       <r>    0.5199    1.0000 </r>
       <r>    0.5199    1.0000 </r>
       <r>    1.1060    1.0000 </r>
       <r>    1.6243    1.0000 </r>
       <r>    1.6243    1.0000 </r>
       <r>    1.6262    1.0000 </r>
       <r>    1.6263    1.0000 </r>
       <r>    1.6743    1.0000 </r>
       <r>    2.9222    1.0000 </r>
       <r>    3.2980    1.0000 </r>
       <r>    5.8754    0.0000 </r>
       <r>    5.8942    0.0000 </r>
       <r>    5.9212    0.0000 </r>
       <r>    6.0718    0.0000 </r>
      </set>
      <set comment="kpoint 2">
       <r>  -10.7152    1.0000 </r>
       <r>  -10.6966    1.0000 </r>
       <r>   -9.6254    1.0000 </r>
       <r>   -9.5940    1.0000 </r>
       <r>   -2.2778    1.0000 </r>
       <r>   -2.1190    1.0000 </r>
       <r>    0.0549    1.0000 </r>
       <r>    0.0576    1.0000 </r>
       <r>    0.4563    1.0000 </r>
       <r>    0.6724    1.0000 </r>
       <r>    0.7535    1.0000 </r>
       <r>    0.7547    1.0000 </r>
       <r>    1.2883    1.0000 </r>
       <r>    1.2908    1.0000 </r>
       <r>    1.9304    1.0000 </r>
       <r>    2.2143    1.0000 </r>
       <r>    2.8431    1.0000 </r>
       <r>    3.0851    1.0000 </r>
       <r>    5.5174    0.0000 </r>
       <r>    5.6465    0.0000 </r>
       <r>    5.7440    0.0000 </r>
       <r>    5.8520    0.0000 </r>
      </set>
      <set comment="kpoint 3">
       <r>  -10.1455    1.0000 </r>
       <r>  -10.1288    1.0000 </r>
       <r>   -9.3531    1.0000 </r>
       <r>   -9.3287    1.0000 </r>
       <r>   -1.8880    1.0000 </r>
       <r>   -1.7771    1.0000 </r>
       <r>   -0.6917    1.0000 </r>
       <r>   -0.6482    1.0000 </r>
       <r>   -0.4614    1.0000 </r>
       <r>   -0.3600    1.0000 </r>
       <r>    0.6528    1.0000 </r>
       <r>    0.6563    1.0000 </r>
       <r>    1.3395    1.0000 </r>
       <r>    1.3430    1.0000 </r>
       <r>    1.7039    1.0000 </r>
       <r>    1.9127    1.0000 </r>
       <r>    2.3695    1.0000 </r>
       <r>    2.4180    1.0000 </r>
       <r>    5.1186    0.0000 </r>
       <r>    5.4386    0.0000 </r>
       <r>    5.4524    0.0000 </r>
       <r>    5.6451    0.0000 </r>
      </set>
      <set comment="kpoint 4">
       <r>   -9.4680    1.0000 </r>
       <r>   -9.4561    1.0000 </r>
       <r>   -9.0395    1.0000 </r>
       <r>   -9.0253    1.0000 </r>
       <r>   -2.2855    1.0000 </r>
       <r>   -2.2507    1.0000 </r>
       <r>   -1.2977    1.0000 </r>
       <r>   -1.2547    1.0000 </r>
       <r>   -0.8467    1.0000 </r>
       <r>   -0.7617    1.0000 </r>
       <r>    0.1552    1.0000 </r>
       <r>    0.1592    1.0000 </r>
       <r>    1.3419    1.0000 </r>
       <r>    1.4494    1.0000 </r>
       <r>    1.9276    1.0000 </r>
       <r>    1.9362    1.0000 </r>
       <r>    2.1732    1.0000 </r>
       <r>    2.2239    1.0000 </r>
       <r>    5.2592    0.0000 </r>
       <r>    5.2682    0.0000 </r>
       <r>    5.4541    0.0000 </r>
       <r>    5.6326    0.0000 </r>
      </set>
      <set comment="kpoint 5">
       <r>   -9.1371    1.0000 </r>
       <r>   -9.1305    1.0000 </r>
       <r>   -8.8923    1.0000 </r>
       <r>   -8.8858    1.0000 </r>
       <r>   -2.6138    1.0000 </r>
       <r>   -2.5869    1.0000 </r>
       <r>   -1.6530    1.0000 </r>
       <r>   -1.6285    1.0000 </r>
       <r>   -0.9685    1.0000 </r>
       <r>   -0.8926    1.0000 </r>
       <r>   -0.0254    1.0000 </r>
       <r>   -0.0213    1.0000 </r>
       <r>    1.2464    1.0000 </r>
       <r>    1.2659    1.0000 </r>
       <r>    2.1530    1.0000 </r>
       <r>    2.1651    1.0000 </r>
       <r>    2.4768    1.0000 </r>
       <r>    2.4806    1.0000 </r>
       <r>    5.2840    0.0000 </r>
       <r>    5.2878    0.0000 </r>
       <r>    5.7741    0.0000 </r>
       <r>    5.8314    0.0000 </r>
      </set>
      <set comment="kpoint 6">
       <r>  -10.3218    1.0000 </r>
       <r>  -10.3044    1.0000 </r>
       <r>   -9.4360    1.0000 </r>
       <r>   -9.4093    1.0000 </r>
       <r>   -1.9211    1.0000 </r>
       <r>   -1.7814    1.0000 </r>
       <r>   -0.5139    1.0000 </r>
       <r>   -0.5013    1.0000 </r>
       <r>   -0.0653    1.0000 </r>
       <r>    0.0767    1.0000 </r>
       <r>    0.4637    1.0000 </r>
       <r>    0.4898    1.0000 </r>
       <r>    1.0927    1.0000 </r>
       <r>    1.0945    1.0000 </r>
       <r>    2.0956    1.0000 </r>
       <r>    2.2980    1.0000 </r>
       <r>    2.5518    1.0000 </r>
       <r>    2.6274    1.0000 </r>
       <r>    5.0630    0.0000 </r>
       <r>    5.3218    0.0000 </r>
       <r>    5.5193    0.0000 </r>
       <r>    5.5509    0.0000 </r>
      </set>
      <set comment="kpoint 7">
       <r>   -9.6865    1.0000 </r>
       <r>   -9.6725    1.0000 </r>
       <r>   -9.1332    1.0000 </r>
       <r>   -9.1150    1.0000 </r>
       <r>   -1.9397    1.0000 </r>
       <r>   -1.8867    1.0000 </r>
       <r>   -0.9513    1.0000 </r>
       <r>   -0.9201    1.0000 </r>
       <r>   -0.7086    1.0000 </r>
       <r>   -0.6351    1.0000 </r>
       <r>   -0.0669    1.0000 </r>
       <r>    0.0078    1.0000 </r>
       <r>    1.1901    1.0000 </r>
       <r>    1.1960    1.0000 </r>
       <r>    1.7871    1.0000 </r>
       <r>    1.8735    1.0000 </r>
       <r>    2.3020    1.0000 </r>
       <r>    2.3119    1.0000 </r>
       <r>    4.9959    0.0000 </r>
       <r>    5.2121    0.0000 </r>
       <r>    5.5851    0.0000 </r>
       <r>    5.6298    0.0000 </r>
      </set>
      <set comment="kpoint 8">
       <r>   -9.1529    1.0000 </r>
       <r>   -9.1452    1.0000 </r>
       <r>   -8.8843    1.0000 </r>
       <r>   -8.8759    1.0000 </r>
       <r>   -2.3266    1.0000 </r>
       <r>   -2.2996    1.0000 </r>
       <r>   -1.7024    1.0000 </r>
       <r>   -1.6932    1.0000 </r>
       <r>   -0.8381    1.0000 </r>
       <r>   -0.7675    1.0000 </r>
       <r>   -0.0674    1.0000 </r>
       <r>   -0.0250    1.0000 </r>
       <r>    1.1998    1.0000 </r>
       <r>    1.2161    1.0000 </r>
       <r>    1.3282    1.0000 </r>
       <r>    1.3665    1.0000 </r>
       <r>    2.6244    1.0000 </r>
       <r>    2.6427    1.0000 </r>
       <r>    5.2704    0.0000 </r>
       <r>    5.3346    0.0000 </r>
       <r>    5.7784    0.0000 </r>
       <r>    5.8537    0.0000 </r>
      </set>
      <set comment="kpoint 9">
       <r>   -9.1683    1.0000 </r>
       <r>   -9.1596    1.0000 </r>
       <r>   -8.8761    1.0000 </r>
       <r>   -8.8662    1.0000 </r>
       <r>   -1.9673    1.0000 </r>
       <r>   -1.9388    1.0000 </r>
       <r>   -1.7538    1.0000 </r>
       <r>   -1.7427    1.0000 </r>
       <r>   -0.4882    1.0000 </r>
       <r>   -0.4638    1.0000 </r>
       <r>   -0.1393    1.0000 </r>
       <r>   -0.0511    1.0000 </r>
       <r>    0.2146    1.0000 </r>
       <r>    0.2372    1.0000 </r>
       <r>    1.4761    1.0000 </r>
       <r>    1.4868    1.0000 </r>
       <r>    2.6004    1.0000 </r>
       <r>    2.6101    1.0000 </r>
       <r>    5.1853    0.0000 </r>
       <r>    5.3133    0.0000 </r>
       <r>    5.8875    0.0000 </r>
       <r>    6.0451    0.0000 </r>
      </set>
      <set comment="kpoint 10">
       <r>   -8.9306    1.0000 </r>
       <r>   -8.9275    1.0000 </r>
       <r>   -8.7535    1.0000 </r>
       <r>   -8.7504    1.0000 </r>
       <r>   -2.1380    1.0000 </r>
       <r>   -2.1273    1.0000 </r>
       <r>   -1.7919    1.0000 </r>
       <r>   -1.7757    1.0000 </r>
       <r>   -0.7782    1.0000 </r>
       <r>   -0.7409    1.0000 </r>
       <r>   -0.1071    1.0000 </r>
       <r>   -0.0862    1.0000 </r>
       <r>    0.1068    1.0000 </r>
       <r>    0.1578    1.0000 </r>
       <r>    1.0756    1.0000 </r>
       <r>    1.1155    1.0000 </r>
       <r>    2.9619    1.0000 </r>
       <r>    2.9831    1.0000 </r>
       <r>    4.9234    0.0000 </r>
       <r>    4.9323    0.0000 </r>
       <r>    6.1546    0.0000 </r>
       <r>    6.3381    0.0000 </r>
      </set>
      <set comment="kpoint 11">
       <r>  -10.9202    1.0000 </r>
       <r>  -10.9202    1.0000 </r>
       <r>   -9.7120    1.0000 </r>
       <r>   -9.7120    1.0000 </r>
       <r>   -2.4457    1.0000 </r>
       <r>   -2.4457    1.0000 </r>
       <r>    0.5197    1.0000 </r>
       <r>    0.5197    1.0000 </r>
       <r>    0.5197    1.0000 </r>
       <r>    0.5197    1.0000 </r>
       <r>    1.3627    1.0000 </r>
       <r>    1.3627    1.0000 </r>
       <r>    1.6253    1.0000 </r>
       <r>    1.6253    1.0000 </r>
       <r>    1.6253    1.0000 </r>
       <r>    1.6253    1.0000 </r>
       <r>    3.1408    1.0000 </r>
       <r>    3.1408    1.0000 </r>
       <r>    5.8744    0.0000 </r>
       <r>    5.8794    0.0000 </r>
       <r>    5.8910    0.0000 </r>
       <r>    5.9603    0.0000 </r>
      </set>
      <set comment="kpoint 12">
       <r>  -10.7060    1.0000 </r>
       <r>  -10.7060    1.0000 </r>
       <r>   -9.6096    1.0000 </r>
       <r>   -9.6096    1.0000 </r>
       <r>   -2.2014    1.0000 </r>
       <r>   -2.2014    1.0000 </r>
       <r>    0.0560    1.0000 </r>
       <r>    0.0560    1.0000 </r>
       <r>    0.5710    1.0000 </r>
       <r>    0.5710    1.0000 </r>
       <r>    0.7541    1.0000 </r>
       <r>    0.7541    1.0000 </r>
       <r>    1.2896    1.0000 </r>
       <r>    1.2896    1.0000 </r>
       <r>    2.0426    1.0000 </r>
       <r>    2.0426    1.0000 </r>
       <r>    2.9901    1.0000 </r>
       <r>    2.9901    1.0000 </r>
       <r>    5.5732    0.0000 </r>
       <r>    5.5773    0.0000 </r>
       <r>    5.7050    0.0000 </r>
       <r>    5.7883    0.0000 </r>
      </set>
      <set comment="kpoint 13">
       <r>  -10.1373    1.0000 </r>
       <r>  -10.1373    1.0000 </r>
       <r>   -9.3408    1.0000 </r>
       <r>   -9.3408    1.0000 </r>
       <r>   -1.8343    1.0000 </r>
       <r>   -1.8343    1.0000 </r>
       <r>   -0.6756    1.0000 </r>
       <r>   -0.6756    1.0000 </r>
       <r>   -0.4028    1.0000 </r>
       <r>   -0.4028    1.0000 </r>
       <r>    0.6545    1.0000 </r>
       <r>    0.6545    1.0000 </r>
       <r>    1.3413    1.0000 </r>
       <r>    1.3413    1.0000 </r>
       <r>    1.8005    1.0000 </r>
       <r>    1.8005    1.0000 </r>
       <r>    2.3992    1.0000 </r>
       <r>    2.3993    1.0000 </r>
       <r>    5.2599    0.0000 </r>
       <r>    5.2604    0.0000 </r>
       <r>    5.4455    0.0000 </r>
       <r>    5.4464    0.0000 </r>
      </set>
      <set comment="kpoint 14">
       <r>   -9.4621    1.0000 </r>
       <r>   -9.4621    1.0000 </r>
       <r>   -9.0323    1.0000 </r>
       <r>   -9.0323    1.0000 </r>
       <r>   -2.2683    1.0000 </r>
       <r>   -2.2683    1.0000 </r>
       <r>   -1.2781    1.0000 </r>
       <r>   -1.2781    1.0000 </r>
       <r>   -0.8022    1.0000 </r>
       <r>   -0.8022    1.0000 </r>
       <r>    0.1572    1.0000 </r>
       <r>    0.1572    1.0000 </r>
       <r>    1.3936    1.0000 </r>
       <r>    1.3936    1.0000 </r>
       <r>    1.9319    1.0000 </r>
       <r>    1.9319    1.0000 </r>
       <r>    2.2005    1.0000 </r>
       <r>    2.2005    1.0000 </r>
       <r>    5.2637    0.0000 </r>
       <r>    5.2637    0.0000 </r>
       <r>    5.5372    0.0000 </r>
       <r>    5.5373    0.0000 </r>
      </set>
      <set comment="kpoint 15">
       <r>   -9.1338    1.0000 </r>
       <r>   -9.1338    1.0000 </r>
       <r>   -8.8890    1.0000 </r>
       <r>   -8.8890    1.0000 </r>
       <r>   -2.6005    1.0000 </r>
       <r>   -2.6005    1.0000 </r>
       <r>   -1.6416    1.0000 </r>
       <r>   -1.6416    1.0000 </r>
       <r>   -0.9296    1.0000 </r>
       <r>   -0.9296    1.0000 </r>
       <r>   -0.0234    1.0000 </r>
       <r>   -0.0234    1.0000 </r>
       <r>    1.2560    1.0000 </r>
       <r>    1.2560    1.0000 </r>
       <r>    2.1590    1.0000 </r>
       <r>    2.1590    1.0000 </r>
       <r>    2.4788    1.0000 </r>
       <r>    2.4788    1.0000 </r>
       <r>    5.2859    0.0000 </r>
       <r>    5.2859    0.0000 </r>
       <r>    5.8015    0.0000 </r>
       <r>    5.8016    0.0000 </r>
      </set>
      <set comment="kpoint 16">
       <r>  -10.3132    1.0000 </r>
       <r>  -10.3132    1.0000 </r>
       <r>   -9.4225    1.0000 </r>
       <r>   -9.4225    1.0000 </r>
       <r>   -1.8541    1.0000 </r>
       <r>   -1.8541    1.0000 </r>
       <r>   -0.5093    1.0000 </r>
       <r>   -0.5093    1.0000 </r>
       <r>    0.0125    1.0000 </r>
       <r>    0.0125    1.0000 </r>
       <r>    0.4757    1.0000 </r>
       <r>    0.4757    1.0000 </r>
       <r>    1.0936    1.0000 </r>
       <r>    1.0936    1.0000 </r>
       <r>    2.1815    1.0000 </r>
       <r>    2.1815    1.0000 </r>
       <r>    2.6013    1.0000 </r>
       <r>    2.6013    1.0000 </r>
       <r>    5.1818    0.0000 </r>
       <r>    5.1847    0.0000 </r>
       <r>    5.5536    0.0000 </r>
       <r>    5.5857    0.0000 </r>
      </set>
      <set comment="kpoint 17">
       <r>   -9.6796    1.0000 </r>
       <r>   -9.6796    1.0000 </r>
       <r>   -9.1240    1.0000 </r>
       <r>   -9.1240    1.0000 </r>
       <r>   -1.9135    1.0000 </r>
       <r>   -1.9135    1.0000 </r>
       <r>   -0.9375    1.0000 </r>
       <r>   -0.9375    1.0000 </r>
       <r>   -0.6718    1.0000 </r>
       <r>   -0.6718    1.0000 </r>
       <r>   -0.0268    1.0000 </r>
       <r>   -0.0268    1.0000 </r>
       <r>    1.1929    1.0000 </r>
       <r>    1.1929    1.0000 </r>
       <r>    1.8282    1.0000 </r>
       <r>    1.8282    1.0000 </r>
       <r>    2.3076    1.0000 </r>
       <r>    2.3076    1.0000 </r>
       <r>    5.1024    0.0000 </r>
       <r>    5.1026    0.0000 </r>
       <r>    5.5535    0.0000 </r>
       <r>    5.6013    0.0000 </r>
      </set>
      <set comment="kpoint 18">
       <r>   -9.1491    1.0000 </r>
       <r>   -9.1491    1.0000 </r>
       <r>   -8.8801    1.0000 </r>
       <r>   -8.8801    1.0000 </r>
       <r>   -2.3132    1.0000 </r>
       <r>   -2.3132    1.0000 </r>
       <r>   -1.6980    1.0000 </r>
       <r>   -1.6980    1.0000 </r>
       <r>   -0.8035    1.0000 </r>
       <r>   -0.8035    1.0000 </r>
       <r>   -0.0448    1.0000 </r>
       <r>   -0.0448    1.0000 </r>
       <r>    1.2073    1.0000 </r>
       <r>    1.2073    1.0000 </r>
       <r>    1.3473    1.0000 </r>
       <r>    1.3473    1.0000 </r>
       <r>    2.6338    1.0000 </r>
       <r>    2.6338    1.0000 </r>
       <r>    5.3029    0.0000 </r>
       <r>    5.3028    0.0000 </r>
       <r>    5.8119    0.0000 </r>
       <r>    5.8120    0.0000 </r>
      </set>
      <set comment="kpoint 19">
       <r>   -9.1641    1.0000 </r>
       <r>   -9.1641    1.0000 </r>
       <r>   -8.8711    1.0000 </r>
       <r>   -8.8710    1.0000 </r>
       <r>   -1.9533    1.0000 </r>
       <r>   -1.9533    1.0000 </r>
       <r>   -1.7481    1.0000 </r>
       <r>   -1.7481    1.0000 </r>
       <r>   -0.4798    1.0000 </r>
       <r>   -0.4798    1.0000 </r>
       <r>   -0.0910    1.0000 </r>
       <r>   -0.0910    1.0000 </r>
       <r>    0.2260    1.0000 </r>
       <r>    0.2260    1.0000 </r>
       <r>    1.4805    1.0000 </r>
       <r>    1.4805    1.0000 </r>
       <r>    2.6053    1.0000 </r>
       <r>    2.6053    1.0000 </r>
       <r>    5.2492    0.0000 </r>
       <r>    5.2493    0.0000 </r>
       <r>    5.8653    0.0000 </r>
       <r>    6.1268    0.0000 </r>
      </set>
      <set comment="kpoint 20">
       <r>   -8.9291    1.0000 </r>
       <r>   -8.9291    1.0000 </r>
       <r>   -8.7519    1.0000 </r>
       <r>   -8.7519    1.0000 </r>
       <r>   -2.1327    1.0000 </r>
       <r>   -2.1327    1.0000 </r>
       <r>   -1.7836    1.0000 </r>
       <r>   -1.7836    1.0000 </r>
       <r>   -0.7606    1.0000 </r>
       <r>   -0.7606    1.0000 </r>
       <r>   -0.0994    1.0000 </r>
       <r>   -0.0994    1.0000 </r>
       <r>    0.1371    1.0000 </r>
       <r>    0.1371    1.0000 </r>
       <r>    1.0940    1.0000 </r>
       <r>    1.0940    1.0000 </r>
       <r>    2.9725    1.0000 </r>
       <r>    2.9725    1.0000 </r>
       <r>    4.9280    0.0000 </r>
       <r>    4.9280    0.0000 </r>
       <r>    6.2286    0.0000 </r>
       <r>    6.3389    0.0000 </r>
      </set>
     </set>
    </set>
   </array>
  </eigenvalues>
  <separator name="orbital magnetization" >
   <v name="MAGDIPOLOUT">      0.00000000      0.00000000      0.00000000</v>
  </separator>
  <dos>
   <i name="efermi">      3.31423503 </i>
   <total>
    <array>
     <dimension dim="1">gridpoints</dimension>
     <dimension dim="2">spin</dimension>
     <field>energy</field>
     <field>total</field>
     <field>integrated</field>
     <set>
      <set comment="spin 1">
       <r>   -12.9296     0.0000     0.0000 </r>
       <r>   -12.8587     0.0000     0.0000 </r>
       <r>   -12.7878     0.0000     0.0000 </r>
       <r>   -12.7169     0.0000     0.0000 </r>
       <r>   -12.6460     0.0000     0.0000 </r>
       <r>   -12.5751     0.0000     0.0000 </r>
       <r>   -12.5042     0.0000     0.0000 </r>
       <r>   -12.4333     0.0000     0.0000 </r>
       <r>   -12.3624     0.0000     0.0000 </r>
       <r>   -12.2915     0.0000     0.0000 </r>
       <r>   -12.2206     0.0000     0.0000 </r>
       <r>   -12.1497     0.0000     0.0000 </r>
       <r>   -12.0788     0.0000     0.0000 </r>
       <r>   -12.0079     0.0000     0.0000 </r>
       <r>   -11.9370     0.0000     0.0000 </r>
       <r>   -11.8661     0.0000     0.0000 </r>
       <r>   -11.7952     0.0000     0.0000 </r>
       <r>   -11.7243     0.0000     0.0000 </r>
       <r>   -11.6535     0.0000     0.0000 </r>
       <r>   -11.5826     0.0000     0.0000 </r>
       <r>   -11.5117     0.0000     0.0000 </r>
       <r>   -11.4408     0.0000     0.0000 </r>
       <r>   -11.3699     0.0000     0.0000 </r>
       <r>   -11.2990     0.0000     0.0000 </r>
       <r>   -11.2281     0.0000     0.0000 </r>
       <r>   -11.1572     0.0000     0.0000 </r>
       <r>   -11.0863     0.0000     0.0000 </r>
       <r>   -11.0154     0.0000     0.0000 </r>
       <r>   -10.9445     0.0000     0.0000 </r>
       <r>   -10.8736     0.3803     0.0090 </r>
       <r>   -10.8027     0.9601     0.0565 </r>
       <r>   -10.7318     1.5398     0.1451 </r>
       <r>   -10.6609     0.9964     0.2315 </r>
       <r>   -10.5900     1.0621     0.3044 </r>
       <r>   -10.5191     1.1278     0.3821 </r>
       <r>   -10.4482     1.1935     0.4643 </r>
       <r>   -10.3773     1.2592     0.5513 </r>
       <r>   -10.3064     1.3197     0.6428 </r>
       <r>   -10.2356     1.3316     0.7368 </r>
       <r>   -10.1647     1.3435     0.8317 </r>
       <r>   -10.0938     1.3817     0.9279 </r>
       <r>   -10.0229     1.4367     1.0278 </r>
       <r>    -9.9520     1.4916     1.1316 </r>
       <r>    -9.8811     1.5466     1.2393 </r>
       <r>    -9.8102     1.6015     1.3509 </r>
       <r>    -9.7393     1.6565     1.4664 </r>
       <r>    -9.6684     3.4239     1.6230 </r>
       <r>    -9.5975     4.2995     1.9386 </r>
       <r>    -9.5266     4.6075     2.2482 </r>
       <r>    -9.4557     5.1075     2.5923 </r>
       <r>    -9.3848     5.5689     2.9727 </r>
       <r>    -9.3139     5.9987     3.3811 </r>
       <r>    -9.2430     6.5625     3.8263 </r>
       <r>    -9.1721     7.1264     4.3115 </r>
       <r>    -9.1012     8.4758     5.1021 </r>
       <r>    -9.0303     8.3436     5.6976 </r>
       <r>    -8.9594     8.6919     6.3012 </r>
       <r>    -8.8886    13.2485     6.9471 </r>
       <r>    -8.8177     6.1427     7.6321 </r>
       <r>    -8.7468     0.0000     8.0000 </r>
       <r>    -8.6759     0.0000     8.0000 </r>
       <r>    -8.6050     0.0000     8.0000 </r>
       <r>    -8.5341     0.0000     8.0000 </r>
       <r>    -8.4632     0.0000     8.0000 </r>
       <r>    -8.3923     0.0000     8.0000 </r>
       <r>    -8.3214     0.0000     8.0000 </r>
       <r>    -8.2505     0.0000     8.0000 </r>
       <r>    -8.1796     0.0000     8.0000 </r>
       <r>    -8.1087     0.0000     8.0000 </r>
       <r>    -8.0378     0.0000     8.0000 </r>
       <r>    -7.9669     0.0000     8.0000 </r>
       <r>    -7.8960     0.0000     8.0000 </r>
       <r>    -7.8251     0.0000     8.0000 </r>
       <r>    -7.7542     0.0000     8.0000 </r>
       <r>    -7.6833     0.0000     8.0000 </r>
       <r>    -7.6124     0.0000     8.0000 </r>
       <r>    -7.5415     0.0000     8.0000 </r>
       <r>    -7.4707     0.0000     8.0000 </r>
       <r>    -7.3998     0.0000     8.0000 </r>
       <r>    -7.3289     0.0000     8.0000 </r>
       <r>    -7.2580     0.0000     8.0000 </r>
       <r>    -7.1871     0.0000     8.0000 </r>
       <r>    -7.1162     0.0000     8.0000 </r>
       <r>    -7.0453     0.0000     8.0000 </r>
       <r>    -6.9744     0.0000     8.0000 </r>
       <r>    -6.9035     0.0000     8.0000 </r>
       <r>    -6.8326     0.0000     8.0000 </r>
       <r>    -6.7617     0.0000     8.0000 </r>
       <r>    -6.6908     0.0000     8.0000 </r>
       <r>    -6.6199     0.0000     8.0000 </r>
       <r>    -6.5490     0.0000     8.0000 </r>
       <r>    -6.4781     0.0000     8.0000 </r>
       <r>    -6.4072     0.0000     8.0000 </r>
       <r>    -6.3363     0.0000     8.0000 </r>
       <r>    -6.2654     0.0000     8.0000 </r>
       <r>    -6.1945     0.0000     8.0000 </r>
       <r>    -6.1236     0.0000     8.0000 </r>
       <r>    -6.0528     0.0000     8.0000 </r>
       <r>    -5.9819     0.0000     8.0000 </r>
       <r>    -5.9110     0.0000     8.0000 </r>
       <r>    -5.8401     0.0000     8.0000 </r>
       <r>    -5.7692     0.0000     8.0000 </r>
       <r>    -5.6983     0.0000     8.0000 </r>
       <r>    -5.6274     0.0000     8.0000 </r>
       <r>    -5.5565     0.0000     8.0000 </r>
       <r>    -5.4856     0.0000     8.0000 </r>
       <r>    -5.4147     0.0000     8.0000 </r>
       <r>    -5.3438     0.0000     8.0000 </r>
       <r>    -5.2729     0.0000     8.0000 </r>
       <r>    -5.2020     0.0000     8.0000 </r>
       <r>    -5.1311     0.0000     8.0000 </r>
       <r>    -5.0602     0.0000     8.0000 </r>
       <r>    -4.9893     0.0000     8.0000 </r>
       <r>    -4.9184     0.0000     8.0000 </r>
       <r>    -4.8475     0.0000     8.0000 </r>
       <r>    -4.7766     0.0000     8.0000 </r>
       <r>    -4.7058     0.0000     8.0000 </r>
       <r>    -4.6349     0.0000     8.0000 </r>
       <r>    -4.5640     0.0000     8.0000 </r>
       <r>    -4.4931     0.0000     8.0000 </r>
       <r>    -4.4222     0.0000     8.0000 </r>
       <r>    -4.3513     0.0000     8.0000 </r>
       <r>    -4.2804     0.0000     8.0000 </r>
       <r>    -4.2095     0.0000     8.0000 </r>
       <r>    -4.1386     0.0000     8.0000 </r>
       <r>    -4.0677     0.0000     8.0000 </r>
       <r>    -3.9968     0.0000     8.0000 </r>
       <r>    -3.9259     0.0000     8.0000 </r>
       <r>    -3.8550     0.0000     8.0000 </r>
       <r>    -3.7841     0.0000     8.0000 </r>
       <r>    -3.7132     0.0000     8.0000 </r>
       <r>    -3.6423     0.0000     8.0000 </r>
       <r>    -3.5714     0.0000     8.0000 </r>
       <r>    -3.5005     0.0000     8.0000 </r>
       <r>    -3.4296     0.0000     8.0000 </r>
       <r>    -3.3587     0.0000     8.0000 </r>
       <r>    -3.2879     0.0000     8.0000 </r>
       <r>    -3.2170     0.0000     8.0000 </r>
       <r>    -3.1461     0.0000     8.0000 </r>
       <r>    -3.0752     0.0000     8.0000 </r>
       <r>    -3.0043     0.0000     8.0000 </r>
       <r>    -2.9334     0.0000     8.0000 </r>
       <r>    -2.8625     0.0000     8.0000 </r>
       <r>    -2.7916     0.0000     8.0000 </r>
       <r>    -2.7207     0.0000     8.0000 </r>
       <r>    -2.6498     0.0000     8.0000 </r>
       <r>    -2.5789     0.2672     8.0033 </r>
       <r>    -2.5080     1.1516     8.0534 </r>
       <r>    -2.4371     2.1758     8.1702 </r>
       <r>    -2.3662     3.3943     8.3665 </r>
       <r>    -2.2953     5.2136     8.6646 </r>
       <r>    -2.2244     5.5884     9.0451 </r>
       <r>    -2.1535     6.0287     9.4574 </r>
       <r>    -2.0826     7.4062    10.0374 </r>
       <r>    -2.0117     6.2934    10.5230 </r>
       <r>    -1.9408     8.6250    10.9650 </r>
       <r>    -1.8700     7.3951    11.6883 </r>
       <r>    -1.7991     1.4908    11.9851 </r>
       <r>    -1.7282     8.4893    12.6266 </r>
       <r>    -1.6573     4.0910    13.0744 </r>
       <r>    -1.5864     2.6564    13.2818 </r>
       <r>    -1.5155     2.4288    13.4621 </r>
       <r>    -1.4446     2.2015    13.6262 </r>
       <r>    -1.3737     1.9744    13.7742 </r>
       <r>    -1.3028     1.7476    13.9062 </r>
       <r>    -1.2319     1.6712    14.0257 </r>
       <r>    -1.1610     1.6787    14.1444 </r>
       <r>    -1.0901     1.6863    14.2637 </r>
       <r>    -1.0192     1.6939    14.3835 </r>
       <r>    -0.9483     1.9263    14.5052 </r>
       <r>    -0.8774     5.7853    14.7621 </r>
       <r>    -0.8065    11.2350    15.3603 </r>
       <r>    -0.7356    10.3599    16.2472 </r>
       <r>    -0.6647     9.8383    16.9483 </r>
       <r>    -0.5938     7.8164    17.5988 </r>
       <r>    -0.5230     4.6078    18.0393 </r>
       <r>    -0.4521     2.6018    18.2731 </r>
       <r>    -0.3812     2.3482    18.4480 </r>
       <r>    -0.3103     2.1822    18.6084 </r>
       <r>    -0.2394     2.0220    18.7574 </r>
       <r>    -0.1685     1.8622    18.8951 </r>
       <r>    -0.0976    17.5466    19.2420 </r>
       <r>    -0.0267    19.6239    20.6696 </r>
       <r>     0.0442     7.2815    21.3640 </r>
       <r>     0.1151     6.3985    21.8094 </r>
       <r>     0.1860     5.5570    22.2881 </r>
       <r>     0.2569     3.7621    22.5953 </r>
       <r>     0.3278     3.5760    22.8554 </r>
       <r>     0.3987     3.3898    23.1023 </r>
       <r>     0.4696     3.6525    23.3391 </r>
       <r>     0.5405     5.3122    23.6542 </r>
       <r>     0.6114     5.0364    24.0182 </r>
       <r>     0.6823     4.0465    24.3575 </r>
       <r>     0.7532     2.5249    24.5904 </r>
       <r>     0.8241     1.7872    24.7195 </r>
       <r>     0.8949     1.7448    24.8447 </r>
       <r>     0.9658     1.7092    24.9671 </r>
       <r>     1.0367     1.6802    25.0872 </r>
       <r>     1.1076     5.3663    25.2804 </r>
       <r>     1.1785    11.4979    25.8434 </r>
       <r>     1.2494    17.5902    26.9620 </r>
       <r>     1.3203    12.8156    28.0847 </r>
       <r>     1.3912     4.6115    28.6632 </r>
       <r>     1.4621     3.1076    28.9187 </r>
       <r>     1.5330     2.9438    29.1312 </r>
       <r>     1.6039     2.8655    29.3370 </r>
       <r>     1.6748     3.0526    29.5438 </r>
       <r>     1.7457     3.8007    29.7778 </r>
       <r>     1.8166     6.9122    30.1408 </r>
       <r>     1.8875     8.4736    30.7114 </r>
       <r>     1.9584     4.8810    31.1664 </r>
       <r>     2.0293     4.3191    31.4973 </r>
       <r>     2.1002     2.9397    31.7597 </r>
       <r>     2.1711     1.5301    31.9133 </r>
       <r>     2.2419     2.8626    32.0457 </r>
       <r>     2.3128     8.6968    32.3828 </r>
       <r>     2.3837     7.7404    32.9649 </r>
       <r>     2.4546     7.1503    33.4902 </r>
       <r>     2.5255     6.5954    33.9784 </r>
       <r>     2.5964     6.1137    34.4267 </r>
       <r>     2.6673     4.2533    34.7963 </r>
       <r>     2.7382     3.7291    35.0793 </r>
       <r>     2.8091     3.2043    35.3251 </r>
       <r>     2.8800     2.9595    35.5396 </r>
       <r>     2.9509     2.3332    35.7308 </r>
       <r>     3.0218     0.9632    35.8898 </r>
       <r>     3.0927     0.7535    35.9536 </r>
       <r>     3.1636     0.2809    35.9874 </r>
       <r>     3.2345     0.0628    35.9987 </r>
       <r>     3.3054     0.0000    36.0000 </r>
       <r>     3.3763     0.0000    36.0000 </r>
       <r>     3.4472     0.0000    36.0000 </r>
       <r>     3.5181     0.0000    36.0000 </r>
       <r>     3.5890     0.0000    36.0000 </r>
       <r>     3.6598     0.0000    36.0000 </r>
       <r>     3.7307     0.0000    36.0000 </r>
       <r>     3.8016     0.0000    36.0000 </r>
       <r>     3.8725     0.0000    36.0000 </r>
       <r>     3.9434     0.0000    36.0000 </r>
       <r>     4.0143     0.0000    36.0000 </r>
       <r>     4.0852     0.0000    36.0000 </r>
       <r>     4.1561     0.0000    36.0000 </r>
       <r>     4.2270     0.0000    36.0000 </r>
       <r>     4.2979     0.0000    36.0000 </r>
       <r>     4.3688     0.0000    36.0000 </r>
       <r>     4.4397     0.0000    36.0000 </r>
       <r>     4.5106     0.0000    36.0000 </r>
       <r>     4.5815     0.0000    36.0000 </r>
       <r>     4.6524     0.0000    36.0000 </r>
       <r>     4.7233     0.0000    36.0000 </r>
       <r>     4.7942     0.0000    36.0000 </r>
       <r>     4.8651     0.0000    36.0000 </r>
       <r>     4.9360     1.2309    36.0725 </r>
       <r>     5.0069     1.9999    36.1750 </r>
       <r>     5.0777     5.5694    36.4381 </r>
       <r>     5.1486     9.2457    36.9599 </r>
       <r>     5.2195    13.2084    37.7666 </r>
       <r>     5.2904    21.7534    38.9926 </r>
       <r>     5.3613     2.1606    39.4810 </r>
       <r>     5.4322     1.6088    39.6115 </r>
       <r>     5.5031     7.5445    39.9064 </r>
       <r>     5.5740    11.0425    40.6305 </r>
       <r>     5.6449     7.8632    41.4376 </r>
       <r>     5.7158     7.5956    41.9860 </r>
       <r>     5.7867     9.8018    42.5376 </r>
       <r>     5.8576     3.9530    43.0710 </r>
       <r>     5.9285     2.8083    43.3031 </r>
       <r>     5.9994     2.2187    43.4804 </r>
       <r>     6.0703     1.8294    43.6226 </r>
       <r>     6.1412     1.5909    43.7435 </r>
       <r>     6.2121     1.3841    43.8604 </r>
       <r>     6.2830     0.7880    43.9257 </r>
       <r>     6.3539     0.0000    44.0000 </r>
       <r>     6.4247     0.0000    44.0000 </r>
       <r>     6.4956     0.0000    44.0000 </r>
       <r>     6.5665     0.0000    44.0000 </r>
       <r>     6.6374     0.0000    44.0000 </r>
       <r>     6.7083     0.0000    44.0000 </r>
       <r>     6.7792     0.0000    44.0000 </r>
       <r>     6.8501     0.0000    44.0000 </r>
       <r>     6.9210     0.0000    44.0000 </r>
       <r>     6.9919     0.0000    44.0000 </r>
       <r>     7.0628     0.0000    44.0000 </r>
       <r>     7.1337     0.0000    44.0000 </r>
       <r>     7.2046     0.0000    44.0000 </r>
       <r>     7.2755     0.0000    44.0000 </r>
       <r>     7.3464     0.0000    44.0000 </r>
       <r>     7.4173     0.0000    44.0000 </r>
       <r>     7.4882     0.0000    44.0000 </r>
       <r>     7.5591     0.0000    44.0000 </r>
       <r>     7.6300     0.0000    44.0000 </r>
       <r>     7.7009     0.0000    44.0000 </r>
       <r>     7.7718     0.0000    44.0000 </r>
       <r>     7.8426     0.0000    44.0000 </r>
       <r>     7.9135     0.0000    44.0000 </r>
       <r>     7.9844     0.0000    44.0000 </r>
       <r>     8.0553     0.0000    44.0000 </r>
       <r>     8.1262     0.0000    44.0000 </r>
       <r>     8.1971     0.0000    44.0000 </r>
       <r>     8.2680     0.0000    44.0000 </r>
       <r>     8.3389     0.0000    44.0000 </r>
      </set>
     </set>
    </array>
   </total>
  </dos>
 </calculation>
 <structure name="finalpos" >
  <crystal>
   <varray name="basis" >
    <v>       3.19031573       0.00000000       0.00000000 </v>
    <v>      -1.59515786       2.76289447       0.00000000 </v>
    <v>       0.00000000       0.00000000      14.87900430 </v>
   </varray>
   <i name="volume">    131.15106795 </i>
   <varray name="rec_basis" >
    <v>       0.31344860       0.18096963       0.00000000 </v>
    <v>       0.00000000       0.36193927       0.00000000 </v>
    <v>       0.00000000       0.00000000       0.06720880 </v>
   </varray>
  </crystal>
  <varray name="positions" >
   <v>       0.33333300       0.66666700       0.25000000 </v>
   <v>       0.66666700       0.33333300       0.75000000 </v>
   <v>       0.33333300       0.66666700       0.85517400 </v>
   <v>       0.66666700       0.33333300       0.14482600 </v>
   <v>       0.66666600       0.33333300       0.35517400 </v>
   <v>       0.33333400       0.66666700       0.64482600 </v>
  </varray>
 </structure>
</modeling>
