unknown system                          
   1.00000000000000     
     3.190316    0.000000    0.000000
    -1.595158    2.762894    0.000000
     0.000000    0.000000   14.879004
   Mo   S 
     2     4
Direct
  0.333333  0.666667  0.250000
  0.666667  0.333333  0.750000
  0.333333  0.666667  0.855174
  0.666667  0.333333  0.144826
  0.666666  0.333333  0.355174
  0.333334  0.666667  0.644826
 
   36   36  160
 0.39561     0.39868     0.40790     0.42329     0.44484     0.47241     0.50568     0.54406     0.58670     0.63243    
 0.67985     0.72738     0.77333     0.81600     0.85373     0.88497     0.90838     0.92289     0.92780     0.92287    
 0.90834     0.88491     0.85365     0.81591     0.77323     0.72728     0.67976     0.63235     0.58663     0.54400    
 0.50562     0.47236     0.44481     0.42327     0.40788     0.39867     0.39867     0.39867     0.40482     0.41713    
 0.43561     0.46020     0.49067     0.52659     0.56724     0.61161     0.65843     0.70618     0.75323     0.79788    
 0.83841     0.87322     0.90082     0.91998     0.92979     0.92978     0.91994     0.90076     0.87314     0.83833    
 0.79780     0.75315     0.70609     0.65834     0.61153     0.56716     0.52653     0.49062     0.46016     0.43559    
 0.41711     0.40481     0.40789     0.40481     0.40789     0.41713     0.43254     0.45408     0.48164     0.51489    
 0.55329     0.59598     0.64185     0.68951     0.73738     0.78377     0.82693     0.86518     0.89692     0.92073    
 0.93549     0.94049     0.93547     0.92068     0.89685     0.86511     0.82686     0.78368     0.73730     0.68942    
 0.64177     0.59591     0.55322     0.51484     0.48160     0.45405     0.43251     0.41711     0.42327     0.41712    
 0.41712     0.42328     0.43561     0.45408     0.47863     0.50903     0.54489     0.58555     0.63005     0.67718    
 0.72546     0.77324     0.81875     0.86023     0.89597     0.92439     0.94416     0.95430     0.95430     0.94414    
 0.92435     0.89591     0.86015     0.81866     0.77314     0.72537     0.67710     0.62998     0.58549     0.54484    
 0.50899     0.47859     0.45405     0.43559     0.44481     0.43559     0.43252     0.43560     0.44482     0.46019    
 0.48164     0.50903     0.54210     0.58033     0.62298     0.66903     0.71716     0.76580     0.81322     0.85758    
 0.89708     0.92998     0.95473     0.97011     0.97534     0.97012     0.95472     0.92994     0.89702     0.85750    
 0.81312     0.76570     0.71708     0.66897     0.62293     0.58027     0.54204     0.50899     0.48160     0.46016    
 0.47236     0.46017     0.45407     0.45407     0.46018     0.47238     0.49065     0.51488     0.54489     0.58033    
 0.62064     0.66499     0.71227     0.76107     0.80973     0.85642     0.89924     0.93632     0.96592     0.98656    
 0.99716     0.99716     0.98655     0.96589     0.93628     0.89918     0.85634     0.80964     0.76099     0.71220    
 0.66493     0.62058     0.58027     0.54484     0.51484     0.49062     0.50562     0.49063     0.48162     0.47861    
 0.48162     0.49064     0.50565     0.52656     0.55326     0.58554     0.62299     0.66499     0.71065     0.75877    
 0.80783     0.85605     0.90153     0.94227     0.97637      1.0021      1.0182      1.0236      1.0181      1.0021    
 0.97633     0.94223     0.90148     0.85599     0.80776     0.75871     0.71059     0.66493     0.62292     0.58549    
 0.55323     0.52653     0.54399     0.52653     0.51486     0.50901     0.50901     0.51487     0.52656     0.54403    
 0.56720     0.59594     0.63003     0.66903     0.71226     0.75877     0.80724     0.85601     0.90321     0.94683    
 0.98484      1.0153      1.0366      1.0476      1.0476      1.0366      1.0153     0.98481     0.94680     0.90317    
 0.85595     0.80717     0.75871     0.71220     0.66896     0.62998     0.59591     0.56717     0.58663     0.56717    
 0.55324     0.54487     0.54207     0.54487     0.55326     0.56721     0.58666     0.61156     0.64180     0.67714    
 0.71713     0.76105     0.80782     0.85601     0.90384     0.94931     0.99035      1.0249      1.0511      1.0674    
  1.0730      1.0675      1.0511      1.0249     0.99033     0.94928     0.90379     0.85595     0.80777     0.76100    
 0.71708     0.67709     0.64177     0.61154     0.63236     0.61153     0.59592     0.58551     0.58030     0.58030    
 0.58552     0.59596     0.61158     0.63239     0.65838     0.68946     0.72540     0.76574     0.80968     0.85604    
 0.90322     0.94932     0.99227      1.0299      1.0603      1.0816      1.0926      1.0926      1.0816      1.0603    
  1.0299     0.99225     0.94928     0.90316     0.85599     0.80965     0.76571     0.72536     0.68942     0.65834    
 0.67977     0.65835     0.64177     0.63000     0.62296     0.62061     0.62296     0.63002     0.64182     0.65839    
 0.67981     0.70614     0.73734     0.77317     0.81314     0.85636     0.90150     0.94683     0.99035      1.0299    
  1.0635      1.0889      1.1049      1.1104      1.1049      1.0890      1.0634      1.0299     0.99034     0.94680    
 0.90146     0.85634     0.81313     0.77314     0.73728     0.70609     0.72729     0.70610     0.68943     0.67711    
 0.66900     0.66497     0.66496     0.66901     0.67715     0.68948     0.70614     0.72733     0.75320     0.78373    
 0.81868     0.85751     0.89919     0.94223     0.98482      1.0249      1.0603      1.0890      1.1092      1.1196    
  1.1196      1.1092      1.0889      1.0603      1.0249     0.98483     0.94222     0.89917     0.85751     0.81867    
 0.78367     0.75314     0.77323     0.75315     0.73730     0.72537     0.71710     0.71225     0.71064     0.71225    
 0.71714     0.72543     0.73734     0.75319     0.77328     0.79784     0.82689     0.86017     0.89702     0.93627    
 0.97632      1.0153      1.0511      1.0816      1.1049      1.1196      1.1246      1.1196      1.1049      1.0816    
  1.0511      1.0153     0.97634     0.93626     0.89702     0.86017     0.82685     0.79778     0.81589     0.79780    
 0.78369     0.77315     0.76572     0.76103     0.75876     0.75876     0.76105     0.76578     0.77321     0.78373    
 0.79783     0.81595     0.83836     0.86513     0.89592     0.92993     0.96588      1.0021      1.0366      1.0674    
  1.0926      1.1104      1.1196      1.1196      1.1104      1.0926      1.0674      1.0366      1.0021     0.96588    
 0.92993     0.89593     0.86512     0.83832     0.85363     0.83833     0.82687     0.81867     0.81313     0.80967    
 0.80781     0.80722     0.80781     0.80972     0.81321     0.81874     0.82691     0.83838     0.85368     0.87316    
 0.89685     0.92434     0.95469     0.98652      1.0181      1.0476      1.0730      1.0926      1.1049      1.1092    
  1.1049      1.0926      1.0730      1.0476      1.0182     0.98655     0.95470     0.92436     0.89687     0.87314    
 0.88490     0.87314     0.86512     0.86018     0.85752     0.85636     0.85603     0.85600     0.85599     0.85604    
 0.85642     0.85759     0.86024     0.86518     0.87320     0.88494     0.90076     0.92066     0.94411     0.97008    
 0.99713      1.0236      1.0476      1.0674      1.0816      1.0889      1.0890      1.0816      1.0674      1.0476    
  1.0236     0.99717     0.97010     0.94413     0.92069     0.90077     0.90834     0.90076     0.89686     0.89593    
 0.89704     0.89920     0.90151     0.90322     0.90384     0.90321     0.90153     0.89925     0.89710     0.89599    
 0.89693     0.90082     0.90836     0.91993     0.93543     0.95425     0.97529     0.99713      1.0181      1.0366    
  1.0511      1.0603      1.0634      1.0603      1.0511      1.0366      1.0182     0.99718     0.97534     0.95428    
 0.93547     0.91995     0.92288     0.91994     0.92068     0.92437     0.92996     0.93629     0.94225     0.94685    
 0.94934     0.94934     0.94686     0.94229     0.93634     0.93000     0.92442     0.92075     0.91999     0.92289    
 0.92976     0.94044     0.95424     0.97005     0.98651      1.0021      1.0153      1.0249      1.0299      1.0299    
  1.0249      1.0153      1.0021     0.98657     0.97013     0.95430     0.94048     0.92979     0.92781     0.92978    
 0.93546     0.94414     0.95473     0.96592     0.97637     0.98486     0.99039     0.99231     0.99039     0.98489    
 0.97641     0.96596     0.95477     0.94420     0.93552     0.92982     0.92781     0.92977     0.93544     0.94410    
 0.95466     0.96586     0.97634     0.98483     0.99035     0.99228     0.99037     0.98484     0.97635     0.96591    
 0.95474     0.94416     0.93548     0.92979     0.92290     0.92980     0.94048     0.95429     0.97013     0.98659    
  1.0021      1.0153      1.0249      1.0300      1.0300      1.0249      1.0154      1.0022     0.98662     0.97017    
 0.95435     0.94053     0.92981     0.92289     0.91995     0.92068     0.92433     0.92991     0.93626     0.94223    
 0.94682     0.94932     0.94933     0.94685     0.94226     0.93631     0.92998     0.92440     0.92072     0.91997    
 0.90838     0.91998     0.93549     0.95430     0.97536     0.99721      1.0182      1.0367      1.0511      1.0603    
  1.0635      1.0603      1.0511      1.0367      1.0182     0.99724     0.97541     0.95436     0.93551     0.91997    
 0.90836     0.90078     0.89687     0.89591     0.89702     0.89919     0.90149     0.90319     0.90384     0.90323    
 0.90153     0.89923     0.89708     0.89599     0.89692     0.90081     0.88496     0.90082     0.92073     0.94416    
 0.97013     0.99721      1.0237      1.0477      1.0675      1.0817      1.0890      1.0890      1.0816      1.0675    
  1.0477      1.0237     0.99725     0.97019     0.94421     0.92073     0.90080     0.88494     0.87317     0.86513    
 0.86018     0.85753     0.85638     0.85602     0.85599     0.85601     0.85606     0.85641     0.85757     0.86025    
 0.86520     0.87321     0.85371     0.87322     0.89693     0.92440     0.95474     0.98659      1.0182      1.0477    
  1.0731      1.0927      1.1050      1.1092      1.1050      1.0926      1.0731      1.0477      1.0182     0.98663    
 0.95480     0.92443     0.89691     0.87319     0.85368     0.83835     0.82687     0.81869     0.81317     0.80969    
 0.80781     0.80723     0.80784     0.80972     0.81320     0.81875     0.82695     0.83841     0.81599     0.83841    
 0.86520     0.89599     0.92999     0.96594      1.0022      1.0367      1.0675      1.0926      1.1105      1.1197    
  1.1197      1.1104      1.0927      1.0675      1.0367      1.0022     0.96597     0.93002     0.89599     0.86518    
 0.83839     0.81595     0.79781     0.78370     0.77318     0.76576     0.76104     0.75877     0.75879     0.76108    
 0.76579     0.77322     0.78378     0.79789     0.77333     0.79788     0.82695     0.86026     0.89710     0.93633    
 0.97640      1.0154      1.0511      1.0816      1.1050      1.1197      1.1247      1.1197      1.1050      1.0817    
  1.0511      1.0154     0.97640     0.93635     0.89710     0.86023     0.82693     0.79786     0.77328     0.75317    
 0.73732     0.72541     0.71713     0.71225     0.71066     0.71229     0.71716     0.72544     0.73738     0.75325    
 0.72739     0.75324     0.78377     0.81877     0.85760     0.89925     0.94230     0.98490      1.0250      1.0603    
  1.0890      1.1092      1.1197      1.1197      1.1092      1.0890      1.0604      1.0249     0.98487     0.94229    
 0.89925     0.85757     0.81873     0.78376     0.75322     0.72733     0.70613     0.68947     0.67714     0.66901    
 0.66498     0.66500     0.66905     0.67717     0.68950     0.70619     0.67987     0.70619     0.73739     0.77324    
 0.81323     0.85644     0.90155     0.94688     0.99042      1.0300      1.0635      1.0890      1.1050      1.1104    
  1.1050      1.0890      1.0635      1.0300     0.99039     0.94687     0.90154     0.85641     0.81318     0.77320    
 0.73736     0.70615     0.67981     0.65839     0.64182     0.63002     0.62297     0.62063     0.62300     0.63005    
 0.64184     0.65843     0.63244     0.65844     0.68952     0.72547     0.76582     0.80976     0.85609     0.90326    
 0.94937     0.99233      1.0300      1.0603      1.0817      1.0927      1.0927      1.0817      1.0603      1.0300    
 0.99230     0.94934     0.90324     0.85606     0.80971     0.76576     0.72542     0.68948     0.65838     0.63239    
 0.61158     0.59596     0.58553     0.58032     0.58033     0.58555     0.59597     0.61161     0.58670     0.61162    
 0.64186     0.67719     0.71719     0.76111     0.80788     0.85605     0.90389     0.94937     0.99040      1.0249    
  1.0511      1.0675      1.0731      1.0675      1.0511      1.0249     0.99038     0.94932     0.90384     0.85601    
 0.80783     0.76105     0.71714     0.67715     0.64181     0.61157     0.58666     0.56721     0.55327     0.54488    
 0.54210     0.54490     0.55329     0.56723     0.54406     0.56725     0.59600     0.63007     0.66906     0.71231    
 0.75882     0.80728     0.85606     0.90327     0.94689     0.98488      1.0154      1.0367      1.0477      1.0477    
  1.0367      1.0154     0.98487     0.94684     0.90320     0.85599     0.80722     0.75876     0.71226     0.66903    
 0.63003     0.59594     0.56720     0.54403     0.52656     0.51488     0.50903     0.50904     0.51490     0.52658    
 0.50567     0.52659     0.55331     0.58557     0.62302     0.66503     0.71070     0.75882     0.80787     0.85610    
 0.90157     0.94231     0.97640      1.0022      1.0182      1.0237      1.0182      1.0022     0.97639     0.94226    
 0.90150     0.85602     0.80780     0.75875     0.71063     0.66498     0.62298     0.58553     0.55326     0.52655    
 0.50565     0.49065     0.48163     0.47863     0.48165     0.49067     0.47240     0.49067     0.51491     0.54492    
 0.58036     0.62067     0.66503     0.71231     0.76110     0.80975     0.85644     0.89927     0.93635     0.96595    
 0.98660     0.99720     0.99719     0.98657     0.96592     0.93630     0.89921     0.85637     0.80968     0.76102    
 0.71223     0.66496     0.62061     0.58031     0.54488     0.51487     0.49065     0.47238     0.46018     0.45408    
 0.45409     0.46020     0.44484     0.46020     0.48166     0.50906     0.54212     0.58036     0.62302     0.66907    
 0.71719     0.76581     0.81322     0.85759     0.89710     0.93000     0.95476     0.97015     0.97536     0.97012    
 0.95472     0.92995     0.89704     0.85752     0.81315     0.76574     0.71710     0.66899     0.62295     0.58030    
 0.54207     0.50902     0.48162     0.46018     0.44482     0.43560     0.43254     0.43561     0.42329     0.43562    
 0.45410     0.47865     0.50906     0.54492     0.58557     0.63008     0.67720     0.72547     0.77324     0.81876    
 0.86024     0.89598     0.92440     0.94417     0.95431     0.95430     0.94414     0.92436     0.89592     0.86017    
 0.81867     0.77316     0.72539     0.67712     0.63000     0.58550     0.54486     0.50901     0.47861     0.45407    
 0.43560     0.42328     0.41713     0.41713     0.40790     0.41714     0.43254     0.45410     0.48166     0.51491    
 0.55330     0.59599     0.64186     0.68952     0.73740     0.78379     0.82695     0.86519     0.89691     0.92072    
 0.93549     0.94049     0.93547     0.92069     0.89686     0.86511     0.82685     0.78368     0.73730     0.68944    
 0.64179     0.59593     0.55324     0.51485     0.48161     0.45406     0.43252     0.41712     0.40789     0.40482    
 0.39868     0.40483     0.41714     0.43562     0.46020     0.49068     0.52659     0.56724     0.61161     0.65843    
 0.70619     0.75325     0.79789     0.83842     0.87322     0.90081     0.91997     0.92979     0.92978     0.91995    
 0.90077     0.87315     0.83833     0.79778     0.75314     0.70609     0.65835     0.61154     0.56718     0.52654    
 0.49063     0.46016     0.43559     0.41712     0.40481     0.39867     0.40563     0.40890     0.41871     0.43504    
 0.45782     0.48687     0.52184     0.56214     0.60692     0.65502     0.70503     0.75530     0.80406     0.84948    
 0.88976     0.92318     0.94827     0.96384     0.96911     0.96382     0.94823     0.92312     0.88968     0.84939    
 0.80396     0.75520     0.70493     0.65494     0.60685     0.56208     0.52178     0.48682     0.45779     0.43502    
 0.41870     0.40890     0.40890     0.40890     0.41593     0.42995     0.45088     0.47855     0.51265     0.55269    
 0.59793     0.64734     0.69958     0.75306     0.80598     0.85641     0.90239     0.94200     0.97350     0.99539    
  1.0066      1.0066     0.99535     0.97343     0.94193     0.90231     0.85633     0.80590     0.75297     0.69948    
 0.64725     0.59786     0.55263     0.51261     0.47851     0.45086     0.42994     0.41592     0.41870     0.41495    
 0.41871     0.42995     0.44858     0.47444     0.50724     0.54656     0.59177     0.64199     0.69602     0.75234    
 0.80916     0.86450     0.91625     0.96229      1.0006      1.0294      1.0473      1.0534      1.0473      1.0294    
  1.0005     0.96221     0.91617     0.86442     0.80907     0.75225     0.69593     0.64192     0.59171     0.54651    
 0.50720     0.47441     0.44856     0.42994     0.43502     0.42706     0.42706     0.43503     0.45088     0.47444    
 0.50545     0.54355     0.58820     0.63866     0.69388     0.75249     0.81276     0.87269     0.93007     0.98261    
  1.0280      1.0642      1.0895      1.1024      1.1024      1.0895      1.0642      1.0280     0.98253     0.92998    
 0.87259     0.81267     0.75240     0.69381     0.63860     0.58815     0.54350     0.50541     0.47441     0.45086    
 0.45779     0.44525     0.44106     0.44526     0.45780     0.47854     0.50723     0.54355     0.58703     0.63707    
 0.69277     0.75293     0.81597     0.87993     0.94255      1.0014      1.0539      1.0978      1.1309      1.1515    
  1.1585      1.1515      1.1309      1.0978      1.0539      1.0013     0.94245     0.87983     0.81589     0.75287    
 0.69272     0.63701     0.58698     0.54350     0.50720     0.47851     0.48682     0.46946     0.46073     0.46073    
 0.46947     0.48684     0.51263     0.54655     0.58820     0.63707     0.69244     0.75328     0.81818     0.88532    
 0.95246      1.0171      1.0765      1.1281      1.1693      1.1980      1.2128      1.2128      1.1980      1.1692    
  1.1280      1.0764      1.0170     0.95237     0.88524     0.81812     0.75322     0.69238     0.63701     0.58815    
 0.54651     0.51260     0.52178     0.49948     0.48600     0.48148     0.48600     0.49950     0.52181     0.55266    
 0.59175     0.63865     0.69277     0.75328     0.81897     0.88819     0.95882      1.0283      1.0940      1.1529    
  1.2022      1.2394      1.2626      1.2705      1.2626      1.2394      1.2021      1.1528      1.0939      1.0283    
 0.95875     0.88812     0.81891     0.75322     0.69271     0.63860     0.59172     0.55263     0.56207     0.53490    
 0.51662     0.50743     0.50743     0.51663     0.53493     0.56211     0.59789     0.64195     0.69385     0.75293    
 0.81818     0.88819     0.96102      1.0343      1.1051      1.1705      1.2274      1.2731      1.3050      1.3214    
  1.3214      1.3050      1.2730      1.2274      1.1705      1.1050      1.0342     0.96096     0.88813     0.81812    
 0.75286     0.69380     0.64192     0.59786     0.60685     0.57504     0.55212     0.53827     0.53363     0.53827    
 0.55214     0.57509     0.60688     0.64728     0.69597     0.75244     0.81594     0.88529     0.95881      1.0343    
  1.1089      1.1797      1.2434      1.2969      1.3374      1.3626      1.3712      1.3626      1.3374      1.2968    
  1.2433      1.1796      1.1088      1.0342     0.95876     0.88525     0.81589     0.75239     0.69593     0.64726    
 0.65495     0.61894     0.59170     0.57343     0.56425     0.56424     0.57344     0.59174     0.61899     0.65498    
 0.69953     0.75228     0.81270     0.87987     0.95241      1.0283      1.1051      1.1797      1.2488      1.3092    
  1.3577      1.3917      1.4092      1.4092      1.3917      1.3577      1.3092      1.2488      1.1796      1.1050    
  1.0283     0.95238     0.87985     0.81266     0.75224     0.69949     0.70495     0.66533     0.63432     0.61207    
 0.59866     0.59418     0.59866     0.61209     0.63437     0.66538     0.70498     0.75302     0.80911     0.87262    
 0.94247      1.0170      1.0940      1.1705      1.2434      1.3092      1.3647      1.4067      1.4330      1.4419    
  1.4330      1.4067      1.3646      1.3092      1.2434      1.1705      1.0939      1.0170     0.94247     0.87260    
 0.80906     0.75297     0.75521     0.71275     0.67867     0.65307     0.63597     0.62741     0.62740     0.63598    
 0.65311     0.67872     0.71279     0.75525     0.80594     0.86445     0.93000      1.0013      1.0764      1.1528    
  1.2274      1.2969      1.3577      1.4067      1.4411      1.4588      1.4588      1.4411      1.4067      1.3577    
  1.2969      1.2274      1.1528      1.0764      1.0013     0.92999     0.86440     0.80588     0.80396     0.75957    
 0.72327     0.69510     0.67503     0.66301     0.65899     0.66301     0.67506     0.69516     0.72332     0.75959    
 0.80401     0.85637     0.91620     0.98254      1.0539      1.1280      1.2021      1.2730      1.3374      1.3917    
  1.4330      1.4588      1.4676      1.4588      1.4330      1.3917      1.3374      1.2731      1.2021      1.1280    
  1.0539     0.98255     0.91617     0.85631     0.84938     0.80406     0.76652     0.73671     0.71453     0.69984    
 0.69252     0.69252     0.69986     0.71459     0.73678     0.76656     0.80409     0.84943     0.90234     0.96223    
  1.0280      1.0978      1.1692      1.2393      1.3049      1.3626      1.4092      1.4419      1.4588      1.4589    
  1.4419      1.4092      1.3626      1.3050      1.2394      1.1692      1.0978      1.0280     0.96223     0.90230    
 0.88966     0.84453     0.80679     0.77636     0.75305     0.73663     0.72686     0.72362     0.72687     0.73667    
 0.75312     0.77642     0.80683     0.84457     0.88970     0.94193      1.0005      1.0642      1.1309      1.1980    
  1.2625      1.3214      1.3712      1.4092      1.4330      1.4411      1.4330      1.4092      1.3712      1.3214    
  1.2626      1.1980      1.1309      1.0642      1.0006     0.94193     0.92311     0.87934     0.84248     0.81249    
 0.78909     0.77195     0.76074     0.75520     0.75519     0.76075     0.77201     0.78916     0.81255     0.84254    
 0.87939     0.92314     0.97342      1.0294      1.0894      1.1514      1.2128      1.2704      1.3214      1.3626    
  1.3917      1.4067      1.4067      1.3917      1.3626      1.3214      1.2705      1.2128      1.1515      1.0894    
  1.0294     0.97344     0.94823     0.90698     0.87211     0.84362     0.82118     0.80439     0.79278     0.78599    
 0.78374     0.78598     0.79280     0.80444     0.82124     0.84367     0.87218     0.90704     0.94825     0.99533    
  1.0473      1.1024      1.1584      1.2128      1.2626      1.3050      1.3374      1.3577      1.3646      1.3577    
  1.3374      1.3050      1.2626      1.2128      1.1585      1.1024      1.0473     0.99537     0.96383     0.92621    
 0.89436     0.86837     0.84792     0.83250     0.82156     0.81460     0.81121     0.81121     0.81460     0.82160    
 0.83254     0.84796     0.86842     0.89443     0.92625     0.96383      1.0066      1.0533      1.1024      1.1514    
  1.1980      1.2394      1.2731      1.2969      1.3092      1.3092      1.2969      1.2731      1.2394      1.1980    
  1.1515      1.1024      1.0534      1.0066     0.96912     0.93607     0.90817     0.88559     0.86804     0.85497    
 0.84571     0.83965     0.83624     0.83514     0.83624     0.83967     0.84576     0.85501     0.86808     0.88564    
 0.90823     0.93610     0.96911      1.0066      1.0473      1.0894      1.1308      1.1692      1.2021      1.2274    
  1.2434      1.2488      1.2434      1.2274      1.2021      1.1693      1.1309      1.0895      1.0473      1.0066    
 0.96385     0.93609     0.91287     0.89443     0.88056     0.87066     0.86400     0.85983     0.85747     0.85641    
 0.85641     0.85747     0.85986     0.86404     0.87069     0.88059     0.89448     0.91290     0.93609     0.96383    
 0.99536      1.0294      1.0642      1.0978      1.1280      1.1528      1.1705      1.1797      1.1797      1.1705    
  1.1529      1.1280      1.0978      1.0643      1.0294     0.99538     0.94827     0.92625     0.90820     0.89444    
 0.88481     0.87873     0.87542     0.87400     0.87367     0.87375     0.87382     0.87373     0.87367     0.87402    
 0.87545     0.87876     0.88485     0.89449     0.90822     0.92623     0.94825     0.97345      1.0006      1.0280    
  1.0539      1.0764      1.0940      1.1051      1.1089      1.1051      1.0940      1.0765      1.0539      1.0280    
  1.0006     0.97348     0.92317     0.90705     0.89441     0.88561     0.88056     0.87873     0.87930     0.88131    
 0.88383     0.88602     0.88727     0.88725     0.88599     0.88382     0.88132     0.87932     0.87877     0.88061    
 0.88565     0.89441     0.90702     0.92314     0.94195     0.96223     0.98255      1.0013      1.0170      1.0283    
  1.0342      1.0343      1.0284      1.0171      1.0014     0.98262     0.96230     0.94199     0.88974     0.87941    
 0.87218     0.86841     0.86806     0.87067     0.87542     0.88131     0.88728     0.89237     0.89577     0.89694    
 0.89574     0.89235     0.88728     0.88131     0.87543     0.87070     0.86811     0.86843     0.87216     0.87938    
 0.88970     0.90232     0.91618     0.93002     0.94250     0.95242     0.95880     0.96102     0.95883     0.95245    
 0.94254     0.93008     0.91626     0.90239     0.84947     0.84461     0.84256     0.84368     0.84795     0.85499    
 0.86402     0.87401     0.88382     0.89236     0.89866     0.90200     0.90199     0.89865     0.89236     0.88382    
 0.87400     0.86402     0.85502     0.84798     0.84367     0.84254     0.84459     0.84942     0.85634     0.86443    
 0.87263     0.87989     0.88529     0.88818     0.88820     0.88533     0.87992     0.87268     0.86451     0.85643    
 0.80406     0.80414     0.80687     0.81257     0.82125     0.83254     0.84575     0.85986     0.87367     0.88600    
 0.89575     0.90199     0.90414     0.90198     0.89575     0.88602     0.87367     0.85983     0.84574     0.83255    
 0.82124     0.81255     0.80685     0.80412     0.80401     0.80592     0.80910     0.81271     0.81594     0.81817    
 0.81897     0.81820     0.81597     0.81274     0.80916     0.80600     0.75531     0.75965     0.76660     0.77645    
 0.78918     0.80445     0.82160     0.83969     0.85749     0.87375     0.88726     0.89694     0.90199     0.90198    
 0.89693     0.88727     0.87376     0.85747     0.83966     0.82160     0.80443     0.78914     0.77641     0.76658    
 0.75962     0.75525     0.75301     0.75228     0.75244     0.75291     0.75327     0.75329     0.75295     0.75248    
 0.75233     0.75307     0.70504     0.71284     0.72336     0.73681     0.75315     0.77203     0.79283     0.81463    
 0.83627     0.85643     0.87383     0.88727     0.89576     0.89865     0.89574     0.88726     0.87383     0.85642    
 0.83624     0.81461     0.79282     0.77199     0.75309     0.73677     0.72333     0.71280     0.70499     0.69954    
 0.69598     0.69385     0.69275     0.69244     0.69279     0.69388     0.69601     0.69958     0.65503     0.66542    
 0.67877     0.69520     0.71463     0.73671     0.76081     0.78603     0.81124     0.83516     0.85642     0.87375    
 0.88602     0.89238     0.89236     0.88600     0.87375     0.85641     0.83513     0.81121     0.78600     0.76077    
 0.73666     0.71457     0.69515     0.67872     0.66537     0.65498     0.64730     0.64197     0.63864     0.63706    
 0.63708     0.63867     0.64199     0.64733     0.60692     0.61902     0.63441     0.65315     0.67511     0.69992    
 0.72693     0.75526     0.78379     0.81125     0.83625     0.85747     0.87367     0.88384     0.88730     0.88383    
 0.87367     0.85747     0.83623     0.81119     0.78374     0.75521     0.72688     0.69987     0.67506     0.65310    
 0.63436     0.61897     0.60688     0.59790     0.59175     0.58819     0.58703     0.58821     0.59177     0.59792    
 0.56214     0.57512     0.59178     0.61214     0.63604     0.66307     0.69259     0.72369     0.75526     0.78604    
 0.81464     0.83967     0.85984     0.87400     0.88132     0.88132     0.87401     0.85984     0.83965     0.81458    
 0.78597     0.75519     0.72362     0.69253     0.66302     0.63599     0.61209     0.59173     0.57507     0.56211    
 0.55267     0.54654     0.54354     0.54355     0.54656     0.55269     0.52183     0.53497     0.55218     0.57349    
 0.59872     0.62747     0.65906     0.69258     0.72693     0.76081     0.79285     0.82162     0.84575     0.86401    
 0.87541     0.87929     0.87541     0.86401     0.84573     0.82157     0.79278     0.76073     0.72685     0.69251    
 0.65899     0.62741     0.59868     0.57345     0.55213     0.53493     0.52181     0.51263     0.50723     0.50545    
 0.50724     0.51265     0.48686     0.49953     0.51668     0.53832     0.56431     0.59424     0.62747     0.66307    
 0.69991     0.73670     0.77204     0.80446     0.83255     0.85500     0.87067     0.87873     0.87872     0.87065    
 0.85497     0.83251     0.80440     0.77196     0.73663     0.69983     0.66299     0.62739     0.59418     0.56426    