unknown system                          
   1.00000000000000     
     3.190316    0.000000    0.000000
    -1.595158    2.762894    0.000000
     0.000000    0.000000   14.879004
   Mo   S 
     2     4
Direct
  0.333333  0.666667  0.250000
  0.666667  0.333333  0.750000
  0.333333  0.666667  0.855174
  0.666667  0.333333  0.144826
  0.666666  0.333333  0.355174
  0.333334  0.666667  0.644826
 
   36   36  160
 0.39560662926E+00 0.39867774143E+00 0.40789863612E+00 0.42329194466E+00 0.44483893925E+00
 0.47240773539E+00 0.50567541701E+00 0.54406295647E+00 0.58670022032E+00 0.63243020217E+00
 0.67985004610E+00 0.72737760751E+00 0.77332951603E+00 0.81599894522E+00 0.85372723567E+00
 0.88497227886E+00 0.90838355876E+00 0.92289105197E+00 0.92780044486E+00 0.92287012543E+00
 0.90834150984E+00 0.88490977814E+00 0.85364705731E+00 0.81590632052E+00 0.77323120090E+00
 0.72728018459E+00 0.67975845299E+00 0.63234721116E+00 0.58662690213E+00 0.54399959103E+00
 0.50562220249E+00 0.47236494726E+00 0.44480662801E+00 0.42326956064E+00 0.40788498221E+00
 0.39867139679E+00 0.39867178225E+00 0.39867457383E+00 0.40482104839E+00 0.41713153561E+00
 0.43561213116E+00 0.46019595221E+00 0.49066767355E+00 0.52658801215E+00 0.56724021231E+00
 0.61161368030E+00 0.65842653505E+00 0.70617981596E+00 0.75323150277E+00 0.79787533502E+00
 0.83841294329E+00 0.87322068334E+00 0.90082319628E+00 0.91998202530E+00 0.92979368488E+00
 0.92977903797E+00 0.91993953087E+00 0.90075862753E+00 0.87314419145E+00 0.83833356741E+00
 0.79779540479E+00 0.75314816581E+00 0.70609131411E+00 0.65833568473E+00 0.61152667929E+00
 0.56716385253E+00 0.52652679327E+00 0.49062157808E+00 0.46016143745E+00 0.43558619711E+00
 0.41711381405E+00 0.40481155031E+00 0.40788612532E+00 0.40481491832E+00 0.40789241692E+00
 0.41712912659E+00 0.43253636487E+00 0.45408438861E+00 0.48164018987E+00 0.51489303514E+00
 0.55328746365E+00 0.59598386602E+00 0.64185451851E+00 0.68951447235E+00 0.73738361430E+00
 0.78376713929E+00 0.82693392715E+00 0.86518405351E+00 0.89691853558E+00 0.92072732520E+00
 0.93549282620E+00 0.94049085890E+00 0.93546865460E+00 0.92067873952E+00 0.89685107267E+00
 0.86510803586E+00 0.82685545809E+00 0.78368492144E+00 0.73729586397E+00 0.68942434836E+00
 0.64176772092E+00 0.59590533586E+00 0.55322135147E+00 0.51484151425E+00 0.48160107515E+00
 0.45405345949E+00 0.43251255885E+00 0.41711419941E+00 0.42327088137E+00 0.41711850612E+00
 0.41712105253E+00 0.42328155681E+00 0.43560756241E+00 0.45408387655E+00 0.47862917783E+00
 0.50903457595E+00 0.54489387168E+00 0.58554727920E+00 0.63005211724E+00 0.67718257623E+00
 0.72546297799E+00 0.77323620927E+00 0.81874962400E+00 0.86023382154E+00 0.89597375513E+00
 0.92439320461E+00 0.94416110408E+00 0.95430348681E+00 0.95429949402E+00 0.94414377782E+00
 0.92435428713E+00 0.89591248962E+00 0.86015495736E+00 0.81865761158E+00 0.77313765460E+00
 0.72536901379E+00 0.67710146402E+00 0.62998290390E+00 0.58548568357E+00 0.54483987416E+00
 0.50898957909E+00 0.47859135712E+00 0.45405213867E+00 0.43558526166E+00 0.44480662802E+00
 0.43559204826E+00 0.43252102703E+00 0.43559655238E+00 0.44482283643E+00 0.46018792879E+00
 0.48163769462E+00 0.50903458272E+00 0.54209566717E+00 0.58032821113E+00 0.62298379370E+00
 0.66903274818E+00 0.71716033955E+00 0.76580117351E+00 0.81321586019E+00 0.85758280368E+00
 0.89708123627E+00 0.92997669293E+00 0.95472898515E+00 0.97011454720E+00 0.97533794863E+00
 0.97011586541E+00 0.95471782503E+00 0.92994132581E+00 0.89701962728E+00 0.85749779807E+00
 0.81311535273E+00 0.76570211403E+00 0.71707927067E+00 0.66897024520E+00 0.62292790901E+00
 0.58027276365E+00 0.54204477781E+00 0.50899107729E+00 0.48159993202E+00 0.46015823306E+00
 0.47236204556E+00 0.46016743402E+00 0.45406505409E+00 0.45406568179E+00 0.46017557374E+00
 0.47238479066E+00 0.49065146147E+00 0.51488286514E+00 0.54489185541E+00 0.58033152335E+00
 0.62063710573E+00 0.66498572106E+00 0.71226537092E+00 0.76106687455E+00 0.80972730468E+00
 0.85641822106E+00 0.89924142232E+00 0.93632142830E+00 0.96591707256E+00 0.98655597256E+00
 0.99716351843E+00 0.99716463742E+00 0.98655122004E+00 0.96589435262E+00 0.93627915142E+00
 0.89918233458E+00 0.85634203064E+00 0.80964041559E+00 0.76098643010E+00 0.71220104449E+00
 0.66492839419E+00 0.62057642333E+00 0.58027268087E+00 0.54484409680E+00 0.51484441604E+00
 0.49061829087E+00 0.50561640398E+00 0.49062672951E+00 0.48161660753E+00 0.47860941522E+00
 0.48161900339E+00 0.49064273989E+00 0.50564579195E+00 0.52655893654E+00 0.55326377856E+00
 0.58553858334E+00 0.62298838356E+00 0.66499138314E+00 0.71065466199E+00 0.75877347506E+00
 0.80782943163E+00 0.85605362689E+00 0.90152508110E+00 0.94226948445E+00 0.97637135393E+00
 0.10021189031E+01 0.10181557817E+01 0.10236034500E+01 0.10181496639E+01 0.10020965946E+01
 0.97633395643E+00 0.94222831694E+00 0.90147995018E+00 0.85599454312E+00 0.80775935420E+00
 0.75870659186E+00 0.71059284145E+00 0.66492549235E+00 0.62292211052E+00 0.58548700442E+00
 0.55322829307E+00 0.52652717858E+00 0.54399400304E+00 0.52653117888E+00 0.51485975196E+00
 0.50901343284E+00 0.50901319877E+00 0.51486956916E+00 0.52656026561E+00 0.54402862917E+00
 0.56719756720E+00 0.59594454914E+00 0.63002997627E+00 0.66902642962E+00 0.71226460780E+00
 0.75877375499E+00 0.80723580963E+00 0.85600761597E+00 0.90321054084E+00 0.94683435651E+00
 0.98484350617E+00 0.10153203957E+01 0.10366392060E+01 0.10476163346E+01 0.10476166728E+01
 0.10366297049E+01 0.10152914794E+01 0.98480793456E+00 0.94680382443E+00 0.90317286138E+00
 0.85594989468E+00 0.80716894742E+00 0.75871217969E+00 0.71220373044E+00 0.66896183830E+00
 0.62997599528E+00 0.59591092372E+00 0.56716982567E+00 0.58662690203E+00 0.56716898288E+00
 0.55323882536E+00 0.54486771495E+00 0.54207162585E+00 0.54486994824E+00 0.55326266688E+00
 0.56721158499E+00 0.58666352291E+00 0.61156370298E+00 0.64180430280E+00 0.67714126214E+00
 0.71712756364E+00 0.76104526615E+00 0.80782460469E+00 0.85601226343E+00 0.90383509936E+00
 0.94931084799E+00 0.99035257462E+00 0.10248962447E+01 0.10510822803E+01 0.10674391964E+01
 0.10730121066E+01 0.10674524045E+01 0.10510819223E+01 0.10248751453E+01 0.99032789109E+00
 0.94928313527E+00 0.90378606180E+00 0.85594517840E+00 0.80776515278E+00 0.76099963604E+00
 0.71707927056E+00 0.67708983903E+00 0.64176657787E+00 0.61153659806E+00 0.63235624717E+00
 0.61153448460E+00 0.59591800706E+00 0.58551200817E+00 0.58030449203E+00 0.58030130926E+00
 0.58552094929E+00 0.59595743194E+00 0.61158436170E+00 0.63239314341E+00 0.65837939948E+00
 0.68946238579E+00 0.72540379535E+00 0.76573960233E+00 0.80968441170E+00 0.85604253012E+00
 0.90321706943E+00 0.94931572221E+00 0.99226738802E+00 0.10299343938E+01 0.10602796317E+01
 0.10815762112E+01 0.10925720757E+01 0.10925888196E+01 0.10816019961E+01 0.10602820965E+01
 0.10299193879E+01 0.99224950440E+00 0.94928186704E+00 0.90315823750E+00 0.85598550721E+00
 0.80965235349E+00 0.76571396897E+00 0.72536129851E+00 0.68941531240E+00 0.65834433543E+00
 0.67977347664E+00 0.65834642781E+00 0.64177372713E+00 0.63000134723E+00 0.62296161747E+00
 0.62061107958E+00 0.62295689216E+00 0.63002349249E+00 0.64182414983E+00 0.65839368046E+00
 0.67981168550E+00 0.70614211558E+00 0.73733753193E+00 0.77316860402E+00 0.81313933405E+00
 0.85636448836E+00 0.90150402239E+00 0.94682926480E+00 0.99035238430E+00 0.10299395954E+01
 0.10634504269E+01 0.10889494618E+01 0.11049153750E+01 0.11103665866E+01 0.11049397324E+01
 0.10889606754E+01 0.10634385257E+01 0.10299284240E+01 0.99034291468E+00 0.94679823642E+00
 0.90145912798E+00 0.85633912895E+00 0.81313037640E+00 0.77313897528E+00 0.73728198338E+00
 0.70609169957E+00 0.72729201282E+00 0.70610225159E+00 0.68942581233E+00 0.67710998927E+00
 0.66900131710E+00 0.66497052418E+00 0.66496498512E+00 0.66900782284E+00 0.67715131354E+00
 0.68947783974E+00 0.70614010629E+00 0.72733497795E+00 0.75320055947E+00 0.78372607438E+00
 0.81868290832E+00 0.85750929838E+00 0.89918686827E+00 0.94223351787E+00 0.98481884357E+00
 0.10248919868E+01 0.10602995957E+01 0.10889705275E+01 0.11091523504E+01 0.11195860604E+01
 0.11195944706E+01 0.11091556852E+01 0.10889488472E+01 0.10602793045E+01 0.10248972778E+01
 0.98482535050E+00 0.94221648852E+00 0.89916760456E+00 0.85750680739E+00 0.81866811890E+00
 0.78367309305E+00 0.75313672298E+00 0.77323120101E+00 0.75315490814E+00 0.73729795790E+00
 0.72537276157E+00 0.71710491634E+00 0.71224763574E+00 0.71063965146E+00 0.71224847795E+00
 0.71713778309E+00 0.72543203108E+00 0.73734418108E+00 0.75318604415E+00 0.77328041587E+00
 0.79784002803E+00 0.82688853256E+00 0.86017189510E+00 0.89702127729E+00 0.93627140329E+00
 0.97632453238E+00 0.10152864357E+01 0.10510836428E+01 0.10816090007E+01 0.11049479987E+01
 0.11195997339E+01 0.11246013154E+01 0.11196002990E+01 0.11049247085E+01 0.10815753033E+01
 0.10510819225E+01 0.10153147240E+01 0.97633975476E+00 0.93626439640E+00 0.89701962739E+00
 0.86017129330E+00 0.82685431480E+00 0.79777736259E+00 0.81589378522E+00 0.79779542580E+00
 0.78369233711E+00 0.77314554784E+00 0.76572321978E+00 0.76103045360E+00 0.75875794605E+00
 0.75875743529E+00 0.76105171918E+00 0.76578484016E+00 0.77321347846E+00 0.78373347563E+00
 0.79783045215E+00 0.81594628105E+00 0.83836382364E+00 0.86512593845E+00 0.89591598770E+00
 0.92993138877E+00 0.96587531943E+00 0.10020745438E+01 0.10366110696E+01 0.10674432717E+01
 0.10925930293E+01 0.11103823824E+01 0.11196048553E+01 0.11196104241E+01 0.11103791218E+01
 0.10925672479E+01 0.10674295650E+01 0.10366366527E+01 0.10021091300E+01 0.96588471884E+00
 0.92993160943E+00 0.89592634598E+00 0.86512057119E+00 0.83832064643E+00 0.85363001126E+00
 0.83832855678E+00 0.82686878193E+00 0.81867485407E+00 0.81313443126E+00 0.80967464591E+00
 0.80780753685E+00 0.80721540775E+00 0.80781231902E+00 0.80971730917E+00 0.81321057558E+00
 0.81874131384E+00 0.82691422718E+00 0.83837787898E+00 0.85367867573E+00 0.87315790727E+00
 0.89684880230E+00 0.92433864394E+00 0.95469272729E+00 0.98652220355E+00 0.10181231133E+01
 0.10475987159E+01 0.10730071973E+01 0.10925804938E+01 0.11049309529E+01 0.11091641789E+01
 0.11049474447E+01 0.10925811115E+01 0.10729950605E+01 0.10476110850E+01 0.10181609113E+01
 0.98654831807E+00 0.95470077901E+00 0.92435560806E+00 0.89686926174E+00 0.87314457663E+00
 0.88489854189E+00 0.87313869159E+00 0.86512300378E+00 0.86017845999E+00 0.85751580887E+00
 0.85636366101E+00 0.85603267869E+00 0.85599677456E+00 0.85599221032E+00 0.85604378379E+00
 0.85641702608E+00 0.85758878686E+00 0.86024020426E+00 0.86518136179E+00 0.87320169359E+00
 0.88493536267E+00 0.90075784774E+00 0.92065622747E+00 0.94410750282E+00 0.97007588944E+00
 0.99713102823E+00 0.10235829947E+01 0.10476099518E+01 0.10674419720E+01 0.10815801077E+01
 0.10889474634E+01 0.10889606980E+01 0.10815964832E+01 0.10674382644E+01 0.10476106864E+01
 0.10236146860E+01 0.99717297148E+00 0.97010181025E+00 0.94413122104E+00 0.92068997559E+00
 0.90077024878E+00 0.90834150969E+00 0.90075635397E+00 0.89686143765E+00 0.89593364035E+00
 0.89703580427E+00 0.89919521868E+00 0.90150813367E+00 0.90322002693E+00 0.90383802659E+00
 0.90321334581E+00 0.90152914264E+00 0.89924989821E+00 0.89709580612E+00 0.89599118513E+00
 0.89693088996E+00 0.90082167577E+00 0.90836263632E+00 0.91992838591E+00 0.93543069406E+00
 0.95424712757E+00 0.97528701657E+00 0.99712761839E+00 0.10181401594E+01 0.10366382509E+01
 0.10510836425E+01 0.10602731214E+01 0.10634354033E+01 0.10602852417E+01 0.10510822803E+01
 0.10366301479E+01 0.10181615803E+01 0.99718106613E+00 0.97533794847E+00 0.95428352721E+00
 0.93546751156E+00 0.91995379141E+00 0.92287981602E+00 0.91994112249E+00 0.92068048913E+00
 0.92436592878E+00 0.92995574259E+00 0.93629219230E+00 0.94225419693E+00 0.94685319510E+00
 0.94934284692E+00 0.94933798400E+00 0.94685841495E+00 0.94229048464E+00 0.93634253749E+00
 0.93000108735E+00 0.92442027531E+00 0.92075142662E+00 0.91999482009E+00 0.92288548273E+00
 0.92976112158E+00 0.94044475074E+00 0.95424217216E+00 0.97005496284E+00 0.98651251316E+00
 0.10020967700E+01 0.10153137830E+01 0.10248941243E+01 0.10299299048E+01 0.10299350484E+01
 0.10248956310E+01 0.10153051172E+01 0.10021092126E+01 0.98656856502E+00 0.97012705672E+00
 0.95429511691E+00 0.94048116833E+00 0.92978834323E+00 0.92781380011E+00 0.92978279358E+00
 0.93546246616E+00 0.94414470727E+00 0.95473250704E+00 0.96591679586E+00 0.97636725957E+00
 0.98486170676E+00 0.99039440435E+00 0.99230893177E+00 0.99039480814E+00 0.98488667819E+00
 0.97641435776E+00 0.96595874738E+00 0.95476889994E+00 0.94419837532E+00 0.93552455163E+00
 0.92981517969E+00 0.92780700399E+00 0.92977081220E+00 0.93544404925E+00 0.94409626662E+00
 0.95466232598E+00 0.96586278415E+00 0.97633788782E+00 0.98483067183E+00 0.99035405267E+00
 0.99227642403E+00 0.99036592982E+00 0.98483791818E+00 0.97635220009E+00 0.96591417081E+00
 0.95474234042E+00 0.94416242478E+00 0.93548061396E+00 0.92979407029E+00 0.92290074248E+00
 0.92979733774E+00 0.94048151677E+00 0.95429384351E+00 0.97013256833E+00 0.98658728158E+00
 0.10021426633E+01 0.10153493834E+01 0.10249440073E+01 0.10299826908E+01 0.10299775794E+01
 0.10249484361E+01 0.10153834585E+01 0.10021871126E+01 0.98662120542E+00 0.97017137006E+00
 0.95435017369E+00 0.94052745860E+00 0.92980548913E+00 0.92288548288E+00 0.91995272250E+00
 0.92067715392E+00 0.92432895314E+00 0.92990916266E+00 0.93626343713E+00 0.94223138021E+00
 0.94681957426E+00 0.94931506775E+00 0.94933084277E+00 0.94684963479E+00 0.94225979373E+00
 0.93630883592E+00 0.92998356453E+00 0.92440157427E+00 0.92071763450E+00 0.91997272010E+00
 0.90838355882E+00 0.91998351922E+00 0.93548658360E+00 0.95429778233E+00 0.97535583823E+00
 0.99721062672E+00 0.10182068943E+01 0.10366891921E+01 0.10511479067E+01 0.10603493430E+01
 0.10634940587E+01 0.10603294828E+01 0.10511465324E+01 0.10367171373E+01 0.10182394092E+01
 0.99724316482E+00 0.97540689289E+00 0.95435512896E+00 0.93551119623E+00 0.91997048365E+00
 0.90836263654E+00 0.90078372976E+00 0.89686584819E+00 0.89591387715E+00 0.89702127724E+00
 0.89918968581E+00 0.90148899859E+00 0.90319338755E+00 0.90383509952E+00 0.90323077460E+00
 0.90153087946E+00 0.89922967816E+00 0.89708123632E+00 0.89598708019E+00 0.89691739232E+00
 0.90080816496E+00 0.88496104300E+00 0.90082108087E+00 0.92072884528E+00 0.94416185321E+00
 0.97013129846E+00 0.99720968281E+00 0.10236649922E+01 0.10476758425E+01 0.10675134035E+01
 0.10816729593E+01 0.10890309682E+01 0.10890097553E+01 0.10816398973E+01 0.10675091723E+01
 0.10476933901E+01 0.10236853084E+01 0.99724657482E+00 0.97019229667E+00 0.94420961115E+00
 0.92073049986E+00 0.90079579391E+00 0.88493536284E+00 0.87316914333E+00 0.86512723793E+00
 0.86017831597E+00 0.85753236263E+00 0.85637572414E+00 0.85602225792E+00 0.85599072333E+00
 0.85601326424E+00 0.85606486282E+00 0.85640988677E+00 0.85757438675E+00 0.86024637842E+00
 0.86519528939E+00 0.87320906184E+00 0.85371018961E+00 0.87321541273E+00 0.89692858039E+00
 0.92440455647E+00 0.95474385266E+00 0.98659238006E+00 0.10182129933E+01 0.10476754212E+01
 0.10730707633E+01 0.10926621851E+01 0.11050257638E+01 0.11092341045E+01 0.11049928737E+01
 0.10926409999E+01 0.10730756446E+01 0.10476821540E+01 0.10182223632E+01 0.98663089622E+00
 0.95479930127E+00 0.92442996570E+00 0.89691384383E+00 0.87319045763E+00 0.85367867575E+00
 0.83835128813E+00 0.82687148668E+00 0.81869473681E+00 0.81317140374E+00 0.80969344748E+00
 0.80780755856E+00 0.80723022187E+00 0.80784067913E+00 0.80972440270E+00 0.81319881414E+00
 0.81875094493E+00 0.82695211625E+00 0.83841332847E+00 0.81598640946E+00 0.83840789462E+00
 0.86519892057E+00 0.89599463350E+00 0.92999130567E+00 0.96593974693E+00 0.10021649838E+01
 0.10366985974E+01 0.10675003173E+01 0.10926453447E+01 0.11104593094E+01 0.11196863614E+01
 0.11196728046E+01 0.11104436471E+01 0.10926535354E+01 0.10675104716E+01 0.10366899558E+01
 0.10021648866E+01 0.96597128311E+00 0.93002331344E+00 0.89599329545E+00 0.86518006230E+00
 0.83839041447E+00 0.81594628088E+00 0.79780983560E+00 0.78370171079E+00 0.77318113977E+00
 0.76576117382E+00 0.76104303466E+00 0.75876680734E+00 0.75878601063E+00 0.76107650810E+00
 0.76578581882E+00 0.77322235300E+00 0.78377967488E+00 0.79788825576E+00 0.77332951585E+00
 0.79787514842E+00 0.82694747916E+00 0.86025721011E+00 0.89709731199E+00 0.93633454626E+00
 0.97640477044E+00 0.10153783887E+01 0.10511482972E+01 0.10816469469E+01 0.11050011701E+01
 0.11196780858E+01 0.11246757382E+01 0.11196676833E+01 0.11050099198E+01 0.10816687902E+01
 0.10511465321E+01 0.10153561109E+01 0.97640100262E+00 0.93635050390E+00 0.89709580609E+00
 0.86023378345E+00 0.82693127335E+00 0.79786064445E+00 0.77328041557E+00 0.75317107418E+00
 0.73732250840E+00 0.72541241632E+00 0.71712756355E+00 0.71225253873E+00 0.71066046062E+00
 0.71228592962E+00 0.71716033936E+00 0.72544400021E+00 0.73738247131E+00 0.75324877430E+00
 0.72738943587E+00 0.75323827919E+00 0.78377482519E+00 0.81876691486E+00 0.85760039320E+00
 0.89925435255E+00 0.94229558911E+00 0.98489745728E+00 0.10249649999E+01 0.10603466706E+01
 0.10890195390E+01 0.11092309633E+01 0.11196722572E+01 0.11196619975E+01 0.11092222763E+01
 0.10890328199E+01 0.10603559570E+01 0.10249462981E+01 0.98487484983E+00 0.94229262248E+00
 0.89924708057E+00 0.85756572246E+00 0.81872948570E+00 0.78375783970E+00 0.75321552924E+00
 0.72733497762E+00 0.70613028716E+00 0.68946517818E+00 0.67714278626E+00 0.66900901333E+00
 0.66497955487E+00 0.66500045136E+00 0.66904739547E+00 0.67717206853E+00 0.68950264403E+00
 0.70619125905E+00 0.67986506997E+00 0.70619107874E+00 0.73738574770E+00 0.77324420853E+00
 0.81323461166E+00 0.85643984276E+00 0.90155348487E+00 0.94688377859E+00 0.99041906252E+00
 0.10299976467E+01 0.10635058660E+01 0.10890313674E+01 0.11050161938E+01 0.11104467736E+01
 0.11049936939E+01 0.10890197324E+01 0.10635090827E+01 0.10299872699E+01 0.99039313956E+00
 0.94686810562E+00 0.90154416645E+00 0.85640578986E+00 0.81317850569E+00 0.77320094322E+00
 0.73735920514E+00 0.70615193453E+00 0.67981168527E+00 0.65838843554E+00 0.64181932662E+00
 0.63002438827E+00 0.62296756114E+00 0.62063420403E+00 0.62299881760E+00 0.63005343792E+00
 0.64184063770E+00 0.65842692051E+00 0.63243923830E+00 0.65843747858E+00 0.68951589356E+00
 0.72546684047E+00 0.76582237601E+00 0.80976133544E+00 0.85609180644E+00 0.90325766370E+00
 0.94937074725E+00 0.99232693688E+00 0.10299886106E+01 0.10603494630E+01 0.10816736401E+01
 0.10926669163E+01 0.10926531487E+01 0.10816526871E+01 0.10603437334E+01 0.10299820364E+01
 0.99229989562E+00 0.94933863857E+00 0.90323702803E+00 0.85606405585E+00 0.80970827279E+00
 0.76576326848E+00 0.72542341055E+00 0.68947504770E+00 0.65838464433E+00 0.63239314337E+00
 0.61158304339E+00 0.59595917304E+00 0.58552954703E+00 0.58031958538E+00 0.58033442835E+00
 0.58555499448E+00 0.59597482975E+00 0.61160502952E+00 0.58670022038E+00 0.61162135090E+00
 0.64186071426E+00 0.67719127065E+00 0.71718628587E+00 0.76111057128E+00 0.80787742603E+00
 0.85605455920E+00 0.90388726608E+00 0.94937201542E+00 0.99040403855E+00 0.10249428672E+01
 0.10511482974E+01 0.10675231574E+01 0.10730878093E+01 0.10675143350E+01 0.10511479067E+01
 0.10249446211E+01 0.99038104899E+00 0.94932285199E+00 0.90383802680E+00 0.85601375087E+00
 0.80782936496E+00 0.76105395015E+00 0.71713778303E+00 0.67714978961E+00 0.64180912608E+00
 0.61156502135E+00 0.58666352307E+00 0.56721345950E+00 0.55326957698E+00 0.54488445278E+00
 0.54209566722E+00 0.54490285526E+00 0.55328632045E+00 0.56722952251E+00 0.54405736858E+00
 0.56724520608E+00 0.59599690431E+00 0.63007078492E+00 0.66906387723E+00 0.71231176853E+00
 0.75882453766E+00 0.80728240260E+00 0.85605927564E+00 0.90327228789E+00 0.94688936646E+00
 0.98488004075E+00 0.10153551438E+01 0.10366916501E+01 0.10476810094E+01 0.10476814906E+01
 0.10366982501E+01 0.10153646620E+01 0.98486729468E+00 0.94683791640E+00 0.90319979304E+00
 0.85599112673E+00 0.80722099590E+00 0.75876438283E+00 0.71226054679E+00 0.66902523908E+00
 0.63002908036E+00 0.59594280780E+00 0.56719569285E+00 0.54402862944E+00 0.52656452456E+00
 0.51488017890E+00 0.50903181375E+00 0.50904148482E+00 0.51489862311E+00 0.52658203871E+00
 0.50566961823E+00 0.52659255670E+00 0.55330509485E+00 0.58557376956E+00 0.62301728576E+00
 0.66502786131E+00 0.71070124994E+00 0.75881894964E+00 0.80787162735E+00 0.85610084274E+00
 0.90157430755E+00 0.94230741738E+00 0.97639897154E+00 0.10021524483E+01 0.10182017461E+01
 0.10236537563E+01 0.10182010956E+01 0.10021523540E+01 0.97638641367E+00 0.94226388745E+00
 0.90150233483E+00 0.85602144266E+00 0.80779628964E+00 0.75874541067E+00 0.71063385286E+00
 0.66497681354E+00 0.62297771462E+00 0.58552998520E+00 0.55325686804E+00 0.52655467778E+00
 0.50564579222E+00 0.49064855962E+00 0.48163189586E+00 0.47863049868E+00 0.48164713174E+00
 0.49066805886E+00 0.47240483327E+00 0.49067300936E+00 0.51491107048E+00 0.54492172715E+00
 0.58035982926E+00 0.62067172774E+00 0.66503076329E+00 0.71230908245E+00 0.76109736485E+00
 0.80974939736E+00 0.85644274491E+00 0.89926908304E+00 0.93634930120E+00 0.96594938040E+00
 0.98659528196E+00 0.99720134872E+00 0.99719307882E+00 0.98657468912E+00 0.96591969800E+00
 0.93630478498E+00 0.89920696264E+00 0.85637199499E+00 0.80967754782E+00 0.76102082003E+00
 0.71222707695E+00 0.66495579406E+00 0.62061398174E+00 0.58031324733E+00 0.54487735039E+00
 0.51487225498E+00 0.49064564186E+00 0.47238479081E+00 0.46018220776E+00 0.45407965375E+00
 0.45408729062E+00 0.46019923955E+00 0.44483893923E+00 0.46020177688E+00 0.48165546892E+00
 0.50905834616E+00 0.54212267957E+00 0.58035991201E+00 0.62302308455E+00 0.66907228448E+00
 0.71718628579E+00 0.76581052050E+00 0.81321958780E+00 0.85759138420E+00 0.89709731216E+00
 0.93000102207E+00 0.95476089873E+00 0.97014535368E+00 0.97535583815E+00 0.97012005846E+00
 0.95471915179E+00 0.92994887136E+00 0.89703580440E+00 0.85752422576E+00 0.81315147731E+00
 0.76573857444E+00 0.71710491620E+00 0.66898666950E+00 0.62294659383E+00 0.58029827537E+00
 0.54207162593E+00 0.50901596740E+00 0.48162480192E+00 0.46018129481E+00 0.44482283640E+00
 0.43560342232E+00 0.43253522177E+00 0.43561456506E+00 0.42329326573E+00 0.43561769205E+00
 0.45409598855E+00 0.47864715136E+00 0.50905684788E+00 0.54491750419E+00 0.58557244864E+00
 0.63007769398E+00 0.67720289605E+00 0.72547455562E+00 0.77324288745E+00 0.81875640738E+00
 0.86024087419E+00 0.89598077713E+00 0.92440323567E+00 0.94417441033E+00 0.95431374926E+00
 0.95430221309E+00 0.94414338625E+00 0.92435755914E+00 0.89592031542E+00 0.86016590312E+00
 0.81867353327E+00 0.77315940444E+00 0.72539173937E+00 0.67712049648E+00 0.63000002616E+00
 0.58550429309E+00 0.54485873178E+00 0.50900652408E+00 0.47860809430E+00 0.45406990462E+00
 0.43560069237E+00 0.42328155664E+00 0.41712780561E+00 0.41713247123E+00 0.40789977944E+00
 0.41713641313E+00 0.43254499614E+00 0.45409730953E+00 0.48165661223E+00 0.51490816847E+00
 0.55329815277E+00 0.59599131635E+00 0.64186185767E+00 0.68952492984E+00 0.73739962830E+00
 0.78378665351E+00 0.82694862236E+00 0.86518638497E+00 0.89691039108E+00 0.92071760940E+00
 0.93548772707E+00 0.94049120746E+00 0.93547467818E+00 0.92069017971E+00 0.89686258090E+00
 0.86511176772E+00 0.82685059264E+00 0.78367980178E+00 0.73729910141E+00 0.68943764071E+00
 0.64178760751E+00 0.59592704302E+00 0.55323996861E+00 0.51485416410E+00 0.48160966572E+00
 0.45406215230E+00 0.43252217037E+00 0.41712237336E+00 0.40789241671E+00 0.40482143375E+00
 0.39867812683E+00 0.40482506999E+00 0.41713602763E+00 0.43561862753E+00 0.46020498165E+00
 0.49067629686E+00 0.52659217116E+00 0.56723923252E+00 0.61161143200E+00 0.65842882799E+00
 0.70619069339E+00 0.75324972220E+00 0.79789319089E+00 0.83842081558E+00 0.87321502712E+00
 0.90080945931E+00 0.91996925885E+00 0.92978803277E+00 0.92978240821E+00 0.91995042769E+00
 0.90077138546E+00 0.87315031306E+00 0.83832817117E+00 0.79778250475E+00 0.75313763688E+00
 0.70609080896E+00 0.65834604245E+00 0.61154313520E+00 0.56717967256E+00 0.52653715219E+00
 0.49062634398E+00 0.46016414668E+00 0.43558961475E+00 0.41711757081E+00 0.40481453281E+00
 0.39867457368E+00 0.40563278686E+00 0.40890468127E+00 0.41871316986E+00 0.43504122467E+00
 0.45781873665E+00 0.48686756490E+00 0.52183712496E+00 0.56214289956E+00 0.60692288894E+00
 0.65502468170E+00 0.70502801015E+00 0.75529834082E+00 0.80406078984E+00 0.84948255650E+00
 0.88975631721E+00 0.92318495604E+00 0.94827440782E+00 0.96383889582E+00 0.96910911884E+00
 0.96381766376E+00 0.94823215129E+00 0.92312273238E+00 0.88967675763E+00 0.84939019503E+00
 0.80396179227E+00 0.75519946500E+00 0.70493496291E+00 0.65494080633E+00 0.60684919714E+00
 0.56207929260E+00 0.52178357068E+00 0.48682435079E+00 0.45778602550E+00 0.43501858001E+00
 0.41869943830E+00 0.40889835968E+00 0.40889870979E+00 0.40890151307E+00 0.41593094568E+00
 0.42995323523E+00 0.45088263815E+00 0.47854944351E+00 0.51265140381E+00 0.55269379455E+00
 0.59793244797E+00 0.64733565408E+00 0.69957617941E+00 0.75305888046E+00 0.80598120470E+00
 0.85641440115E+00 0.90239208365E+00 0.94200315256E+00 0.97349548057E+00 0.99539343955E+00
 0.10066203006E+01 0.10066055163E+01 0.99535064595E+00 0.97343067907E+00 0.94192659317E+00
 0.90231262993E+00 0.85633408277E+00 0.80589708404E+00 0.75296948001E+00 0.69948471678E+00
 0.64724847186E+00 0.59785614658E+00 0.55263261175E+00 0.51260524472E+00 0.47851484827E+00
 0.45085667116E+00 0.42993550532E+00 0.41592143074E+00 0.41870054099E+00 0.41494719492E+00
 0.41870674452E+00 0.42995061046E+00 0.44858457678E+00 0.47443727595E+00 0.50723515696E+00
 0.54655689845E+00 0.59177409719E+00 0.64199389594E+00 0.69601869882E+00 0.75233782284E+00
 0.80916256063E+00 0.86450029585E+00 0.91624795696E+00 0.96229139100E+00 0.10006159888E+01
 0.10294364340E+01 0.10473371284E+01 0.10534022613E+01 0.10473128933E+01 0.10293875720E+01
 0.10005478295E+01 0.96221427663E+00 0.91616842569E+00 0.86441758423E+00 0.80907497687E+00
 0.75224812938E+00 0.69593221489E+00 0.64191554412E+00 0.59170819488E+00 0.54650568456E+00
 0.50719640219E+00 0.47440671227E+00 0.44856109052E+00 0.42993589405E+00 0.43501988660E+00
 0.42706159154E+00 0.42706408363E+00 0.43503029726E+00 0.45087750737E+00 0.47443638967E+00
 0.50544896458E+00 0.54354654094E+00 0.58820059890E+00 0.63865834200E+00 0.69387869820E+00
 0.75248531590E+00 0.81275999845E+00 0.87269252438E+00 0.93007440492E+00 0.98260932991E+00
 0.10280318510E+01 0.10642451605E+01 0.10894775808E+01 0.11024360819E+01 0.11024322369E+01
 0.10894604937E+01 0.10642060892E+01 0.10279697308E+01 0.98252928641E+00 0.92998175676E+00
 0.87259432324E+00 0.81266690946E+00 0.75240484468E+00 0.69380969529E+00 0.63859687187E+00
 0.58814694855E+00 0.54350214716E+00 0.50541191779E+00 0.47440544429E+00 0.45085579191E+00
 0.45778602551E+00 0.44525338497E+00 0.44105924864E+00 0.44525775584E+00 0.45780172552E+00
 0.47854047904E+00 0.50723196867E+00 0.54354610319E+00 0.58703440987E+00 0.63706942226E+00
 0.69277135633E+00 0.75293455109E+00 0.81597493080E+00 0.87993367439E+00 0.94255124349E+00
 0.10013853214E+01 0.10539425691E+01 0.10978250881E+01 0.11309005367E+01 0.11514792246E+01
 0.11584679752E+01 0.11514810153E+01 0.11308900299E+01 0.10977901646E+01 0.10538810664E+01
 0.10013003511E+01 0.94245096668E+00 0.87983491004E+00 0.81589393962E+00 0.75287198609E+00
 0.69271564659E+00 0.63701456679E+00 0.58698439906E+00 0.54350362557E+00 0.50719529949E+00
 0.47851171315E+00 0.48682141939E+00 0.46946134796E+00 0.46072574765E+00 0.46072621850E+00
 0.46946901098E+00 0.48684337283E+00 0.51263405418E+00 0.54654567894E+00 0.58819730944E+00
 0.63707172525E+00 0.69243998359E+00 0.75327749369E+00 0.81818039727E+00 0.88531667187E+00
 0.95245556295E+00 0.10170735729E+01 0.10764956451E+01 0.11280511871E+01 0.11692558739E+01
 0.11980127793E+01 0.12127971719E+01 0.12127984337E+01 0.11980085268E+01 0.11692340942E+01
 0.11280101555E+01 0.10764377120E+01 0.10169980087E+01 0.95236860389E+00 0.88523573375E+00
 0.81811573796E+00 0.75322050600E+00 0.69238040228E+00 0.63701442039E+00 0.58815110934E+00
 0.54650857733E+00 0.51260196317E+00 0.52177765661E+00 0.49948266611E+00 0.48599617048E+00
 0.48147962176E+00 0.48599790692E+00 0.49949774769E+00 0.52180598851E+00 0.55266334263E+00
 0.59174885094E+00 0.63864771505E+00 0.69277410203E+00 0.75328187850E+00 0.81896885069E+00
 0.88818824921E+00 0.95882166215E+00 0.10283499421E+01 0.10939911744E+01 0.11528614497E+01
 0.12021604755E+01 0.12393915595E+01 0.12625817587E+01 0.12704589168E+01 0.12625755820E+01
 0.12393694309E+01 0.12021238645E+01 0.11528215937E+01 0.10939471640E+01 0.10282911657E+01
 0.95875137224E+00 0.88812152753E+00 0.81890803641E+00 0.75321761318E+00 0.69270973253E+00
 0.63859813988E+00 0.59171521162E+00 0.55263300043E+00 0.56207352523E+00 0.53490345739E+00
 0.51662343238E+00 0.50742652165E+00 0.50742572092E+00 0.51663204675E+00 0.53493130600E+00
 0.56210665121E+00 0.59788804467E+00 0.64195286955E+00 0.69385480076E+00 0.75292608673E+00
 0.81817721475E+00 0.88818698110E+00 0.96102158564E+00 0.10342531010E+01 0.11050803403E+01
 0.11704905273E+01 0.12274383737E+01 0.12730686383E+01 0.13049681626E+01 0.13213849061E+01
 0.13213853880E+01 0.13049588462E+01 0.12730398339E+01 0.12274033189E+01 0.11704610720E+01
 0.11050436334E+01 0.10341959420E+01 0.96095566088E+00 0.88812733346E+00 0.81811865102E+00
 0.75286343372E+00 0.69380262142E+00 0.64192135008E+00 0.59786234118E+00 0.60684919704E+00
 0.57504481286E+00 0.55211650303E+00 0.53826527191E+00 0.53362722409E+00 0.53826628320E+00
 0.55213894635E+00 0.57508594249E+00 0.60688350925E+00 0.64728325052E+00 0.69596677658E+00
 0.75244267570E+00 0.81594008889E+00 0.88529231036E+00 0.95881458597E+00 0.10342567227E+01
 0.11088870109E+01 0.11796538320E+01 0.12433593130E+01 0.12968660659E+01 0.13373627492E+01
 0.13626282144E+01 0.13712267212E+01 0.13626429040E+01 0.13373637649E+01 0.12968456956E+01
 0.12433356562E+01 0.11796276878E+01 0.11088393190E+01 0.10341908965E+01 0.95875728639E+00
 0.88524947798E+00 0.81589393951E+00 0.75239272523E+00 0.69593111228E+00 0.64725893458E+00
 0.65495037089E+00 0.61893723176E+00 0.59170192324E+00 0.57342973756E+00 0.56424893637E+00