   6   6   0   0
  0.2185851E+02  0.3190316E-09  0.3190316E-09  0.1487900E-08  0.5000000E-15
  1.000000000000000E-004
  CAR 
 unknown system                          
      8.39493433    -12.92962929  301      3.35700617      1.00000000
    -12.930  0.0000E+00  0.0000E+00
    -12.859  0.0000E+00  0.0000E+00
    -12.787  0.0000E+00  0.0000E+00
    -12.716  0.0000E+00  0.0000E+00
    -12.645  0.0000E+00  0.0000E+00
    -12.574  0.0000E+00  0.0000E+00
    -12.503  0.0000E+00  0.0000E+00
    -12.432  0.0000E+00  0.0000E+00
    -12.361  0.0000E+00  0.0000E+00
    -12.290  0.0000E+00  0.0000E+00
    -12.219  0.0000E+00  0.0000E+00
    -12.148  0.0000E+00  0.0000E+00
    -12.077  0.0000E+00  0.0000E+00
    -12.006  0.0000E+00  0.0000E+00
    -11.934  0.0000E+00  0.0000E+00
    -11.863  0.0000E+00  0.0000E+00
    -11.792  0.0000E+00  0.0000E+00
    -11.721  0.0000E+00  0.0000E+00
    -11.650  0.0000E+00  0.0000E+00
    -11.579  0.0000E+00  0.0000E+00
    -11.508  0.0000E+00  0.0000E+00
    -11.437  0.0000E+00  0.0000E+00
    -11.366  0.0000E+00  0.0000E+00
    -11.295  0.0000E+00  0.0000E+00
    -11.224  0.0000E+00  0.0000E+00
    -11.153  0.0000E+00  0.0000E+00
    -11.082  0.0000E+00  0.0000E+00
    -11.010  0.0000E+00  0.0000E+00
    -10.939  0.0000E+00  0.0000E+00
    -10.868  0.1248E+01  0.4149E-01
    -10.797  0.1067E+01  0.1133E+00
    -10.726  0.1086E+01  0.1932E+00
    -10.655  0.1088E+01  0.2685E+00
    -10.584  0.1169E+01  0.3488E+00
    -10.513  0.1146E+01  0.4313E+00
    -10.442  0.1168E+01  0.5133E+00
    -10.371  0.1221E+01  0.5982E+00
    -10.300  0.1261E+01  0.6868E+00
    -10.229  0.1276E+01  0.7765E+00
    -10.157  0.1317E+01  0.8687E+00
    -10.086  0.1363E+01  0.9639E+00
    -10.015  0.1413E+01  0.1063E+01
     -9.944  0.1474E+01  0.1165E+01
     -9.873  0.1536E+01  0.1272E+01
     -9.802  0.1597E+01  0.1383E+01
     -9.731  0.1661E+01  0.1499E+01
     -9.660  0.3952E+01  0.1721E+01
     -9.589  0.4196E+01  0.2016E+01
     -9.518  0.4471E+01  0.2328E+01
     -9.447  0.4779E+01  0.2655E+01
     -9.376  0.5275E+01  0.3010E+01
     -9.304  0.5895E+01  0.3406E+01
     -9.233  0.6712E+01  0.3854E+01
     -9.162  0.8204E+01  0.4376E+01
     -9.091  0.8462E+01  0.5079E+01
     -9.020  0.8364E+01  0.5652E+01
     -8.949  0.9543E+01  0.6280E+01
     -8.878  0.9477E+01  0.7075E+01
     -8.807  0.5703E+01  0.7599E+01
     -8.736  0.4685E+01  0.7967E+01
     -8.665  0.0000E+00  0.8000E+01
     -8.594  0.0000E+00  0.8000E+01
     -8.523  0.0000E+00  0.8000E+01
     -8.451  0.0000E+00  0.8000E+01
     -8.380  0.0000E+00  0.8000E+01
     -8.309  0.0000E+00  0.8000E+01
     -8.238  0.0000E+00  0.8000E+01
     -8.167  0.0000E+00  0.8000E+01
     -8.096  0.0000E+00  0.8000E+01
     -8.025  0.0000E+00  0.8000E+01
     -7.954  0.0000E+00  0.8000E+01
     -7.883  0.0000E+00  0.8000E+01
     -7.812  0.0000E+00  0.8000E+01
     -7.741  0.0000E+00  0.8000E+01
     -7.670  0.0000E+00  0.8000E+01
     -7.598  0.0000E+00  0.8000E+01
     -7.527  0.0000E+00  0.8000E+01
     -7.456  0.0000E+00  0.8000E+01
     -7.385  0.0000E+00  0.8000E+01
     -7.314  0.0000E+00  0.8000E+01
     -7.243  0.0000E+00  0.8000E+01
     -7.172  0.0000E+00  0.8000E+01
     -7.101  0.0000E+00  0.8000E+01
     -7.030  0.0000E+00  0.8000E+01
     -6.959  0.0000E+00  0.8000E+01
     -6.888  0.0000E+00  0.8000E+01
     -6.817  0.0000E+00  0.8000E+01
     -6.746  0.0000E+00  0.8000E+01
     -6.674  0.0000E+00  0.8000E+01
     -6.603  0.0000E+00  0.8000E+01
     -6.532  0.0000E+00  0.8000E+01
     -6.461  0.0000E+00  0.8000E+01
     -6.390  0.0000E+00  0.8000E+01
     -6.319  0.0000E+00  0.8000E+01
     -6.248  0.0000E+00  0.8000E+01
     -6.177  0.0000E+00  0.8000E+01
     -6.106  0.0000E+00  0.8000E+01
     -6.035  0.0000E+00  0.8000E+01
     -5.964  0.0000E+00  0.8000E+01
     -5.893  0.0000E+00  0.8000E+01
     -5.821  0.0000E+00  0.8000E+01
     -5.750  0.0000E+00  0.8000E+01
     -5.679  0.0000E+00  0.8000E+01
     -5.608  0.0000E+00  0.8000E+01
     -5.537  0.0000E+00  0.8000E+01
     -5.466  0.0000E+00  0.8000E+01
     -5.395  0.0000E+00  0.8000E+01
     -5.324  0.0000E+00  0.8000E+01
     -5.253  0.0000E+00  0.8000E+01
     -5.182  0.0000E+00  0.8000E+01
     -5.111  0.0000E+00  0.8000E+01
     -5.040  0.0000E+00  0.8000E+01
     -4.968  0.0000E+00  0.8000E+01
     -4.897  0.0000E+00  0.8000E+01
     -4.826  0.0000E+00  0.8000E+01
     -4.755  0.0000E+00  0.8000E+01
     -4.684  0.0000E+00  0.8000E+01
     -4.613  0.0000E+00  0.8000E+01
     -4.542  0.0000E+00  0.8000E+01
     -4.471  0.0000E+00  0.8000E+01
     -4.400  0.0000E+00  0.8000E+01
     -4.329  0.0000E+00  0.8000E+01
     -4.258  0.0000E+00  0.8000E+01
     -4.187  0.0000E+00  0.8000E+01
     -4.115  0.0000E+00  0.8000E+01
     -4.044  0.0000E+00  0.8000E+01
     -3.973  0.0000E+00  0.8000E+01
     -3.902  0.0000E+00  0.8000E+01
     -3.831  0.0000E+00  0.8000E+01
     -3.760  0.0000E+00  0.8000E+01
     -3.689  0.0000E+00  0.8000E+01
     -3.618  0.0000E+00  0.8000E+01
     -3.547  0.0000E+00  0.8000E+01
     -3.476  0.0000E+00  0.8000E+01
     -3.405  0.0000E+00  0.8000E+01
     -3.334  0.0000E+00  0.8000E+01
     -3.262  0.0000E+00  0.8000E+01
     -3.191  0.0000E+00  0.8000E+01
     -3.120  0.0000E+00  0.8000E+01
     -3.049  0.0000E+00  0.8000E+01
     -2.978  0.0000E+00  0.8000E+01
     -2.907  0.0000E+00  0.8000E+01
     -2.836  0.0000E+00  0.8000E+01
     -2.765  0.0000E+00  0.8000E+01
     -2.694  0.0000E+00  0.8000E+01
     -2.623  0.0000E+00  0.8000E+01
     -2.552  0.1993E+01  0.8050E+01
     -2.481  0.2222E+01  0.8215E+01
     -2.410  0.2878E+01  0.8399E+01
     -2.338  0.3454E+01  0.8625E+01
     -2.267  0.3651E+01  0.8877E+01
     -2.196  0.7167E+01  0.9167E+01
     -2.125  0.8634E+01  0.9580E+01
     -2.054  0.7768E+01  0.1016E+02
     -1.983  0.7055E+01  0.1067E+02
     -1.912  0.7763E+01  0.1118E+02
     -1.841  0.1065E+02  0.1188E+02
     -1.770  0.6483E+01  0.1251E+02
     -1.699  0.3464E+01  0.1284E+02
     -1.628  0.4075E+01  0.1313E+02
     -1.557  0.3134E+01  0.1339E+02
     -1.485  0.2252E+01  0.1358E+02
     -1.414  0.1970E+01  0.1373E+02
     -1.343  0.1725E+01  0.1386E+02
     -1.272  0.1572E+01  0.1398E+02
     -1.201  0.1487E+01  0.1409E+02
     -1.130  0.1404E+01  0.1419E+02
     -1.059  0.1388E+01  0.1429E+02
     -0.988  0.1402E+01  0.1439E+02
     -0.917  0.4284E+01  0.1456E+02
     -0.846  0.7827E+01  0.1502E+02
     -0.775  0.1149E+02  0.1573E+02
     -0.704  0.1036E+02  0.1652E+02
     -0.632  0.9692E+01  0.1724E+02
     -0.561  0.7291E+01  0.1786E+02
     -0.490  0.3275E+01  0.1824E+02
     -0.419  0.2205E+01  0.1842E+02
     -0.348  0.2314E+01  0.1860E+02
     -0.277  0.2316E+01  0.1876E+02
     -0.206  0.2292E+01  0.1893E+02
     -0.135  0.5545E+01  0.1921E+02
     -0.064  0.1284E+02  0.1987E+02
      0.007  0.1189E+02  0.2111E+02
      0.078  0.6275E+01  0.2162E+02
      0.149  0.6275E+01  0.2208E+02
      0.221  0.5396E+01  0.2248E+02
      0.292  0.3803E+01  0.2276E+02
      0.363  0.3421E+01  0.2302E+02
      0.434  0.3355E+01  0.2326E+02
      0.505  0.3013E+01  0.2349E+02
      0.576  0.4652E+01  0.2375E+02
      0.647  0.3166E+01  0.2402E+02
      0.718  0.2299E+01  0.2419E+02
      0.789  0.3811E+01  0.2442E+02
      0.860  0.3994E+01  0.2470E+02
      0.931  0.2588E+01  0.2496E+02
      1.002  0.3662E+01  0.2514E+02
      1.074  0.5566E+01  0.2552E+02
      1.145  0.6861E+01  0.2595E+02
      1.216  0.8890E+01  0.2651E+02
      1.287  0.1194E+02  0.2733E+02
      1.358  0.7320E+01  0.2796E+02
      1.429  0.5975E+01  0.2842E+02
      1.500  0.5461E+01  0.2883E+02
      1.571  0.4234E+01  0.2916E+02
      1.642  0.4727E+01  0.2948E+02
      1.713  0.5201E+01  0.2984E+02
      1.784  0.4580E+01  0.3018E+02
      1.855  0.4507E+01  0.3051E+02
      1.926  0.4626E+01  0.3082E+02
      1.998  0.5125E+01  0.3118E+02
      2.069  0.4386E+01  0.3153E+02
      2.140  0.2764E+01  0.3178E+02
      2.211  0.4451E+01  0.3200E+02
      2.282  0.6238E+01  0.3234E+02
      2.353  0.7917E+01  0.3293E+02
      2.424  0.6016E+01  0.3339E+02
      2.495  0.5656E+01  0.3379E+02
      2.566  0.5269E+01  0.3418E+02
      2.637  0.4726E+01  0.3453E+02
      2.708  0.4019E+01  0.3484E+02
      2.779  0.3792E+01  0.3512E+02
      2.851  0.3195E+01  0.3536E+02
      2.922  0.2946E+01  0.3558E+02
      2.993  0.2053E+01  0.3575E+02
      3.064  0.7619E+00  0.3590E+02
      3.135  0.6206E+00  0.3594E+02
      3.206  0.3727E+00  0.3598E+02
      3.277  0.5868E-01  0.3600E+02
      3.348  0.0000E+00  0.3600E+02
      3.419  0.0000E+00  0.3600E+02
      3.490  0.0000E+00  0.3600E+02
      3.561  0.0000E+00  0.3600E+02
      3.632  0.0000E+00  0.3600E+02
      3.704  0.0000E+00  0.3600E+02
      3.775  0.0000E+00  0.3600E+02
      3.846  0.0000E+00  0.3600E+02
      3.917  0.0000E+00  0.3600E+02
      3.988  0.0000E+00  0.3600E+02
      4.059  0.0000E+00  0.3600E+02
      4.130  0.0000E+00  0.3600E+02
      4.201  0.0000E+00  0.3600E+02
      4.272  0.0000E+00  0.3600E+02
      4.343  0.0000E+00  0.3600E+02
      4.414  0.0000E+00  0.3600E+02
      4.485  0.0000E+00  0.3600E+02
      4.557  0.0000E+00  0.3600E+02
      4.628  0.0000E+00  0.3600E+02
      4.699  0.0000E+00  0.3600E+02
      4.770  0.0000E+00  0.3600E+02
      4.841  0.8507E+00  0.3604E+02
      4.912  0.9464E+00  0.3610E+02
      4.983  0.2491E+01  0.3622E+02
      5.054  0.4098E+01  0.3645E+02
      5.125  0.6473E+01  0.3682E+02
      5.196  0.1048E+02  0.3743E+02
      5.267  0.2066E+02  0.3832E+02
      5.338  0.3337E+01  0.3945E+02
      5.409  0.2877E+01  0.3963E+02
      5.481  0.5662E+01  0.3992E+02
      5.552  0.8194E+01  0.4049E+02
      5.623  0.1057E+02  0.4116E+02
      5.694  0.7689E+01  0.4180E+02
      5.765  0.6644E+01  0.4231E+02
      5.836  0.4586E+01  0.4277E+02
      5.907  0.3183E+01  0.4305E+02
      5.978  0.2601E+01  0.4325E+02
      6.049  0.1866E+01  0.4340E+02
      6.120  0.2646E+01  0.4355E+02
      6.191  0.1804E+01  0.4377E+02
      6.262  0.2458E+01  0.4391E+02
      6.334  0.3958E+00  0.4399E+02
      6.405  0.0000E+00  0.4400E+02
      6.476  0.0000E+00  0.4400E+02
      6.547  0.0000E+00  0.4400E+02
      6.618  0.0000E+00  0.4400E+02
      6.689  0.0000E+00  0.4400E+02
      6.760  0.0000E+00  0.4400E+02
      6.831  0.0000E+00  0.4400E+02
      6.902  0.0000E+00  0.4400E+02
      6.973  0.0000E+00  0.4400E+02
      7.044  0.0000E+00  0.4400E+02
      7.115  0.0000E+00  0.4400E+02
      7.187  0.0000E+00  0.4400E+02
      7.258  0.0000E+00  0.4400E+02
      7.329  0.0000E+00  0.4400E+02
      7.400  0.0000E+00  0.4400E+02
      7.471  0.0000E+00  0.4400E+02
      7.542  0.0000E+00  0.4400E+02
      7.613  0.0000E+00  0.4400E+02
      7.684  0.0000E+00  0.4400E+02
      7.755  0.0000E+00  0.4400E+02
      7.826  0.0000E+00  0.4400E+02
      7.897  0.0000E+00  0.4400E+02
      7.968  0.0000E+00  0.4400E+02
      8.040  0.0000E+00  0.4400E+02
      8.111  0.0000E+00  0.4400E+02
      8.182  0.0000E+00  0.4400E+02
      8.253  0.0000E+00  0.4400E+02
      8.324  0.0000E+00  0.4400E+02
      8.395  0.0000E+00  0.4400E+02
