 vasp.5.4.4.18Apr17-6-g9f103f2a35 (build Jun 30 2017 11:15:00) complex          
  
 executed on    STALLO_VASP_5.4.4 date 2019.11.08  12:19:59
 running on    4 total cores
 distrk:  each k-point on    4 cores,    1 groups
 distr:  one band on NCORES_PER_BAND=   2 cores,    2 groups


--------------------------------------------------------------------------------------------------------


 INCAR:
 POTCAR:   PAW_PBE Mo 08Apr2002                   
 POTCAR:    PAW_PBE S 17Jan2003                   
 POTCAR:   PAW_PBE Mo 08Apr2002                   
   VRHFIN =Mo: 4p5s4d                                                           
   LEXCH  = PE                                                                  
   EATOM  =   217.5180 eV,   15.9871 Ry                                         
                                                                                
   TITEL  = PAW_PBE Mo 08Apr2002                                                
   LULTRA =        F    use ultrasoft PP ?                                      
   IUNSCR =        1    unscreen: 0-lin 1-nonlin 2-no                           
   RPACOR =    2.200    partial core radius                                     
   POMASS =   95.940; ZVAL   =    6.000    mass and valenz                      
   RCORE  =    2.750    outmost cutoff radius                                   
   RWIGS  =    2.750; RWIGS  =    1.455    wigner-seitz radius (au A)           
   ENMAX  =  224.584; ENMIN  =  168.438 eV                                      
   RCLOC  =    2.111    cutoff for local pot                                    
   LCOR   =        T    correct aug charges                                     
   LPAW   =        T    paw PP                                                  
   EAUG   =  345.278                                                            
   DEXC   =    -.088                                                            
   RMAX   =    3.077    core radius for proj-oper                               
   RAUG   =    1.300    factor for augmentation sphere                          
   RDEP   =    2.815    radius for radial grids                                 
   QCUT   =   -4.063; QGAM   =    8.126    optimization parameters              
                                                                                
   Description                                                                  
     l     E      TYP  RCUT    TYP  RCUT                                        
     2   .000     23  2.500                                                     
     2   .000     23  2.500                                                     
     0   .000     23  2.600                                                     
     0  1.000     23  2.600                                                     
     1   .400     23  2.750                                                     
     1  2.000     23  2.750                                                     
     3   .000      7   .000                                                     
  local pseudopotential read in
  partial core-charges read in
  atomic valenz-charges read in
  non local Contribution for L=           2  read in
    real space projection operators read in
  non local Contribution for L=           2  read in
    real space projection operators read in
  non local Contribution for L=           0  read in
    real space projection operators read in
  non local Contribution for L=           0  read in
    real space projection operators read in
  non local Contribution for L=           1  read in
    real space projection operators read in
  non local Contribution for L=           1  read in
    real space projection operators read in
    PAW grid and wavefunctions read in
 
   number of l-projection  operators is LMAX  =           6
   number of lm-projection operators is LMMAX =          18
 
 POTCAR:    PAW_PBE S 17Jan2003                   
   VRHFIN =S : s2p4                                                             
   LEXCH  = PE                                                                  
   EATOM  =   276.8230 eV,   20.3459 Ry                                         
                                                                                
   TITEL  = PAW_PBE S 17Jan2003                                                 
   LULTRA =        F    use ultrasoft PP ?                                      
   IUNSCR =        1    unscreen: 0-lin 1-nonlin 2-no                           
   RPACOR =    1.500    partial core radius                                     
   POMASS =   32.066; ZVAL   =    6.000    mass and valenz                      
   RCORE  =    1.900    outmost cutoff radius                                   
   RWIGS  =    2.200; RWIGS  =    1.164    wigner-seitz radius (au A)           
   ENMAX  =  280.000; ENMIN  =  194.016 eV                                      
   ICORE  =        2    local potential                                         
   LCOR   =        T    correct aug charges                                     
   LPAW   =        T    paw PP                                                  
   EAUG   =  335.092                                                            
   DEXC   =     .000                                                            
   RMAX   =    2.867    core radius for proj-oper                               
   RAUG   =    1.300    factor for augmentation sphere                          
   RDEP   =    1.954    radius for radial grids                                 
   QCUT   =   -4.360; QGAM   =    8.721    optimization parameters              
                                                                                
   Description                                                                  
     l     E      TYP  RCUT    TYP  RCUT                                        
     0   .000     23  1.900                                                     
     0   .000     23  1.900                                                     
     1   .000     23  1.900                                                     
     1   .000     23  1.900                                                     
     2   .000     23  1.900                                                     
  local pseudopotential read in
  partial core-charges read in
  atomic valenz-charges read in
  non local Contribution for L=           0  read in
    real space projection operators read in
  non local Contribution for L=           0  read in
    real space projection operators read in
  non local Contribution for L=           1  read in
    real space projection operators read in
  non local Contribution for L=           1  read in
    real space projection operators read in
    PAW grid and wavefunctions read in
 
   number of l-projection  operators is LMAX  =           4
   number of lm-projection operators is LMMAX =           8
 
 PAW_PBE Mo 08Apr2002                   :
 energy of atom  1       EATOM= -217.5180
 kinetic energy error for atom=    0.0023 (will be added to EATOM!!)
  PAW_PBE S 17Jan2003                   :
 energy of atom  2       EATOM= -276.8230
 kinetic energy error for atom=    0.0033 (will be added to EATOM!!)
 
 
 POSCAR: MoS2_mp-2815_computed                   
  positions in direct lattice
  No initial velocities read in
 exchange correlation table for  LEXCH =        8
   RHO(1)=    0.500       N(1)  =     2000
   RHO(2)=  100.500       N(2)  =     4000
 


--------------------------------------------------------------------------------------------------------


 ion  position               nearest neighbor table
   1  0.333  0.667  0.250-   5 2.42   4 2.42   4 2.42   5 2.42   5 2.42   4 2.42
   2  0.667  0.333  0.750-   6 2.42   3 2.42   3 2.42   6 2.42   6 2.42   3 2.42
   3  0.333  0.667  0.855-   2 2.42   2 2.42   2 2.42
   4  0.667  0.333  0.145-   1 2.42   1 2.42   1 2.42
   5  0.667  0.333  0.355-   1 2.42   1 2.42   1 2.42
   6  0.333  0.667  0.645-   2 2.42   2 2.42   2 2.42
 
  LATTYP: Found a hexagonal cell.
 ALAT       =     3.1903157300
 C/A-ratio  =     4.6638030713
  
  Lattice vectors:
  
 A1 = (   3.1903157300,   0.0000000000,   0.0000000000)
 A2 = (  -1.5951578650,   2.7628944683,   0.0000000000)
 A3 = (   0.0000000000,   0.0000000000,  14.8790043000)


Analysis of symmetry for initial positions (statically):
=====================================================================
 Subroutine PRICEL returns:
 Original cell was already a primitive cell.
 

 Routine SETGRP: Setting up the symmetry group for a 
 hexagonal supercell.


 Subroutine GETGRP returns: Found 24 space group operations
 (whereof 12 operations were pure point group operations)
 out of a pool of 24 trial point group operations.


The static configuration has the point symmetry D_3d.
 The point group associated with its full space group is D_6h.


Analysis of symmetry for dynamics (positions and initial velocities):
=====================================================================
 Subroutine PRICEL returns:
 Original cell was already a primitive cell.
 

 Routine SETGRP: Setting up the symmetry group for a 
 hexagonal supercell.


 Subroutine GETGRP returns: Found 24 space group operations
 (whereof 12 operations were pure point group operations)
 out of a pool of 24 trial point group operations.


The dynamic configuration has the point symmetry D_3d.
 The point group associated with its full space group is D_6h.


 Subroutine INISYM returns: Found 24 space group operations
 (whereof 12 operations are pure point group operations),
 and found     1 'primitive' translations

 
 
 KPOINTS: k-density: 8.0                          

Automatic generation of k-mesh.
Space group operators:
 irot       det(A)        alpha          n_x          n_y          n_z        tau_x        tau_y        tau_z
    1     1.000000     0.000001     1.000000     0.000000     0.000000     0.000000     0.000000     0.000000
    2    -1.000000     0.000001     1.000000     0.000000     0.000000     0.000000     0.000000     0.000000
    3     1.000000   120.000000     0.000000     0.000000    -1.000000     0.000000     0.000000     0.000000
    4    -1.000000   120.000000     0.000000     0.000000    -1.000000     0.000000     0.000000     0.000000
    5     1.000000   120.000000     0.000000     0.000000     1.000000     0.000000     0.000000     0.000000
    6    -1.000000   120.000000     0.000000     0.000000     1.000000     0.000000     0.000000     0.000000
    7     1.000000   179.999999     1.000000    -0.000000     0.000000     0.000000     0.000000     0.000000
    8    -1.000000   179.999999     1.000000    -0.000000     0.000000     0.000000     0.000000     0.000000
    9     1.000000   180.000000     0.500000    -0.866025     0.000000     0.000000     0.000000     0.000000
   10    -1.000000   180.000000     0.500000    -0.866025     0.000000     0.000000     0.000000     0.000000
   11     1.000000   180.000000    -0.500000    -0.866025     0.000000     0.000000     0.000000     0.000000
   12    -1.000000   180.000000    -0.500000    -0.866025     0.000000     0.000000     0.000000     0.000000
   13     1.000000    60.000000     0.000000     0.000000    -1.000000     0.000001     0.000000     0.500000
   14    -1.000000    60.000000     0.000000     0.000000    -1.000000     0.000001     0.000000     0.500000
   15     1.000000   180.000000     0.000000     0.000000     1.000000     0.000000     0.000000     0.500000
   16    -1.000000   180.000000     0.000000     0.000000     1.000000     0.000000     0.000000     0.500000
   17     1.000000    60.000000     0.000000     0.000000     1.000000     0.000000     0.000000     0.500000
   18    -1.000000    60.000000     0.000000     0.000000     1.000000     0.000000     0.000000     0.500000
   19     1.000000   179.999999     0.866025    -0.500000     0.000000     0.000000     0.000000     0.500000
   20    -1.000000   179.999999     0.866025    -0.500000     0.000000     0.000000     0.000000     0.500000
   21     1.000000   180.000000     0.000000     1.000000     0.000000     0.000001     0.000000     0.500000
   22    -1.000000   180.000000     0.000000     1.000000     0.000000     0.000001     0.000000     0.500000
   23     1.000000   179.999999     0.866025     0.500000     0.000000     0.000000     0.000000     0.500000
   24    -1.000000   179.999999     0.866025     0.500000     0.000000     0.000000     0.000000     0.500000
 
 Subroutine IBZKPT returns following result:
 ===========================================
 
 Found     90 irreducible k-points:
 
 Following reciprocal coordinates:
            Coordinates               Weight
  0.000000  0.000000  0.000000      1.000000
  0.062500 -0.000000  0.000000      6.000000
  0.125000 -0.000000  0.000000      6.000000
  0.187500 -0.000000  0.000000      6.000000
  0.250000 -0.000000  0.000000      6.000000
  0.312500 -0.000000  0.000000      6.000000
  0.375000 -0.000000  0.000000      6.000000
  0.437500 -0.000000  0.000000      6.000000
  0.500000 -0.000000  0.000000      3.000000
  0.062500  0.062500  0.000000      6.000000
  0.125000  0.062500  0.000000     12.000000
  0.187500  0.062500  0.000000     12.000000
  0.250000  0.062500  0.000000     12.000000
  0.312500  0.062500  0.000000     12.000000
  0.375000  0.062500  0.000000     12.000000
  0.437500  0.062500  0.000000     12.000000
  0.125000  0.125000  0.000000      6.000000
  0.187500  0.125000  0.000000     12.000000
  0.250000  0.125000  0.000000     12.000000
  0.312500  0.125000  0.000000     12.000000
  0.375000  0.125000  0.000000     12.000000
  0.437500  0.125000  0.000000      6.000000
  0.187500  0.187500  0.000000      6.000000
  0.250000  0.187500  0.000000     12.000000
  0.312500  0.187500  0.000000     12.000000
  0.375000  0.187500  0.000000     12.000000
  0.250000  0.250000  0.000000      6.000000
  0.312500  0.250000  0.000000     12.000000
  0.375000  0.250000  0.000000      6.000000
  0.312500  0.312500  0.000000      6.000000
  0.000000  0.000000  0.250000      2.000000
  0.062500 -0.000000  0.250000     12.000000
  0.125000 -0.000000  0.250000     12.000000
  0.187500 -0.000000  0.250000     12.000000
  0.250000 -0.000000  0.250000     12.000000
  0.312500 -0.000000  0.250000     12.000000
  0.375000 -0.000000  0.250000     12.000000
  0.437500 -0.000000  0.250000     12.000000
  0.500000 -0.000000  0.250000      6.000000
  0.062500  0.062500  0.250000     12.000000
  0.125000  0.062500  0.250000     24.000000
  0.187500  0.062500  0.250000     24.000000
  0.250000  0.062500  0.250000     24.000000
  0.312500  0.062500  0.250000     24.000000
  0.375000  0.062500  0.250000     24.000000
  0.437500  0.062500  0.250000     24.000000
  0.125000  0.125000  0.250000     12.000000
  0.187500  0.125000  0.250000     24.000000
  0.250000  0.125000  0.250000     24.000000
  0.312500  0.125000  0.250000     24.000000
  0.375000  0.125000  0.250000     24.000000
  0.437500  0.125000  0.250000     12.000000
  0.187500  0.187500  0.250000     12.000000
  0.250000  0.187500  0.250000     24.000000
  0.312500  0.187500  0.250000     24.000000
  0.375000  0.187500  0.250000     24.000000
  0.250000  0.250000  0.250000     12.000000
  0.312500  0.250000  0.250000     24.000000
  0.375000  0.250000  0.250000     12.000000
  0.312500  0.312500  0.250000     12.000000
  0.000000  0.000000  0.500000      1.000000
  0.062500 -0.000000  0.500000      6.000000
  0.125000 -0.000000  0.500000      6.000000
  0.187500 -0.000000  0.500000      6.000000
  0.250000 -0.000000  0.500000      6.000000
  0.312500 -0.000000  0.500000      6.000000
  0.375000 -0.000000  0.500000      6.000000
  0.437500 -0.000000  0.500000      6.000000
  0.500000 -0.000000  0.500000      3.000000
  0.062500  0.062500  0.500000      6.000000
  0.125000  0.062500  0.500000     12.000000
  0.187500  0.062500  0.500000     12.000000
  0.250000  0.062500  0.500000     12.000000
  0.312500  0.062500  0.500000     12.000000
  0.375000  0.062500  0.500000     12.000000
  0.437500  0.062500  0.500000     12.000000
  0.125000  0.125000  0.500000      6.000000
  0.187500  0.125000  0.500000     12.000000
  0.250000  0.125000  0.500000     12.000000
  0.312500  0.125000  0.500000     12.000000
  0.375000  0.125000  0.500000     12.000000
  0.437500  0.125000  0.500000      6.000000
  0.187500  0.187500  0.500000      6.000000
  0.250000  0.187500  0.500000     12.000000
  0.312500  0.187500  0.500000     12.000000
  0.375000  0.187500  0.500000     12.000000
  0.250000  0.250000  0.500000      6.000000
  0.312500  0.250000  0.500000     12.000000
  0.375000  0.250000  0.500000      6.000000
  0.312500  0.312500  0.500000      6.000000
 
 Following cartesian coordinates:
            Coordinates               Weight
  0.000000  0.000000  0.000000      1.000000
  0.019591  0.011311  0.000000      6.000000
  0.039181  0.022621  0.000000      6.000000
  0.058772  0.033932  0.000000      6.000000
  0.078362  0.045242  0.000000      6.000000
  0.097953  0.056553  0.000000      6.000000
  0.117543  0.067864  0.000000      6.000000
  0.137134  0.079174  0.000000      6.000000
  0.156724  0.090485  0.000000      3.000000
  0.019591  0.033932  0.000000      6.000000
  0.039181  0.045242  0.000000     12.000000
  0.058772  0.056553  0.000000     12.000000
  0.078362  0.067864  0.000000     12.000000
  0.097953  0.079174  0.000000     12.000000
  0.117543  0.090485  0.000000     12.000000
  0.137134  0.101795  0.000000     12.000000
  0.039181  0.067864  0.000000      6.000000
  0.058772  0.079174  0.000000     12.000000
  0.078362  0.090485  0.000000     12.000000
  0.097953  0.101795  0.000000     12.000000
  0.117543  0.113106  0.000000     12.000000
  0.137134  0.124417  0.000000      6.000000
  0.058772  0.101795  0.000000      6.000000
  0.078362  0.113106  0.000000     12.000000
  0.097953  0.124417  0.000000     12.000000
  0.117543  0.135727  0.000000     12.000000
  0.078362  0.135727  0.000000      6.000000
  0.097953  0.147038  0.000000     12.000000
  0.117543  0.158348  0.000000      6.000000
  0.097953  0.169659  0.000000      6.000000
  0.000000  0.000000  0.016802      2.000000
  0.019591  0.011311  0.016802     12.000000
  0.039181  0.022621  0.016802     12.000000
  0.058772  0.033932  0.016802     12.000000
  0.078362  0.045242  0.016802     12.000000
  0.097953  0.056553  0.016802     12.000000
  0.117543  0.067864  0.016802     12.000000
  0.137134  0.079174  0.016802     12.000000
  0.156724  0.090485  0.016802      6.000000
  0.019591  0.033932  0.016802     12.000000
  0.039181  0.045242  0.016802     24.000000
  0.058772  0.056553  0.016802     24.000000
  0.078362  0.067864  0.016802     24.000000
  0.097953  0.079174  0.016802     24.000000
  0.117543  0.090485  0.016802     24.000000
  0.137134  0.101795  0.016802     24.000000
  0.039181  0.067864  0.016802     12.000000
  0.058772  0.079174  0.016802     24.000000
  0.078362  0.090485  0.016802     24.000000
  0.097953  0.101795  0.016802     24.000000
  0.117543  0.113106  0.016802     24.000000
  0.137134  0.124417  0.016802     12.000000
  0.058772  0.101795  0.016802     12.000000
  0.078362  0.113106  0.016802     24.000000
  0.097953  0.124417  0.016802     24.000000
  0.117543  0.135727  0.016802     24.000000
  0.078362  0.135727  0.016802     12.000000
  0.097953  0.147038  0.016802     24.000000
  0.117543  0.158348  0.016802     12.000000
  0.097953  0.169659  0.016802     12.000000
  0.000000  0.000000  0.033604      1.000000
  0.019591  0.011311  0.033604      6.000000
  0.039181  0.022621  0.033604      6.000000
  0.058772  0.033932  0.033604      6.000000
  0.078362  0.045242  0.033604      6.000000
  0.097953  0.056553  0.033604      6.000000
  0.117543  0.067864  0.033604      6.000000
  0.137134  0.079174  0.033604      6.000000
  0.156724  0.090485  0.033604      3.000000
  0.019591  0.033932  0.033604      6.000000
  0.039181  0.045242  0.033604     12.000000
  0.058772  0.056553  0.033604     12.000000
  0.078362  0.067864  0.033604     12.000000
  0.097953  0.079174  0.033604     12.000000
  0.117543  0.090485  0.033604     12.000000
  0.137134  0.101795  0.033604     12.000000
  0.039181  0.067864  0.033604      6.000000
  0.058772  0.079174  0.033604     12.000000
  0.078362  0.090485  0.033604     12.000000
  0.097953  0.101795  0.033604     12.000000
  0.117543  0.113106  0.033604     12.000000
  0.137134  0.124417  0.033604      6.000000
  0.058772  0.101795  0.033604      6.000000
  0.078362  0.113106  0.033604     12.000000
  0.097953  0.124417  0.033604     12.000000
  0.117543  0.135727  0.033604     12.000000
  0.078362  0.135727  0.033604      6.000000
  0.097953  0.147038  0.033604     12.000000
  0.117543  0.158348  0.033604      6.000000
  0.097953  0.169659  0.033604      6.000000
 
 TETIRR: Found   1056 inequivalent tetrahedra from     6144


--------------------------------------------------------------------------------------------------------




 Dimension of arrays:
   k-points           NKPTS =     90   k-points in BZ     NKDIM =     90   number of bands    NBANDS=     22
   number of dos      NEDOS =    301   number of ions     NIONS =      6
   non local maximal  LDIM  =      6   non local SUM 2l+1 LMDIM =     18
   total plane-waves  NPLWV =  25920
   max r-space proj   IRMAX =      1   max aug-charges    IRDMAX=  12887
   dimension x,y,z NGX =    18 NGY =   18 NGZ =   80
   dimension x,y,z NGXF=    36 NGYF=   36 NGZF=  160
   support grid    NGXF=    36 NGYF=   36 NGZF=  160
   ions per type =               2   4
   NGX,Y,Z   is equivalent  to a cutoff of   9.38,  9.38,  8.94 a.u.
   NGXF,Y,Z  is equivalent  to a cutoff of  18.76, 18.76, 17.88 a.u.

 SYSTEM =  unknown system                          
 POSCAR =  MoS2_mp-2815_computed                   

 Startparameter for this run:
   NWRITE =      2    write-flag & timer
   PREC   = normal    normal or accurate (medium, high low for compatibility)
   ISTART =      0    job   : 0-new  1-cont  2-samecut
   ICHARG =      2    charge: 1-file 2-atom 10-const
   ISPIN  =      1    spin polarized calculation?
   LNONCOLLINEAR =      F non collinear calculations
   LSORBIT =      F    spin-orbit coupling
   INIWAV =      1    electr: 0-lowe 1-rand  2-diag
   LASPH  =      F    aspherical Exc in radial PAW
   METAGGA=      F    non-selfconsistent MetaGGA calc.

 Electronic Relaxation 1
   ENCUT  =  450.0 eV  33.07 Ry    5.75 a.u.   5.52  5.52 25.74*2*pi/ulx,y,z
   ENINI  =  450.0     initial cutoff
   ENAUG  =  345.3 eV  augmentation charge cutoff
   NELM   =     60;   NELMIN=  4; NELMDL=  0     # of ELM steps 
   EDIFF  = 0.1E-04   stopping-criterion for ELM
   LREAL  =      F    real-space projection
   NLSPLINE    = F    spline interpolate recip. space projectors
   LCOMPAT=      F    compatible to vasp.4.4
   GGA_COMPAT  = T    GGA compatible to vasp.4.4-vasp.4.6
   LMAXPAW     = -100 max onsite density
   LMAXMIX     =    2 max onsite mixed and CHGCAR
   VOSKOWN=      0    Vosko Wilk Nusair interpolation
   ROPT   =    0.00000   0.00000
 Ionic relaxation
   EDIFFG = 0.1E-03   stopping-criterion for IOM
   NSW    =      0    number of steps for IOM
   NBLOCK =      1;   KBLOCK =      1    inner block; outer block 
   IBRION =     -1    ionic relax: 0-MD 1-quasi-New 2-CG
   NFREE  =      0    steps in history (QN), initial steepest desc. (CG)
   ISIF   =      2    stress and relaxation
   IWAVPR =     10    prediction:  0-non 1-charg 2-wave 3-comb
   ISYM   =      2    0-nonsym 1-usesym 2-fastsym
   LCORR  =      T    Harris-Foulkes like correction to forces

   POTIM  = 0.5000    time-step for ionic-motion
   TEIN   =    0.0    initial temperature
   TEBEG  =    0.0;   TEEND  =   0.0 temperature during run
   SMASS  =  -3.00    Nose mass-parameter (am)
   estimated Nose-frequenzy (Omega)   =  0.10E-29 period in steps =****** mass=  -0.233E-27a.u.
   SCALEE = 1.0000    scale energy and forces
   NPACO  =    256;   APACO  = 16.0  distance and # of slots for P.C.
   PSTRESS=    0.0 pullay stress

  Mass of Ions in am
   POMASS =  95.94 32.07
  Ionic Valenz
   ZVAL   =   6.00  6.00
  Atomic Wigner-Seitz radii
   RWIGS  =  -1.00 -1.00
  virtual crystal weights 
   VCA    =   1.00  1.00
   NELECT =      36.0000    total number of electrons
   NUPDOWN=      -1.0000    fix difference up-down

 DOS related values:
   EMIN   =  10.00;   EMAX   =-10.00  energy-range for DOS
   EFERMI =   0.00
   ISMEAR =    -5;   SIGMA  =   0.20  broadening in eV -4-tet -1-fermi 0-gaus

 Electronic relaxation 2 (details)
   IALGO  =     68    algorithm
   LDIAG  =      T    sub-space diagonalisation (order eigenvalues)
   LSUBROT=      F    optimize rotation matrix (better conditioning)
   TURBO    =      0    0=normal 1=particle mesh
   IRESTART =      0    0=no restart 2=restart with 2 vectors
   NREBOOT  =      0    no. of reboots
   NMIN     =      0    reboot dimension
   EREF     =   0.00    reference energy to select bands
   IMIX   =      4    mixing-type and parameters
     AMIX     =   0.40;   BMIX     =  1.00
     AMIX_MAG =   1.60;   BMIX_MAG =  1.00
     AMIN     =   0.10
     WC   =   100.;   INIMIX=   1;  MIXPRE=   1;  MAXMIX= -45

 Intra band minimization:
   WEIMIN = 0.0000     energy-eigenvalue tresh-hold
   EBREAK =  0.11E-06  absolut break condition
   DEPER  =   0.30     relativ break condition  

   TIME   =   0.40     timestep for ELM

  volume/ion in A,a.u.               =      21.86       147.51
  Fermi-wavevector in a.u.,A,eV,Ry     =   1.063943  2.010561 15.401453  1.131975
  Thomas-Fermi vector in A             =   2.199445
 
 Write flags
   LWAVE        =      F    write WAVECAR
   LDOWNSAMPLE  =      F    k-point downsampling of WAVECAR
   LCHARG       =      T    write CHGCAR
   LVTOT        =      F    write LOCPOT, total local potential
   LVHAR        =      F    write LOCPOT, Hartree potential only
   LELF         =      F    write electronic localiz. function (ELF)
   LORBIT       =      0    0 simple, 1 ext, 2 COOP (PROOUT), +10 PAW based schemes


 Dipole corrections
   LMONO  =      F    monopole corrections only (constant potential shift)
   LDIPOL =      F    correct potential (dipole corrections)
   IDIPOL =      0    1-x, 2-y, 3-z, 4-all directions 
   EPSILON=  1.0000000 bulk dielectric constant

 Exchange correlation treatment:
   GGA     =    --    GGA type
   LEXCH   =     8    internal setting for exchange type
   VOSKOWN=      0    Vosko Wilk Nusair interpolation
   LHFCALC =     F    Hartree Fock is set to
   LHFONE  =     F    Hartree Fock one center treatment
   AEXX    =    0.0000 exact exchange contribution

 Linear response parameters
   LEPSILON=     F    determine dielectric tensor
   LRPA    =     F    only Hartree local field effects (RPA)
   LNABLA  =     F    use nabla operator in PAW spheres
   LVEL    =     F    velocity operator in full k-point grid
   LINTERFAST=   F  fast interpolation
   KINTER  =     0    interpolate to denser k-point grid
   CSHIFT  =0.1000    complex shift for real part using Kramers Kronig
   OMEGAMAX=  -1.0    maximum frequency
   DEG_THRESHOLD= 0.2000000E-02 threshold for treating states as degnerate
   RTIME   =   -0.100 relaxation time in fs
  (WPLASMAI=    0.000 imaginary part of plasma frequency in eV, 0.658/RTIME)
   DFIELD  = 0.0000000 0.0000000 0.0000000 field for delta impulse in time
 
 Orbital magnetization related:
   ORBITALMAG=     F  switch on orbital magnetization
   LCHIMAG   =     F  perturbation theory with respect to B field
   DQ        =  0.001000  dq finite difference perturbation B field
   LLRAUG    =     F  two centre corrections for induced B field



--------------------------------------------------------------------------------------------------------


 Static calculation
 charge density and potential will be updated during run
 non-spin polarized calculation
 RMM-DIIS sequential band-by-band and
  variant of blocked Davidson during initial phase
 perform sub-space diagonalisation
    before iterative eigenvector-optimisation
 modified Broyden-mixing scheme, WC =      100.0
 initial mixing is a Kerker type mixing with AMIX =  0.4000 and BMIX =      1.0000
 Hartree-type preconditioning will be used
 using additional bands            4
 reciprocal scheme for non local part
 use partial core corrections
 calculate Harris-corrections to forces 
   (improved forces if not selfconsistent)
 use gradient corrections 
 use of overlap-Matrix (Vanderbilt PP)
 Fermi weights with tetrahedron method with Bloechl corrections


--------------------------------------------------------------------------------------------------------


  energy-cutoff  :      450.00
  volume of cell :      131.15
      direct lattice vectors                 reciprocal lattice vectors
     3.190315730  0.000000000  0.000000000     0.313448600  0.180969634  0.000000000
    -1.595157865  2.762894468  0.000000000     0.000000000  0.361939267  0.000000000
     0.000000000  0.000000000 14.879004300     0.000000000  0.000000000  0.067208798

  length of vectors
     3.190315730  3.190315730 14.879004300     0.361939267  0.361939267  0.067208798


 
 k-points in units of 2pi/SCALE and weight: k-density: 8.0                          
   0.00000000  0.00000000  0.00000000       0.001
   0.01959054  0.01131060  0.00000000       0.006
   0.03918108  0.02262120  0.00000000       0.006
   0.05877161  0.03393181  0.00000000       0.006
   0.07836215  0.04524241  0.00000000       0.006
   0.09795269  0.05655301  0.00000000       0.006
   0.11754323  0.06786361  0.00000000       0.006
   0.13713376  0.07917421  0.00000000       0.006
   0.15672430  0.09048482  0.00000000       0.003
   0.01959054  0.03393181  0.00000000       0.006
   0.03918108  0.04524241  0.00000000       0.012
   0.05877161  0.05655301  0.00000000       0.012
   0.07836215  0.06786361  0.00000000       0.012
   0.09795269  0.07917421  0.00000000       0.012
   0.11754323  0.09048482  0.00000000       0.012
   0.13713376  0.10179542  0.00000000       0.012
   0.03918108  0.06786361  0.00000000       0.006
   0.05877161  0.07917421  0.00000000       0.012
   0.07836215  0.09048482  0.00000000       0.012
   0.09795269  0.10179542  0.00000000       0.012
   0.11754323  0.11310602  0.00000000       0.012
   0.13713376  0.12441662  0.00000000       0.006
   0.05877161  0.10179542  0.00000000       0.006
   0.07836215  0.11310602  0.00000000       0.012
   0.09795269  0.12441662  0.00000000       0.012
   0.11754323  0.13572723  0.00000000       0.012
   0.07836215  0.13572723  0.00000000       0.006
   0.09795269  0.14703783  0.00000000       0.012
   0.11754323  0.15834843  0.00000000       0.006
   0.09795269  0.16965903  0.00000000       0.006
   0.00000000  0.00000000  0.01680220       0.002
   0.01959054  0.01131060  0.01680220       0.012
   0.03918108  0.02262120  0.01680220       0.012
   0.05877161  0.03393181  0.01680220       0.012
   0.07836215  0.04524241  0.01680220       0.012
   0.09795269  0.05655301  0.01680220       0.012
   0.11754323  0.06786361  0.01680220       0.012
   0.13713376  0.07917421  0.01680220       0.012
   0.15672430  0.09048482  0.01680220       0.006
   0.01959054  0.03393181  0.01680220       0.012
   0.03918108  0.04524241  0.01680220       0.023
   0.05877161  0.05655301  0.01680220       0.023
   0.07836215  0.06786361  0.01680220       0.023
   0.09795269  0.07917421  0.01680220       0.023
   0.11754323  0.09048482  0.01680220       0.023
   0.13713376  0.10179542  0.01680220       0.023
   0.03918108  0.06786361  0.01680220       0.012
   0.05877161  0.07917421  0.01680220       0.023
   0.07836215  0.09048482  0.01680220       0.023
   0.09795269  0.10179542  0.01680220       0.023
   0.11754323  0.11310602  0.01680220       0.023
   0.13713376  0.12441662  0.01680220       0.012
   0.05877161  0.10179542  0.01680220       0.012
   0.07836215  0.11310602  0.01680220       0.023
   0.09795269  0.12441662  0.01680220       0.023
   0.11754323  0.13572723  0.01680220       0.023
   0.07836215  0.13572723  0.01680220       0.012
   0.09795269  0.14703783  0.01680220       0.023
   0.11754323  0.15834843  0.01680220       0.012
   0.09795269  0.16965903  0.01680220       0.012
   0.00000000  0.00000000  0.03360440       0.001
   0.01959054  0.01131060  0.03360440       0.006
   0.03918108  0.02262120  0.03360440       0.006
   0.05877161  0.03393181  0.03360440       0.006
   0.07836215  0.04524241  0.03360440       0.006
   0.09795269  0.05655301  0.03360440       0.006
   0.11754323  0.06786361  0.03360440       0.006
   0.13713376  0.07917421  0.03360440       0.006
   0.15672430  0.09048482  0.03360440       0.003
   0.01959054  0.03393181  0.03360440       0.006
   0.03918108  0.04524241  0.03360440       0.012
   0.05877161  0.05655301  0.03360440       0.012
   0.07836215  0.06786361  0.03360440       0.012
   0.09795269  0.07917421  0.03360440       0.012
   0.11754323  0.09048482  0.03360440       0.012
   0.13713376  0.10179542  0.03360440       0.012
   0.03918108  0.06786361  0.03360440       0.006
   0.05877161  0.07917421  0.03360440       0.012
   0.07836215  0.09048482  0.03360440       0.012
   0.09795269  0.10179542  0.03360440       0.012
   0.11754323  0.11310602  0.03360440       0.012
   0.13713376  0.12441662  0.03360440       0.006
   0.05877161  0.10179542  0.03360440       0.006
   0.07836215  0.11310602  0.03360440       0.012
   0.09795269  0.12441662  0.03360440       0.012
   0.11754323  0.13572723  0.03360440       0.012
   0.07836215  0.13572723  0.03360440       0.006
   0.09795269  0.14703783  0.03360440       0.012
   0.11754323  0.15834843  0.03360440       0.006
   0.09795269  0.16965903  0.03360440       0.006
 
 k-points in reciprocal lattice and weights: k-density: 8.0                          
   0.00000000  0.00000000  0.00000000       0.001
   0.06250000 -0.00000000  0.00000000       0.006
   0.12500000 -0.00000000  0.00000000       0.006
   0.18750000 -0.00000000  0.00000000       0.006
   0.25000000 -0.00000000  0.00000000       0.006
   0.31250000 -0.00000000  0.00000000       0.006
   0.37500000 -0.00000000  0.00000000       0.006
   0.43750000 -0.00000000  0.00000000       0.006
   0.50000000 -0.00000000  0.00000000       0.003
   0.06250000  0.06250000  0.00000000       0.006
   0.12500000  0.06250000  0.00000000       0.012
   0.18750000  0.06250000  0.00000000       0.012
   0.25000000  0.06250000  0.00000000       0.012
   0.31250000  0.06250000  0.00000000       0.012
   0.37500000  0.06250000  0.00000000       0.012
   0.43750000  0.06250000  0.00000000       0.012
   0.12500000  0.12500000  0.00000000       0.006
   0.18750000  0.12500000  0.00000000       0.012
   0.25000000  0.12500000  0.00000000       0.012
   0.31250000  0.12500000  0.00000000       0.012
   0.37500000  0.12500000  0.00000000       0.012
   0.43750000  0.12500000  0.00000000       0.006
   0.18750000  0.18750000  0.00000000       0.006
   0.25000000  0.18750000  0.00000000       0.012
   0.31250000  0.18750000  0.00000000       0.012
   0.37500000  0.18750000  0.00000000       0.012
   0.25000000  0.25000000  0.00000000       0.006
   0.31250000  0.25000000  0.00000000       0.012
   0.37500000  0.25000000  0.00000000       0.006
   0.31250000  0.31250000  0.00000000       0.006
   0.00000000  0.00000000  0.25000000       0.002
   0.06250000 -0.00000000  0.25000000       0.012
   0.12500000 -0.00000000  0.25000000       0.012
   0.18750000 -0.00000000  0.25000000       0.012
   0.25000000 -0.00000000  0.25000000       0.012
   0.31250000 -0.00000000  0.25000000       0.012
   0.37500000 -0.00000000  0.25000000       0.012
   0.43750000 -0.00000000  0.25000000       0.012
   0.50000000 -0.00000000  0.25000000       0.006
   0.06250000  0.06250000  0.25000000       0.012
   0.12500000  0.06250000  0.25000000       0.023
   0.18750000  0.06250000  0.25000000       0.023
   0.25000000  0.06250000  0.25000000       0.023
   0.31250000  0.06250000  0.25000000       0.023
   0.37500000  0.06250000  0.25000000       0.023
   0.43750000  0.06250000  0.25000000       0.023
   0.12500000  0.12500000  0.25000000       0.012
   0.18750000  0.12500000  0.25000000       0.023
   0.25000000  0.12500000  0.25000000       0.023
   0.31250000  0.12500000  0.25000000       0.023
   0.37500000  0.12500000  0.25000000       0.023
   0.43750000  0.12500000  0.25000000       0.012
   0.18750000  0.18750000  0.25000000       0.012
   0.25000000  0.18750000  0.25000000       0.023
   0.31250000  0.18750000  0.25000000       0.023
   0.37500000  0.18750000  0.25000000       0.023
   0.25000000  0.25000000  0.25000000       0.012
   0.31250000  0.25000000  0.25000000       0.023
   0.37500000  0.25000000  0.25000000       0.012
   0.31250000  0.31250000  0.25000000       0.012
   0.00000000  0.00000000  0.50000000       0.001
   0.06250000 -0.00000000  0.50000000       0.006
   0.12500000 -0.00000000  0.50000000       0.006
   0.18750000 -0.00000000  0.50000000       0.006
   0.25000000 -0.00000000  0.50000000       0.006
   0.31250000 -0.00000000  0.50000000       0.006
   0.37500000 -0.00000000  0.50000000       0.006
   0.43750000 -0.00000000  0.50000000       0.006
   0.50000000 -0.00000000  0.50000000       0.003
   0.06250000  0.06250000  0.50000000       0.006
   0.12500000  0.06250000  0.50000000       0.012
   0.18750000  0.06250000  0.50000000       0.012
   0.25000000  0.06250000  0.50000000       0.012
   0.31250000  0.06250000  0.50000000       0.012
   0.37500000  0.06250000  0.50000000       0.012
   0.43750000  0.06250000  0.50000000       0.012
   0.12500000  0.12500000  0.50000000       0.006
   0.18750000  0.12500000  0.50000000       0.012
   0.25000000  0.12500000  0.50000000       0.012
   0.31250000  0.12500000  0.50000000       0.012
   0.37500000  0.12500000  0.50000000       0.012
   0.43750000  0.12500000  0.50000000       0.006
   0.18750000  0.18750000  0.50000000       0.006
   0.25000000  0.18750000  0.50000000       0.012
   0.31250000  0.18750000  0.50000000       0.012
   0.37500000  0.18750000  0.50000000       0.012
   0.25000000  0.25000000  0.50000000       0.006
   0.31250000  0.25000000  0.50000000       0.012
   0.37500000  0.25000000  0.50000000       0.006
   0.31250000  0.31250000  0.50000000       0.006
 
 position of ions in fractional coordinates (direct lattice) 
   0.33333300  0.66666700  0.25000000
   0.66666700  0.33333300  0.75000000
   0.33333300  0.66666700  0.85517400
   0.66666700  0.33333300  0.14482600
   0.66666600  0.33333300  0.35517400
   0.33333400  0.66666700  0.64482600
 
 position of ions in cartesian coordinates  (Angst):
  -0.00000160  1.84193057  3.71975108
   1.59515946  0.92096390 11.15925323
  -0.00000160  1.84193057 12.72413762
   1.59515946  0.92096390  2.15486668
   1.59515627  0.92096390  5.28463547
   0.00000160  1.84193057  9.59436883
 


--------------------------------------------------------------------------------------------------------


 k-point  1 :   0.0000 0.0000 0.0000  plane waves:    2895
 k-point  2 :   0.0625-0.0000 0.0000  plane waves:    2895
 k-point  3 :   0.1250-0.0000 0.0000  plane waves:    2887
 k-point  4 :   0.1875-0.0000 0.0000  plane waves:    2867
 k-point  5 :   0.2500-0.0000 0.0000  plane waves:    2848
 k-point  6 :   0.3125-0.0000 0.0000  plane waves:    2844
 k-point  7 :   0.3750-0.0000 0.0000  plane waves:    2840
 k-point  8 :   0.4375-0.0000 0.0000  plane waves:    2812
 k-point  9 :   0.5000-0.0000 0.0000  plane waves:    2784
 k-point 10 :   0.0625 0.0625 0.0000  plane waves:    2903
 k-point 11 :   0.1250 0.0625 0.0000  plane waves:    2871
 k-point 12 :   0.1875 0.0625 0.0000  plane waves:    2851
 k-point 13 :   0.2500 0.0625 0.0000  plane waves:    2855
 k-point 14 :   0.3125 0.0625 0.0000  plane waves:    2829
 k-point 15 :   0.3750 0.0625 0.0000  plane waves:    2824
 k-point 16 :   0.4375 0.0625 0.0000  plane waves:    2812
 k-point 17 :   0.1250 0.1250 0.0000  plane waves:    2847
 k-point 18 :   0.1875 0.1250 0.0000  plane waves:    2849
 k-point 19 :   0.2500 0.1250 0.0000  plane waves:    2847
 k-point 20 :   0.3125 0.1250 0.0000  plane waves:    2843
 k-point 21 :   0.3750 0.1250 0.0000  plane waves:    2822
 k-point 22 :   0.4375 0.1250 0.0000  plane waves:    2822
 k-point 23 :   0.1875 0.1875 0.0000  plane waves:    2843
 k-point 24 :   0.2500 0.1875 0.0000  plane waves:    2845
 k-point 25 :   0.3125 0.1875 0.0000  plane waves:    2836
 k-point 26 :   0.3750 0.1875 0.0000  plane waves:    2833
 k-point 27 :   0.2500 0.2500 0.0000  plane waves:    2838
 k-point 28 :   0.3125 0.2500 0.0000  plane waves:    2832
 k-point 29 :   0.3750 0.2500 0.0000  plane waves:    2844
 k-point 30 :   0.3125 0.3125 0.0000  plane waves:    2832
 k-point 31 :   0.0000 0.0000 0.2500  plane waves:    2895
 k-point 32 :   0.0625-0.0000 0.2500  plane waves:    2889
 k-point 33 :   0.1250-0.0000 0.2500  plane waves:    2875
 k-point 34 :   0.1875-0.0000 0.2500  plane waves:    2868
 k-point 35 :   0.2500-0.0000 0.2500  plane waves:    2857
 k-point 36 :   0.3125-0.0000 0.2500  plane waves:    2843
 k-point 37 :   0.3750-0.0000 0.2500  plane waves:    2835
 k-point 38 :   0.4375-0.0000 0.2500  plane waves:    2817
 k-point 39 :   0.5000-0.0000 0.2500  plane waves:    2812
 k-point 40 :   0.0625 0.0625 0.2500  plane waves:    2884
 k-point 41 :   0.1250 0.0625 0.2500  plane waves:    2880
 k-point 42 :   0.1875 0.0625 0.2500  plane waves:    2851
 k-point 43 :   0.2500 0.0625 0.2500  plane waves:    2851
 k-point 44 :   0.3125 0.0625 0.2500  plane waves:    2840
 k-point 45 :   0.3750 0.0625 0.2500  plane waves:    2824
 k-point 46 :   0.4375 0.0625 0.2500  plane waves:    2814
 k-point 47 :   0.1250 0.1250 0.2500  plane waves:    2860
 k-point 48 :   0.1875 0.1250 0.2500  plane waves:    2850
 k-point 49 :   0.2500 0.1250 0.2500  plane waves:    2842
 k-point 50 :   0.3125 0.1250 0.2500  plane waves:    2839
 k-point 51 :   0.3750 0.1250 0.2500  plane waves:    2821
 k-point 52 :   0.4375 0.1250 0.2500  plane waves:    2820
 k-point 53 :   0.1875 0.1875 0.2500  plane waves:    2844
 k-point 54 :   0.2500 0.1875 0.2500  plane waves:    2842
 k-point 55 :   0.3125 0.1875 0.2500  plane waves:    2832
 k-point 56 :   0.3750 0.1875 0.2500  plane waves:    2830
 k-point 57 :   0.2500 0.2500 0.2500  plane waves:    2841
 k-point 58 :   0.3125 0.2500 0.2500  plane waves:    2834
 k-point 59 :   0.3750 0.2500 0.2500  plane waves:    2838
 k-point 60 :   0.3125 0.3125 0.2500  plane waves:    2845
 k-point 61 :   0.0000 0.0000 0.5000  plane waves:    2884
 k-point 62 :   0.0625-0.0000 0.5000  plane waves:    2888
 k-point 63 :   0.1250-0.0000 0.5000  plane waves:    2886
 k-point 64 :   0.1875-0.0000 0.5000  plane waves:    2870
 k-point 65 :   0.2500-0.0000 0.5000  plane waves:    2860
 k-point 66 :   0.3125-0.0000 0.5000  plane waves:    2834
 k-point 67 :   0.3750-0.0000 0.5000  plane waves:    2836
 k-point 68 :   0.4375-0.0000 0.5000  plane waves:    2832
 k-point 69 :   0.5000-0.0000 0.5000  plane waves:    2828
 k-point 70 :   0.0625 0.0625 0.5000  plane waves:    2886
 k-point 71 :   0.1250 0.0625 0.5000  plane waves:    2872
 k-point 72 :   0.1875 0.0625 0.5000  plane waves:    2856
 k-point 73 :   0.2500 0.0625 0.5000  plane waves:    2840
 k-point 74 :   0.3125 0.0625 0.5000  plane waves:    2838
 k-point 75 :   0.3750 0.0625 0.5000  plane waves:    2830
 k-point 76 :   0.4375 0.0625 0.5000  plane waves:    2816
 k-point 77 :   0.1250 0.1250 0.5000  plane waves:    2852
 k-point 78 :   0.1875 0.1250 0.5000  plane waves:    2846
 k-point 79 :   0.2500 0.1250 0.5000  plane waves:    2844
 k-point 80 :   0.3125 0.1250 0.5000  plane waves:    2840
 k-point 81 :   0.3750 0.1250 0.5000  plane waves:    2832
 k-point 82 :   0.4375 0.1250 0.5000  plane waves:    2818
 k-point 83 :   0.1875 0.1875 0.5000  plane waves:    2854
 k-point 84 :   0.2500 0.1875 0.5000  plane waves:    2848
 k-point 85 :   0.3125 0.1875 0.5000  plane waves:    2836
 k-point 86 :   0.3750 0.1875 0.5000  plane waves:    2824
 k-point 87 :   0.2500 0.2500 0.5000  plane waves:    2830
 k-point 88 :   0.3125 0.2500 0.5000  plane waves:    2834
 k-point 89 :   0.3750 0.2500 0.5000  plane waves:    2832
 k-point 90 :   0.3125 0.3125 0.5000  plane waves:    2840

 maximum and minimum number of plane-waves per node :      1460     1387

 maximum number of plane-waves:      2903
 maximum index in each direction: 
   IXMAX=    5   IYMAX=    5   IZMAX=   25
   IXMIN=   -6   IYMIN=   -5   IZMIN=  -26


 parallel 3D FFT for wavefunctions:
    minimum data exchange during FFTs selected (reduces bandwidth)
 parallel 3D FFT for charge:
    minimum data exchange during FFTs selected (reduces bandwidth)


 total amount of memory used by VASP MPI-rank0    97304. kBytes
=======================================================================

   base      :      30000. kBytes
   nonl-proj :      37983. kBytes
   fftplans  :       2162. kBytes
   grid      :       3449. kBytes
   one-center:         46. kBytes
   wavefun   :      23664. kBytes
 
     INWAV:  cpu time    0.0010: real time    0.0003
 Broyden mixing: mesh for mixing (old mesh)
   NGX = 11   NGY = 11   NGZ = 51
  (NGX  = 36   NGY  = 36   NGZ  =160)
  gives a total of   6171 points

 initial charge density was supplied:
 charge density of overlapping atoms calculated
 number of electron      36.0000000 magnetization 
 keeping initial charge density in first step


--------------------------------------------------------------------------------------------------------


 Maximum index for augmentation-charges         3021 (set IRDMAX)


--------------------------------------------------------------------------------------------------------


 First call to EWALD:  gamma=   0.349
 Maximum number of real-space cells 5x 5x 1
 Maximum number of reciprocal cells 2x 2x 7

    FEWALD:  cpu time    0.0020: real time    0.0015


--------------------------------------- Iteration      1(   1)  ---------------------------------------


    POTLOK:  cpu time    0.0310: real time    0.0586
    SETDIJ:  cpu time    0.0050: real time    0.0052
     EDDAV:  cpu time    1.9227: real time    1.9281
 BZINTS: Fermi energy: 14.510860; 36.000000 electrons
         Band energy: 167.670158;  BLOECHL correction: -0.230836
       DOS:  cpu time    0.0360: real time    0.0367
    --------------------------------------------
      LOOP:  cpu time    1.9947: real time    2.0286

 eigenvalue-minimisations  :  3960
 total energy-change (2. order) : 0.2009126E+03  (-0.1471723E+04)
 number of electron      36.0000000 magnetization 
 augmentation part       36.0000000 magnetization 

 Free energy of the ion-electron system (eV)
  ---------------------------------------------------
  alpha Z        PSCENC =        90.42577596
  Ewald energy   TEWEN  =     -1146.88905665
  -Hartree energ DENC   =      -535.10238363
  -exchange      EXHF   =         0.00000000
  -V(xc)+E(xc)   XCENC  =       -72.59368150
  PAW double counting   =       813.77302396     -658.68146406
  entropy T*S    EENTRO =         0.00000000
  eigenvalues    EBANDS =       167.67015790
  atomic energy  EATOM  =      1542.31022798
  Solvation  Ediel_sol  =         0.00000000
  ---------------------------------------------------
  free energy    TOTEN  =       200.91259997 eV

  energy without entropy =      200.91259997  energy(sigma->0) =      200.91259997


--------------------------------------------------------------------------------------------------------




--------------------------------------- Iteration      1(   2)  ---------------------------------------


     EDDAV:  cpu time    2.4196: real time    2.4238
 BZINTS: Fermi energy:  5.715587; 36.000000 electrons
         Band energy: -61.425636;  BLOECHL correction: -0.000020
       DOS:  cpu time    0.0300: real time    0.0304
    --------------------------------------------
      LOOP:  cpu time    2.4496: real time    2.4541

 eigenvalue-minimisations  :  5358
 total energy-change (2. order) :-0.2290958E+03  (-0.2233434E+03)
 number of electron      36.0000000 magnetization 
 augmentation part       36.0000000 magnetization 

 Free energy of the ion-electron system (eV)
  ---------------------------------------------------
  alpha Z        PSCENC =        90.42577596
  Ewald energy   TEWEN  =     -1146.88905665
  -Hartree energ DENC   =      -535.10238363
  -exchange      EXHF   =         0.00000000
  -V(xc)+E(xc)   XCENC  =       -72.59368150
  PAW double counting   =       813.77302396     -658.68146406
  entropy T*S    EENTRO =         0.00000000
  eigenvalues    EBANDS =       -61.42563583
  atomic energy  EATOM  =      1542.31022798
  Solvation  Ediel_sol  =         0.00000000
  ---------------------------------------------------
  free energy    TOTEN  =       -28.18319376 eV

  energy without entropy =      -28.18319376  energy(sigma->0) =      -28.18319376


--------------------------------------------------------------------------------------------------------




--------------------------------------- Iteration      1(   3)  ---------------------------------------


     EDDAV:  cpu time    2.3756: real time    2.3772
 BZINTS: Fermi energy:  3.892190; 36.000000 electrons
         Band energy: -79.501175;  BLOECHL correction:  0.000000
       DOS:  cpu time    0.0070: real time    0.0073
    --------------------------------------------
      LOOP:  cpu time    2.3826: real time    2.3845

 eigenvalue-minimisations  :  5230
 total energy-change (2. order) :-0.1807554E+02  (-0.1798900E+02)
 number of electron      36.0000000 magnetization 
 augmentation part       36.0000000 magnetization 

 Free energy of the ion-electron system (eV)
  ---------------------------------------------------
  alpha Z        PSCENC =        90.42577596
  Ewald energy   TEWEN  =     -1146.88905665
  -Hartree energ DENC   =      -535.10238363
  -exchange      EXHF   =         0.00000000
  -V(xc)+E(xc)   XCENC  =       -72.59368150
  PAW double counting   =       813.77302396     -658.68146406
  entropy T*S    EENTRO =         0.00000000
  eigenvalues    EBANDS =       -79.50117476
  atomic energy  EATOM  =      1542.31022798
  Solvation  Ediel_sol  =         0.00000000
  ---------------------------------------------------
  free energy    TOTEN  =       -46.25873268 eV

  energy without entropy =      -46.25873268  energy(sigma->0) =      -46.25873268


--------------------------------------------------------------------------------------------------------




--------------------------------------- Iteration      1(   4)  ---------------------------------------


     EDDAV:  cpu time    2.5166: real time    2.5187
 BZINTS: Fermi energy:  3.857698; 36.000000 electrons
         Band energy: -80.049012;  BLOECHL correction:  0.000000
       DOS:  cpu time    0.0080: real time    0.0073
    --------------------------------------------
      LOOP:  cpu time    2.5246: real time    2.5260

 eigenvalue-minimisations  :  5480
 total energy-change (2. order) :-0.5478375E+00  (-0.5470939E+00)
 number of electron      36.0000000 magnetization 
 augmentation part       36.0000000 magnetization 

 Free energy of the ion-electron system (eV)
  ---------------------------------------------------
  alpha Z        PSCENC =        90.42577596
  Ewald energy   TEWEN  =     -1146.88905665
  -Hartree energ DENC   =      -535.10238363
  -exchange      EXHF   =         0.00000000
  -V(xc)+E(xc)   XCENC  =       -72.59368150
  PAW double counting   =       813.77302396     -658.68146406
  entropy T*S    EENTRO =         0.00000000
  eigenvalues    EBANDS =       -80.04901231
  atomic energy  EATOM  =      1542.31022798
  Solvation  Ediel_sol  =         0.00000000
  ---------------------------------------------------
  free energy    TOTEN  =       -46.80657023 eV

  energy without entropy =      -46.80657023  energy(sigma->0) =      -46.80657023


--------------------------------------------------------------------------------------------------------




--------------------------------------- Iteration      1(   5)  ---------------------------------------


     EDDAV:  cpu time    2.4406: real time    2.4420
 BZINTS: Fermi energy:  3.890351; 36.000000 electrons
         Band energy: -80.062781;  BLOECHL correction:  0.000000
       DOS:  cpu time    0.0080: real time    0.0081
    CHARGE:  cpu time    0.1470: real time    0.1476
    MIXING:  cpu time    0.0020: real time    0.0013
    --------------------------------------------
      LOOP:  cpu time    2.5976: real time    2.5990

 eigenvalue-minimisations  :  5298
 total energy-change (2. order) :-0.1376851E-01  (-0.1376417E-01)
 number of electron      36.0000009 magnetization 
 augmentation part       -1.8905898 magnetization 

 Broyden mixing:
  rms(total) = 0.97333E+00    rms(broyden)= 0.97331E+00
  rms(prec ) = 0.12179E+01
  weight for this iteration     100.00

 Free energy of the ion-electron system (eV)
  ---------------------------------------------------
  alpha Z        PSCENC =        90.42577596
  Ewald energy   TEWEN  =     -1146.88905665
  -Hartree energ DENC   =      -535.10238363
  -exchange      EXHF   =         0.00000000
  -V(xc)+E(xc)   XCENC  =       -72.59368150
  PAW double counting   =       813.77302396     -658.68146406
  entropy T*S    EENTRO =         0.00000000
  eigenvalues    EBANDS =       -80.06278082
  atomic energy  EATOM  =      1542.31022798
  Solvation  Ediel_sol  =         0.00000000
  ---------------------------------------------------
  free energy    TOTEN  =       -46.82033874 eV

  energy without entropy =      -46.82033874  energy(sigma->0) =      -46.82033874


--------------------------------------------------------------------------------------------------------




--------------------------------------- Iteration      1(   6)  ---------------------------------------


    POTLOK:  cpu time    0.0280: real time    0.0300
    SETDIJ:  cpu time    0.0040: real time    0.0044
    EDDIAG:  cpu time    0.4129: real time    0.4132
  RMM-DIIS:  cpu time    1.6438: real time    1.6435
    ORTHCH:  cpu time    0.0460: real time    0.0460
 BZINTS: Fermi energy:  2.880336; 36.000000 electrons
         Band energy: -79.156167;  BLOECHL correction:  0.000000
       DOS:  cpu time    0.0070: real time    0.0073
    CHARGE:  cpu time    0.1470: real time    0.1467
    MIXING:  cpu time    0.0010: real time    0.0009
    --------------------------------------------
      LOOP:  cpu time    2.2897: real time    2.2920

 eigenvalue-minimisations  :  4427
 total energy-change (2. order) : 0.2391383E+01  (-0.2428244E+01)
 number of electron      36.0000006 magnetization 
 augmentation part       -0.8632404 magnetization 

 Broyden mixing:
  rms(total) = 0.33605E+00    rms(broyden)= 0.33605E+00
  rms(prec ) = 0.49157E+00
  weight for this iteration     100.00

 eigenvalues of (default mixing * dielectric matrix)
  average eigenvalue GAMMA=   0.8754
  0.8754

 Free energy of the ion-electron system (eV)
  ---------------------------------------------------
  alpha Z        PSCENC =        90.42577596
  Ewald energy   TEWEN  =     -1146.88905665
  -Hartree energ DENC   =      -533.60709329
  -exchange      EXHF   =         0.00000000
  -V(xc)+E(xc)   XCENC  =       -70.82527353
  PAW double counting   =       847.85119234     -694.53856092
  entropy T*S    EENTRO =         0.00000000
  eigenvalues    EBANDS =       -79.15616729
  atomic energy  EATOM  =      1542.31022798
  Solvation  Ediel_sol  =         0.00000000
  ---------------------------------------------------
  free energy    TOTEN  =       -44.42895540 eV

  energy without entropy =      -44.42895540  energy(sigma->0) =      -44.42895540


--------------------------------------------------------------------------------------------------------




--------------------------------------- Iteration      1(   7)  ---------------------------------------


    POTLOK:  cpu time    0.0280: real time    0.0305
    SETDIJ:  cpu time    0.0050: real time    0.0045
    EDDIAG:  cpu time    0.4109: real time    0.4118
  RMM-DIIS:  cpu time    1.6477: real time    1.6467
    ORTHCH:  cpu time    0.0450: real time    0.0463
 BZINTS: Fermi energy:  3.257231; 36.000000 electrons
         Band energy: -73.424366;  BLOECHL correction:  0.000000
       DOS:  cpu time    0.0090: real time    0.0082
    CHARGE:  cpu time    0.1500: real time    0.1489
    MIXING:  cpu time    0.0000: real time    0.0009
    --------------------------------------------
      LOOP:  cpu time    2.2957: real time    2.2978

 eigenvalue-minimisations  :  4366
 total energy-change (2. order) : 0.7336027E+00  (-0.1944037E+00)
 number of electron      36.0000007 magnetization 
 augmentation part       -1.1127812 magnetization 

 Broyden mixing:
  rms(total) = 0.17874E+00    rms(broyden)= 0.17874E+00
  rms(prec ) = 0.21345E+00
  weight for this iteration     100.00

 eigenvalues of (default mixing * dielectric matrix)
  average eigenvalue GAMMA=   1.4109
  0.7599  2.0619

 Free energy of the ion-electron system (eV)
  ---------------------------------------------------
  alpha Z        PSCENC =        90.42577596
  Ewald energy   TEWEN  =     -1146.88905665
  -Hartree energ DENC   =      -537.91758058
  -exchange      EXHF   =         0.00000000
  -V(xc)+E(xc)   XCENC  =       -71.01511679
  PAW double counting   =       881.21697517     -728.40221148
  entropy T*S    EENTRO =         0.00000000
  eigenvalues    EBANDS =       -73.42436634
  atomic energy  EATOM  =      1542.31022798
  Solvation  Ediel_sol  =         0.00000000
  ---------------------------------------------------
  free energy    TOTEN  =       -43.69535273 eV

  energy without entropy =      -43.69535273  energy(sigma->0) =      -43.69535273


--------------------------------------------------------------------------------------------------------




--------------------------------------- Iteration      1(   8)  ---------------------------------------


    POTLOK:  cpu time    0.0270: real time    0.0299
    SETDIJ:  cpu time    0.0050: real time    0.0044
    EDDIAG:  cpu time    0.4159: real time    0.4157
  RMM-DIIS:  cpu time    1.7017: real time    1.7007
    ORTHCH:  cpu time    0.0450: real time    0.0462
 BZINTS: Fermi energy:  3.366479; 36.000000 electrons
         Band energy: -68.477247;  BLOECHL correction:  0.000000
       DOS:  cpu time    0.0090: real time    0.0082
    CHARGE:  cpu time    0.1470: real time    0.1474
    MIXING:  cpu time    0.0010: real time    0.0015
    --------------------------------------------
      LOOP:  cpu time    2.3516: real time    2.3542

 eigenvalue-minimisations  :  4545
 total energy-change (2. order) : 0.6456825E-01  (-0.8844554E-01)
 number of electron      36.0000007 magnetization 
 augmentation part       -1.1687095 magnetization 

 Broyden mixing:
  rms(total) = 0.82082E-01    rms(broyden)= 0.82080E-01
  rms(prec ) = 0.10957E+00
  weight for this iteration     100.00

 eigenvalues of (default mixing * dielectric matrix)
  average eigenvalue GAMMA=   1.4861
  2.1113  1.5281  0.8188

 Free energy of the ion-electron system (eV)
  ---------------------------------------------------
  alpha Z        PSCENC =        90.42577596
  Ewald energy   TEWEN  =     -1146.88905665
  -Hartree energ DENC   =      -542.19645896
  -exchange      EXHF   =         0.00000000
  -V(xc)+E(xc)   XCENC  =       -70.63112994
  PAW double counting   =       931.79849280     -779.97138835
  entropy T*S    EENTRO =         0.00000000
  eigenvalues    EBANDS =       -68.47724732
  atomic energy  EATOM  =      1542.31022798
  Solvation  Ediel_sol  =         0.00000000
  ---------------------------------------------------
  free energy    TOTEN  =       -43.63078448 eV

  energy without entropy =      -43.63078448  energy(sigma->0) =      -43.63078448


--------------------------------------------------------------------------------------------------------




--------------------------------------- Iteration      1(   9)  ---------------------------------------


    POTLOK:  cpu time    0.0270: real time    0.0294
    SETDIJ:  cpu time    0.0050: real time    0.0044
    EDDIAG:  cpu time    0.4149: real time    0.4154
  RMM-DIIS:  cpu time    1.7647: real time    1.7639
    ORTHCH:  cpu time    0.0460: real time    0.0464
 BZINTS: Fermi energy:  3.221248; 36.000000 electrons
         Band energy: -68.909785;  BLOECHL correction:  0.000000
       DOS:  cpu time    0.0070: real time    0.0073
    CHARGE:  cpu time    0.1470: real time    0.1467
    MIXING:  cpu time    0.0020: real time    0.0010
    --------------------------------------------
      LOOP:  cpu time    2.4136: real time    2.4144

 eigenvalue-minimisations  :  4676
 total energy-change (2. order) : 0.9721550E-02  (-0.2842971E-01)
 number of electron      36.0000007 magnetization 
 augmentation part       -1.0456724 magnetization 

 Broyden mixing:
  rms(total) = 0.56145E-01    rms(broyden)= 0.56145E-01
  rms(prec ) = 0.78230E-01
  weight for this iteration     100.00

 eigenvalues of (default mixing * dielectric matrix)
  average eigenvalue GAMMA=   1.5267
  2.1493  2.1493  0.9041  0.9041

 Free energy of the ion-electron system (eV)
  ---------------------------------------------------
  alpha Z        PSCENC =        90.42577596
  Ewald energy   TEWEN  =     -1146.88905665
  -Hartree energ DENC   =      -541.83908230
  -exchange      EXHF   =         0.00000000
  -V(xc)+E(xc)   XCENC  =       -70.37493027
  PAW double counting   =       938.50487858     -786.84909083
  entropy T*S    EENTRO =         0.00000000
  eigenvalues    EBANDS =       -68.90978541
  atomic energy  EATOM  =      1542.31022798
  Solvation  Ediel_sol  =         0.00000000
  ---------------------------------------------------
  free energy    TOTEN  =       -43.62106293 eV

  energy without entropy =      -43.62106293  energy(sigma->0) =      -43.62106293


--------------------------------------------------------------------------------------------------------




--------------------------------------- Iteration      1(  10)  ---------------------------------------


    POTLOK:  cpu time    0.0270: real time    0.0301
    SETDIJ:  cpu time    0.0040: real time    0.0044
    EDDIAG:  cpu time    0.4119: real time    0.4116
  RMM-DIIS:  cpu time    1.7677: real time    1.7667
    ORTHCH:  cpu time    0.0450: real time    0.0460
 BZINTS: Fermi energy:  3.347285; 36.000000 electrons
         Band energy: -68.025931;  BLOECHL correction:  0.000000
       DOS:  cpu time    0.0080: real time    0.0082
    CHARGE:  cpu time    0.1470: real time    0.1471
    MIXING:  cpu time    0.0020: real time    0.0011
    --------------------------------------------
      LOOP:  cpu time    2.4126: real time    2.4152

 eigenvalue-minimisations  :  4711
 total energy-change (2. order) : 0.1560332E-01  (-0.6185062E-02)
 number of electron      36.0000007 magnetization 
 augmentation part       -1.1048308 magnetization 

 Broyden mixing:
  rms(total) = 0.70411E-02    rms(broyden)= 0.70406E-02
  rms(prec ) = 0.89880E-02
  weight for this iteration     100.00

 eigenvalues of (default mixing * dielectric matrix)
  average eigenvalue GAMMA=   1.4290
  2.4393  1.6549  0.8957  0.8957  1.2595

 Free energy of the ion-electron system (eV)
  ---------------------------------------------------
  alpha Z        PSCENC =        90.42577596
  Ewald energy   TEWEN  =     -1146.88905665
  -Hartree energ DENC   =      -542.61424541
  -exchange      EXHF   =         0.00000000
  -V(xc)+E(xc)   XCENC  =       -70.42661971
  PAW double counting   =       944.34632804     -792.73193881
  entropy T*S    EENTRO =         0.00000000
  eigenvalues    EBANDS =       -68.02593101
  atomic energy  EATOM  =      1542.31022798
  Solvation  Ediel_sol  =         0.00000000
  ---------------------------------------------------
  free energy    TOTEN  =       -43.60545961 eV

  energy without entropy =      -43.60545961  energy(sigma->0) =      -43.60545961


--------------------------------------------------------------------------------------------------------




--------------------------------------- Iteration      1(  11)  ---------------------------------------


    POTLOK:  cpu time    0.0270: real time    0.0304
    SETDIJ:  cpu time    0.0050: real time    0.0044
    EDDIAG:  cpu time    0.4089: real time    0.4099
  RMM-DIIS:  cpu time    1.8867: real time    1.8849
    ORTHCH:  cpu time    0.0450: real time    0.0462
 BZINTS: Fermi energy:  3.346637; 36.000000 electrons
         Band energy: -67.894788;  BLOECHL correction:  0.000000
       DOS:  cpu time    0.0080: real time    0.0081
    CHARGE:  cpu time    0.1470: real time    0.1465
    MIXING:  cpu time    0.0010: real time    0.0011
    --------------------------------------------
      LOOP:  cpu time    2.5286: real time    2.5316

 eigenvalue-minimisations  :  5095
 total energy-change (2. order) :-0.1454150E-03  (-0.3223338E-03)
 number of electron      36.0000007 magnetization 
 augmentation part       -1.0996852 magnetization 

 Broyden mixing:
  rms(total) = 0.30190E-02    rms(broyden)= 0.30190E-02
  rms(prec ) = 0.37036E-02
  weight for this iteration     100.00

 eigenvalues of (default mixing * dielectric matrix)
  average eigenvalue GAMMA=   1.6443
  2.8036  2.4889  1.8403  0.8988  0.8988  0.9356

 Free energy of the ion-electron system (eV)
  ---------------------------------------------------
  alpha Z        PSCENC =        90.42577596
  Ewald energy   TEWEN  =     -1146.88905665
  -Hartree energ DENC   =      -542.76259190
  -exchange      EXHF   =         0.00000000
  -V(xc)+E(xc)   XCENC  =       -70.40141626
  PAW double counting   =       944.66698444     -793.06074019
  entropy T*S    EENTRO =         0.00000000
  eigenvalues    EBANDS =       -67.89478841
  atomic energy  EATOM  =      1542.31022798
  Solvation  Ediel_sol  =         0.00000000
  ---------------------------------------------------
  free energy    TOTEN  =       -43.60560503 eV

  energy without entropy =      -43.60560503  energy(sigma->0) =      -43.60560503


--------------------------------------------------------------------------------------------------------




--------------------------------------- Iteration      1(  12)  ---------------------------------------


    POTLOK:  cpu time    0.0270: real time    0.0305
    SETDIJ:  cpu time    0.0050: real time    0.0044
    EDDIAG:  cpu time    0.4109: real time    0.4107
  RMM-DIIS:  cpu time    1.8637: real time    1.8630
    ORTHCH:  cpu time    0.0460: real time    0.0464
 BZINTS: Fermi energy:  3.353045; 36.000000 electrons
         Band energy: -67.715395;  BLOECHL correction:  0.000000
       DOS:  cpu time    0.0080: real time    0.0081
    CHARGE:  cpu time    0.1460: real time    0.1462
    MIXING:  cpu time    0.0010: real time    0.0011
    --------------------------------------------
      LOOP:  cpu time    2.5076: real time    2.5104

 eigenvalue-minimisations  :  5058
 total energy-change (2. order) :-0.1351965E-03  (-0.4845738E-04)
 number of electron      36.0000007 magnetization 
 augmentation part       -1.0990308 magnetization 

 Broyden mixing:
  rms(total) = 0.14652E-02    rms(broyden)= 0.14652E-02
  rms(prec ) = 0.17905E-02
  weight for this iteration     100.00

 eigenvalues of (default mixing * dielectric matrix)
  average eigenvalue GAMMA=   1.5986
  2.9460  2.3812  1.5741  1.5741  0.8985  0.8985  0.9176

 Free energy of the ion-electron system (eV)
  ---------------------------------------------------
  alpha Z        PSCENC =        90.42577596
  Ewald energy   TEWEN  =     -1146.88905665
  -Hartree energ DENC   =      -542.96403711
  -exchange      EXHF   =         0.00000000
  -V(xc)+E(xc)   XCENC  =       -70.39240142
  PAW double counting   =       944.42597771     -792.80683176
  entropy T*S    EENTRO =         0.00000000
  eigenvalues    EBANDS =       -67.71539493
  atomic energy  EATOM  =      1542.31022798
  Solvation  Ediel_sol  =         0.00000000
  ---------------------------------------------------
  free energy    TOTEN  =       -43.60574022 eV

  energy without entropy =      -43.60574022  energy(sigma->0) =      -43.60574022


--------------------------------------------------------------------------------------------------------




--------------------------------------- Iteration      1(  13)  ---------------------------------------


    POTLOK:  cpu time    0.0280: real time    0.0305
    SETDIJ:  cpu time    0.0050: real time    0.0044
    EDDIAG:  cpu time    0.4099: real time    0.4108
  RMM-DIIS:  cpu time    1.9097: real time    1.9090
    ORTHCH:  cpu time    0.0460: real time    0.0463
 BZINTS: Fermi energy:  3.356260; 36.000000 electrons
         Band energy: -67.711939;  BLOECHL correction:  0.000000
       DOS:  cpu time    0.0080: real time    0.0081
    CHARGE:  cpu time    0.1470: real time    0.1462
    MIXING:  cpu time    0.0010: real time    0.0012
    --------------------------------------------
      LOOP:  cpu time    2.5546: real time    2.5565

 eigenvalue-minimisations  :  5217
 total energy-change (2. order) :-0.1718927E-04  (-0.2575525E-04)
 number of electron      36.0000007 magnetization 
 augmentation part       -1.1019086 magnetization 

 Broyden mixing:
  rms(total) = 0.19189E-02    rms(broyden)= 0.19189E-02
  rms(prec ) = 0.25795E-02
  weight for this iteration     100.00

 eigenvalues of (default mixing * dielectric matrix)
  average eigenvalue GAMMA=   1.7318
  3.2838  2.5914  2.5914  1.6363  1.1182  0.8834  0.8834  0.8667

 Free energy of the ion-electron system (eV)
  ---------------------------------------------------
  alpha Z        PSCENC =        90.42577596
  Ewald energy   TEWEN  =     -1146.88905665
  -Hartree energ DENC   =      -542.96414188
  -exchange      EXHF   =         0.00000000
  -V(xc)+E(xc)   XCENC  =       -70.39518279
  PAW double counting   =       944.53138843     -792.91282924
  entropy T*S    EENTRO =         0.00000000
  eigenvalues    EBANDS =       -67.71193923
  atomic energy  EATOM  =      1542.31022798
  Solvation  Ediel_sol  =         0.00000000
  ---------------------------------------------------
  free energy    TOTEN  =       -43.60575741 eV

  energy without entropy =      -43.60575741  energy(sigma->0) =      -43.60575741


--------------------------------------------------------------------------------------------------------




--------------------------------------- Iteration      1(  14)  ---------------------------------------


    POTLOK:  cpu time    0.0270: real time    0.0294
    SETDIJ:  cpu time    0.0050: real time    0.0044
    EDDIAG:  cpu time    0.4099: real time    0.4104
  RMM-DIIS:  cpu time    1.4868: real time    1.4862
    ORTHCH:  cpu time    0.0460: real time    0.0455
 BZINTS: Fermi energy:  3.356032; 36.000000 electrons
         Band energy: -67.730254;  BLOECHL correction:  0.000000
       DOS:  cpu time    0.0080: real time    0.0081
    CHARGE:  cpu time    0.1440: real time    0.1440
    MIXING:  cpu time    0.0010: real time    0.0012
    --------------------------------------------
      LOOP:  cpu time    2.1277: real time    2.1292

 eigenvalue-minimisations  :  3962
 total energy-change (2. order) : 0.1389576E-04  (-0.6691171E-05)
 number of electron      36.0000007 magnetization 
 augmentation part       -1.1002153 magnetization 

 Broyden mixing:
  rms(total) = 0.29034E-03    rms(broyden)= 0.29032E-03
  rms(prec ) = 0.33681E-03
  weight for this iteration     100.00

 eigenvalues of (default mixing * dielectric matrix)
  average eigenvalue GAMMA=   1.6013
  3.0924  2.7061  2.4157  1.5663  1.1497  0.8766  0.8766  0.8641  0.8641

 Free energy of the ion-electron system (eV)
  ---------------------------------------------------
  alpha Z        PSCENC =        90.42577596
  Ewald energy   TEWEN  =     -1146.88905665
  -Hartree energ DENC   =      -542.94783000
  -exchange      EXHF   =         0.00000000
  -V(xc)+E(xc)   XCENC  =       -70.39256990
  PAW double counting   =       944.38578474     -792.76782176
  entropy T*S    EENTRO =         0.00000000
  eigenvalues    EBANDS =       -67.73025389
  atomic energy  EATOM  =      1542.31022798
  Solvation  Ediel_sol  =         0.00000000
  ---------------------------------------------------
  free energy    TOTEN  =       -43.60574352 eV

  energy without entropy =      -43.60574352  energy(sigma->0) =      -43.60574352


--------------------------------------------------------------------------------------------------------




--------------------------------------- Iteration      1(  15)  ---------------------------------------


    POTLOK:  cpu time    0.0270: real time    0.0299
    SETDIJ:  cpu time    0.0050: real time    0.0044
    EDDIAG:  cpu time    0.4029: real time    0.4027
  RMM-DIIS:  cpu time    1.1688: real time    1.1688
    ORTHCH:  cpu time    0.0450: real time    0.0452
 BZINTS: Fermi energy:  3.357006; 36.000000 electrons
         Band energy: -67.726654;  BLOECHL correction:  0.000000
       DOS:  cpu time    0.0080: real time    0.0080
    --------------------------------------------
      LOOP:  cpu time    1.6567: real time    1.6590

 eigenvalue-minimisations  :  3039
 total energy-change (2. order) :-0.5327538E-06  (-0.1144135E-05)
 number of electron      36.0000007 magnetization 
 augmentation part       -1.1002153 magnetization 

 Free energy of the ion-electron system (eV)
  ---------------------------------------------------
  alpha Z        PSCENC =        90.42577596
  Ewald energy   TEWEN  =     -1146.88905665
  -Hartree energ DENC   =      -542.95244079
  -exchange      EXHF   =         0.00000000
  -V(xc)+E(xc)   XCENC  =       -70.39236654
  PAW double counting   =       944.33775858     -792.71898820
  entropy T*S    EENTRO =         0.00000000
  eigenvalues    EBANDS =       -67.72665439
  atomic energy  EATOM  =      1542.31022798
  Solvation  Ediel_sol  =         0.00000000
  ---------------------------------------------------
  free energy    TOTEN  =       -43.60574405 eV

  energy without entropy =      -43.60574405  energy(sigma->0) =      -43.60574405


--------------------------------------------------------------------------------------------------------




 average (electrostatic) potential at core
  the test charge radii are     1.2296  0.9698
  (the norm of the test charge is              1.0000)
       1 -40.3327       2 -40.3327       3 -88.1703       4 -88.1703       5 -88.1703
       6 -88.1703
 
 
 
 E-fermi :   3.3570     XC(G=0):  -9.3248     alpha+bet : -9.6368


 k-point     1 :       0.0000    0.0000    0.0000
  band No.  band energies     occupation 
      1     -10.9296      2.00000
      2     -10.9106      2.00000
      3      -9.7292      2.00000
      4      -9.6952      2.00000
      5      -2.5233      2.00000
      6      -2.3617      2.00000
      7       0.5199      2.00000
      8       0.5199      2.00000
      9       0.5204      2.00000
     10       0.5204      2.00000
     11       1.1062      2.00000
     12       1.6249      2.00000
     13       1.6249      2.00000
     14       1.6268      2.00000
     15       1.6268      2.00000
     16       1.6748      2.00000
     17       2.9224      2.00000
     18       3.2983      2.00000
     19       5.8748      0.00000
     20       5.9115      0.00000
     21       6.0194      0.00000
     22       6.0856      0.00000

 k-point     2 :       0.0625   -0.0000    0.0000
  band No.  band energies     occupation 
      1     -10.8750      2.00000
      2     -10.8560      2.00000
      3      -9.7027      2.00000
      4      -9.6693      2.00000
      5      -2.4581      2.00000
      6      -2.2969      2.00000
      7       0.3908      2.00000
      8       0.3915      2.00000
      9       0.5802      2.00000
     10       0.5809      2.00000
     11       0.8702      2.00000
     12       1.1782      2.00000
     13       1.5315      2.00000
     14       1.5336      2.00000
     15       1.7846      2.00000
     16       2.0288      2.00000
     17       2.9100      2.00000
     18       3.2508      2.00000
     19       5.7993      0.00000
     20       5.8751      0.00000
     21       5.9636      0.00000
     22       6.0089      0.00000

 k-point     3 :       0.1250   -0.0000    0.0000
  band No.  band energies     occupation 
      1     -10.7153      2.00000
      2     -10.6967      2.00000
      3      -9.6255      2.00000
      4      -9.5940      2.00000
      5      -2.2774      2.00000
      6      -2.1185      2.00000
      7       0.0554      2.00000
      8       0.0582      2.00000
      9       0.4568      2.00000
     10       0.6730      2.00000
     11       0.7540      2.00000
     12       0.7552      2.00000
     13       1.2889      2.00000
     14       1.2914      2.00000
     15       1.9308      2.00000
     16       2.2148      2.00000
     17       2.8434      2.00000
     18       3.0855      2.00000
     19       5.5225      0.00000
     20       5.6381      0.00000
     21       5.7053      0.00000
     22       5.7885      0.00000

 k-point     4 :       0.1875   -0.0000    0.0000
  band No.  band energies     occupation 
      1     -10.4641      2.00000
      2     -10.4462      2.00000
      3      -9.5047      2.00000
      4      -9.4763      2.00000
      5      -2.0388      2.00000
      6      -1.8903      2.00000
      7      -0.3614      2.00000
      8      -0.3496      2.00000
      9       0.0046      2.00000
     10       0.1558      2.00000
     11       0.9739      2.00000
     12       0.9769      2.00000
     13       1.0198      2.00000
     14       1.0219      2.00000
     15       1.8893      2.00000
     16       2.1474      2.00000
     17       2.6586      2.00000
     18       2.7803      2.00000
     19       5.2003      0.00000
     20       5.5577      0.00000
     21       5.6440      0.00000
     22       5.6648      0.00000

 k-point     5 :       0.2500   -0.0000    0.0000
  band No.  band energies     occupation 
      1     -10.1455      2.00000
      2     -10.1288      2.00000
      3      -9.3531      2.00000
      4      -9.3287      2.00000
      5      -1.8875      2.00000
      6      -1.7766      2.00000
      7      -0.6912      2.00000
      8      -0.6477      2.00000
      9      -0.4609      2.00000
     10      -0.3594      2.00000
     11       0.6534      2.00000
     12       0.6569      2.00000
     13       1.3400      2.00000
     14       1.3435      2.00000
     15       1.7044      2.00000
     16       1.9132      2.00000
     17       2.3699      2.00000
     18       2.4184      2.00000
     19       5.1186      0.00000
     20       5.4403      0.00000
     21       5.4492      0.00000
     22       5.4692      0.00000

 k-point     6 :       0.3125   -0.0000    0.0000
  band No.  band energies     occupation 
      1      -9.7961      2.00000
      2      -9.7814      2.00000
      3      -9.1896      2.00000
      4      -9.1700      2.00000
      5      -2.0059      2.00000
      6      -1.9480      2.00000
      7      -0.9115      2.00000
      8      -0.8453      2.00000
      9      -0.8011      2.00000
     10      -0.7195      2.00000
     11       0.3718      2.00000
     12       0.3756      2.00000
     13       1.4964      2.00000
     14       1.6545      2.00000
     15       1.6619      2.00000
     16       1.6677      2.00000
     17       2.1513      2.00000
     18       2.1930      2.00000
     19       5.2370      0.00000
     20       5.3069      0.00000
     21       5.3195      0.00000
     22       5.5064      0.00000

 k-point     7 :       0.3750   -0.0000    0.0000
  band No.  band energies     occupation 
      1      -9.4680      2.00000
      2      -9.4561      2.00000
[...]
      2      -9.3722      2.00000
      3      -8.9817      2.00000
      4      -8.9817      2.00000
      5      -2.1375      2.00000
      6      -2.1375      2.00000
      7      -1.3928      2.00000
      8      -1.3928      2.00000
      9      -0.6969      2.00000
     10      -0.6969      2.00000
     11      -0.0595      2.00000
     12      -0.0595      2.00000
     13       1.1668      2.00000
     14       1.1668      2.00000
     15       1.5588      2.00000
     16       1.5588      2.00000
     17       2.4403      2.00000
     18       2.4403      2.00000
     19       5.2578      0.00000
     20       5.2578      0.00000
     21       5.6243      0.00000
     22       5.6279      0.00000

 k-point    81 :       0.3750    0.1250    0.5000
  band No.  band energies     occupation 
      1      -9.1491      2.00000
      2      -9.1491      2.00000
      3      -8.8800      2.00000
      4      -8.8800      2.00000
      5      -2.3127      2.00000
      6      -2.3127      2.00000
      7      -1.6974      2.00000
      8      -1.6974      2.00000
      9      -0.8030      2.00000
     10      -0.8030      2.00000
     11      -0.0443      2.00000
     12      -0.0443      2.00000
     13       1.2078      2.00000
     14       1.2078      2.00000
     15       1.3478      2.00000
     16       1.3478      2.00000
     17       2.6343      2.00000
     18       2.6343      2.00000
     19       5.3030      0.00000
     20       5.3030      0.00000
     21       5.8121      0.00000
     22       5.8125      0.00000

 k-point    82 :       0.4375    0.1250    0.5000
  band No.  band energies     occupation 
      1      -9.0666      2.00000
      2      -9.0666      2.00000
      3      -8.8429      2.00000
      4      -8.8429      2.00000
      5      -2.3778      2.00000
      6      -2.3778      2.00000
      7      -1.8042      2.00000
      8      -1.8042      2.00000
      9      -0.8599      2.00000
     10      -0.8599      2.00000
     11      -0.0302      2.00000
     12      -0.0302      2.00000
     13       1.2333      2.00000
     14       1.2333      2.00000
     15       1.2662      2.00000
     16       1.2662      2.00000
     17       2.7331      2.00000
     18       2.7331      2.00000
     19       5.2789      0.00000
     20       5.2789      0.00000
     21       5.9377      0.00000
     22       5.9378      0.00000

 k-point    83 :       0.1875    0.1875    0.5000
  band No.  band energies     occupation 
      1      -9.7098      2.00000
      2      -9.7098      2.00000
      3      -9.1359      2.00000
      4      -9.1359      2.00000
      5      -1.8355      2.00000
      6      -1.8355      2.00000
      7      -0.8411      2.00000
      8      -0.8411      2.00000
      9      -0.6321      2.00000
     10      -0.6321      2.00000
     11      -0.1368      2.00000
     12      -0.1368      2.00000
     13       1.0244      2.00000
     14       1.0244      2.00000
     15       1.9597      2.00000
     16       1.9598      2.00000
     17       2.3190      2.00000
     18       2.3190      2.00000
     19       5.0516      0.00000
     20       5.0518      0.00000
     21       5.5749      0.00000
     22       5.6242      0.00000

 k-point    84 :       0.2500    0.1875    0.5000
  band No.  band energies     occupation 
      1      -9.4089      2.00000
      2      -9.4089      2.00000
      3      -8.9924      2.00000
      4      -8.9924      2.00000
      5      -1.9667      2.00000
      6      -1.9667      2.00000
      7      -1.3413      2.00000
      8      -1.3413      2.00000
      9      -0.5560      2.00000
     10      -0.5560      2.00000
     11      -0.1522      2.00000
     12      -0.1522      2.00000
     13       0.7318      2.00000
     14       0.7318      2.00000
     15       1.7164      2.00000
     16       1.7164      2.00000
     17       2.4213      2.00000
     18       2.4213      2.00000
     19       5.2209      0.00000
     20       5.2211      0.00000
     21       5.6404      0.00000
     22       6.1163      0.00000

 k-point    85 :       0.3125    0.1875    0.5000
  band No.  band energies     occupation 
      1      -9.1597      2.00000
      2      -9.1597      2.00000
      3      -8.8736      2.00000
      4      -8.8736      2.00000
      5      -2.0680      2.00000
      6      -2.0680      2.00000
      7      -1.7334      2.00000
      8      -1.7334      2.00000
      9      -0.6340      2.00000
     10      -0.6340      2.00000
     11      -0.0756      2.00000
     12      -0.0755      2.00000
     13       0.5751      2.00000
     14       0.5751      2.00000
     15       1.4376      2.00000
     16       1.4376      2.00000
     17       2.6190      2.00000
     18       2.6190      2.00000
     19       5.2693      0.00000
     20       5.2693      0.00000
     21       5.8452      0.00000
     22       5.9370      0.00000

 k-point    86 :       0.3750    0.1875    0.5000
  band No.  band energies     occupation 
      1      -9.0166      2.00000
      2      -9.0166      2.00000
      3      -8.8056      2.00000
      4      -8.8056      2.00000
      5      -2.1117      2.00000
      6      -2.1116      2.00000
      7      -1.9452      2.00000
      8      -1.9452      2.00000
      9      -0.7726      2.00000
     10      -0.7726      2.00000
     11       0.0110      2.00000
     12       0.0110      2.00000
     13       0.5467      2.00000
     14       0.5467      2.00000
     15       1.2403      2.00000
     16       1.2403      2.00000
     17       2.8078      2.00000
     18       2.8078      2.00000
     19       5.1589      0.00000
     20       5.1589      0.00000
     21       6.1194      0.00000
     22       6.3949      0.00000

 k-point    87 :       0.2500    0.2500    0.5000
  band No.  band energies     occupation 
      1      -9.1640      2.00000
      2      -9.1640      2.00000
      3      -8.8710      2.00000
      4      -8.8710      2.00000
      5      -1.9527      2.00000
      6      -1.9527      2.00000
      7      -1.7474      2.00000
      8      -1.7474      2.00000
      9      -0.4794      2.00000
     10      -0.4793      2.00000
     11      -0.0905      2.00000
     12      -0.0905      2.00000
     13       0.2266      2.00000
     14       0.2266      2.00000
     15       1.4809      2.00000
     16       1.4809      2.00000
     17       2.6058      2.00000
     18       2.6058      2.00000
     19       5.2494      0.00000
     20       5.2495      0.00000
     21       5.8575      0.00000
     22       6.1461      0.00000

 k-point    88 :       0.3125    0.2500    0.5000
  band No.  band energies     occupation 
      1      -8.9915      2.00000
      2      -8.9915      2.00000
      3      -8.7838      2.00000
      4      -8.7838      2.00000
      5      -2.0314      2.00000
      6      -2.0314      2.00000
      7      -1.8578      2.00000
      8      -1.8578      2.00000
      9      -0.6075      2.00000
     10      -0.6075      2.00000
     11      -0.0604      2.00000
     12      -0.0604      2.00000
     13       0.0557      2.00000
     14       0.0557      2.00000
     15       1.2214      2.00000
     16       1.2214      2.00000
     17       2.8446      2.00000
     18       2.8446      2.00000
     19       5.0537      0.00000
     20       5.0537      0.00000
     21       6.1860      0.00000
     22       6.2131      0.00000

 k-point    89 :       0.3750    0.2500    0.5000
  band No.  band energies     occupation 
      1      -8.9291      2.00000
      2      -8.9291      2.00000
      3      -8.7519      2.00000
      4      -8.7519      2.00000
      5      -2.1321      2.00000
      6      -2.1321      2.00000
      7      -1.7831      2.00000
      8      -1.7831      2.00000
      9      -0.7601      2.00000
     10      -0.7601      2.00000
     11      -0.0989      2.00000
     12      -0.0989      2.00000
     13       0.1376      2.00000
     14       0.1376      2.00000
     15       1.0945      2.00000
     16       1.0945      2.00000
     17       2.9729      2.00000
     18       2.9729      2.00000
     19       4.9282      0.00000
     20       4.9282      0.00000
     21       6.2312      0.00000
     22       6.2426      0.00000

 k-point    90 :       0.3125    0.3125    0.5000
  band No.  band energies     occupation 
      1      -8.8986      2.00000
      2      -8.8986      2.00000
      3      -8.7322      2.00000
      4      -8.7322      2.00000
      5      -2.2007      2.00000
      6      -2.2007      2.00000
      7      -1.5459      2.00000
      8      -1.5459      2.00000
      9      -0.7962      2.00000
     10      -0.7962      2.00000
     11      -0.4065      2.00000
     12      -0.4065      2.00000
     13       0.2077      2.00000
     14       0.2077      2.00000
     15       1.0174      2.00000
     16       1.0174      2.00000
     17       3.0525      2.00000
     18       3.0525      2.00000
     19       4.8127      0.00000
     20       4.8127      0.00000
     21       6.1496      0.00000
     22       6.1500      0.00000


--------------------------------------------------------------------------------------------------------


 soft charge-density along one line, spin component           1
         0         1         2         3         4         5         6         7         8         9
 total charge-density along one line
 
 pseudopotential strength for first ion, spin component:           1
 -8.238  -0.000   0.000   0.000   0.000  -0.074   0.000  -0.000
 -0.000  -8.239   0.000  -0.000  -0.000   0.000  -0.074  -0.000
  0.000   0.000  -8.218  -0.000  -0.000  -0.000  -0.000  -0.075
  0.000  -0.000  -0.000  -8.239  -0.000  -0.000   0.000   0.000
  0.000  -0.000  -0.000  -0.000  -8.238  -0.000   0.000   0.000
 -0.074   0.000  -0.000  -0.000  -0.000   0.112  -0.000   0.000
  0.000  -0.074  -0.000   0.000   0.000  -0.000   0.112   0.000
 -0.000  -0.000  -0.075   0.000   0.000   0.000   0.000   0.112
 -0.000   0.000   0.000  -0.074   0.000   0.000  -0.000  -0.000
 -0.000   0.000   0.000   0.000  -0.074   0.000  -0.000  -0.000
  0.000  -0.000  -0.005   0.000  -0.000  -0.000   0.000   0.000
 -0.000   0.000   0.001  -0.000   0.000   0.000  -0.000  -0.000
 -0.000   0.000  -0.000  -0.000  -0.007   0.000  -0.000   0.000
 -0.000   0.000   0.000  -0.000  -0.000  -0.000  -0.000  -0.000
 -0.007  -0.000   0.000   0.000  -0.000  -0.000  -0.000  -0.000
  0.000  -0.000   0.000   0.000   0.004  -0.000   0.000  -0.000
  0.000  -0.000  -0.000   0.000   0.000  -0.000   0.000   0.000
  0.004   0.000  -0.000  -0.000   0.000   0.000  -0.000   0.000
 total augmentation occupancy for first ion, spin component:           1
  0.965  -0.000  -0.000  -0.000  -0.000   0.601  -0.000  -0.000   0.000  -0.000  -0.000   0.000   0.000   0.000  -0.065  -0.000
  0.000   0.907   0.000   0.000  -0.000   0.000   0.839   0.000   0.000  -0.000   0.000   0.000   0.000  -0.000  -0.000  -0.000
 -0.000   0.000   1.029  -0.000   0.000  -0.000  -0.000   0.501   0.000   0.000   0.111  -0.019  -0.000  -0.000   0.000   0.000
 -0.000   0.000  -0.000   0.907  -0.000   0.000   0.000   0.000   0.839   0.000   0.000   0.000   0.000  -0.000  -0.000   0.000
 -0.000   0.000   0.000  -0.000   0.965  -0.000  -0.000   0.000   0.000   0.601   0.000  -0.000  -0.065   0.000  -0.000   0.007
  0.601  -0.000  -0.000   0.000  -0.000   0.678  -0.000  -0.000  -0.000  -0.000   0.000   0.000   0.000   0.000  -0.136  -0.000
  0.000   0.839   0.000   0.000   0.000   0.000   1.081   0.000   0.000  -0.000   0.000   0.000  -0.000  -0.000   0.000   0.000
 -0.000   0.000   0.501  -0.000   0.000  -0.000   0.000   0.476  -0.000   0.000   0.059  -0.021  -0.000  -0.000   0.000   0.000
  0.000   0.000   0.000   0.839  -0.000  -0.000   0.000  -0.000   1.081   0.000   0.000   0.000  -0.000  -0.000   0.000   0.000
 -0.000   0.000   0.000  -0.000   0.601  -0.000   0.000   0.000  -0.000   0.678   0.000  -0.000  -0.136   0.000  -0.000   0.023
 -0.000   0.000   0.111   0.000   0.000   0.000   0.000   0.059   0.000   0.000   1.207  -0.185  -0.000  -0.000   0.000  -0.000
  0.000   0.000  -0.019   0.000  -0.000  -0.000   0.000  -0.021   0.000  -0.000  -0.185   0.042  -0.000  -0.000   0.000   0.000
  0.000   0.000  -0.000   0.000  -0.065   0.000   0.000  -0.000   0.000  -0.136  -0.000  -0.000   0.217  -0.000   0.000  -0.032
  0.000  -0.000  -0.000  -0.000   0.000   0.000   0.000  -0.000  -0.000  -0.000  -0.000  -0.000  -0.000   0.264   0.000   0.000
 -0.065   0.000   0.000  -0.000  -0.000  -0.136  -0.000   0.000  -0.000  -0.000   0.000  -0.000   0.000   0.000   0.217  -0.000
 -0.000   0.000   0.000   0.000   0.007  -0.000   0.000   0.000  -0.000   0.023   0.000  -0.000  -0.032   0.000  -0.000   0.005
  0.000  -0.000  -0.000   0.000   0.000   0.000   0.000   0.000  -0.000   0.000   0.000   0.000   0.000  -0.038   0.000  -0.000
  0.007   0.000  -0.000   0.000   0.000   0.023   0.000  -0.000   0.000   0.000  -0.000   0.000  -0.000   0.000  -0.032   0.000


------------------------ aborting loop because EDIFF is reached ----------------------------------------


    CHARGE:  cpu time    0.1460: real time    0.1466
    FORLOC:  cpu time    0.0030: real time    0.0030
    FORNL :  cpu time    0.4939: real time    0.4937
    STRESS:  cpu time    1.3928: real time    1.3927
    FORCOR:  cpu time    0.0290: real time    0.0299
    FORHAR:  cpu time    0.0070: real time    0.0065
    MIXING:  cpu time    0.0010: real time    0.0013
    OFIELD:  cpu time    0.0000: real time    0.0000

  DFT-D2 method for vdW energy calculation
  -------------------------------------------------------------------

  Parameters of vdW forcefield:
         C6(Jnm^6/mol)     R0(A)
   -----------------------------
   Mo      24.670          1.639
   S        5.570          1.683

  IVDW =   1
  VDW_RADIUS =    50.000 A
  VDW_S6 =     0.750
  VDW_SR =     1.000
  VDW_D =    20.000
  LVDW_EWALD = F

  Number of pair interactions contributing to vdW energy:   84128
  Edisp (eV):   -1.33129
    FORVDW:  cpu time    0.0230: real time    0.0301

  FORCE on cell =-STRESS in cart. coord.  units (eV):
  Direction    XX          YY          ZZ          XY          YZ          ZX
  --------------------------------------------------------------------------------------
  Alpha Z    90.42578    90.42578    90.42578
  Ewald     -12.90873   -12.90785 -1121.07429     0.00038     0.00000     0.00025
  Hartree   466.59830   466.59831  -390.22038     0.00003    -0.00000    -0.00001
  E(xc)    -140.60498  -140.60499  -141.79641    -0.00001    -0.00000    -0.00000
  Local   -1080.53625 -1080.53692   872.57577    -0.00042    -0.00000    -0.00011
  n-local   254.47192   251.42055   263.35181    -0.52925     0.00256     0.00228
  augment   -51.13276   -51.13261   -53.33440     0.00014     0.00000    -0.00001
  Kinetic   472.29124   476.95745   479.58327   -15.03163     0.00430     0.00419
  Fock        0.00000     0.00000     0.00000     0.00000     0.00000     0.00000
  vdW         0.17103     0.17103    -0.86546     0.00000     0.00000    -0.00000
  -------------------------------------------------------------------------------------
  Total      -0.41685    -0.41685    -1.35432     0.00000     0.00000    -0.00000
  in kB      -5.09233    -5.09233   -16.54469     0.00000     0.00000    -0.00000
  external pressure =       -8.91 kB  Pullay stress =        0.00 kB


 VOLUME and BASIS-vectors are now :
 -----------------------------------------------------------------------------
  energy-cutoff  :      450.00
  volume of cell :      131.15
      direct lattice vectors                 reciprocal lattice vectors
     3.190315730  0.000000000  0.000000000     0.313448600  0.180969634  0.000000000
    -1.595157865  2.762894468  0.000000000     0.000000000  0.361939267  0.000000000
     0.000000000  0.000000000 14.879004300     0.000000000  0.000000000  0.067208798

  length of vectors
     3.190315730  3.190315730 14.879004300     0.361939267  0.361939267  0.067208798


 FORCES acting on ions
    electron-ion (+dipol)            ewald-force                    non-local-force                 convergence-correction
 -----------------------------------------------------------------------------------------------
   0.473E-04 -.345E-04 -.100E-04   0.928E-04 -.107E-03 0.288E-09   -.139E-16 -.104E-16 -.102E-19   0.208E-08 -.333E-08 -.251E-09
   0.659E-04 -.309E-04 -.100E-04   -.928E-04 0.107E-03 -.288E-09   0.347E-17 0.243E-16 -.932E-20   0.696E-08 -.189E-08 -.252E-09
   0.525E-03 -.305E-03 -.242E+03   0.865E-04 -.537E-04 0.247E+03   -.520E-17 0.226E-16 -.480E+01   0.743E-08 -.454E-08 0.867E-02
   -.117E-02 0.679E-03 0.242E+03   -.865E-04 0.537E-04 -.247E+03   0.824E-17 -.226E-16 0.480E+01   -.225E-07 0.132E-07 -.867E-02
   0.523E-03 0.689E-03 -.242E+03   -.638E-05 0.537E-04 0.247E+03   0.390E-17 -.260E-16 -.480E+01   0.108E-07 0.111E-07 0.867E-02
   -.121E-02 -.292E-03 0.242E+03   0.638E-05 -.537E-04 -.247E+03   -.104E-16 0.260E-16 0.480E+01   -.186E-07 -.664E-08 -.867E-02
 -----------------------------------------------------------------------------------------------
   -.122E-02 0.706E-03 -.112E-04   -.561E-14 0.109E-13 0.284E-13   -.139E-16 0.139E-16 0.888E-15   -.138E-07 0.797E-08 -.691E-09
 
 
 POSITION                                       TOTAL-FORCE (eV/Angst)
 -----------------------------------------------------------------------------------
     -0.00000      1.84193      3.71975         0.000000      0.000000      0.000000
      1.59516      0.92096     11.15925        -0.000000     -0.000000      0.000000
     -0.00000      1.84193     12.72414         0.000000     -0.000000     -0.085398
      1.59516      0.92096      2.15487        -0.000000      0.000000      0.085398
      1.59516      0.92096      5.28464        -0.000000      0.000000     -0.085398
      0.00000      1.84193      9.59437         0.000000     -0.000000      0.085398
 -----------------------------------------------------------------------------------
    total drift:                               -0.001223      0.000706     -0.000011


--------------------------------------------------------------------------------------------------------



  FREE ENERGIE OF THE ION-ELECTRON SYSTEM (eV)
  ---------------------------------------------------
  free  energy   TOTEN  =       -44.93703106 eV

  energy  without entropy=      -44.93703106  energy(sigma->0) =      -44.93703106
 


--------------------------------------------------------------------------------------------------------


    POTLOK:  cpu time    0.0320: real time    0.0321


--------------------------------------------------------------------------------------------------------


     LOOP+:  cpu time   37.4363: real time   37.5544
    4ORBIT:  cpu time    0.0000: real time    0.0000
 BZINTS: Fermi energy:  3.357006; 36.000000 electrons
         Band energy: -67.726654;  BLOECHL correction:  0.000000

 total amount of memory used by VASP MPI-rank0    97304. kBytes
=======================================================================

   base      :      30000. kBytes
   nonl-proj :      37983. kBytes
   fftplans  :       2162. kBytes
   grid      :       3449. kBytes
   one-center:         46. kBytes
   wavefun   :      23664. kBytes
 
  
  
 General timing and accounting informations for this job:
 ========================================================
  
                  Total CPU time used (sec):       38.748
                            User time (sec):       38.550
                          System time (sec):        0.198
                         Elapsed time (sec):       39.326
  
                   Maximum memory used (kb):       85340.
                   Average memory used (kb):           0.
  
                          Minor page faults:        21601
                          Major page faults:          165
                 Voluntary context switches:         2667
