perl: warning: Setting locale failed.
perl: warning: Please check that your locale settings:
	LANGUAGE = (unset),
	LC_ALL = (unset),
	LC_CTYPE = "UTF-8",
	LANG = "en_US.iso885915"
    are supported and installed on your system.
perl: warning: Falling back to the standard locale ("C").
Starting job 28531732 ("jobname") on c15-29 at Fri Nov 8 10:41:16 CET 2019
 running on    4 total cores
 distrk:  each k-point on    4 cores,    1 groups
 distr:  one band on    2 cores,    2 groups
 using from now: INCAR     
 vasp.5.4.4.18Apr17-6-g9f103f2a35 (build Jun 30 2017 11:15:00) complex          
  
 POSCAR found type information on POSCAR  Mo S 
 POSCAR found :  2 types and       6 ions
 scaLAPACK will be used
 LDA part: xc-table for Pade appr. of Perdew
 POSCAR, INCAR and KPOINTS ok, starting setup
 FFT: planning ...
 WAVECAR not read
 WARNING: random wavefunctions but no delay for mixing, default for NELMDL
 entering main loop
       N       E                     dE             d eps       ncg     rms          rms(c)
DAV:   1     0.246480207893E+03    0.24648E+03   -0.17970E+04  3960   0.169E+03
DAV:   2    -0.231241240110E+02   -0.26960E+03   -0.26196E+03  5372   0.304E+02
DAV:   3    -0.461498103767E+02   -0.23026E+02   -0.22882E+02  5354   0.847E+01
DAV:   4    -0.468060708068E+02   -0.65626E+00   -0.65521E+00  5426   0.154E+01
DAV:   5    -0.468245229132E+02   -0.18452E-01   -0.18447E-01  5446   0.257E+00    0.973E+00
RMM:   6    -0.444363800653E+02    0.23881E+01   -0.24376E+01  4437   0.198E+01    0.336E+00
RMM:   7    -0.437006041145E+02    0.73578E+00   -0.19397E+00  4346   0.565E+00    0.178E+00
RMM:   8    -0.436363485938E+02    0.64256E-01   -0.89161E-01  4517   0.336E+00    0.825E-01
RMM:   9    -0.436265132589E+02    0.98353E-02   -0.29041E-01  4666   0.228E+00    0.568E-01
RMM:  10    -0.436104113712E+02    0.16102E-01   -0.63143E-02  4698   0.110E+00    0.691E-02
RMM:  11    -0.436105739071E+02   -0.16254E-03   -0.32788E-03  5101   0.226E-01    0.294E-02
RMM:  12    -0.436107097354E+02   -0.13583E-03   -0.47458E-04  5031   0.109E-01    0.141E-02
RMM:  13    -0.436107258365E+02   -0.16101E-04   -0.23545E-04  5185   0.613E-02    0.180E-02
RMM:  14    -0.436107137875E+02    0.12049E-04   -0.60213E-05  3869   0.354E-02    0.261E-03
RMM:  15    -0.436107143604E+02   -0.57289E-06   -0.11071E-05  3039   0.153E-02
 Error reading item 'IVDW' from file INCAR
   1 F= -.43610714E+02 E0= -.43610714E+02  d E =-.152248E-08

Currently Loaded Modulefiles:
  1) Anaconda3/5.1.0       3) vesta/3.3.8           5) intel/2016.1
  2) gnuplot/5.0.4         4) imagemagick/6.7.9-0   6) vasp/5.4.1.Feb16

Job script resource usage:
       JobID  MaxVMSize     MaxRSS 
------------ ---------- ---------- 
28531732.ba+    499276K      5815K 

Job step resource usage:
       JobID    JobName  AllocCPUS  MaxVMSize     MaxRSS    Elapsed ExitCode 
------------ ---------- ---------- ---------- ---------- ---------- -------- 
28531732        jobname          4                         00:01:21      0:0 
28531732.0    pmi_proxy          1   1700196K    467609K   00:01:19      0:0 

Job 28531732 ("jobname") completed on c15-29 at Fri Nov 8 10:42:35 CET 2019
