perl: warning: Setting locale failed.
perl: warning: Please check that your locale settings:
	LANGUAGE = (unset),
	LC_ALL = (unset),
	LC_CTYPE = "UTF-8",
	LANG = "en_US.iso885915"
    are supported and installed on your system.
perl: warning: Falling back to the standard locale ("C").
Starting job 28533285 ("jobname") on c14-15 at Fri Nov 8 12:19:58 CET 2019
 running on    4 total cores
 distrk:  each k-point on    4 cores,    1 groups
 distr:  one band on    2 cores,    2 groups
 using from now: INCAR     
 vasp.5.4.4.18Apr17-6-g9f103f2a35 (build Jun 30 2017 11:15:00) complex          
  
 POSCAR found type information on POSCAR  Mo S 
 POSCAR found :  2 types and       6 ions
 scaLAPACK will be used
 LDA part: xc-table for Pade appr. of Perdew
 POSCAR, INCAR and KPOINTS ok, starting setup
 FFT: planning ...
 WAVECAR not read
 WARNING: random wavefunctions but no delay for mixing, default for NELMDL
 entering main loop
       N       E                     dE             d eps       ncg     rms          rms(c)
DAV:   1     0.200912599974E+03    0.20091E+03   -0.14717E+04  3960   0.126E+03
DAV:   2    -0.281831937558E+02   -0.22910E+03   -0.22334E+03  5358   0.265E+02
DAV:   3    -0.462587326843E+02   -0.18076E+02   -0.17989E+02  5230   0.748E+01
DAV:   4    -0.468065702275E+02   -0.54784E+00   -0.54709E+00  5480   0.138E+01
DAV:   5    -0.468203387401E+02   -0.13769E-01   -0.13764E-01  5298   0.219E+00    0.973E+00
RMM:   6    -0.444289553962E+02    0.23914E+01   -0.24282E+01  4427   0.195E+01    0.336E+00
RMM:   7    -0.436953527289E+02    0.73360E+00   -0.19440E+00  4366   0.559E+00    0.179E+00
RMM:   8    -0.436307844813E+02    0.64568E-01   -0.88446E-01  4545   0.334E+00    0.821E-01
RMM:   9    -0.436210629312E+02    0.97216E-02   -0.28430E-01  4676   0.222E+00    0.561E-01
RMM:  10    -0.436054596109E+02    0.15603E-01   -0.61851E-02  4711   0.108E+00    0.704E-02
RMM:  11    -0.436056050259E+02   -0.14541E-03   -0.32233E-03  5095   0.225E-01    0.302E-02
RMM:  12    -0.436057402224E+02   -0.13520E-03   -0.48457E-04  5058   0.103E-01    0.147E-02
RMM:  13    -0.436057574117E+02   -0.17189E-04   -0.25755E-04  5217   0.630E-02    0.192E-02
RMM:  14    -0.436057435159E+02    0.13896E-04   -0.66912E-05  3962   0.354E-02    0.290E-03
RMM:  15    -0.436057440487E+02   -0.53275E-06   -0.11441E-05  3039   0.155E-02
   1 F= -.44937031E+02 E0= -.44937031E+02  d E =0.000000E+00

Currently Loaded Modulefiles:
  1) Anaconda3/5.1.0       3) vesta/3.3.8           5) intel/2016.1
  2) gnuplot/5.0.4         4) imagemagick/6.7.9-0   6) vasp/5.4.1.Feb16

Job script resource usage:
       JobID  MaxVMSize     MaxRSS 
------------ ---------- ---------- 
28533285.ba+    499280K      5909K 

Job step resource usage:
       JobID    JobName  AllocCPUS  MaxVMSize     MaxRSS    Elapsed ExitCode 
------------ ---------- ---------- ---------- ---------- ---------- -------- 
28533285        jobname          4                         00:00:42      0:0 
28533285.0    pmi_proxy          1   1497804K    294923K   00:00:40      0:0 

Job 28533285 ("jobname") completed on c14-15 at Fri Nov 8 12:20:38 CET 2019
