<?xml version="1.0" encoding="ISO-8859-1"?>
<modeling>
 <generator>
  <i name="program" type="string">vasp </i>
  <i name="version" type="string">5.4.4.18Apr17-6-g9f103f2a35  </i>
  <i name="subversion" type="string">(build Jun 30 2017 11:15:00) complex            parallel </i>
  <i name="platform" type="string">STALLO_VASP_5.4.4 </i>
  <i name="date" type="string">2019 11 08 </i>
  <i name="time" type="string">12:19:59 </i>
 </generator>
 <incar>
  <i type="string" name="PREC">normal    ! low/normal/accurate</i>
  <i type="string" name="ALGO"> Fast      ! Algorithm for electronic re</i>
  <i type="int" name="ISPIN">     1</i>
  <i type="int" name="NELMIN">     4</i>
  <i name="EDIFF">      0.00001000</i>
  <i type="int" name="NSW">     0</i>
  <i name="ENCUT">    450.00000000</i>
  <i type="logical" name="LREAL"> F  </i>
  <i type="int" name="ISMEAR">    -5</i>
  <i name="SIGMA">      0.20000000</i>
  <i type="logical" name="LWAVE"> F  </i>
  <v type="int" name="KPOINT_BSE">    -1     0     0     0</v>
 </incar>
 <structure name="primitive_cell" >
  <crystal>
   <varray name="basis" >
    <v>       3.19031573       0.00000000       0.00000000 </v>
    <v>      -1.59515786       2.76289447       0.00000000 </v>
    <v>       0.00000000       0.00000000      14.87900430 </v>
   </varray>
   <i name="volume">    131.15106795 </i>
   <varray name="rec_basis" >
    <v>       0.31344860       0.18096963       0.00000000 </v>
    <v>       0.00000000       0.36193927       0.00000000 </v>
    <v>       0.00000000       0.00000000       0.06720880 </v>
   </varray>
  </crystal>
  <varray name="positions" >
   <v>       0.33333300      -0.33333300       0.25000000 </v>
   <v>      -0.33333400       0.33333300       0.35517400 </v>
   <v>      -0.33333300       0.33333300       0.14482600 </v>
   <v>       0.33333300      -0.33333300      -0.14482600 </v>
   <v>       0.33333400      -0.33333300      -0.35517400 </v>
   <v>      -0.33333300       0.33333300      -0.25000000 </v>
  </varray>
 </structure>
 <varray name="primitive_index" >
  <v type="int" >        1 </v>
  <v type="int" >        5 </v>
  <v type="int" >        4 </v>
  <v type="int" >        3 </v>
  <v type="int" >        6 </v>
  <v type="int" >        2 </v>
 </varray>
 <kpoints>
  <generation param="Gamma">
   <v type="int" name="divisions">      16       16        4 </v>
   <v name="usershift">      0.00000000       0.00000000       0.00000000 </v>
   <v name="genvec1">      0.06250000       0.00000000       0.00000000 </v>
   <v name="genvec2">      0.00000000       0.06250000       0.00000000 </v>
   <v name="genvec3">      0.00000000       0.00000000       0.25000000 </v>
   <v name="shift">      0.00000000       0.00000000       0.00000000 </v>
  </generation>
  <varray name="kpointlist" >
   <v>       0.00000000       0.00000000       0.00000000 </v>
   <v>       0.06250000      -0.00000000       0.00000000 </v>
   <v>       0.12500000      -0.00000000       0.00000000 </v>
   <v>       0.18750000      -0.00000000       0.00000000 </v>
   <v>       0.25000000      -0.00000000       0.00000000 </v>
   <v>       0.31250000      -0.00000000       0.00000000 </v>
   <v>       0.37500000      -0.00000000       0.00000000 </v>
   <v>       0.43750000      -0.00000000       0.00000000 </v>
   <v>       0.50000000      -0.00000000       0.00000000 </v>
   <v>       0.06250000       0.06250000       0.00000000 </v>
   <v>       0.12500000       0.06250000       0.00000000 </v>
   <v>       0.18750000       0.06250000       0.00000000 </v>
   <v>       0.25000000       0.06250000       0.00000000 </v>
   <v>       0.31250000       0.06250000       0.00000000 </v>
   <v>       0.37500000       0.06250000       0.00000000 </v>
   <v>       0.43750000       0.06250000       0.00000000 </v>
   <v>       0.12500000       0.12500000       0.00000000 </v>
   <v>       0.18750000       0.12500000       0.00000000 </v>
   <v>       0.25000000       0.12500000       0.00000000 </v>
   <v>       0.31250000       0.12500000       0.00000000 </v>
   <v>       0.37500000       0.12500000       0.00000000 </v>
   <v>       0.43750000       0.12500000       0.00000000 </v>
   <v>       0.18750000       0.18750000       0.00000000 </v>
   <v>       0.25000000       0.18750000       0.00000000 </v>
   <v>       0.31250000       0.18750000       0.00000000 </v>
   <v>       0.37500000       0.18750000       0.00000000 </v>
   <v>       0.25000000       0.25000000       0.00000000 </v>
   <v>       0.31250000       0.25000000       0.00000000 </v>
   <v>       0.37500000       0.25000000       0.00000000 </v>
   <v>       0.31250000       0.31250000       0.00000000 </v>
   <v>       0.00000000       0.00000000       0.25000000 </v>
   <v>       0.06250000      -0.00000000       0.25000000 </v>
   <v>       0.12500000      -0.00000000       0.25000000 </v>
   <v>       0.18750000      -0.00000000       0.25000000 </v>
   <v>       0.25000000      -0.00000000       0.25000000 </v>
   <v>       0.31250000      -0.00000000       0.25000000 </v>
   <v>       0.37500000      -0.00000000       0.25000000 </v>
   <v>       0.43750000      -0.00000000       0.25000000 </v>
   <v>       0.50000000      -0.00000000       0.25000000 </v>
   <v>       0.06250000       0.06250000       0.25000000 </v>
   <v>       0.12500000       0.06250000       0.25000000 </v>
   <v>       0.18750000       0.06250000       0.25000000 </v>
   <v>       0.25000000       0.06250000       0.25000000 </v>
   <v>       0.31250000       0.06250000       0.25000000 </v>
   <v>       0.37500000       0.06250000       0.25000000 </v>
   <v>       0.43750000       0.06250000       0.25000000 </v>
   <v>       0.12500000       0.12500000       0.25000000 </v>
   <v>       0.18750000       0.12500000       0.25000000 </v>
   <v>       0.25000000       0.12500000       0.25000000 </v>
   <v>       0.31250000       0.12500000       0.25000000 </v>
   <v>       0.37500000       0.12500000       0.25000000 </v>
   <v>       0.43750000       0.12500000       0.25000000 </v>
   <v>       0.18750000       0.18750000       0.25000000 </v>
   <v>       0.25000000       0.18750000       0.25000000 </v>
   <v>       0.31250000       0.18750000       0.25000000 </v>
   <v>       0.37500000       0.18750000       0.25000000 </v>
   <v>       0.25000000       0.25000000       0.25000000 </v>
   <v>       0.31250000       0.25000000       0.25000000 </v>
   <v>       0.37500000       0.25000000       0.25000000 </v>
   <v>       0.31250000       0.31250000       0.25000000 </v>
   <v>       0.00000000       0.00000000       0.50000000 </v>
   <v>       0.06250000      -0.00000000       0.50000000 </v>
   <v>       0.12500000      -0.00000000       0.50000000 </v>
   <v>       0.18750000      -0.00000000       0.50000000 </v>
   <v>       0.25000000      -0.00000000       0.50000000 </v>
   <v>       0.31250000      -0.00000000       0.50000000 </v>
   <v>       0.37500000      -0.00000000       0.50000000 </v>
   <v>       0.43750000      -0.00000000       0.50000000 </v>
   <v>       0.50000000      -0.00000000       0.50000000 </v>
   <v>       0.06250000       0.06250000       0.50000000 </v>
   <v>       0.12500000       0.06250000       0.50000000 </v>
   <v>       0.18750000       0.06250000       0.50000000 </v>
   <v>       0.25000000       0.06250000       0.50000000 </v>
   <v>       0.31250000       0.06250000       0.50000000 </v>
   <v>       0.37500000       0.06250000       0.50000000 </v>
   <v>       0.43750000       0.06250000       0.50000000 </v>
   <v>       0.12500000       0.12500000       0.50000000 </v>
   <v>       0.18750000       0.12500000       0.50000000 </v>
   <v>       0.25000000       0.12500000       0.50000000 </v>
   <v>       0.31250000       0.12500000       0.50000000 </v>
   <v>       0.37500000       0.12500000       0.50000000 </v>
   <v>       0.43750000       0.12500000       0.50000000 </v>
   <v>       0.18750000       0.18750000       0.50000000 </v>
   <v>       0.25000000       0.18750000       0.50000000 </v>
   <v>       0.31250000       0.18750000       0.50000000 </v>
   <v>       0.37500000       0.18750000       0.50000000 </v>
   <v>       0.25000000       0.25000000       0.50000000 </v>
   <v>       0.31250000       0.25000000       0.50000000 </v>
   <v>       0.37500000       0.25000000       0.50000000 </v>
   <v>       0.31250000       0.31250000       0.50000000 </v>
  </varray>
  <varray name="weights" >
   <v>       0.00097656 </v>
   <v>       0.00585938 </v>
   <v>       0.00585938 </v>
   <v>       0.00585938 </v>
   <v>       0.00585938 </v>
   <v>       0.00585938 </v>
   <v>       0.00585938 </v>
   <v>       0.00585938 </v>
   <v>       0.00292969 </v>
   <v>       0.00585938 </v>
   <v>       0.01171875 </v>
   <v>       0.01171875 </v>
   <v>       0.01171875 </v>
   <v>       0.01171875 </v>
   <v>       0.01171875 </v>
   <v>       0.01171875 </v>
   <v>       0.00585938 </v>
   <v>       0.01171875 </v>
   <v>       0.01171875 </v>
   <v>       0.01171875 </v>
   <v>       0.01171875 </v>
   <v>       0.00585938 </v>
   <v>       0.00585938 </v>
   <v>       0.01171875 </v>
   <v>       0.01171875 </v>
   <v>       0.01171875 </v>
   <v>       0.00585938 </v>
   <v>       0.01171875 </v>
   <v>       0.00585938 </v>
   <v>       0.00585938 </v>
   <v>       0.00195312 </v>
   <v>       0.01171875 </v>
   <v>       0.01171875 </v>
   <v>       0.01171875 </v>
   <v>       0.01171875 </v>
   <v>       0.01171875 </v>
   <v>       0.01171875 </v>
   <v>       0.01171875 </v>
   <v>       0.00585938 </v>
   <v>       0.01171875 </v>
   <v>       0.02343750 </v>
   <v>       0.02343750 </v>
   <v>       0.02343750 </v>
   <v>       0.02343750 </v>
   <v>       0.02343750 </v>
   <v>       0.02343750 </v>
   <v>       0.01171875 </v>
   <v>       0.02343750 </v>
   <v>       0.02343750 </v>
   <v>       0.02343750 </v>
   <v>       0.02343750 </v>
   <v>       0.01171875 </v>
   <v>       0.01171875 </v>
   <v>       0.02343750 </v>
   <v>       0.02343750 </v>
   <v>       0.02343750 </v>
   <v>       0.01171875 </v>
   <v>       0.02343750 </v>
   <v>       0.01171875 </v>
   <v>       0.01171875 </v>
   <v>       0.00097656 </v>
   <v>       0.00585938 </v>
   <v>       0.00585938 </v>
   <v>       0.00585938 </v>
   <v>       0.00585938 </v>
   <v>       0.00585938 </v>
   <v>       0.00585938 </v>
   <v>       0.00585938 </v>
   <v>       0.00292969 </v>
   <v>       0.00585938 </v>
   <v>       0.01171875 </v>
   <v>       0.01171875 </v>
   <v>       0.01171875 </v>
   <v>       0.01171875 </v>
   <v>       0.01171875 </v>
   <v>       0.01171875 </v>
   <v>       0.00585938 </v>
   <v>       0.01171875 </v>
   <v>       0.01171875 </v>
   <v>       0.01171875 </v>
   <v>       0.01171875 </v>
   <v>       0.00585938 </v>
   <v>       0.00585938 </v>
   <v>       0.01171875 </v>
   <v>       0.01171875 </v>
   <v>       0.01171875 </v>
   <v>       0.00585938 </v>
   <v>       0.01171875 </v>
   <v>       0.00585938 </v>
   <v>       0.00585938 </v>
  </varray>
  <varray name="tetrahedronlist"  type="int" >
   <v type="int" >        8        2        2       10       32 </v>
   <v type="int" >        8        1        2        2       32 </v>
   <v type="int" >        4        1        2       31       32 </v>
   <v type="int" >        4        2       10       32       40 </v>
   <v type="int" >        8        2       32       32       40 </v>
   <v type="int" >        8        2       31       32       32 </v>
   <v type="int" >        8        3       10       11       40 </v>
   <v type="int" >        8        2        3       10       40 </v>
   <v type="int" >        4        2        3       32       40 </v>
   <v type="int" >        4        3       11       40       41 </v>
   <v type="int" >        8        3       33       40       41 </v>
   <v type="int" >        8        3       32       33       40 </v>
   <v type="int" >        8        4       11       12       41 </v>
   <v type="int" >        8        3        4       11       41 </v>
   <v type="int" >        4        3        4       33       41 </v>
   <v type="int" >        4        4       12       41       42 </v>
   <v type="int" >        8        4       34       41       42 </v>
   <v type="int" >        8        4       33       34       41 </v>
   <v type="int" >        8        5       12       13       42 </v>
   <v type="int" >        8        4        5       12       42 </v>
   <v type="int" >        4        4        5       34       42 </v>
   <v type="int" >        4        5       13       42       43 </v>
   <v type="int" >        8        5       35       42       43 </v>
   <v type="int" >        8        5       34       35       42 </v>
   <v type="int" >        8        6       13       14       43 </v>
   <v type="int" >        8        5        6       13       43 </v>
   <v type="int" >        4        5        6       35       43 </v>
   <v type="int" >        4        6       14       43       44 </v>
   <v type="int" >        8        6       36       43       44 </v>
   <v type="int" >        8        6       35       36       43 </v>
   <v type="int" >        8        7       14       15       44 </v>
   <v type="int" >        8        6        7       14       44 </v>
   <v type="int" >        4        6        7       36       44 </v>
   <v type="int" >        4        7       15       44       45 </v>
   <v type="int" >        8        7       37       44       45 </v>
   <v type="int" >        8        7       36       37       44 </v>
   <v type="int" >        8        8       15       16       45 </v>
   <v type="int" >        8        7        8       15       45 </v>
   <v type="int" >        4        7        8       37       45 </v>
   <v type="int" >        4        8       16       45       46 </v>
   <v type="int" >        8        8       38       45       46 </v>
   <v type="int" >        8        8       37       38       45 </v>
   <v type="int" >        8        9       16       16       46 </v>
   <v type="int" >        8        8        9       16       46 </v>
   <v type="int" >        4        8        9       38       46 </v>
   <v type="int" >        4        9       16       46       46 </v>
   <v type="int" >        4        9       39       46       46 </v>
   <v type="int" >        8        9       38       39       46 </v>
   <v type="int" >        8        8       15       16       46 </v>
   <v type="int" >        4        8        9       39       46 </v>
   <v type="int" >        4        8       15       45       46 </v>
   <v type="int" >        8        8       38       39       46 </v>
   <v type="int" >        8        7       14       15       45 </v>
   <v type="int" >        4        7        8       38       45 </v>
   <v type="int" >        4        7       14       44       45 </v>
   <v type="int" >        8        7       37       38       45 </v>
   <v type="int" >        8        6       13       14       44 </v>
   <v type="int" >        4        6        7       37       44 </v>
   <v type="int" >        4        6       13       43       44 </v>
   <v type="int" >        8        6       36       37       44 </v>
   <v type="int" >        8        5       12       13       43 </v>
   <v type="int" >        4        5        6       36       43 </v>
   <v type="int" >        4        5       12       42       43 </v>
   <v type="int" >        8        5       35       36       43 </v>
   <v type="int" >        8        4       11       12       42 </v>
   <v type="int" >        4        4        5       35       42 </v>
   <v type="int" >        4        4       11       41       42 </v>
   <v type="int" >        8        4       34       35       42 </v>
   <v type="int" >        8        3       10       11       41 </v>
   <v type="int" >        4        3        4       34       41 </v>
   <v type="int" >        4        3       10       40       41 </v>
   <v type="int" >        8        3       33       34       41 </v>
   <v type="int" >        4        2        2       10       40 </v>
   <v type="int" >        4        2        3       33       40 </v>
   <v type="int" >        4        2        2       32       40 </v>
   <v type="int" >        8        2       32       33       40 </v>
   <v type="int" >        4        1        2       32       32 </v>
   <v type="int" >        4        1       31       32       32 </v>
   <v type="int" >        8        3       10       11       33 </v>
   <v type="int" >        8        2        3       10       33 </v>
   <v type="int" >        4        2       10       32       33 </v>
   <v type="int" >        4       10       11       33       41 </v>
   <v type="int" >        8       10       33       40       41 </v>
   <v type="int" >        8       10       32       33       40 </v>
   <v type="int" >        8       11       11       17       41 </v>
   <v type="int" >        8       10       11       11       41 </v>
   <v type="int" >        4       10       11       40       41 </v>
   <v type="int" >        4       11       17       41       47 </v>
   <v type="int" >        8       11       41       41       47 </v>
   <v type="int" >        8       11       40       41       41 </v>
   <v type="int" >        8       12       17       18       47 </v>
   <v type="int" >        8       11       12       17       47 </v>
   <v type="int" >        4       11       12       41       47 </v>
   <v type="int" >        4       12       18       47       48 </v>
   <v type="int" >        8       12       42       47       48 </v>
   <v type="int" >        8       12       41       42       47 </v>
   <v type="int" >        8       13       18       19       48 </v>
   <v type="int" >        8       12       13       18       48 </v>
   <v type="int" >        4       12       13       42       48 </v>
   <v type="int" >        4       13       19       48       49 </v>
   <v type="int" >        8       13       43       48       49 </v>
   <v type="int" >        8       13       42       43       48 </v>
   <v type="int" >        8       14       19       20       49 </v>
   <v type="int" >        8       13       14       19       49 </v>
   <v type="int" >        4       13       14       43       49 </v>
   <v type="int" >        4       14       20       49       50 </v>
   <v type="int" >        8       14       44       49       50 </v>
   <v type="int" >        8       14       43       44       49 </v>
   <v type="int" >        8       15       20       21       50 </v>
   <v type="int" >        8       14       15       20       50 </v>
   <v type="int" >        4       14       15       44       50 </v>
   <v type="int" >        4       15       21       50       51 </v>
   <v type="int" >        8       15       45       50       51 </v>
   <v type="int" >        8       15       44       45       50 </v>
   <v type="int" >        8       16       21       22       51 </v>
   <v type="int" >        8       15       16       21       51 </v>
   <v type="int" >        4       15       16       45       51 </v>
   <v type="int" >        4       16       22       51       52 </v>
   <v type="int" >        8       16       46       51       52 </v>
   <v type="int" >        8       16       45       46       51 </v>
   <v type="int" >        8       16       21       22       52 </v>
   <v type="int" >        4       16       16       22       52 </v>
   <v type="int" >        4       16       16       46       52 </v>
   <v type="int" >        4       16       21       51       52 </v>
   <v type="int" >        8       16       46       46       52 </v>
   <v type="int" >        8       15       20       21       51 </v>
   <v type="int" >        4       15       16       46       51 </v>
   <v type="int" >        4       15       20       50       51 </v>
   <v type="int" >        8       15       45       46       51 </v>
   <v type="int" >        8       14       19       20       50 </v>
   <v type="int" >        4       14       15       45       50 </v>
   <v type="int" >        4       14       19       49       50 </v>
   <v type="int" >        8       14       44       45       50 </v>
   <v type="int" >        8       13       18       19       49 </v>
   <v type="int" >        4       13       14       44       49 </v>
   <v type="int" >        4       13       18       48       49 </v>
   <v type="int" >        8       13       43       44       49 </v>
   <v type="int" >        8       12       17       18       48 </v>
   <v type="int" >        4       12       13       43       48 </v>
   <v type="int" >        4       12       17       47       48 </v>
   <v type="int" >        8       12       42       43       48 </v>
   <v type="int" >        4       11       11       17       47 </v>
   <v type="int" >        4       11       12       42       47 </v>
   <v type="int" >        4       11       11       41       47 </v>
   <v type="int" >        8       11       41       42       47 </v>
   <v type="int" >        4       10       11       41       41 </v>
   <v type="int" >        4        3       10       33       41 </v>
   <v type="int" >        4       10       40       41       41 </v>
   <v type="int" >        4        2       10       33       40 </v>
   <v type="int" >        8        4       11       12       34 </v>
   <v type="int" >        8        3        4       11       34 </v>
   <v type="int" >        4        3       11       33       34 </v>
   <v type="int" >        4       11       12       34       42 </v>
   <v type="int" >        8       11       34       41       42 </v>
   <v type="int" >        8       11       33       34       41 </v>
   <v type="int" >        8       12       17       18       42 </v>
   <v type="int" >        8       11       12       17       42 </v>
   <v type="int" >        4       11       17       41       42 </v>
   <v type="int" >        4       17       18       42       48 </v>
   <v type="int" >        8       17       42       47       48 </v>
   <v type="int" >        8       17       41       42       47 </v>
   <v type="int" >        8       18       18       23       48 </v>
   <v type="int" >        8       17       18       18       48 </v>
   <v type="int" >        4       17       18       47       48 </v>
   <v type="int" >        4       18       23       48       53 </v>
   <v type="int" >        8       18       48       48       53 </v>
   <v type="int" >        8       18       47       48       48 </v>
   <v type="int" >        8       19       23       24       53 </v>
   <v type="int" >        8       18       19       23       53 </v>
   <v type="int" >        4       18       19       48       53 </v>
   <v type="int" >        4       19       24       53       54 </v>
   <v type="int" >        8       19       49       53       54 </v>
   <v type="int" >        8       19       48       49       53 </v>
   <v type="int" >        8       20       24       25       54 </v>
   <v type="int" >        8       19       20       24       54 </v>
   <v type="int" >        4       19       20       49       54 </v>
   <v type="int" >        4       20       25       54       55 </v>
   <v type="int" >        8       20       50       54       55 </v>
   <v type="int" >        8       20       49       50       54 </v>
   <v type="int" >        8       21       25       26       55 </v>
   <v type="int" >        8       20       21       25       55 </v>
   <v type="int" >        4       20       21       50       55 </v>
   <v type="int" >        4       21       26       55       56 </v>
   <v type="int" >        8       21       51       55       56 </v>
   <v type="int" >        8       21       50       51       55 </v>
   <v type="int" >        8       22       26       26       56 </v>
   <v type="int" >        8       21       22       26       56 </v>
   <v type="int" >        4       21       22       51       56 </v>
   <v type="int" >        4       22       26       56       56 </v>
   <v type="int" >        4       22       52       56       56 </v>
   <v type="int" >        8       22       51       52       56 </v>
   <v type="int" >        8       21       25       26       56 </v>
   <v type="int" >        4       21       22       52       56 </v>
   <v type="int" >        4       21       25       55       56 </v>
   <v type="int" >        8       21       51       52       56 </v>
   <v type="int" >        8       20       24       25       55 </v>
   <v type="int" >        4       20       21       51       55 </v>
   <v type="int" >        4       20       24       54       55 </v>
   <v type="int" >        8       20       50       51       55 </v>
   <v type="int" >        8       19       23       24       54 </v>
   <v type="int" >        4       19       20       50       54 </v>
   <v type="int" >        4       19       23       53       54 </v>
   <v type="int" >        8       19       49       50       54 </v>
   <v type="int" >        4       18       18       23       53 </v>
   <v type="int" >        4       18       19       49       53 </v>
   <v type="int" >        4       18       18       48       53 </v>
   <v type="int" >        8       18       48       49       53 </v>
   <v type="int" >        4       17       18       48       48 </v>
   <v type="int" >        4       12       17       42       48 </v>
   <v type="int" >        4       17       47       48       48 </v>
   <v type="int" >        4       11       17       42       47 </v>
   <v type="int" >        4        4       11       34       42 </v>
   <v type="int" >        4        3       11       34       41 </v>
   <v type="int" >        8        5       12       13       35 </v>
   <v type="int" >        8        4        5       12       35 </v>
   <v type="int" >        4        4       12       34       35 </v>
   <v type="int" >        4       12       13       35       43 </v>
   <v type="int" >        8       12       35       42       43 </v>
   <v type="int" >        8       12       34       35       42 </v>
   <v type="int" >        8       13       18       19       43 </v>
   <v type="int" >        8       12       13       18       43 </v>
   <v type="int" >        4       12       18       42       43 </v>
   <v type="int" >        4       18       19       43       49 </v>
   <v type="int" >        8       18       43       48       49 </v>
   <v type="int" >        8       18       42       43       48 </v>
   <v type="int" >        8       19       23       24       49 </v>
   <v type="int" >        8       18       19       23       49 </v>
   <v type="int" >        4       18       23       48       49 </v>
   <v type="int" >        4       23       24       49       54 </v>
   <v type="int" >        8       23       49       53       54 </v>
   <v type="int" >        8       23       48       49       53 </v>
   <v type="int" >        8       24       24       27       54 </v>
   <v type="int" >        8       23       24       24       54 </v>
   <v type="int" >        4       23       24       53       54 </v>
   <v type="int" >        4       24       27       54       57 </v>
   <v type="int" >        8       24       54       54       57 </v>
   <v type="int" >        8       24       53       54       54 </v>
   <v type="int" >        8       25       27       28       57 </v>
   <v type="int" >        8       24       25       27       57 </v>
   <v type="int" >        4       24       25       54       57 </v>
   <v type="int" >        4       25       28       57       58 </v>
   <v type="int" >        8       25       55       57       58 </v>
   <v type="int" >        8       25       54       55       57 </v>
   <v type="int" >        8       26       28       29       58 </v>
   <v type="int" >        8       25       26       28       58 </v>
   <v type="int" >        4       25       26       55       58 </v>
   <v type="int" >        4       26       29       58       59 </v>
   <v type="int" >        8       26       56       58       59 </v>
   <v type="int" >        8       26       55       56       58 </v>
   <v type="int" >        8       26       28       29       59 </v>
   <v type="int" >        4       26       26       29       59 </v>
   <v type="int" >        4       26       26       56       59 </v>
   <v type="int" >        4       26       28       58       59 </v>
   <v type="int" >        8       26       56       56       59 </v>
   <v type="int" >        8       25       27       28       58 </v>
   <v type="int" >        4       25       26       56       58 </v>
   <v type="int" >        4       25       27       57       58 </v>
   <v type="int" >        8       25       55       56       58 </v>
   <v type="int" >        4       24       24       27       57 </v>
   <v type="int" >        4       24       25       55       57 </v>
   <v type="int" >        4       24       24       54       57 </v>
   <v type="int" >        8       24       54       55       57 </v>
   <v type="int" >        4       23       24       54       54 </v>
   <v type="int" >        4       19       23       49       54 </v>
   <v type="int" >        4       23       53       54       54 </v>
   <v type="int" >        4       18       23       49       53 </v>
   <v type="int" >        4       13       18       43       49 </v>
   <v type="int" >        4       12       18       43       48 </v>
   <v type="int" >        4        5       12       35       43 </v>
   <v type="int" >        4        4       12       35       42 </v>
   <v type="int" >        8        6       13       14       36 </v>
   <v type="int" >        8        5        6       13       36 </v>
   <v type="int" >        4        5       13       35       36 </v>
   <v type="int" >        4       13       14       36       44 </v>
   <v type="int" >        8       13       36       43       44 </v>
   <v type="int" >        8       13       35       36       43 </v>
   <v type="int" >        8       14       19       20       44 </v>
   <v type="int" >        8       13       14       19       44 </v>
   <v type="int" >        4       13       19       43       44 </v>
   <v type="int" >        4       19       20       44       50 </v>
   <v type="int" >        8       19       44       49       50 </v>
   <v type="int" >        8       19       43       44       49 </v>
   <v type="int" >        8       20       24       25       50 </v>
   <v type="int" >        8       19       20       24       50 </v>
   <v type="int" >        4       19       24       49       50 </v>
   <v type="int" >        4       24       25       50       55 </v>
   <v type="int" >        8       24       50       54       55 </v>
   <v type="int" >        8       24       49       50       54 </v>
   <v type="int" >        8       25       27       28       55 </v>
   <v type="int" >        8       24       25       27       55 </v>
   <v type="int" >        4       24       27       54       55 </v>
   <v type="int" >        4       27       28       55       58 </v>
   <v type="int" >        8       27       55       57       58 </v>
   <v type="int" >        8       27       54       55       57 </v>
   <v type="int" >        8       28       28       30       58 </v>
   <v type="int" >        8       27       28       28       58 </v>
   <v type="int" >        4       27       28       57       58 </v>
   <v type="int" >        4       28       30       58       60 </v>
   <v type="int" >        8       28       58       58       60 </v>
   <v type="int" >        8       28       57       58       58 </v>
   <v type="int" >        8       29       30       30       60 </v>
   <v type="int" >        8       28       29       30       60 </v>
   <v type="int" >        4       28       29       58       60 </v>
   <v type="int" >        4       29       30       60       60 </v>
   <v type="int" >        4       29       59       60       60 </v>
   <v type="int" >        8       29       58       59       60 </v>
   <v type="int" >        4       28       28       30       60 </v>
   <v type="int" >        4       28       29       59       60 </v>
   <v type="int" >        4       28       28       58       60 </v>
   <v type="int" >        8       28       58       59       60 </v>
   <v type="int" >        4       27       28       58       58 </v>
   <v type="int" >        4       25       27       55       58 </v>
   <v type="int" >        4       27       57       58       58 </v>
   <v type="int" >        4       24       27       55       57 </v>
   <v type="int" >        4       20       24       50       55 </v>
   <v type="int" >        4       19       24       50       54 </v>
   <v type="int" >        4       14       19       44       50 </v>
   <v type="int" >        4       13       19       44       49 </v>
   <v type="int" >        4        6       13       36       44 </v>
   <v type="int" >        4        5       13       36       43 </v>
   <v type="int" >        8        7       14       15       37 </v>
   <v type="int" >        8        6        7       14       37 </v>
   <v type="int" >        4        6       14       36       37 </v>
   <v type="int" >        4       14       15       37       45 </v>
   <v type="int" >        8       14       37       44       45 </v>
   <v type="int" >        8       14       36       37       44 </v>
   <v type="int" >        8       15       20       21       45 </v>
   <v type="int" >        8       14       15       20       45 </v>
   <v type="int" >        4       14       20       44       45 </v>
   <v type="int" >        4       20       21       45       51 </v>
   <v type="int" >        8       20       45       50       51 </v>
   <v type="int" >        8       20       44       45       50 </v>
   <v type="int" >        8       21       25       26       51 </v>
   <v type="int" >        8       20       21       25       51 </v>
   <v type="int" >        4       20       25       50       51 </v>
   <v type="int" >        4       25       26       51       56 </v>
   <v type="int" >        8       25       51       55       56 </v>
   <v type="int" >        8       25       50       51       55 </v>
   <v type="int" >        8       26       28       29       56 </v>
   <v type="int" >        8       25       26       28       56 </v>
   <v type="int" >        4       25       28       55       56 </v>
   <v type="int" >        4       28       29       56       59 </v>
   <v type="int" >        8       28       56       58       59 </v>
   <v type="int" >        8       28       55       56       58 </v>
   <v type="int" >        4       29       30       30       59 </v>
   <v type="int" >        8       28       29       30       59 </v>
   <v type="int" >        4       28       30       58       59 </v>
   <v type="int" >        4       30       30       59       60 </v>
   <v type="int" >        8       30       59       60       60 </v>
   <v type="int" >        8       30       58       59       60 </v>
   <v type="int" >        4       30       30       30       60 </v>
   <v type="int" >        4       30       30       60       60 </v>
   <v type="int" >        4       29       30       59       60 </v>
   <v type="int" >        4       30       60       60       60 </v>
   <v type="int" >        4       28       30       59       60 </v>
   <v type="int" >        4       26       28       56       59 </v>
   <v type="int" >        4       25       28       56       58 </v>
   <v type="int" >        4       21       25       51       56 </v>
   <v type="int" >        4       20       25       51       55 </v>
   <v type="int" >        4       15       20       45       51 </v>
   <v type="int" >        4       14       20       45       50 </v>
   <v type="int" >        4        7       14       37       45 </v>
   <v type="int" >        4        6       14       37       44 </v>
   <v type="int" >        8        8       15       16       38 </v>
   <v type="int" >        8        7        8       15       38 </v>
   <v type="int" >        4        7       15       37       38 </v>
   <v type="int" >        4       15       16       38       46 </v>
   <v type="int" >        8       15       38       45       46 </v>
   <v type="int" >        8       15       37       38       45 </v>
   <v type="int" >        8       16       21       22       46 </v>
   <v type="int" >        8       15       16       21       46 </v>
   <v type="int" >        4       15       21       45       46 </v>
   <v type="int" >        4       21       22       46       52 </v>
   <v type="int" >        8       21       46       51       52 </v>
   <v type="int" >        8       21       45       46       51 </v>
   <v type="int" >        4       22       26       26       52 </v>
   <v type="int" >        8       21       22       26       52 </v>
   <v type="int" >        4       21       26       51       52 </v>
   <v type="int" >        4       26       26       52       56 </v>
   <v type="int" >        8       26       52       56       56 </v>
   <v type="int" >        8       26       51       52       56 </v>
   <v type="int" >        8       26       26       29       56 </v>
   <v type="int" >        4       26       29       56       56 </v>
   <v type="int" >        4       28       29       56       58 </v>
   <v type="int" >        8       29       56       58       59 </v>
   <v type="int" >        4       29       56       56       59 </v>
   <v type="int" >        8       28       29       30       58 </v>
   <v type="int" >        4       29       30       58       59 </v>
   <v type="int" >        4       28       30       58       58 </v>
   <v type="int" >        4       30       58       58       60 </v>
   <v type="int" >        4       29       30       58       60 </v>
   <v type="int" >        4       26       29       56       58 </v>
   <v type="int" >        4       26       29       56       59 </v>
   <v type="int" >        4       22       26       52       56 </v>
   <v type="int" >        4       21       26       52       56 </v>
   <v type="int" >        4       16       21       46       52 </v>
   <v type="int" >        4       15       21       46       51 </v>
   <v type="int" >        4        8       15       38       46 </v>
   <v type="int" >        4        7       15       38       45 </v>
   <v type="int" >        4        9       16       16       39 </v>
   <v type="int" >        8        8        9       16       39 </v>
   <v type="int" >        4        8       16       38       39 </v>
   <v type="int" >        4       16       16       39       46 </v>
   <v type="int" >        8       16       39       46       46 </v>
   <v type="int" >        8       16       38       39       46 </v>
   <v type="int" >        8       16       16       22       46 </v>
   <v type="int" >        4       16       22       46       46 </v>
   <v type="int" >        4       21       22       46       51 </v>
   <v type="int" >        8       22       46       51       52 </v>
   <v type="int" >        4       22       46       46       52 </v>
   <v type="int" >        8       21       22       26       51 </v>
   <v type="int" >        4       22       26       51       52 </v>
   <v type="int" >        4       25       26       51       55 </v>
   <v type="int" >        8       26       51       55       56 </v>
   <v type="int" >        8       25       26       28       55 </v>
   <v type="int" >        4       26       28       55       56 </v>
   <v type="int" >        4       27       28       55       57 </v>
   <v type="int" >        8       28       55       57       58 </v>
   <v type="int" >        4       27       28       28       57 </v>
   <v type="int" >        4       28       28       57       58 </v>
   <v type="int" >        4       25       28       55       57 </v>
   <v type="int" >        4       26       28       55       58 </v>
   <v type="int" >        4       21       26       51       55 </v>
   <v type="int" >        4       22       26       51       56 </v>
   <v type="int" >        4       16       22       46       51 </v>
   <v type="int" >        4       16       22       46       52 </v>
   <v type="int" >        4        9       16       39       46 </v>
   <v type="int" >        4        8       16       39       46 </v>
   <v type="int" >        8        8        9       16       38 </v>
   <v type="int" >        4        9       16       38       39 </v>
   <v type="int" >        4       15       16       38       45 </v>
   <v type="int" >        8       16       38       45       46 </v>
   <v type="int" >        8       15       16       21       45 </v>
   <v type="int" >        4       16       21       45       46 </v>
   <v type="int" >        4       20       21       45       50 </v>
   <v type="int" >        8       21       45       50       51 </v>
   <v type="int" >        8       20       21       25       50 </v>
   <v type="int" >        4       21       25       50       51 </v>
   <v type="int" >        4       24       25       50       54 </v>
   <v type="int" >        8       25       50       54       55 </v>
   <v type="int" >        8       24       25       27       54 </v>
   <v type="int" >        4       25       27       54       55 </v>
   <v type="int" >        4       24       27       54       54 </v>
   <v type="int" >        4       27       54       54       57 </v>
   <v type="int" >        4       25       27       54       57 </v>
   <v type="int" >        4       20       25       50       54 </v>
   <v type="int" >        4       21       25       50       55 </v>
   <v type="int" >        4       15       21       45       50 </v>
   <v type="int" >        4       16       21       45       51 </v>
   <v type="int" >        4        8       16       38       45 </v>
   <v type="int" >        4        9       16       38       46 </v>
   <v type="int" >        8        7        8       15       37 </v>
   <v type="int" >        4        8       15       37       38 </v>
   <v type="int" >        4       14       15       37       44 </v>
   <v type="int" >        8       15       37       44       45 </v>
   <v type="int" >        8       14       15       20       44 </v>
   <v type="int" >        4       15       20       44       45 </v>
   <v type="int" >        4       19       20       44       49 </v>
   <v type="int" >        8       20       44       49       50 </v>
   <v type="int" >        8       19       20       24       49 </v>
   <v type="int" >        4       20       24       49       50 </v>
   <v type="int" >        4       23       24       49       53 </v>
   <v type="int" >        8       24       49       53       54 </v>
   <v type="int" >        4       23       24       24       53 </v>
   <v type="int" >        4       24       24       53       54 </v>
   <v type="int" >        4       19       24       49       53 </v>
   <v type="int" >        4       20       24       49       54 </v>
   <v type="int" >        4       14       20       44       49 </v>
   <v type="int" >        4       15       20       44       50 </v>
   <v type="int" >        4        7       15       37       44 </v>
   <v type="int" >        4        8       15       37       45 </v>
   <v type="int" >        8        6        7       14       36 </v>
   <v type="int" >        4        7       14       36       37 </v>
   <v type="int" >        4       13       14       36       43 </v>
   <v type="int" >        8       14       36       43       44 </v>
   <v type="int" >        8       13       14       19       43 </v>
   <v type="int" >        4       14       19       43       44 </v>
   <v type="int" >        4       18       19       43       48 </v>
   <v type="int" >        8       19       43       48       49 </v>
   <v type="int" >        8       18       19       23       48 </v>
   <v type="int" >        4       19       23       48       49 </v>
   <v type="int" >        4       18       23       48       48 </v>
   <v type="int" >        4       23       48       48       53 </v>
   <v type="int" >        4       19       23       48       53 </v>
   <v type="int" >        4       13       19       43       48 </v>
   <v type="int" >        4       14       19       43       49 </v>
   <v type="int" >        4        6       14       36       43 </v>
   <v type="int" >        4        7       14       36       44 </v>
   <v type="int" >        8        5        6       13       35 </v>
   <v type="int" >        4        6       13       35       36 </v>
   <v type="int" >        4       12       13       35       42 </v>
   <v type="int" >        8       13       35       42       43 </v>
   <v type="int" >        8       12       13       18       42 </v>
   <v type="int" >        4       13       18       42       43 </v>
   <v type="int" >        4       17       18       42       47 </v>
   <v type="int" >        8       18       42       47       48 </v>
   <v type="int" >        4       17       18       18       47 </v>
   <v type="int" >        4       18       18       47       48 </v>
   <v type="int" >        4       12       18       42       47 </v>
   <v type="int" >        4       13       18       42       48 </v>
   <v type="int" >        4        5       13       35       42 </v>
   <v type="int" >        4        6       13       35       43 </v>
   <v type="int" >        8        4        5       12       34 </v>
   <v type="int" >        4        5       12       34       35 </v>
   <v type="int" >        4       11       12       34       41 </v>
   <v type="int" >        8       12       34       41       42 </v>
   <v type="int" >        8       11       12       17       41 </v>
   <v type="int" >        4       12       17       41       42 </v>
   <v type="int" >        4       11       17       41       41 </v>
   <v type="int" >        4       17       41       41       47 </v>
   <v type="int" >        4       12       17       41       47 </v>
   <v type="int" >        4        4       12       34       41 </v>
   <v type="int" >        4        5       12       34       42 </v>
   <v type="int" >        8        3        4       11       33 </v>
   <v type="int" >        4        4       11       33       34 </v>
   <v type="int" >        4       10       11       33       40 </v>
   <v type="int" >        8       11       33       40       41 </v>
   <v type="int" >        4       10       11       11       40 </v>
   <v type="int" >        4       11       11       40       41 </v>
   <v type="int" >        4        3       11       33       40 </v>
   <v type="int" >        4        4       11       33       41 </v>
   <v type="int" >        8        2        3       10       32 </v>
   <v type="int" >        4        3       10       32       33 </v>
   <v type="int" >        4        2       10       32       32 </v>
   <v type="int" >        4       10       32       32       40 </v>
   <v type="int" >        4        3       10       32       40 </v>
   <v type="int" >        4        1        2        2       31 </v>
   <v type="int" >        4        2        2       31       32 </v>
   <v type="int" >        8       32       32       40       62 </v>
   <v type="int" >        8       31       32       32       62 </v>
   <v type="int" >        4       31       32       61       62 </v>
   <v type="int" >        4       32       40       62       70 </v>
   <v type="int" >        8       32       62       62       70 </v>
   <v type="int" >        8       32       61       62       62 </v>
   <v type="int" >        8       33       40       41       70 </v>
   <v type="int" >        8       32       33       40       70 </v>
   <v type="int" >        4       32       33       62       70 </v>
   <v type="int" >        4       33       41       70       71 </v>
   <v type="int" >        8       33       63       70       71 </v>
   <v type="int" >        8       33       62       63       70 </v>
   <v type="int" >        8       34       41       42       71 </v>
   <v type="int" >        8       33       34       41       71 </v>
   <v type="int" >        4       33       34       63       71 </v>
   <v type="int" >        4       34       42       71       72 </v>
   <v type="int" >        8       34       64       71       72 </v>
   <v type="int" >        8       34       63       64       71 </v>
   <v type="int" >        8       35       42       43       72 </v>
   <v type="int" >        8       34       35       42       72 </v>
   <v type="int" >        4       34       35       64       72 </v>
   <v type="int" >        4       35       43       72       73 </v>
   <v type="int" >        8       35       65       72       73 </v>
   <v type="int" >        8       35       64       65       72 </v>
   <v type="int" >        8       36       43       44       73 </v>
   <v type="int" >        8       35       36       43       73 </v>
   <v type="int" >        4       35       36       65       73 </v>
   <v type="int" >        4       36       44       73       74 </v>
   <v type="int" >        8       36       66       73       74 </v>
   <v type="int" >        8       36       65       66       73 </v>
   <v type="int" >        8       37       44       45       74 </v>
   <v type="int" >        8       36       37       44       74 </v>
   <v type="int" >        4       36       37       66       74 </v>
   <v type="int" >        4       37       45       74       75 </v>
   <v type="int" >        8       37       67       74       75 </v>
   <v type="int" >        8       37       66       67       74 </v>
   <v type="int" >        8       38       45       46       75 </v>
   <v type="int" >        8       37       38       45       75 </v>
   <v type="int" >        4       37       38       67       75 </v>
   <v type="int" >        4       38       46       75       76 </v>
   <v type="int" >        8       38       68       75       76 </v>
   <v type="int" >        8       38       67       68       75 </v>
   <v type="int" >        8       39       46       46       76 </v>
   <v type="int" >        8       38       39       46       76 </v>
   <v type="int" >        4       38       39       68       76 </v>
   <v type="int" >        4       39       46       76       76 </v>
   <v type="int" >        4       39       69       76       76 </v>
   <v type="int" >        8       39       68       69       76 </v>
   <v type="int" >        8       38       45       46       76 </v>
   <v type="int" >        4       38       39       69       76 </v>
   <v type="int" >        4       38       45       75       76 </v>
   <v type="int" >        8       38       68       69       76 </v>
   <v type="int" >        8       37       44       45       75 </v>
   <v type="int" >        4       37       38       68       75 </v>
   <v type="int" >        4       37       44       74       75 </v>
   <v type="int" >        8       37       67       68       75 </v>
   <v type="int" >        8       36       43       44       74 </v>
   <v type="int" >        4       36       37       67       74 </v>
   <v type="int" >        4       36       43       73       74 </v>
   <v type="int" >        8       36       66       67       74 </v>
   <v type="int" >        8       35       42       43       73 </v>
   <v type="int" >        4       35       36       66       73 </v>
   <v type="int" >        4       35       42       72       73 </v>
   <v type="int" >        8       35       65       66       73 </v>
   <v type="int" >        8       34       41       42       72 </v>
   <v type="int" >        4       34       35       65       72 </v>
   <v type="int" >        4       34       41       71       72 </v>
   <v type="int" >        8       34       64       65       72 </v>
   <v type="int" >        8       33       40       41       71 </v>
   <v type="int" >        4       33       34       64       71 </v>
   <v type="int" >        4       33       40       70       71 </v>
   <v type="int" >        8       33       63       64       71 </v>
   <v type="int" >        4       32       32       40       70 </v>
   <v type="int" >        4       32       33       63       70 </v>
   <v type="int" >        4       32       32       62       70 </v>
   <v type="int" >        8       32       62       63       70 </v>
   <v type="int" >        4       31       32       62       62 </v>
   <v type="int" >        4       31       61       62       62 </v>
   <v type="int" >        8       33       40       41       63 </v>
   <v type="int" >        8       32       33       40       63 </v>
   <v type="int" >        4       32       40       62       63 </v>
   <v type="int" >        4       40       41       63       71 </v>
   <v type="int" >        8       40       63       70       71 </v>
   <v type="int" >        8       40       62       63       70 </v>
   <v type="int" >        8       41       41       47       71 </v>
   <v type="int" >        8       40       41       41       71 </v>
   <v type="int" >        4       40       41       70       71 </v>
   <v type="int" >        4       41       47       71       77 </v>
   <v type="int" >        8       41       71       71       77 </v>
   <v type="int" >        8       41       70       71       71 </v>
   <v type="int" >        8       42       47       48       77 </v>
   <v type="int" >        8       41       42       47       77 </v>
   <v type="int" >        4       41       42       71       77 </v>
   <v type="int" >        4       42       48       77       78 </v>
   <v type="int" >        8       42       72       77       78 </v>
   <v type="int" >        8       42       71       72       77 </v>
   <v type="int" >        8       43       48       49       78 </v>
   <v type="int" >        8       42       43       48       78 </v>
   <v type="int" >        4       42       43       72       78 </v>
   <v type="int" >        4       43       49       78       79 </v>
   <v type="int" >        8       43       73       78       79 </v>
   <v type="int" >        8       43       72       73       78 </v>
   <v type="int" >        8       44       49       50       79 </v>
   <v type="int" >        8       43       44       49       79 </v>
   <v type="int" >        4       43       44       73       79 </v>
   <v type="int" >        4       44       50       79       80 </v>
   <v type="int" >        8       44       74       79       80 </v>
   <v type="int" >        8       44       73       74       79 </v>
   <v type="int" >        8       45       50       51       80 </v>
   <v type="int" >        8       44       45       50       80 </v>
   <v type="int" >        4       44       45       74       80 </v>
   <v type="int" >        4       45       51       80       81 </v>
   <v type="int" >        8       45       75       80       81 </v>
   <v type="int" >        8       45       74       75       80 </v>
   <v type="int" >        8       46       51       52       81 </v>
   <v type="int" >        8       45       46       51       81 </v>
   <v type="int" >        4       45       46       75       81 </v>
   <v type="int" >        4       46       52       81       82 </v>
   <v type="int" >        8       46       76       81       82 </v>
   <v type="int" >        8       46       75       76       81 </v>
   <v type="int" >        8       46       51       52       82 </v>
   <v type="int" >        4       46       46       52       82 </v>
   <v type="int" >        4       46       46       76       82 </v>
   <v type="int" >        4       46       51       81       82 </v>
   <v type="int" >        8       46       76       76       82 </v>
   <v type="int" >        8       45       50       51       81 </v>
   <v type="int" >        4       45       46       76       81 </v>
   <v type="int" >        4       45       50       80       81 </v>
   <v type="int" >        8       45       75       76       81 </v>
   <v type="int" >        8       44       49       50       80 </v>
   <v type="int" >        4       44       45       75       80 </v>
   <v type="int" >        4       44       49       79       80 </v>
   <v type="int" >        8       44       74       75       80 </v>
   <v type="int" >        8       43       48       49       79 </v>
   <v type="int" >        4       43       44       74       79 </v>
   <v type="int" >        4       43       48       78       79 </v>
   <v type="int" >        8       43       73       74       79 </v>
   <v type="int" >        8       42       47       48       78 </v>
   <v type="int" >        4       42       43       73       78 </v>
   <v type="int" >        4       42       47       77       78 </v>
   <v type="int" >        8       42       72       73       78 </v>
   <v type="int" >        4       41       41       47       77 </v>
   <v type="int" >        4       41       42       72       77 </v>
   <v type="int" >        4       41       41       71       77 </v>
   <v type="int" >        8       41       71       72       77 </v>
   <v type="int" >        4       40       41       71       71 </v>
   <v type="int" >        4       33       40       63       71 </v>
   <v type="int" >        4       40       70       71       71 </v>
   <v type="int" >        4       32       40       63       70 </v>
   <v type="int" >        8       34       41       42       64 </v>
   <v type="int" >        8       33       34       41       64 </v>
   <v type="int" >        4       33       41       63       64 </v>
   <v type="int" >        4       41       42       64       72 </v>
   <v type="int" >        8       41       64       71       72 </v>
   <v type="int" >        8       41       63       64       71 </v>
   <v type="int" >        8       42       47       48       72 </v>
   <v type="int" >        8       41       42       47       72 </v>
   <v type="int" >        4       41       47       71       72 </v>
   <v type="int" >        4       47       48       72       78 </v>
   <v type="int" >        8       47       72       77       78 </v>
   <v type="int" >        8       47       71       72       77 </v>
   <v type="int" >        8       48       48       53       78 </v>
   <v type="int" >        8       47       48       48       78 </v>
   <v type="int" >        4       47       48       77       78 </v>
   <v type="int" >        4       48       53       78       83 </v>
   <v type="int" >        8       48       78       78       83 </v>
   <v type="int" >        8       48       77       78       78 </v>
   <v type="int" >        8       49       53       54       83 </v>
   <v type="int" >        8       48       49       53       83 </v>
   <v type="int" >        4       48       49       78       83 </v>
   <v type="int" >        4       49       54       83       84 </v>
   <v type="int" >        8       49       79       83       84 </v>
   <v type="int" >        8       49       78       79       83 </v>
   <v type="int" >        8       50       54       55       84 </v>
   <v type="int" >        8       49       50       54       84 </v>
   <v type="int" >        4       49       50       79       84 </v>
   <v type="int" >        4       50       55       84       85 </v>
   <v type="int" >        8       50       80       84       85 </v>
   <v type="int" >        8       50       79       80       84 </v>
   <v type="int" >        8       51       55       56       85 </v>
   <v type="int" >        8       50       51       55       85 </v>
   <v type="int" >        4       50       51       80       85 </v>
   <v type="int" >        4       51       56       85       86 </v>
   <v type="int" >        8       51       81       85       86 </v>
   <v type="int" >        8       51       80       81       85 </v>
   <v type="int" >        8       52       56       56       86 </v>
   <v type="int" >        8       51       52       56       86 </v>
   <v type="int" >        4       51       52       81       86 </v>
   <v type="int" >        4       52       56       86       86 </v>
   <v type="int" >        4       52       82       86       86 </v>
   <v type="int" >        8       52       81       82       86 </v>
   <v type="int" >        8       51       55       56       86 </v>
   <v type="int" >        4       51       52       82       86 </v>
   <v type="int" >        4       51       55       85       86 </v>
   <v type="int" >        8       51       81       82       86 </v>
   <v type="int" >        8       50       54       55       85 </v>
   <v type="int" >        4       50       51       81       85 </v>
   <v type="int" >        4       50       54       84       85 </v>
   <v type="int" >        8       50       80       81       85 </v>
   <v type="int" >        8       49       53       54       84 </v>
   <v type="int" >        4       49       50       80       84 </v>
   <v type="int" >        4       49       53       83       84 </v>
   <v type="int" >        8       49       79       80       84 </v>
   <v type="int" >        4       48       48       53       83 </v>
   <v type="int" >        4       48       49       79       83 </v>
   <v type="int" >        4       48       48       78       83 </v>
   <v type="int" >        8       48       78       79       83 </v>
   <v type="int" >        4       47       48       78       78 </v>
   <v type="int" >        4       42       47       72       78 </v>
   <v type="int" >        4       47       77       78       78 </v>
   <v type="int" >        4       41       47       72       77 </v>
   <v type="int" >        4       34       41       64       72 </v>
   <v type="int" >        4       33       41       64       71 </v>
   <v type="int" >        8       35       42       43       65 </v>
   <v type="int" >        8       34       35       42       65 </v>
   <v type="int" >        4       34       42       64       65 </v>
   <v type="int" >        4       42       43       65       73 </v>
   <v type="int" >        8       42       65       72       73 </v>
   <v type="int" >        8       42       64       65       72 </v>
   <v type="int" >        8       43       48       49       73 </v>
   <v type="int" >        8       42       43       48       73 </v>
   <v type="int" >        4       42       48       72       73 </v>
   <v type="int" >        4       48       49       73       79 </v>
   <v type="int" >        8       48       73       78       79 </v>
   <v type="int" >        8       48       72       73       78 </v>
   <v type="int" >        8       49       53       54       79 </v>
   <v type="int" >        8       48       49       53       79 </v>
   <v type="int" >        4       48       53       78       79 </v>
   <v type="int" >        4       53       54       79       84 </v>
   <v type="int" >        8       53       79       83       84 </v>
   <v type="int" >        8       53       78       79       83 </v>
   <v type="int" >        8       54       54       57       84 </v>
   <v type="int" >        8       53       54       54       84 </v>
   <v type="int" >        4       53       54       83       84 </v>
   <v type="int" >        4       54       57       84       87 </v>
   <v type="int" >        8       54       84       84       87 </v>
   <v type="int" >        8       54       83       84       84 </v>
   <v type="int" >        8       55       57       58       87 </v>
   <v type="int" >        8       54       55       57       87 </v>
   <v type="int" >        4       54       55       84       87 </v>
   <v type="int" >        4       55       58       87       88 </v>
   <v type="int" >        8       55       85       87       88 </v>
   <v type="int" >        8       55       84       85       87 </v>
   <v type="int" >        8       56       58       59       88 </v>
   <v type="int" >        8       55       56       58       88 </v>
   <v type="int" >        4       55       56       85       88 </v>
   <v type="int" >        4       56       59       88       89 </v>
   <v type="int" >        8       56       86       88       89 </v>
   <v type="int" >        8       56       85       86       88 </v>
   <v type="int" >        8       56       58       59       89 </v>
   <v type="int" >        4       56       56       59       89 </v>
   <v type="int" >        4       56       56       86       89 </v>
   <v type="int" >        4       56       58       88       89 </v>
   <v type="int" >        8       56       86       86       89 </v>
   <v type="int" >        8       55       57       58       88 </v>
   <v type="int" >        4       55       56       86       88 </v>
   <v type="int" >        4       55       57       87       88 </v>
   <v type="int" >        8       55       85       86       88 </v>
   <v type="int" >        4       54       54       57       87 </v>
   <v type="int" >        4       54       55       85       87 </v>
   <v type="int" >        4       54       54       84       87 </v>
   <v type="int" >        8       54       84       85       87 </v>
   <v type="int" >        4       53       54       84       84 </v>
   <v type="int" >        4       49       53       79       84 </v>
   <v type="int" >        4       53       83       84       84 </v>
   <v type="int" >        4       48       53       79       83 </v>
   <v type="int" >        4       43       48       73       79 </v>
   <v type="int" >        4       42       48       73       78 </v>
   <v type="int" >        4       35       42       65       73 </v>
   <v type="int" >        4       34       42       65       72 </v>
   <v type="int" >        8       36       43       44       66 </v>
   <v type="int" >        8       35       36       43       66 </v>
   <v type="int" >        4       35       43       65       66 </v>
   <v type="int" >        4       43       44       66       74 </v>
   <v type="int" >        8       43       66       73       74 </v>
   <v type="int" >        8       43       65       66       73 </v>
   <v type="int" >        8       44       49       50       74 </v>
   <v type="int" >        8       43       44       49       74 </v>
   <v type="int" >        4       43       49       73       74 </v>
   <v type="int" >        4       49       50       74       80 </v>
   <v type="int" >        8       49       74       79       80 </v>
   <v type="int" >        8       49       73       74       79 </v>
   <v type="int" >        8       50       54       55       80 </v>
   <v type="int" >        8       49       50       54       80 </v>
   <v type="int" >        4       49       54       79       80 </v>
   <v type="int" >        4       54       55       80       85 </v>
   <v type="int" >        8       54       80       84       85 </v>
   <v type="int" >        8       54       79       80       84 </v>
   <v type="int" >        8       55       57       58       85 </v>
   <v type="int" >        8       54       55       57       85 </v>
   <v type="int" >        4       54       57       84       85 </v>
   <v type="int" >        4       57       58       85       88 </v>
   <v type="int" >        8       57       85       87       88 </v>
   <v type="int" >        8       57       84       85       87 </v>
   <v type="int" >        8       58       58       60       88 </v>
   <v type="int" >        8       57       58       58       88 </v>
   <v type="int" >        4       57       58       87       88 </v>
   <v type="int" >        4       58       60       88       90 </v>
   <v type="int" >        8       58       88       88       90 </v>
   <v type="int" >        8       58       87       88       88 </v>
   <v type="int" >        8       59       60       60       90 </v>
   <v type="int" >        8       58       59       60       90 </v>
   <v type="int" >        4       58       59       88       90 </v>
   <v type="int" >        4       59       60       90       90 </v>
   <v type="int" >        4       59       89       90       90 </v>
   <v type="int" >        8       59       88       89       90 </v>
   <v type="int" >        4       58       58       60       90 </v>
   <v type="int" >        4       58       59       89       90 </v>
   <v type="int" >        4       58       58       88       90 </v>
   <v type="int" >        8       58       88       89       90 </v>
   <v type="int" >        4       57       58       88       88 </v>
   <v type="int" >        4       55       57       85       88 </v>
   <v type="int" >        4       57       87       88       88 </v>
   <v type="int" >        4       54       57       85       87 </v>
   <v type="int" >        4       50       54       80       85 </v>
   <v type="int" >        4       49       54       80       84 </v>
   <v type="int" >        4       44       49       74       80 </v>
   <v type="int" >        4       43       49       74       79 </v>
   <v type="int" >        4       36       43       66       74 </v>
   <v type="int" >        4       35       43       66       73 </v>
   <v type="int" >        8       37       44       45       67 </v>
   <v type="int" >        8       36       37       44       67 </v>
   <v type="int" >        4       36       44       66       67 </v>
   <v type="int" >        4       44       45       67       75 </v>
   <v type="int" >        8       44       67       74       75 </v>
   <v type="int" >        8       44       66       67       74 </v>
   <v type="int" >        8       45       50       51       75 </v>
   <v type="int" >        8       44       45       50       75 </v>
   <v type="int" >        4       44       50       74       75 </v>
   <v type="int" >        4       50       51       75       81 </v>
   <v type="int" >        8       50       75       80       81 </v>
   <v type="int" >        8       50       74       75       80 </v>
   <v type="int" >        8       51       55       56       81 </v>
   <v type="int" >        8       50       51       55       81 </v>
   <v type="int" >        4       50       55       80       81 </v>
   <v type="int" >        4       55       56       81       86 </v>
   <v type="int" >        8       55       81       85       86 </v>
   <v type="int" >        8       55       80       81       85 </v>
   <v type="int" >        8       56       58       59       86 </v>
   <v type="int" >        8       55       56       58       86 </v>
   <v type="int" >        4       55       58       85       86 </v>
   <v type="int" >        4       58       59       86       89 </v>
   <v type="int" >        8       58       86       88       89 </v>
   <v type="int" >        8       58       85       86       88 </v>
   <v type="int" >        4       59       60       60       89 </v>
   <v type="int" >        8       58       59       60       89 </v>
   <v type="int" >        4       58       60       88       89 </v>
   <v type="int" >        4       60       60       89       90 </v>
   <v type="int" >        8       60       89       90       90 </v>
   <v type="int" >        8       60       88       89       90 </v>
   <v type="int" >        4       60       60       60       90 </v>
   <v type="int" >        4       60       60       90       90 </v>
   <v type="int" >        4       59       60       89       90 </v>
   <v type="int" >        4       60       90       90       90 </v>
   <v type="int" >        4       58       60       89       90 </v>
   <v type="int" >        4       56       58       86       89 </v>
   <v type="int" >        4       55       58       86       88 </v>
   <v type="int" >        4       51       55       81       86 </v>
   <v type="int" >        4       50       55       81       85 </v>
   <v type="int" >        4       45       50       75       81 </v>
   <v type="int" >        4       44       50       75       80 </v>
   <v type="int" >        4       37       44       67       75 </v>
   <v type="int" >        4       36       44       67       74 </v>
   <v type="int" >        8       38       45       46       68 </v>
   <v type="int" >        8       37       38       45       68 </v>
   <v type="int" >        4       37       45       67       68 </v>
   <v type="int" >        4       45       46       68       76 </v>
   <v type="int" >        8       45       68       75       76 </v>
   <v type="int" >        8       45       67       68       75 </v>
   <v type="int" >        8       46       51       52       76 </v>
   <v type="int" >        8       45       46       51       76 </v>
   <v type="int" >        4       45       51       75       76 </v>
   <v type="int" >        4       51       52       76       82 </v>
   <v type="int" >        8       51       76       81       82 </v>
   <v type="int" >        8       51       75       76       81 </v>
   <v type="int" >        4       52       56       56       82 </v>
   <v type="int" >        8       51       52       56       82 </v>
   <v type="int" >        4       51       56       81       82 </v>
   <v type="int" >        4       56       56       82       86 </v>
   <v type="int" >        8       56       82       86       86 </v>
   <v type="int" >        8       56       81       82       86 </v>
   <v type="int" >        8       56       56       59       86 </v>
   <v type="int" >        4       56       59       86       86 </v>
   <v type="int" >        4       58       59       86       88 </v>
   <v type="int" >        8       59       86       88       89 </v>
   <v type="int" >        4       59       86       86       89 </v>
   <v type="int" >        8       58       59       60       88 </v>
   <v type="int" >        4       59       60       88       89 </v>
   <v type="int" >        4       58       60       88       88 </v>
   <v type="int" >        4       60       88       88       90 </v>
   <v type="int" >        4       59       60       88       90 </v>
   <v type="int" >        4       56       59       86       88 </v>
   <v type="int" >        4       56       59       86       89 </v>
   <v type="int" >        4       52       56       82       86 </v>
   <v type="int" >        4       51       56       82       86 </v>
   <v type="int" >        4       46       51       76       82 </v>
   <v type="int" >        4       45       51       76       81 </v>
   <v type="int" >        4       38       45       68       76 </v>
   <v type="int" >        4       37       45       68       75 </v>
   <v type="int" >        4       39       46       46       69 </v>
   <v type="int" >        8       38       39       46       69 </v>
   <v type="int" >        4       38       46       68       69 </v>
   <v type="int" >        4       46       46       69       76 </v>
   <v type="int" >        8       46       69       76       76 </v>
   <v type="int" >        8       46       68       69       76 </v>
   <v type="int" >        8       46       46       52       76 </v>
   <v type="int" >        4       46       52       76       76 </v>
   <v type="int" >        4       51       52       76       81 </v>
   <v type="int" >        8       52       76       81       82 </v>
   <v type="int" >        4       52       76       76       82 </v>
   <v type="int" >        8       51       52       56       81 </v>
   <v type="int" >        4       52       56       81       82 </v>
   <v type="int" >        4       55       56       81       85 </v>
   <v type="int" >        8       56       81       85       86 </v>
   <v type="int" >        8       55       56       58       85 </v>
   <v type="int" >        4       56       58       85       86 </v>
   <v type="int" >        4       57       58       85       87 </v>
   <v type="int" >        8       58       85       87       88 </v>
   <v type="int" >        4       57       58       58       87 </v>
   <v type="int" >        4       58       58       87       88 </v>
   <v type="int" >        4       55       58       85       87 </v>
   <v type="int" >        4       56       58       85       88 </v>
   <v type="int" >        4       51       56       81       85 </v>
   <v type="int" >        4       52       56       81       86 </v>
   <v type="int" >        4       46       52       76       81 </v>
   <v type="int" >        4       46       52       76       82 </v>
   <v type="int" >        4       39       46       69       76 </v>
   <v type="int" >        4       38       46       69       76 </v>
   <v type="int" >        8       38       39       46       68 </v>
   <v type="int" >        4       39       46       68       69 </v>
   <v type="int" >        4       45       46       68       75 </v>
   <v type="int" >        8       46       68       75       76 </v>
   <v type="int" >        8       45       46       51       75 </v>
   <v type="int" >        4       46       51       75       76 </v>
   <v type="int" >        4       50       51       75       80 </v>
   <v type="int" >        8       51       75       80       81 </v>
   <v type="int" >        8       50       51       55       80 </v>
   <v type="int" >        4       51       55       80       81 </v>
   <v type="int" >        4       54       55       80       84 </v>
   <v type="int" >        8       55       80       84       85 </v>
   <v type="int" >        8       54       55       57       84 </v>
   <v type="int" >        4       55       57       84       85 </v>
   <v type="int" >        4       54       57       84       84 </v>
   <v type="int" >        4       57       84       84       87 </v>
   <v type="int" >        4       55       57       84       87 </v>
   <v type="int" >        4       50       55       80       84 </v>
   <v type="int" >        4       51       55       80       85 </v>
   <v type="int" >        4       45       51       75       80 </v>
   <v type="int" >        4       46       51       75       81 </v>
   <v type="int" >        4       38       46       68       75 </v>
   <v type="int" >        4       39       46       68       76 </v>
   <v type="int" >        8       37       38       45       67 </v>
   <v type="int" >        4       38       45       67       68 </v>
   <v type="int" >        4       44       45       67       74 </v>
   <v type="int" >        8       45       67       74       75 </v>
   <v type="int" >        8       44       45       50       74 </v>
   <v type="int" >        4       45       50       74       75 </v>
   <v type="int" >        4       49       50       74       79 </v>
   <v type="int" >        8       50       74       79       80 </v>
   <v type="int" >        8       49       50       54       79 </v>
   <v type="int" >        4       50       54       79       80 </v>
   <v type="int" >        4       53       54       79       83 </v>
   <v type="int" >        8       54       79       83       84 </v>
   <v type="int" >        4       53       54       54       83 </v>
   <v type="int" >        4       54       54       83       84 </v>
   <v type="int" >        4       49       54       79       83 </v>
   <v type="int" >        4       50       54       79       84 </v>
   <v type="int" >        4       44       50       74       79 </v>
   <v type="int" >        4       45       50       74       80 </v>
[...]
       <r>    0.5467    1.0000 </r>
       <r>    1.2403    1.0000 </r>
       <r>    1.2403    1.0000 </r>
       <r>    2.8078    1.0000 </r>
       <r>    2.8078    1.0000 </r>
       <r>    5.1589    0.0000 </r>
       <r>    5.1589    0.0000 </r>
       <r>    6.1194    0.0000 </r>
       <r>    6.3949    0.0000 </r>
      </set>
      <set comment="kpoint 87">
       <r>   -9.1640    1.0000 </r>
       <r>   -9.1640    1.0000 </r>
       <r>   -8.8710    1.0000 </r>
       <r>   -8.8710    1.0000 </r>
       <r>   -1.9527    1.0000 </r>
       <r>   -1.9527    1.0000 </r>
       <r>   -1.7474    1.0000 </r>
       <r>   -1.7474    1.0000 </r>
       <r>   -0.4794    1.0000 </r>
       <r>   -0.4793    1.0000 </r>
       <r>   -0.0905    1.0000 </r>
       <r>   -0.0905    1.0000 </r>
       <r>    0.2266    1.0000 </r>
       <r>    0.2266    1.0000 </r>
       <r>    1.4809    1.0000 </r>
       <r>    1.4809    1.0000 </r>
       <r>    2.6058    1.0000 </r>
       <r>    2.6058    1.0000 </r>
       <r>    5.2494    0.0000 </r>
       <r>    5.2495    0.0000 </r>
       <r>    5.8575    0.0000 </r>
       <r>    6.1461    0.0000 </r>
      </set>
      <set comment="kpoint 88">
       <r>   -8.9915    1.0000 </r>
       <r>   -8.9915    1.0000 </r>
       <r>   -8.7838    1.0000 </r>
       <r>   -8.7838    1.0000 </r>
       <r>   -2.0314    1.0000 </r>
       <r>   -2.0314    1.0000 </r>
       <r>   -1.8578    1.0000 </r>
       <r>   -1.8578    1.0000 </r>
       <r>   -0.6075    1.0000 </r>
       <r>   -0.6075    1.0000 </r>
       <r>   -0.0604    1.0000 </r>
       <r>   -0.0604    1.0000 </r>
       <r>    0.0557    1.0000 </r>
       <r>    0.0557    1.0000 </r>
       <r>    1.2214    1.0000 </r>
       <r>    1.2214    1.0000 </r>
       <r>    2.8446    1.0000 </r>
       <r>    2.8446    1.0000 </r>
       <r>    5.0537    0.0000 </r>
       <r>    5.0537    0.0000 </r>
       <r>    6.1860    0.0000 </r>
       <r>    6.2131    0.0000 </r>
      </set>
      <set comment="kpoint 89">
       <r>   -8.9291    1.0000 </r>
       <r>   -8.9291    1.0000 </r>
       <r>   -8.7519    1.0000 </r>
       <r>   -8.7519    1.0000 </r>
       <r>   -2.1321    1.0000 </r>
       <r>   -2.1321    1.0000 </r>
       <r>   -1.7831    1.0000 </r>
       <r>   -1.7831    1.0000 </r>
       <r>   -0.7601    1.0000 </r>
       <r>   -0.7601    1.0000 </r>
       <r>   -0.0989    1.0000 </r>
       <r>   -0.0989    1.0000 </r>
       <r>    0.1376    1.0000 </r>
       <r>    0.1376    1.0000 </r>
       <r>    1.0945    1.0000 </r>
       <r>    1.0945    1.0000 </r>
       <r>    2.9729    1.0000 </r>
       <r>    2.9729    1.0000 </r>
       <r>    4.9282    0.0000 </r>
       <r>    4.9282    0.0000 </r>
       <r>    6.2312    0.0000 </r>
       <r>    6.2426    0.0000 </r>
      </set>
      <set comment="kpoint 90">
       <r>   -8.8986    1.0000 </r>
       <r>   -8.8986    1.0000 </r>
       <r>   -8.7322    1.0000 </r>
       <r>   -8.7322    1.0000 </r>
       <r>   -2.2007    1.0000 </r>
       <r>   -2.2007    1.0000 </r>
       <r>   -1.5459    1.0000 </r>
       <r>   -1.5459    1.0000 </r>
       <r>   -0.7962    1.0000 </r>
       <r>   -0.7962    1.0000 </r>
       <r>   -0.4065    1.0000 </r>
       <r>   -0.4065    1.0000 </r>
       <r>    0.2077    1.0000 </r>
       <r>    0.2077    1.0000 </r>
       <r>    1.0174    1.0000 </r>
       <r>    1.0174    1.0000 </r>
       <r>    3.0525    1.0000 </r>
       <r>    3.0525    1.0000 </r>
       <r>    4.8127    0.0000 </r>
       <r>    4.8127    0.0000 </r>
       <r>    6.1496    0.0000 </r>
       <r>    6.1500    0.0000 </r>
      </set>
     </set>
    </set>
   </array>
  </eigenvalues>
  <separator name="orbital magnetization" >
   <v name="MAGDIPOLOUT">      0.00000000      0.00000000      0.00000000</v>
  </separator>
  <dos>
   <i name="efermi">      3.35700617 </i>
   <total>
    <array>
     <dimension dim="1">gridpoints</dimension>
     <dimension dim="2">spin</dimension>
     <field>energy</field>
     <field>total</field>
     <field>integrated</field>
     <set>
      <set comment="spin 1">
       <r>   -12.9296     0.0000     0.0000 </r>
       <r>   -12.8585     0.0000     0.0000 </r>
       <r>   -12.7875     0.0000     0.0000 </r>
       <r>   -12.7164     0.0000     0.0000 </r>
       <r>   -12.6453     0.0000     0.0000 </r>
       <r>   -12.5742     0.0000     0.0000 </r>
       <r>   -12.5031     0.0000     0.0000 </r>
       <r>   -12.4321     0.0000     0.0000 </r>
       <r>   -12.3610     0.0000     0.0000 </r>
       <r>   -12.2899     0.0000     0.0000 </r>
       <r>   -12.2188     0.0000     0.0000 </r>
       <r>   -12.1477     0.0000     0.0000 </r>
       <r>   -12.0766     0.0000     0.0000 </r>
       <r>   -12.0056     0.0000     0.0000 </r>
       <r>   -11.9345     0.0000     0.0000 </r>
       <r>   -11.8634     0.0000     0.0000 </r>
       <r>   -11.7923     0.0000     0.0000 </r>
       <r>   -11.7212     0.0000     0.0000 </r>
       <r>   -11.6502     0.0000     0.0000 </r>
       <r>   -11.5791     0.0000     0.0000 </r>
       <r>   -11.5080     0.0000     0.0000 </r>
       <r>   -11.4369     0.0000     0.0000 </r>
       <r>   -11.3658     0.0000     0.0000 </r>
       <r>   -11.2947     0.0000     0.0000 </r>
       <r>   -11.2237     0.0000     0.0000 </r>
       <r>   -11.1526     0.0000     0.0000 </r>
       <r>   -11.0815     0.0000     0.0000 </r>
       <r>   -11.0104     0.0000     0.0000 </r>
       <r>   -10.9393     0.0000     0.0000 </r>
       <r>   -10.8683     1.2476     0.0415 </r>
       <r>   -10.7972     1.0669     0.1133 </r>
       <r>   -10.7261     1.0855     0.1932 </r>
       <r>   -10.6550     1.0880     0.2685 </r>
       <r>   -10.5839     1.1691     0.3488 </r>
       <r>   -10.5128     1.1463     0.4313 </r>
       <r>   -10.4418     1.1678     0.5133 </r>
       <r>   -10.3707     1.2210     0.5982 </r>
       <r>   -10.2996     1.2609     0.6868 </r>
       <r>   -10.2285     1.2765     0.7765 </r>
       <r>   -10.1574     1.3170     0.8687 </r>
       <r>   -10.0864     1.3635     0.9639 </r>
       <r>   -10.0153     1.4131     1.0626 </r>
       <r>    -9.9442     1.4739     1.1652 </r>
       <r>    -9.8731     1.5355     1.2721 </r>
       <r>    -9.8020     1.5975     1.3835 </r>
       <r>    -9.7309     1.6612     1.4993 </r>
       <r>    -9.6599     3.9521     1.7213 </r>
       <r>    -9.5888     4.1961     2.0156 </r>
       <r>    -9.5177     4.4707     2.3277 </r>
       <r>    -9.4466     4.7790     2.6550 </r>
       <r>    -9.3755     5.2747     3.0097 </r>
       <r>    -9.3045     5.8950     3.4063 </r>
       <r>    -9.2334     6.7119     3.8538 </r>
       <r>    -9.1623     8.2045     4.3759 </r>
       <r>    -9.0912     8.4620     5.0789 </r>
       <r>    -9.0201     8.3640     5.6525 </r>
       <r>    -8.9490     9.5431     6.2799 </r>
       <r>    -8.8780     9.4766     7.0751 </r>
       <r>    -8.8069     5.7029     7.5993 </r>
       <r>    -8.7358     4.6849     7.9673 </r>
       <r>    -8.6647     0.0000     8.0000 </r>
       <r>    -8.5936     0.0000     8.0000 </r>
       <r>    -8.5226     0.0000     8.0000 </r>
       <r>    -8.4515     0.0000     8.0000 </r>
       <r>    -8.3804     0.0000     8.0000 </r>
       <r>    -8.3093     0.0000     8.0000 </r>
       <r>    -8.2382     0.0000     8.0000 </r>
       <r>    -8.1671     0.0000     8.0000 </r>
       <r>    -8.0961     0.0000     8.0000 </r>
       <r>    -8.0250     0.0000     8.0000 </r>
       <r>    -7.9539     0.0000     8.0000 </r>
       <r>    -7.8828     0.0000     8.0000 </r>
       <r>    -7.8117     0.0000     8.0000 </r>
       <r>    -7.7407     0.0000     8.0000 </r>
       <r>    -7.6696     0.0000     8.0000 </r>
       <r>    -7.5985     0.0000     8.0000 </r>
       <r>    -7.5274     0.0000     8.0000 </r>
       <r>    -7.4563     0.0000     8.0000 </r>
       <r>    -7.3852     0.0000     8.0000 </r>
       <r>    -7.3142     0.0000     8.0000 </r>
       <r>    -7.2431     0.0000     8.0000 </r>
       <r>    -7.1720     0.0000     8.0000 </r>
       <r>    -7.1009     0.0000     8.0000 </r>
       <r>    -7.0298     0.0000     8.0000 </r>
       <r>    -6.9588     0.0000     8.0000 </r>
       <r>    -6.8877     0.0000     8.0000 </r>
       <r>    -6.8166     0.0000     8.0000 </r>
       <r>    -6.7455     0.0000     8.0000 </r>
       <r>    -6.6744     0.0000     8.0000 </r>
       <r>    -6.6033     0.0000     8.0000 </r>
       <r>    -6.5323     0.0000     8.0000 </r>
       <r>    -6.4612     0.0000     8.0000 </r>
       <r>    -6.3901     0.0000     8.0000 </r>
       <r>    -6.3190     0.0000     8.0000 </r>
       <r>    -6.2479     0.0000     8.0000 </r>
       <r>    -6.1769     0.0000     8.0000 </r>
       <r>    -6.1058     0.0000     8.0000 </r>
       <r>    -6.0347     0.0000     8.0000 </r>
       <r>    -5.9636     0.0000     8.0000 </r>
       <r>    -5.8925     0.0000     8.0000 </r>
       <r>    -5.8214     0.0000     8.0000 </r>
       <r>    -5.7504     0.0000     8.0000 </r>
       <r>    -5.6793     0.0000     8.0000 </r>
       <r>    -5.6082     0.0000     8.0000 </r>
       <r>    -5.5371     0.0000     8.0000 </r>
       <r>    -5.4660     0.0000     8.0000 </r>
       <r>    -5.3950     0.0000     8.0000 </r>
       <r>    -5.3239     0.0000     8.0000 </r>
       <r>    -5.2528     0.0000     8.0000 </r>
       <r>    -5.1817     0.0000     8.0000 </r>
       <r>    -5.1106     0.0000     8.0000 </r>
       <r>    -5.0395     0.0000     8.0000 </r>
       <r>    -4.9685     0.0000     8.0000 </r>
       <r>    -4.8974     0.0000     8.0000 </r>
       <r>    -4.8263     0.0000     8.0000 </r>
       <r>    -4.7552     0.0000     8.0000 </r>
       <r>    -4.6841     0.0000     8.0000 </r>
       <r>    -4.6130     0.0000     8.0000 </r>
       <r>    -4.5420     0.0000     8.0000 </r>
       <r>    -4.4709     0.0000     8.0000 </r>
       <r>    -4.3998     0.0000     8.0000 </r>
       <r>    -4.3287     0.0000     8.0000 </r>
       <r>    -4.2576     0.0000     8.0000 </r>
       <r>    -4.1866     0.0000     8.0000 </r>
       <r>    -4.1155     0.0000     8.0000 </r>
       <r>    -4.0444     0.0000     8.0000 </r>
       <r>    -3.9733     0.0000     8.0000 </r>
       <r>    -3.9022     0.0000     8.0000 </r>
       <r>    -3.8311     0.0000     8.0000 </r>
       <r>    -3.7601     0.0000     8.0000 </r>
       <r>    -3.6890     0.0000     8.0000 </r>
       <r>    -3.6179     0.0000     8.0000 </r>
       <r>    -3.5468     0.0000     8.0000 </r>
       <r>    -3.4757     0.0000     8.0000 </r>
       <r>    -3.4047     0.0000     8.0000 </r>
       <r>    -3.3336     0.0000     8.0000 </r>
       <r>    -3.2625     0.0000     8.0000 </r>
       <r>    -3.1914     0.0000     8.0000 </r>
       <r>    -3.1203     0.0000     8.0000 </r>
       <r>    -3.0492     0.0000     8.0000 </r>
       <r>    -2.9782     0.0000     8.0000 </r>
       <r>    -2.9071     0.0000     8.0000 </r>
       <r>    -2.8360     0.0000     8.0000 </r>
       <r>    -2.7649     0.0000     8.0000 </r>
       <r>    -2.6938     0.0000     8.0000 </r>
       <r>    -2.6228     0.0000     8.0000 </r>
       <r>    -2.5517     1.9933     8.0498 </r>
       <r>    -2.4806     2.2215     8.2149 </r>
       <r>    -2.4095     2.8779     8.3986 </r>
       <r>    -2.3384     3.4537     8.6248 </r>
       <r>    -2.2673     3.6512     8.8765 </r>
       <r>    -2.1963     7.1666     9.1674 </r>
       <r>    -2.1252     8.6340     9.5798 </r>
       <r>    -2.0541     7.7677    10.1612 </r>
       <r>    -1.9830     7.0552    10.6673 </r>
       <r>    -1.9119     7.7635    11.1764 </r>
       <r>    -1.8409    10.6534    11.8785 </r>
       <r>    -1.7698     6.4834    12.5111 </r>
       <r>    -1.6987     3.4643    12.8359 </r>
       <r>    -1.6276     4.0751    13.1306 </r>
       <r>    -1.5565     3.1344    13.3867 </r>
       <r>    -1.4854     2.2517    13.5817 </r>
       <r>    -1.4144     1.9700    13.7305 </r>
       <r>    -1.3433     1.7247    13.8624 </r>
       <r>    -1.2722     1.5716    13.9784 </r>
       <r>    -1.2011     1.4866    14.0870 </r>
       <r>    -1.1300     1.4043    14.1897 </r>
       <r>    -1.0590     1.3880    14.2884 </r>
       <r>    -0.9879     1.4024    14.3876 </r>
       <r>    -0.9168     4.2838    14.5594 </r>
       <r>    -0.8457     7.8271    15.0188 </r>
       <r>    -0.7746    11.4915    15.7287 </r>
       <r>    -0.7035    10.3648    16.5166 </r>
       <r>    -0.6325     9.6920    17.2435 </r>
       <r>    -0.5614     7.2905    17.8628 </r>
       <r>    -0.4903     3.2753    18.2403 </r>
       <r>    -0.4192     2.2050    18.4175 </r>
       <r>    -0.3481     2.3140    18.5977 </r>
       <r>    -0.2771     2.3162    18.7623 </r>
       <r>    -0.2060     2.2923    18.9270 </r>
       <r>    -0.1349     5.5449    19.2124 </r>
       <r>    -0.0638    12.8447    19.8720 </r>
       <r>     0.0073    11.8912    21.1124 </r>
       <r>     0.0784     6.2747    21.6191 </r>
       <r>     0.1494     6.2750    22.0838 </r>
       <r>     0.2205     5.3958    22.4795 </r>
       <r>     0.2916     3.8032    22.7601 </r>
       <r>     0.3627     3.4210    23.0202 </r>
       <r>     0.4338     3.3545    23.2636 </r>
       <r>     0.5048     3.0132    23.4881 </r>
       <r>     0.5759     4.6515    23.7451 </r>
       <r>     0.6470     3.1658    24.0170 </r>
       <r>     0.7181     2.2987    24.1929 </r>
       <r>     0.7892     3.8113    24.4185 </r>
       <r>     0.8603     3.9944    24.6999 </r>
       <r>     0.9313     2.5881    24.9558 </r>
       <r>     1.0024     3.6622    25.1367 </r>
       <r>     1.0735     5.5657    25.5207 </r>
       <r>     1.1446     6.8611    25.9509 </r>
       <r>     1.2157     8.8903    26.5065 </r>
       <r>     1.2867    11.9430    27.3302 </r>
       <r>     1.3578     7.3197    27.9599 </r>
       <r>     1.4289     5.9755    28.4248 </r>
       <r>     1.5000     5.4608    28.8308 </r>
       <r>     1.5711     4.2338    29.1598 </r>
       <r>     1.6422     4.7272    29.4790 </r>
       <r>     1.7132     5.2010    29.8417 </r>
       <r>     1.7843     4.5798    30.1832 </r>
       <r>     1.8554     4.5065    30.5052 </r>
       <r>     1.9265     4.6260    30.8237 </r>
       <r>     1.9976     5.1251    31.1772 </r>
       <r>     2.0686     4.3855    31.5253 </r>
       <r>     2.1397     2.7640    31.7759 </r>
       <r>     2.2108     4.4508    31.9994 </r>
       <r>     2.2819     6.2377    32.3435 </r>
       <r>     2.3530     7.9165    32.9261 </r>
       <r>     2.4241     6.0156    33.3889 </r>
       <r>     2.4951     5.6556    33.7934 </r>
       <r>     2.5662     5.2691    34.1821 </r>
       <r>     2.6373     4.7263    34.5337 </r>
       <r>     2.7084     4.0191    34.8447 </r>
       <r>     2.7795     3.7916    35.1166 </r>
       <r>     2.8505     3.1954    35.3585 </r>
       <r>     2.9216     2.9456    35.5773 </r>
       <r>     2.9927     2.0527    35.7513 </r>
       <r>     3.0638     0.7619    35.8952 </r>
       <r>     3.1349     0.6206    35.9444 </r>
       <r>     3.2060     0.3727    35.9796 </r>
       <r>     3.2770     0.0587    35.9996 </r>
       <r>     3.3481     0.0000    36.0000 </r>
       <r>     3.4192     0.0000    36.0000 </r>
       <r>     3.4903     0.0000    36.0000 </r>
       <r>     3.5614     0.0000    36.0000 </r>
       <r>     3.6324     0.0000    36.0000 </r>
       <r>     3.7035     0.0000    36.0000 </r>
       <r>     3.7746     0.0000    36.0000 </r>
       <r>     3.8457     0.0000    36.0000 </r>
       <r>     3.9168     0.0000    36.0000 </r>
       <r>     3.9879     0.0000    36.0000 </r>
       <r>     4.0589     0.0000    36.0000 </r>
       <r>     4.1300     0.0000    36.0000 </r>
       <r>     4.2011     0.0000    36.0000 </r>
       <r>     4.2722     0.0000    36.0000 </r>
       <r>     4.3433     0.0000    36.0000 </r>
       <r>     4.4143     0.0000    36.0000 </r>
       <r>     4.4854     0.0000    36.0000 </r>
       <r>     4.5565     0.0000    36.0000 </r>
       <r>     4.6276     0.0000    36.0000 </r>
       <r>     4.6987     0.0000    36.0000 </r>
       <r>     4.7698     0.0000    36.0000 </r>
       <r>     4.8408     0.8507    36.0391 </r>
       <r>     4.9119     0.9464    36.1030 </r>
       <r>     4.9830     2.4915    36.2183 </r>
       <r>     5.0541     4.0982    36.4470 </r>
       <r>     5.1252     6.4732    36.8194 </r>
       <r>     5.1962    10.4812    37.4256 </r>
       <r>     5.2673    20.6555    38.3244 </r>
       <r>     5.3384     3.3366    39.4500 </r>
       <r>     5.4095     2.8768    39.6315 </r>
       <r>     5.4806     5.6616    39.9160 </r>
       <r>     5.5517     8.1936    40.4853 </r>
       <r>     5.6227    10.5710    41.1551 </r>
       <r>     5.6938     7.6889    41.8030 </r>
       <r>     5.7649     6.6439    42.3064 </r>
       <r>     5.8360     4.5864    42.7741 </r>
       <r>     5.9071     3.1828    43.0533 </r>
       <r>     5.9782     2.6013    43.2473 </r>
       <r>     6.0492     1.8664    43.4020 </r>
       <r>     6.1203     2.6460    43.5468 </r>
       <r>     6.1914     1.8040    43.7663 </r>
       <r>     6.2625     2.4578    43.9123 </r>
       <r>     6.3336     0.3958    43.9930 </r>
       <r>     6.4046     0.0000    44.0000 </r>
       <r>     6.4757     0.0000    44.0000 </r>
       <r>     6.5468     0.0000    44.0000 </r>
       <r>     6.6179     0.0000    44.0000 </r>
       <r>     6.6890     0.0000    44.0000 </r>
       <r>     6.7601     0.0000    44.0000 </r>
       <r>     6.8311     0.0000    44.0000 </r>
       <r>     6.9022     0.0000    44.0000 </r>
       <r>     6.9733     0.0000    44.0000 </r>
       <r>     7.0444     0.0000    44.0000 </r>
       <r>     7.1155     0.0000    44.0000 </r>
       <r>     7.1865     0.0000    44.0000 </r>
       <r>     7.2576     0.0000    44.0000 </r>
       <r>     7.3287     0.0000    44.0000 </r>
       <r>     7.3998     0.0000    44.0000 </r>
       <r>     7.4709     0.0000    44.0000 </r>
       <r>     7.5420     0.0000    44.0000 </r>
       <r>     7.6130     0.0000    44.0000 </r>
       <r>     7.6841     0.0000    44.0000 </r>
       <r>     7.7552     0.0000    44.0000 </r>
       <r>     7.8263     0.0000    44.0000 </r>
       <r>     7.8974     0.0000    44.0000 </r>
       <r>     7.9684     0.0000    44.0000 </r>
       <r>     8.0395     0.0000    44.0000 </r>
       <r>     8.1106     0.0000    44.0000 </r>
       <r>     8.1817     0.0000    44.0000 </r>
       <r>     8.2528     0.0000    44.0000 </r>
       <r>     8.3239     0.0000    44.0000 </r>
       <r>     8.3949     0.0000    44.0000 </r>
      </set>
     </set>
    </array>
   </total>
  </dos>
 </calculation>
 <structure name="finalpos" >
  <crystal>
   <varray name="basis" >
    <v>       3.19031573       0.00000000       0.00000000 </v>
    <v>      -1.59515786       2.76289447       0.00000000 </v>
    <v>       0.00000000       0.00000000      14.87900430 </v>
   </varray>
   <i name="volume">    131.15106795 </i>
   <varray name="rec_basis" >
    <v>       0.31344860       0.18096963       0.00000000 </v>
    <v>       0.00000000       0.36193927       0.00000000 </v>
    <v>       0.00000000       0.00000000       0.06720880 </v>
   </varray>
  </crystal>
  <varray name="positions" >
   <v>       0.33333300       0.66666700       0.25000000 </v>
   <v>       0.66666700       0.33333300       0.75000000 </v>
   <v>       0.33333300       0.66666700       0.85517400 </v>
   <v>       0.66666700       0.33333300       0.14482600 </v>
   <v>       0.66666600       0.33333300       0.35517400 </v>
   <v>       0.33333400       0.66666700       0.64482600 </v>
  </varray>
 </structure>
</modeling>
