unknown system                          
   1.00000000000000     
     3.190316    0.000000    0.000000
    -1.595158    2.762894    0.000000
     0.000000    0.000000   14.879004
   Mo   S 
     2     4
Direct
  0.333333  0.666667  0.250000
  0.666667  0.333333  0.750000
  0.333333  0.666667  0.855174
  0.666667  0.333333  0.144826
  0.666666  0.333333  0.355174
  0.333334  0.666667  0.644826
 
   24   24  120
 0.40484     0.41030     0.42665     0.45497     0.49815     0.55727     0.62741     0.69916     0.76550     0.82520    
 0.87773     0.91667     0.93142     0.91664     0.87767     0.82511     0.76540     0.69906     0.62733     0.55720    
 0.49809     0.45493     0.42662     0.41029     0.41003     0.41019     0.42126     0.44311     0.47710     0.52620    
 0.59164     0.66853     0.74608     0.81392     0.86824     0.90987     0.93634     0.93941     0.91290     0.86129    
 0.79696     0.72975     0.66217     0.59483     0.53219     0.48081     0.44406     0.42108     0.42675     0.42099    
 0.42670     0.44468     0.47415     0.51445     0.56783     0.63689     0.71797     0.79924     0.86779     0.91776    
 0.95015     0.96507     0.95731     0.92152     0.86052     0.78600     0.71039     0.63978     0.57526     0.51867    
 0.47405     0.44380     0.45639     0.44480     0.44322     0.45566     0.48346     0.52227     0.56928     0.62739    
 0.69898     0.77942     0.85826     0.92422     0.96901     0.99057     0.99193     0.97416     0.93277     0.86614    
 0.78452     0.70391     0.63254     0.56996     0.51722     0.47910     0.49809     0.48284     0.47401     0.47648    
 0.49812     0.53590     0.58261     0.63838     0.70529     0.77862     0.85252     0.92441     0.98602      1.0221    
  1.0273      1.0127     0.98600     0.93922     0.86713     0.78322     0.70521     0.63660     0.57513     0.52693    
 0.55010     0.53299     0.52152     0.51369     0.52328     0.55370     0.59503     0.64635     0.71468     0.79267    
 0.86396     0.92855     0.99514      1.0516      1.0733      1.0596      1.0317     0.99573     0.93843     0.86034    
 0.78163     0.71247     0.64688     0.58798     0.61259     0.59131     0.58264     0.57071     0.56786     0.58793    
 0.62001     0.65558     0.71049     0.79191     0.87448     0.93775     0.99589      1.0607      1.1077      1.1118    
  1.0857      1.0513      1.0032     0.93132     0.85240     0.78597     0.72525     0.66191     0.68604     0.65569    
 0.64986     0.64183     0.63087     0.64044     0.66861     0.69255     0.71964     0.77942     0.86546     0.93929    
 0.99217      1.0485      1.1077      1.1371      1.1274      1.1011      1.0643      1.0016     0.92069     0.85166    
 0.79902     0.74251     0.76540     0.72625     0.71777     0.71749     0.70527     0.70178     0.72524     0.75268    
 0.76545     0.79049     0.85317     0.92921     0.98598      1.0324      1.0858      1.1273      1.1346      1.1205    
  1.1004      1.0588     0.98600     0.91131     0.86040     0.81722     0.83839     0.80029     0.78589     0.79119    
 0.78635     0.77228     0.77866     0.80576     0.82381     0.83181     0.86141     0.91865     0.97488      1.0183    
  1.0631      1.1052      1.1206      1.1108      1.0986      1.0800      1.0315     0.96233     0.90823     0.87483    
 0.89228     0.86791     0.85323     0.85966     0.86710     0.85685     0.84515     0.85249     0.86785     0.87474    
 0.88500     0.91559     0.95733     0.99545      1.0346      1.0764      1.1004      1.0947      1.0784      1.0662    
  1.0419     0.99338     0.94282     0.91264     0.92229     0.91574     0.91206     0.91998     0.93556     0.94131    
 0.93211     0.92067     0.91494     0.91111     0.91000     0.91949     0.93926     0.96218     0.98979      1.0260    
  1.0581      1.0672      1.0550      1.0389      1.0222     0.99477     0.95941     0.93349     0.93142     0.93659    
 0.95001     0.96756     0.98603      1.0023      1.0107      1.0052     0.98606     0.96170     0.94283     0.93367    
 0.93142     0.93360     0.94272     0.96159     0.98598      1.0052      1.0106      1.0022     0.98602     0.96756    
 0.95003     0.93660     0.92232     0.93350     0.95942     0.99479      1.0223      1.0389      1.0551      1.0673    
  1.0582      1.0261     0.98991     0.96229     0.93932     0.91949     0.90994     0.91103     0.91486     0.92062    
 0.93209     0.94131     0.93558     0.92001     0.91210     0.91578     0.89235     0.91269     0.94285     0.99342    
  1.0420      1.0663      1.0784      1.0947      1.1004      1.0765      1.0347     0.99556     0.95744     0.91565    
 0.88500     0.87469     0.86778     0.85244     0.84513     0.85686     0.86713     0.85972     0.85330     0.86798    
 0.83848     0.87491     0.90829     0.96238      1.0316      1.0801      1.0986      1.1109      1.1207      1.1052    
  1.0632      1.0184     0.97498     0.91874     0.86146     0.83181     0.82378     0.80572     0.77863     0.77228    
 0.78639     0.79125     0.78596     0.80038     0.76550     0.81732     0.86048     0.91139     0.98606      1.0589    
  1.1005      1.1205      1.1347      1.1274      1.0858      1.0325     0.98606     0.92929     0.85323     0.79052    
 0.76545     0.75266     0.72522     0.70178     0.70529     0.71754     0.71784     0.72634     0.68613     0.74261    
 0.79912     0.85176     0.92077      1.0017      1.0644      1.1012      1.1275      1.1372      1.1077      1.0486    
 0.99221     0.93934     0.86551     0.77945     0.71965     0.69255     0.66860     0.64044     0.63088     0.64186    
 0.64991     0.65577     0.61267     0.66201     0.72535     0.78608     0.85250     0.93141      1.0033      1.0514    
  1.0858      1.1119      1.1078      1.0607     0.99593     0.93777     0.87450     0.79194     0.71050     0.65559    
 0.62001     0.58793     0.56787     0.57073     0.58268     0.59137     0.55017     0.58807     0.64698     0.71258    
 0.78174     0.86045     0.93852     0.99581      1.0318      1.0597      1.0734      1.0517     0.99517     0.92855    
 0.86396     0.79266     0.71468     0.64635     0.59503     0.55370     0.52328     0.51371     0.52155     0.53304    
 0.49815     0.52700     0.57522     0.63670     0.70532     0.78333     0.86724     0.93931     0.98606      1.0128    
  1.0274      1.0221     0.98603     0.92440     0.85249     0.77859     0.70527     0.63837     0.58260     0.53590    
 0.49812     0.47649     0.47403     0.48288     0.45642     0.47916     0.51729     0.57004     0.63264     0.70402    
 0.78463     0.86623     0.93284     0.97421     0.99197     0.99059     0.96901     0.92419     0.85821     0.77936    
 0.69894     0.62736     0.56926     0.52225     0.48345     0.45566     0.44323     0.44483     0.42677     0.44384    
 0.47410     0.51875     0.57534     0.63988     0.71050     0.78610     0.86061     0.92157     0.95734     0.96507    
 0.95013     0.91771     0.86772     0.79917     0.71789     0.63683     0.56778     0.51442     0.47413     0.44467    
 0.42670     0.42100     0.41004     0.42110     0.44410     0.48087     0.53226     0.59491     0.66227     0.72985    
 0.79705     0.86136     0.91295     0.93942     0.93633     0.90982     0.86817     0.81383     0.74599     0.66845    
 0.59157     0.52615     0.47707     0.44309     0.42125     0.41019     0.41923     0.42586     0.44550     0.47899    
 0.52879     0.59544     0.67352     0.75336     0.82749     0.89391     0.95140     0.99325      1.0088     0.99277    
 0.95053     0.89312     0.82736     0.75387     0.67406     0.59561     0.52874     0.47894     0.44545     0.42580    
 0.42559     0.42576     0.44171     0.47286     0.51980     0.58444     0.66683     0.76108     0.85549     0.93862    
  1.0055      1.0560      1.0872      1.0902      1.0589     0.99820     0.92142     0.83928     0.75502     0.67016    
 0.59038     0.52347     0.47381     0.44151     0.44559     0.43608     0.44552     0.47434     0.52082     0.58294    
 0.66135     0.75696     0.86436     0.97014      1.0599      1.1264      1.1694      1.1882      1.1770      1.1307    
  1.0530     0.95690     0.85645     0.75942     0.66850     0.58707     0.52073     0.47349     0.48039     0.45909    
 0.45743     0.47957     0.52594     0.59051     0.66865     0.76136     0.86873     0.98358      1.0933      1.1847    
  1.2478      1.2790      1.2806      1.2536      1.1941      1.1016     0.98834     0.87302     0.76621     0.66937    
 0.58551     0.52159     0.52874     0.49613     0.48114     0.48952     0.52876     0.59397     0.67557     0.77176    
 0.88245     0.99985      1.1149      1.2224      1.3117      1.3654      1.3764      1.3557      1.3117      1.2375    
  1.1294      1.0040     0.88238     0.77049     0.66837     0.58486     0.58826     0.54502     0.51967     0.51154    
 0.53506     0.59230     0.67037     0.76575     0.88349      1.0134      1.1353      1.2458      1.3507      1.4349    
  1.4707      1.4563      1.4139      1.3510      1.2557      1.1315      1.0024     0.88204     0.76688     0.66302    
 0.65867     0.60168     0.57037     0.55020     0.55495     0.59842     0.66701     0.74861     0.85655     0.99553    
  1.1364      1.2546      1.3611      1.4644      1.5362      1.5482      1.5131      1.4545      1.3687      1.2482    
  1.1140     0.98990     0.87197     0.75470     0.74019     0.66424     0.62632     0.60119     0.58958     0.61620    
 0.67774     0.74756     0.82950     0.95056      1.1008      1.2371      1.3468      1.4514      1.5462      1.5942    
  1.5841      1.5393      1.4681      1.3571      1.2181      1.0864     0.97047     0.85252     0.82736     0.73329    
 0.68298     0.65631     0.63439     0.63954     0.69016     0.76036     0.82742     0.91524      1.0460      1.1907    
  1.3117      1.4146      1.5130      1.5839      1.6011      1.5768      1.5285      1.4423      1.3117      1.1717    
  1.0529     0.94259     0.90713     0.80643     0.74098     0.71052     0.68680     0.67211     0.69731     0.76120    
 0.83015     0.89960     0.99836      1.1282      1.2548      1.3618      1.4600      1.5412      1.5770      1.5668    
  1.5343      1.4777      1.3755      1.2412      1.1168      1.0124     0.96601     0.87368     0.80035     0.76231    
 0.74192     0.72172     0.71939     0.75541     0.81583     0.88020     0.95747      1.0613      1.1770      1.2844    
  1.3841      1.4739      1.5285      1.5326      1.5053      1.4633      1.3919      1.2821      1.1617      1.0586    
 0.99891     0.92141     0.85385     0.81023     0.79003     0.77705     0.76743     0.77495     0.80621     0.85376    
 0.91508     0.99527      1.0896      1.1850      1.2782      1.3694      1.4416      1.4712      1.4582      1.4212    
  1.3658      1.2837      1.1820      1.0836      1.0088     0.94225     0.88899     0.85012     0.82664     0.81691    
 0.81591     0.81899     0.82666     0.84528     0.88218     0.93882      1.0088      1.0841      1.1616      1.2400    
  1.3117      1.3612      1.3765      1.3573      1.3117      1.2471      1.1693      1.0867     0.99846     0.93909    
 0.89768     0.87385     0.85505     0.84051     0.84046     0.85183     0.85865     0.85896     0.86948     0.90028    
 0.94473     0.99642      1.0562      1.1194      1.1750      1.2184      1.2495      1.2583      1.2333      1.1812    
  1.1213      1.0615     0.96525     0.91811     0.88221     0.87266     0.87208     0.86145     0.85280     0.86158    
 0.87373     0.87122     0.86518     0.87457     0.89602     0.92133     0.95910      1.0123      1.0599      1.0872    
  1.1071      1.1278      1.1287      1.0948      1.0462      1.0052     0.90655     0.88035     0.85065     0.84553    
 0.86410     0.87462     0.86898     0.86933     0.87871     0.87534     0.85847     0.85130     0.85722     0.86027    
 0.86744     0.90074     0.94884     0.97688     0.98278     0.99319      1.0068     0.99478     0.95738     0.92555    
 0.82749     0.82335     0.80804     0.80241     0.82667     0.85951     0.87390     0.87861     0.88758     0.88524    
 0.85988     0.83426     0.82666     0.81926     0.80035     0.79696     0.82742     0.86236     0.87193     0.87166    
 0.88245     0.88646     0.86422     0.83651     0.74091     0.74989     0.75427     0.75474     0.77548     0.81602    
 0.84930     0.86785     0.88535     0.89464     0.87414     0.83418     0.80724     0.79376     0.76797     0.73475    
 0.72696     0.74655     0.76117     0.76065     0.76505     0.77548     0.76952     0.74884     0.65935     0.67089    
 0.69026     0.70498     0.72718     0.76719     0.80884     0.83674     0.85973     0.88174     0.88082     0.84556    
 0.80174     0.77368     0.74904     0.71120     0.67599     0.66417     0.66580     0.66291     0.66140     0.67021    
 0.67566     0.66651     0.58854     0.59856     0.62303     0.65070     0.68175     0.72519     0.77398     0.81026    
 0.83343     0.85507     0.86824     0.85240     0.80931     0.76401     0.72851     0.69280     0.65360     0.62298    
 0.60522     0.59164     0.58134     0.58215     0.58973     0.59091     0.52879     0.53895     0.56265     0.59574    
 0.63445     0.68333     0.74135     0.79325     0.82667     0.84613     0.85824     0.85517     0.82664     0.77857    
 0.72644     0.67812     0.63439     0.59793     0.57034     0.54774     0.52876     0.51916     0.52069     0.52533    
 0.48044     0.49238     0.51532     0.54959     0.59187     0.64257     0.70364     0.76865     0.82305     0.85694    
 0.87132     0.87010     0.85228     0.81514     0.76097     0.69797     0.63680     0.58628     0.54886     0.52034    
 0.49671     0.47979     0.47300     0.47452     0.44560     0.45812     0.48122     0.51666     0.56276     0.61624    
 0.67598     0.74171     0.80815     0.86341     0.89595     0.90278     0.88909     0.86010     0.81572     0.75487    
 0.68309     0.61276     0.55488     0.51221     0.48124     0.45899     0.44555     0.44139     0.42554     0.43619    
 0.45833     0.49393     0.54395     0.60514     0.67110     0.73754     0.80385     0.86738     0.91832     0.94440    
 0.94123     0.91495     0.87389     0.82053     0.75392     0.67760     0.60189     0.53777     0.49008     0.45732    
 0.43629     0.42566     0.46575     0.47573     0.50499     0.55354     0.62270     0.71162     0.81365     0.91803    
  1.0159      1.1034      1.1773      1.2295      1.2485      1.2285      1.1756      1.1019      1.0158     0.91917    
 0.81482     0.71202     0.62265     0.55350     0.50493     0.47561     0.47546     0.47564     0.50088     0.54977    
 0.62143     0.71590     0.83144     0.96064      1.0903      1.2067      1.3022      1.3739      1.4163      1.4193    
  1.3765      1.2945      1.1892      1.0741     0.95485     0.83493     0.72183     0.62507     0.55074     0.50069    
 0.50507     0.48958     0.50498     0.55119     0.62494     0.72213     0.84128     0.98139      1.1352      1.2869    
  1.4189      1.5201      1.5863      1.6133      1.5943      1.5251      1.4124      1.2735      1.1269     0.98344    
 0.84819     0.72617     0.62484     0.55036     0.55496     0.51954     0.51779     0.55403     0.62738     0.72948    
 0.85341     0.99830      1.1623      1.3356      1.5019      1.6437      1.7450      1.7970      1.7988      1.7514    
  1.6539      1.5107      1.3400      1.1659      1.0029     0.85418     0.72449     0.62300     0.62265     0.56636    
 0.54301     0.55946     0.62267     0.72532     0.85500      1.0082      1.1833      1.3701      1.5557      1.7298    
  1.8750      1.9660      1.9900      1.9560      1.8750      1.7453      1.5702      1.3739      1.1832      1.0074    
 0.84804     0.71600     0.70438     0.62701     0.58357     0.57509     0.61677     0.70889     0.83514     0.98954    
  1.1762      1.3832      1.5869      1.7787      1.9574      2.0985      2.1648      2.1496      2.0762      1.9573    
  1.7887      1.5829      1.3722      1.1755     0.99130     0.82745     0.79867     0.69652     0.63662     0.60608    
 0.62045     0.69337     0.80801     0.94862      1.1270      1.3470      1.5768      1.7871      1.9823      2.1613    
  2.2842      2.3136      2.2598      2.1508      1.9904      1.7809      1.5541      1.3416      1.1431     0.95447    
 0.90474     0.77232     0.69491     0.64871     0.63636     0.68398     0.78650     0.91305      1.0646      1.2674    
  1.5098      1.7444      1.9526      2.1474      2.3124      2.3986      2.3880      2.3053      2.1650      1.9637    
  1.7249      1.4948      1.2877      1.0879      1.0158     0.85449     0.75363     0.69505     0.66143     0.67711    
 0.76055     0.88238      1.0158      1.1832      1.4058      1.6508      1.8750      2.0767      2.2597      2.3878    
  2.4248      2.3804      2.2760      2.1059      1.8750      1.6304      1.4123      1.2114      1.1167     0.93985    
 0.81338     0.74027     0.69395     0.67857     0.72632     0.83409     0.96389      1.1082      1.2947      1.5228    
  1.7531      1.9625      2.1535      2.3063      2.3806      2.3698      2.2989      2.1721      1.9768      1.7385    
  1.5105      1.3095      1.1920      1.0173     0.87435     0.78357     0.72993     0.69777     0.70667     0.77692    
 0.89081      1.0236      1.1822      1.3786      1.5943      1.8030      1.9981      2.1681      2.2761      2.2982    
  2.2516      2.1569      2.0064      1.8005      1.5780      1.3761      1.2352      1.0724     0.92934     0.82458    
 0.76129     0.72545     0.71531     0.74588     0.82159     0.93016      1.0654      1.2307      1.4182      1.6098    
  1.7961      1.9702      2.1054      2.1685      2.1545      2.0837      1.9667      1.8022      1.6064      1.4120    
  1.2485      1.0970     0.96565     0.85983     0.78512     0.74281     0.72997     0.74399     0.78514     0.85600    
 0.95917      1.0930      1.2484      1.4129      1.5779      1.7368      1.8750      1.9684      1.9984      1.9636    
  1.8750      1.7450      1.5861      1.4150      1.2343      1.0938     0.97489     0.88131     0.80552     0.75061    
 0.72900     0.73962     0.76773     0.80957     0.87741     0.97720      1.0992      1.2330      1.3740      1.5128    
  1.6335      1.7257      1.7826      1.7911      1.7405      1.6408      1.5156      1.3788      1.1904      1.0688    
 0.95921     0.88029     0.81965     0.76304     0.72529     0.72350     0.74526     0.77244     0.81310     0.88197    
 0.97231      1.0723      1.1855      1.3093      1.4189      1.4956      1.5475      1.5790      1.5688      1.5036    
  1.4059      1.3019      1.1155      1.0237     0.92671     0.85579     0.81432     0.77568     0.73551     0.71774    
 0.72679     0.74168     0.76015     0.80184     0.86664     0.93556      1.0113      1.1105      1.2173      1.2939    
  1.3347      1.3630      1.3762      1.3462      1.2746      1.1941      1.0159     0.95672     0.88256     0.81752    
 0.78514     0.76872     0.74554     0.72673     0.72743     0.73318     0.73212     0.74450     0.78514     0.83337    
 0.87436     0.93060      1.0158      1.0975      1.1431      1.1654      1.1833      1.1793      1.1350      1.0720    
 0.90609     0.87142     0.82683     0.77633     0.74688     0.74157     0.73738     0.72964     0.73325     0.74219    
 0.73566     0.72291     0.73348     0.76494     0.78907     0.80732     0.84839     0.91101     0.96077     0.98525    
  1.0022      1.0121     0.99355     0.94886     0.79998     0.77937     0.76064     0.73430     0.71495     0.71555    
 0.72317     0.72522     0.73187     0.74780     0.75210     0.73356     0.71630     0.72221     0.73680     0.74093    
 0.74687     0.77230     0.80554     0.82727     0.84133     0.85509     0.85510     0.83106     0.70489     0.69351    
 0.69116     0.68871     0.68841     0.70110     0.72206     0.73592     0.74353     0.75688     0.76955     0.76168    
 0.73465     0.71204     0.70428     0.69969     0.69244     0.69168     0.69988     0.70754     0.71260     0.72129    
 0.72864     0.72203     0.62270     0.62084     0.62855     0.64290     0.66150     0.68998     0.72863     0.76398    
 0.78514     0.79709     0.80651     0.80590     0.78512     0.74945     0.71348     0.68428     0.66143     0.64563    
 0.63660     0.62957     0.62267     0.62076     0.62479     0.62674     0.55501     0.56252     0.57907     0.60552    
 0.63921     0.68096     0.73306     0.78974     0.83743     0.86684     0.87905     0.87800     0.86273     0.83024    
 0.78233     0.72690     0.67446     0.63327     0.60484     0.58420     0.56691     0.55447     0.54995     0.55139    
 0.50507     0.51858     0.54308     0.58031     0.62863     0.68465     0.74688     0.81468     0.88264     0.93900    
 0.97226     0.97945     0.96573     0.93624     0.89072     0.82798     0.75371     0.68071     0.62039     0.57570    
 0.54309     0.51947     0.50505     0.50050     0.47535     0.48969     0.51873     0.56392     0.62561     0.69986    
 0.77952     0.85941     0.93788      1.0113      1.0690      1.0985      1.0952      1.0653      1.0175     0.95461    
 0.87617     0.78637     0.69667     0.61930     0.55999     0.51770     0.48974     0.47542     0.55327     0.56854    
 0.61302     0.68549     0.78561     0.91091      1.0534      1.2008      1.3423      1.4701      1.5769      1.6504    
  1.6767      1.6490      1.5743      1.4679      1.3422      1.2026      1.0552     0.91153     0.78556     0.68545    
 0.61295     0.56836     0.56826     0.56847     0.60705     0.68150     0.78915     0.92809      1.0949      1.2807    
  1.4701      1.6455      1.7933      1.9044      1.9681      1.9711      1.9068      1.7851      1.6275      1.4539    
  1.2752      1.0986     0.93404     0.79279     0.68249     0.60684     0.61311     0.58951     0.61299     0.68286    
 0.79417     0.94084      1.1198      1.3286      1.5579      1.7877      1.9940      2.1573      2.2650      2.3069    
  2.2736      2.1630      1.9879      1.7743      1.5491      1.3302      1.1265     0.94482     0.79405     0.68204    
 0.68693     0.63305     0.63118     0.68588     0.79495     0.94801      1.1367      1.3594      1.6127      1.8826    
  2.1460      2.3753      2.5436      2.6320      2.6340      2.5508      2.3866      2.1553      1.8867      1.6157    
  1.3637      1.1375     0.94300     0.79053     0.78556     0.69886     0.66489     0.69161     0.78558     0.93743    
  1.1331      1.3688      1.6427      1.9415      2.2451      2.5327      2.7737      2.9287      2.9748      2.9182    
  2.7736      2.5487      2.2597      1.9449      1.6427      1.3685      1.1263     0.92785     0.90355     0.78258    
 0.71652     0.70764     0.77200     0.90859      1.0988      1.3361      1.6257      1.9542      2.2918      2.6196    
  2.9223      3.1585      3.2760      3.2599      3.1349      2.9218      2.6299      2.2876      1.9432      1.6258    
  1.3386      1.0907      1.0381     0.87797     0.78255     0.73935     0.76551     0.87492      1.0486      1.2691    
  1.5492      1.8936      2.2660      2.6277      2.9697      3.2734      3.4799      3.5379      3.4541      3.2621    
  2.9782      2.6216      2.2427      1.8885      1.5663      1.2747      1.1874     0.98155     0.85501     0.78331    
 0.77013     0.84319     0.99648      1.1967      1.4446      1.7683      2.1543      2.5474      2.9165      3.2583    
  3.5369      3.6846      3.6735      3.5295      3.2770      2.9285      2.5272      2.1385      1.7892      1.4684    
  1.3422      1.0923     0.92834     0.83131     0.78387     0.81208     0.93503      1.1212      1.3422      1.6218    
  1.9816      2.3836      2.7736      3.1352      3.4538      3.6733      3.7420      3.6655      3.4711      3.1662    
  2.7736      2.3618      1.9877      1.6509      1.4837      1.2054      1.0023     0.87788     0.80499     0.78882    
 0.86311      1.0237      1.2299      1.4740      1.7853      2.1610      2.5529      2.9252      3.2641      3.5303    
  3.6657      3.6543      3.5225      3.2837      2.9402      2.5372      2.1475      1.8009      1.5918      1.3069    
  1.0762     0.92189     0.82920     0.78312     0.80504     0.91545      1.0938      1.3130      1.5805      1.9086    
  2.2736      2.6387      2.9836      3.2795      3.4714      3.5219      3.4453      3.2677      2.9924      2.6358    
  2.2562      1.9064      1.6562      1.3798      1.1418     0.96316     0.84899     0.78641     0.77567     0.83314    
 0.96119      1.1435      1.3722      1.6508      1.9695      2.3030      2.6311      2.9330      3.1658      3.2808    
  3.2658      3.1426      2.9297      2.6378      2.2993      1.9630      1.6767      1.4138      1.1850     0.99846    
 0.86284     0.78187     0.75506     0.78212     0.86287     0.99567      1.1788      1.4092      1.6767      1.9644    
  2.2560      2.5349      2.7736      2.9339      2.9867      2.9281      2.7737      2.5443      2.2648      1.9660    
  1.6548      1.4105      1.1968      1.0200     0.87631     0.77273     0.72490     0.73481     0.78892     0.88057    
  1.0165      1.1988      1.4158      1.6544      1.9046      2.1495      2.3647      2.5285      2.6237      2.6319    
  2.5433      2.3731      2.1533      1.9089      1.5893      1.3760      1.1789      1.0191     0.88779     0.77549    
 0.70140     0.68638     0.72048     0.78455     0.88156      1.0205      1.1913      1.3798      1.5856      1.8007    
  1.9940      2.1394      2.2365      2.2835      2.2575      2.1479      1.9817      1.7929      1.4816      1.3130    
  1.1397     0.99496     0.88492     0.78768     0.70415     0.66285     0.67157     0.71011     0.77268     0.87271    
  1.0050      1.1478      1.3011      1.4775      1.6566      1.7951      1.8817      1.9340      1.9467      1.8927    
  1.7759      1.6332      1.3423      1.2223      1.0850     0.95683     0.86287     0.79005     0.72088     0.67156    
 0.66127     0.67784     0.70801     0.76677     0.86287     0.97172      1.0763      1.1963      1.3422      1.4777    
  1.5662      1.6159      1.6427      1.6290      1.5577      1.4524      1.1894      1.1097      1.0160     0.91497    
 0.83465     0.78027     0.73283     0.69235     0.67788     0.68653     0.69819     0.71899     0.77284     0.85256    
 0.92726     0.99644      1.0864      1.1936      1.2809      1.3327      1.3636      1.3730      1.3404      1.2693    
  1.0401     0.98903     0.93513     0.87145     0.81388     0.77640     0.74848     0.72102     0.70765     0.71602    
 0.72711     0.72891     0.74182     0.78328     0.83583     0.87853     0.92179     0.98155      1.0448      1.0904    
  1.1198      1.1385      1.1332      1.0944     0.90431     0.87508     0.85076     0.82420     0.79891     0.78629    
 0.78266     0.77472     0.76566     0.76955     0.78175     0.78300     0.77308     0.77255     0.78937     0.81050    
 0.82878     0.85187     0.88118     0.90652     0.92455     0.93993     0.94709     0.93390     0.78561     0.77627    
 0.77405     0.77709     0.78394     0.80049     0.82712     0.85115     0.86287     0.86837     0.87533     0.87698    
 0.86284     0.83670     0.81165     0.79425     0.78387     0.78038     0.78253     0.78501     0.78558     0.78845    
 0.79400     0.79427     0.68698     0.69491     0.71184     0.73882     0.77355     0.81679     0.87030     0.92793    
 0.97611      1.0057      1.0179      1.0171      1.0021     0.96962     0.92075     0.86360     0.80950     0.76723    
 0.73821     0.71711     0.69939     0.68655     0.68171     0.68309     0.61309     0.63207     0.66498     0.71299    
 0.77412     0.84451     0.92182      1.0042      1.0851      1.1516      1.1913      1.2008      1.1851      1.1494    
  1.0937      1.0177     0.92841     0.84008     0.76546     0.70819     0.66496     0.63300     0.61309     0.60661    
 0.56810     0.58960     0.63217     0.69616     0.78085     0.88123     0.98913      1.0980      1.2040      1.3011    
  1.3761      1.4146      1.4112      1.3721      1.3070      1.2209      1.1152     0.99638     0.87807     0.77435    
 0.69213     0.63112     0.58961     0.56813     0.69336     0.71553     0.78004     0.88445      1.0272      1.2048    
  1.4085      1.6248      1.8388      2.0364      2.2016      2.3141      2.3540      2.3121      2.1980      2.0334    
  1.8387      1.6273      1.4110      1.2056      1.0271     0.88442     0.77995     0.71528     0.71524     0.71549    
 0.77100     0.87843      1.0341      1.2355      1.4787      1.7536      2.0414      2.3167      2.5553      2.7359    
  2.8373      2.8403      2.7381      2.5466      2.2982      2.0250      1.7483      1.4825      1.2415      1.0378    
 0.87942     0.77073     0.78014     0.74648     0.77999     0.87972      1.0402      1.2553      1.5222      1.8384    
  2.1914      2.5533      2.8874      3.1585      3.3386      3.4063      3.3478      3.1649      2.8816      2.5396    
  2.1821      1.8397      1.5288      1.2592      1.0401     0.87892     0.88593     0.80909     0.80708     0.88472    
  1.0398      1.2623      1.5454      1.8888      2.2874      2.7199      3.1495      3.5301      3.8144      3.9659    
  3.9681      3.8223      3.5424      3.1593      2.7236      2.2897      1.8929      1.5463      1.2572      1.0353    
  1.0271     0.90190     0.85491     0.89426      1.0271      1.2448      1.5352      1.8977      2.3314      2.8174    
  3.3220      3.8047      4.2105      4.4759      4.5604      4.4648      4.2105      3.8214      3.3369      2.8203    
  2.3314      1.8980      1.5286      1.2349      1.1973      1.0192     0.92499     0.91564      1.0082      1.2029    
  1.4828      1.8455      2.2996      2.8297      3.3944      3.9549      4.4700      4.8691      5.0745      5.0574    