unknown system                          
   1.00000000000000     
     3.190316    0.000000    0.000000
    -1.595158    2.762894    0.000000
     0.000000    0.000000   14.879004
   Mo   S 
     2     4
Direct
  0.333333  0.666667  0.250000
  0.666667  0.333333  0.750000
  0.333333  0.666667  0.855174
  0.666667  0.333333  0.144826
  0.666666  0.333333  0.355174
  0.333334  0.666667  0.644826
 
   24   24  120
 0.40484103159E+00 0.41030459400E+00 0.42664687918E+00 0.45497170293E+00 0.49814571768E+00
 0.55727194148E+00 0.62740846575E+00 0.69915519617E+00 0.76549828154E+00 0.82519505311E+00
 0.87773340011E+00 0.91667084924E+00 0.93142172674E+00 0.91663907906E+00 0.87767112951E+00
 0.82510860059E+00 0.76540025007E+00 0.69905977741E+00 0.62732523248E+00 0.55720420281E+00
 0.49809347983E+00 0.45493449597E+00 0.42662386925E+00 0.41029397097E+00 0.41003285412E+00
 0.41018777279E+00 0.42125722097E+00 0.44311315128E+00 0.47710150555E+00 0.52619734123E+00
 0.59163551127E+00 0.66853137412E+00 0.74607922590E+00 0.81391834103E+00 0.86824408818E+00
 0.90986882690E+00 0.93634133057E+00 0.93940582215E+00 0.91290457199E+00 0.86128911140E+00
 0.79695843713E+00 0.72974527973E+00 0.66217277038E+00 0.59482808323E+00 0.53218809698E+00
 0.48081398976E+00 0.44405997669E+00 0.42107649612E+00 0.42674612370E+00 0.42098535973E+00
 0.42669633439E+00 0.44468183443E+00 0.47415093521E+00 0.51444833633E+00 0.56782706180E+00
 0.63689240489E+00 0.71796647417E+00 0.79924489654E+00 0.86778675231E+00 0.91775698726E+00
 0.95014818197E+00 0.96506700179E+00 0.95730733507E+00 0.92151672302E+00 0.86052101385E+00
 0.78599928611E+00 0.71039082574E+00 0.63977888596E+00 0.57525620673E+00 0.51867413521E+00
 0.47404742868E+00 0.44379882234E+00 0.45638615346E+00 0.44480345486E+00 0.44321952754E+00
 0.45566277640E+00 0.48346026080E+00 0.52226535690E+00 0.56927933309E+00 0.62738901120E+00
 0.69898361312E+00 0.77941510019E+00 0.85826475595E+00 0.92421520863E+00 0.96901256196E+00
 0.99056909743E+00 0.99193214494E+00 0.97416124183E+00 0.93277071444E+00 0.86613681526E+00
 0.78451714656E+00 0.70390993899E+00 0.63253585877E+00 0.56995536041E+00 0.51722244022E+00
 0.47910114873E+00 0.49809350308E+00 0.48284298406E+00 0.47400783589E+00 0.47648391651E+00
 0.49811536181E+00 0.53590245410E+00 0.58260739101E+00 0.63838489287E+00 0.70528805265E+00
 0.77861915284E+00 0.85251903218E+00 0.92440938304E+00 0.98601773613E+00 0.10220779570E+01
 0.10273182774E+01 0.10127419739E+01 0.98599916277E+00 0.93922441785E+00 0.86713135766E+00
 0.78322113541E+00 0.70521004303E+00 0.63659942397E+00 0.57513392901E+00 0.52693399112E+00
 0.55009844205E+00 0.53299395075E+00 0.52152360447E+00 0.51369124660E+00 0.52327536448E+00
 0.55370192003E+00 0.59503223924E+00 0.64635105912E+00 0.71467928788E+00 0.79266743706E+00
 0.86396293954E+00 0.92855011052E+00 0.99513917885E+00 0.10516120852E+01 0.10733386384E+01
 0.10596170229E+01 0.10317183999E+01 0.99573310615E+00 0.93842757875E+00 0.86034215361E+00
 0.78163059736E+00 0.71246749130E+00 0.64688468419E+00 0.58798337191E+00 0.61259127455E+00
 0.59131113177E+00 0.58264117267E+00 0.57070771157E+00 0.56786483625E+00 0.58792649851E+00
 0.62000720177E+00 0.65557674181E+00 0.71048550655E+00 0.79191437789E+00 0.87447637182E+00
 0.93774698686E+00 0.99589448849E+00 0.10606770058E+01 0.11077209299E+01 0.11118464863E+01
 0.10856832661E+01 0.10513280386E+01 0.10032276262E+01 0.93132169857E+00 0.85239742300E+00
 0.78596892346E+00 0.72524703807E+00 0.66191153409E+00 0.68603852161E+00 0.65569212636E+00
 0.64985619118E+00 0.64182800624E+00 0.63086673682E+00 0.64043924654E+00 0.66860650496E+00
 0.69254934873E+00 0.71963525073E+00 0.77941555007E+00 0.86545642770E+00 0.93929225727E+00
 0.99216610281E+00 0.10485328413E+01 0.11076828505E+01 0.11371319151E+01 0.11274335704E+01
 0.11011009353E+01 0.10643491750E+01 0.10016482946E+01 0.92068793936E+00 0.85166407450E+00
 0.79902050437E+00 0.74250517943E+00 0.76540011300E+00 0.72624557759E+00 0.71777191450E+00
 0.71748841345E+00 0.70526655317E+00 0.70178376631E+00 0.72523891162E+00 0.75268031724E+00
 0.76545195182E+00 0.79048903494E+00 0.85317314431E+00 0.92921318757E+00 0.98598370639E+00
 0.10324360198E+01 0.10857500098E+01 0.11273124043E+01 0.11346147543E+01 0.11204500371E+01
 0.11004173610E+01 0.10588289497E+01 0.98599900245E+00 0.91131426785E+00 0.86039889641E+00
 0.81722434301E+00 0.83839087375E+00 0.80028680701E+00 0.78588505137E+00 0.79118772956E+00
 0.78635391453E+00 0.77227635165E+00 0.77865634502E+00 0.80575811154E+00 0.82380773250E+00
 0.83181101995E+00 0.86140984967E+00 0.91865375025E+00 0.97487573107E+00 0.10183300066E+01
 0.10631449051E+01 0.11051518607E+01 0.11205898884E+01 0.11108284273E+01 0.10985643325E+01
 0.10800053222E+01 0.10315394698E+01 0.96233049476E+00 0.90823448729E+00 0.87483269942E+00
 0.89228296428E+00 0.86791174249E+00 0.85323066711E+00 0.85966425276E+00 0.86709831559E+00
 0.85684938890E+00 0.84515269678E+00 0.85248525169E+00 0.86784685578E+00 0.87473755057E+00
 0.88500299118E+00 0.91559271329E+00 0.95733475177E+00 0.99544761681E+00 0.10346035236E+01
 0.10764272545E+01 0.11003617076E+01 0.10946615184E+01 0.10783751371E+01 0.10662329539E+01
 0.10419301355E+01 0.99338372611E+00 0.94281775467E+00 0.91264353138E+00 0.92229334969E+00
 0.91573949033E+00 0.91205990556E+00 0.91998301312E+00 0.93556477306E+00 0.94131139428E+00
 0.93211442152E+00 0.92066712757E+00 0.91494038794E+00 0.91111085396E+00 0.90999661298E+00
 0.91949164546E+00 0.93925821870E+00 0.96218454636E+00 0.98979342242E+00 0.10259582211E+01
 0.10580950795E+01 0.10672081146E+01 0.10550226157E+01 0.10388520003E+01 0.10222170049E+01
 0.99477162988E+00 0.95941269359E+00 0.93349044859E+00 0.93142172671E+00 0.93658704910E+00
 0.95000962533E+00 0.96755909572E+00 0.98603370601E+00 0.10022714019E+01 0.10106612858E+01
 0.10052350943E+01 0.98605947961E+00 0.96169567872E+00 0.94282635808E+00 0.93366992343E+00
 0.93142027047E+00 0.93360407938E+00 0.94272291695E+00 0.96159332654E+00 0.98598384341E+00
 0.10051874899E+01 0.10106284464E+01 0.10022448082E+01 0.98601771283E+00 0.96756103576E+00
 0.95002592748E+00 0.93660231604E+00 0.92232488645E+00 0.93350441543E+00 0.95942024514E+00
 0.99479104799E+00 0.10222576883E+01 0.10389066991E+01 0.10550773919E+01 0.10672606153E+01
 0.10581600435E+01 0.10260514994E+01 0.98991021567E+00 0.96229478377E+00 0.93932409202E+00
 0.91949177198E+00 0.90993859975E+00 0.91102540918E+00 0.91486243574E+00 0.92061711054E+00
 0.93209306901E+00 0.94131006877E+00 0.93557864295E+00 0.92001280262E+00 0.91210298746E+00
 0.91578407385E+00 0.89234500893E+00 0.91268760758E+00 0.94284846867E+00 0.99341716561E+00
 0.10419813009E+01 0.10663025358E+01 0.10784491304E+01 0.10947265373E+01 0.11004212501E+01
 0.10764999952E+01 0.10347030862E+01 0.99556432920E+00 0.95743796694E+00 0.91565080737E+00
 0.88500321713E+00 0.87469219914E+00 0.86778461613E+00 0.85243509563E+00 0.84513080503E+00
 0.85685725504E+00 0.86713066426E+00 0.85971633712E+00 0.85329739786E+00 0.86798304758E+00
 0.83847736543E+00 0.87490609735E+00 0.90829166958E+00 0.96237946191E+00 0.10315940650E+01
 0.10800743728E+01 0.10986437188E+01 0.11109047839E+01 0.11206547681E+01 0.11052123755E+01
 0.10632177591E+01 0.10184234363E+01 0.97497785975E+00 0.91873879054E+00 0.86145531450E+00
 0.83181129791E+00 0.82377613636E+00 0.80571875987E+00 0.77863194609E+00 0.77227941565E+00
 0.78638624247E+00 0.79124556923E+00 0.78596254665E+00 0.80037503091E+00 0.76549841855E+00
 0.81731967328E+00 0.86048304650E+00 0.91138577137E+00 0.98606336724E+00 0.10588950587E+01
 0.11004910392E+01 0.11205287331E+01 0.11346894498E+01 0.11273771643E+01 0.10858095042E+01
 0.10325012978E+01 0.98605961666E+00 0.92929082578E+00 0.85323488395E+00 0.79052075083E+00
 0.76545222589E+00 0.75266121498E+00 0.72521932741E+00 0.70178034013E+00 0.70528816641E+00
 0.71753666408E+00 0.71784408266E+00 0.72633563424E+00 0.68613412040E+00 0.74260880977E+00
 0.79912333938E+00 0.85175930817E+00 0.92077191049E+00 0.10017219655E+01 0.10644189296E+01
 0.11011745349E+01 0.11275123659E+01 0.11372082132E+01 0.11077475368E+01 0.10485852491E+01
 0.99221414991E+00 0.93934262030E+00 0.86550625117E+00 0.77945440430E+00 0.71965445244E+00
 0.69254956820E+00 0.66859793698E+00 0.64043565121E+00 0.63087903981E+00 0.64186197140E+00
 0.64991351810E+00 0.65577125490E+00 0.61267437641E+00 0.66200999658E+00 0.72535434754E+00
 0.78607828363E+00 0.85250130766E+00 0.93141279514E+00 0.10033041797E+01 0.10513977344E+01
 0.10857570869E+01 0.11119261506E+01 0.11077948286E+01 0.10607313098E+01 0.99592719647E+00
 0.93776881164E+00 0.87449862093E+00 0.79193849880E+00 0.71050468527E+00 0.65558536862E+00
 0.62000733319E+00 0.58792635906E+00 0.56787332494E+00 0.57073111000E+00 0.58268340555E+00
 0.59137427498E+00 0.55016593263E+00 0.58806893458E+00 0.64698446494E+00 0.71257698776E+00
 0.78174379594E+00 0.86044934508E+00 0.93851868455E+00 0.99580659203E+00 0.10317843414E+01
 0.10596863170E+01 0.10734086210E+01 0.10516666918E+01 0.99516526175E+00 0.92855127512E+00
 0.86395547405E+00 0.79266468541E+00 0.71468254655E+00 0.64635440059E+00 0.59503238792E+00
 0.55370195441E+00 0.52328122256E+00 0.51370777019E+00 0.52155430766E+00 0.53304208689E+00
 0.49814569441E+00 0.52700429810E+00 0.57522050821E+00 0.63669942790E+00 0.70532017229E+00
 0.78333437005E+00 0.86723542025E+00 0.93930842098E+00 0.98606320697E+00 0.10127963179E+01
 0.10273697154E+01 0.10221190858E+01 0.98603368279E+00 0.92439506770E+00 0.85248650408E+00
 0.77858707610E+00 0.70526666697E+00 0.63837255787E+00 0.58259881743E+00 0.53589655997E+00
 0.49811531529E+00 0.47649316858E+00 0.47402870401E+00 0.48287805712E+00 0.45642350710E+00
 0.47915559994E+00 0.51729398330E+00 0.57004212220E+00 0.63263579735E+00 0.70401930884E+00
 0.78462659890E+00 0.86623236063E+00 0.93284228405E+00 0.97420983879E+00 0.99196528520E+00
 0.99058873429E+00 0.96901103128E+00 0.92418545343E+00 0.85821237234E+00 0.77935707479E+00
 0.69893542858E+00 0.62735517329E+00 0.56925602683E+00 0.52224889116E+00 0.48345094339E+00
 0.45566268418E+00 0.44323006775E+00 0.44482608453E+00 0.42676922828E+00 0.44383708164E+00
 0.47410258479E+00 0.51874574999E+00 0.57534283405E+00 0.63987849361E+00 0.71049790914E+00
 0.78610222617E+00 0.86060553266E+00 0.92157401947E+00 0.95733772847E+00 0.96507424495E+00
 0.95013197447E+00 0.91771421376E+00 0.86772015286E+00 0.79916728710E+00 0.71789412659E+00
 0.63683497292E+00 0.56778486569E+00 0.51441780625E+00 0.47413020826E+00 0.44467122253E+00
 0.42669623974E+00 0.42099606663E+00 0.41004345682E+00 0.42109963677E+00 0.44409818133E+00
 0.48086847462E+00 0.53225859566E+00 0.59491373884E+00 0.66227101435E+00 0.72984863203E+00
 0.79705382764E+00 0.86136284587E+00 0.91294882108E+00 0.93941960389E+00 0.93632578063E+00
 0.90982417543E+00 0.86817295599E+00 0.81383033653E+00 0.74598922951E+00 0.66845208467E+00
 0.59157214955E+00 0.52614918089E+00 0.47706662419E+00 0.44309067241E+00 0.42124645942E+00
 0.41018771422E+00 0.41923288685E+00 0.42586326875E+00 0.44549613601E+00 0.47898761354E+00
 0.52879329325E+00 0.59544182969E+00 0.67352384226E+00 0.75335764374E+00 0.82748862687E+00
 0.89390723968E+00 0.95140197213E+00 0.99325399484E+00 0.10088398455E+01 0.99277352452E+00
 0.95053255782E+00 0.89312348631E+00 0.82736403352E+00 0.75386616466E+00 0.67406187152E+00
 0.59560979644E+00 0.52873631312E+00 0.47893890733E+00 0.44545216062E+00 0.42580006995E+00
 0.42559201807E+00 0.42576441073E+00 0.44170670081E+00 0.47285574166E+00 0.51979866166E+00
 0.58443759824E+00 0.66683049638E+00 0.76108463992E+00 0.85549006411E+00 0.93862414381E+00
 0.10055188268E+01 0.10560498230E+01 0.10871565070E+01 0.10901822730E+01 0.10588854101E+01
 0.99819842920E+00 0.92142469420E+00 0.83927512331E+00 0.75501727694E+00 0.67015800802E+00
 0.59038135533E+00 0.52346638099E+00 0.47380947963E+00 0.44151491910E+00 0.44558755994E+00
 0.43608456235E+00 0.44551658346E+00 0.47434410318E+00 0.52082467789E+00 0.58294122885E+00
 0.66135439184E+00 0.75695899639E+00 0.86435804237E+00 0.97013523744E+00 0.10598821865E+01
 0.11264005376E+01 0.11694489358E+01 0.11881988783E+01 0.11770162493E+01 0.11307440325E+01
 0.10530304144E+01 0.95690173116E+00 0.85644531332E+00 0.75942353045E+00 0.66850389328E+00
 0.58707042962E+00 0.52072675731E+00 0.47349173760E+00 0.48039139324E+00 0.45908713470E+00
 0.45742508577E+00 0.47957004108E+00 0.52593934855E+00 0.59050638800E+00 0.66864619258E+00
 0.76135521860E+00 0.86873005003E+00 0.98358307270E+00 0.10932817077E+01 0.11847007919E+01
 0.12478362631E+01 0.12790444510E+01 0.12805807698E+01 0.12535648038E+01 0.11940631912E+01
 0.11015599650E+01 0.98833672318E+00 0.87301960891E+00 0.76620939270E+00 0.66937042456E+00
 0.58550825355E+00 0.52158647103E+00 0.52873633614E+00 0.49612882017E+00 0.48114186885E+00
 0.48952023541E+00 0.52876039601E+00 0.59397381690E+00 0.67556878276E+00 0.77176388399E+00
 0.88244912690E+00 0.99985423574E+00 0.11148723792E+01 0.12223550731E+01 0.13117452712E+01
 0.13653944999E+01 0.13764177615E+01 0.13557232264E+01 0.13117216228E+01 0.12374769214E+01
 0.11294159410E+01 0.10040438349E+01 0.88238290454E+00 0.77048987928E+00 0.66836847092E+00
 0.58485643470E+00 0.58825926081E+00 0.54501733625E+00 0.51967249458E+00 0.51153926100E+00
 0.53506403402E+00 0.59230425996E+00 0.67036874442E+00 0.76574975633E+00 0.88349174907E+00
 0.10134092492E+01 0.11353091543E+01 0.12457563524E+01 0.13506991042E+01 0.14349015896E+01
 0.14707224119E+01 0.14563449088E+01 0.14139474221E+01 0.13509746116E+01 0.12557010065E+01
 0.11314905578E+01 0.10024262718E+01 0.88204207164E+00 0.76688375621E+00 0.66301545522E+00
 0.65867365612E+00 0.60168282414E+00 0.57037390513E+00 0.55019878755E+00 0.55495441126E+00
 0.59842479456E+00 0.66701425564E+00 0.74861352877E+00 0.85654636274E+00 0.99553220278E+00
 0.11363782188E+01 0.12545541605E+01 0.13610668702E+01 0.14644333304E+01 0.15362021255E+01
 0.15482264834E+01 0.15130814526E+01 0.14545248428E+01 0.13687421503E+01 0.12482406959E+01
 0.11140277486E+01 0.98989898401E+00 0.87196892802E+00 0.75469945011E+00 0.74019107366E+00
 0.66424010514E+00 0.62632134912E+00 0.60118579653E+00 0.58957942346E+00 0.61620117123E+00
 0.67773925923E+00 0.74755529218E+00 0.82949896459E+00 0.95055963003E+00 0.11007908841E+01
 0.12370819304E+01 0.13468208662E+01 0.14514329278E+01 0.15461971242E+01 0.15942202120E+01
 0.15840942520E+01 0.15393475548E+01 0.14680901588E+01 0.13570795468E+01 0.12180688579E+01
 0.10864325671E+01 0.97046713197E+00 0.85252261124E+00 0.82736389008E+00 0.73328601120E+00
 0.68298409310E+00 0.65630572679E+00 0.63439115667E+00 0.63954331457E+00 0.69015505879E+00
 0.76035952774E+00 0.82741863272E+00 0.91523892891E+00 0.10460442651E+01 0.11907197380E+01
 0.13117085934E+01 0.14145507344E+01 0.15130432642E+01 0.15839341485E+01 0.16010535017E+01
 0.15768150679E+01 0.15284698114E+01 0.14422522327E+01 0.13117214564E+01 0.11716564302E+01
 0.10528951585E+01 0.94258702113E+00 0.90712880975E+00 0.80642969832E+00 0.74097559403E+00
 0.71052053070E+00 0.68680088820E+00 0.67211332038E+00 0.69730871990E+00 0.76120488888E+00
 0.83015388016E+00 0.89960448503E+00 0.99835750304E+00 0.11281794366E+01 0.12547521449E+01
 0.13617697546E+01 0.14600424661E+01 0.15412206162E+01 0.15769851969E+01 0.15667591419E+01
 0.15343309348E+01 0.14777010438E+01 0.13754615223E+01 0.12412311315E+01 0.11168483992E+01
 0.10124120113E+01 0.96600715496E+00 0.87367582718E+00 0.80034943747E+00 0.76231081585E+00
 0.74191534474E+00 0.72171636050E+00 0.71939215325E+00 0.75541409932E+00 0.81582609112E+00
 0.88019711713E+00 0.95747190598E+00 0.10612636315E+01 0.11770450835E+01 0.12844384310E+01
 0.13841253893E+01 0.14739382186E+01 0.15285177180E+01 0.15326316042E+01 0.15053393129E+01
 0.14632623053E+01 0.13918923817E+01 0.12821428267E+01 0.11616770515E+01 0.10585677872E+01
 0.99891191335E+00 0.92140625237E+00 0.85385240989E+00 0.81023196356E+00 0.79003109643E+00
 0.77705293421E+00 0.76743208846E+00 0.77494779570E+00 0.80621058209E+00 0.85376071146E+00
 0.91508349960E+00 0.99527423800E+00 0.10895735190E+01 0.11849870882E+01 0.12781904711E+01
 0.13694176103E+01 0.14416433984E+01 0.14712461422E+01 0.14581851666E+01 0.14211933103E+01
 0.13657999162E+01 0.12837302675E+01 0.11819507993E+01 0.10836165465E+01 0.10088398478E+01
 0.94224674326E+00 0.88899019966E+00 0.85012190965E+00 0.82664074956E+00 0.81691396356E+00
 0.81590826242E+00 0.81899002920E+00 0.82666262397E+00 0.84527536816E+00 0.88217715599E+00
 0.93881868354E+00 0.10088306514E+01 0.10841371643E+01 0.11615704839E+01 0.12400447872E+01
 0.13117087392E+01 0.13611979913E+01 0.13764550832E+01 0.13573476056E+01 0.13117452506E+01
 0.12470858113E+01 0.11693135341E+01 0.10866625246E+01 0.99846143811E+00 0.93909167882E+00
 0.89767851543E+00 0.87385334919E+00 0.85505118450E+00 0.84051406816E+00 0.84046327608E+00
 0.85183456085E+00 0.85865031123E+00 0.85895939276E+00 0.86947668111E+00 0.90028025722E+00
 0.94472816101E+00 0.99642437983E+00 0.10561657592E+01 0.11193814391E+01 0.11749729062E+01
 0.12184188578E+01 0.12494564921E+01 0.12583144898E+01 0.12332954889E+01 0.11811651171E+01
 0.11213027844E+01 0.10614654076E+01 0.96524734555E+00 0.91811267220E+00 0.88220715075E+00
 0.87266184318E+00 0.87208250352E+00 0.86144666163E+00 0.85280474142E+00 0.86157792698E+00
 0.87372543375E+00 0.87122115253E+00 0.86518394715E+00 0.87457454501E+00 0.89602253184E+00
 0.92133146789E+00 0.95910112968E+00 0.10122532471E+01 0.10598894952E+01 0.10872253725E+01
 0.11071446299E+01 0.11278490392E+01 0.11287177756E+01 0.10948437730E+01 0.10461722123E+01
 0.10052011955E+01 0.90655350845E+00 0.88034896473E+00 0.85065454387E+00 0.84552841195E+00
 0.86409605765E+00 0.87461793628E+00 0.86898085389E+00 0.86932839015E+00 0.87870513356E+00
 0.87533938339E+00 0.85846530431E+00 0.85130146464E+00 0.85721960281E+00 0.86026849776E+00
 0.86744127732E+00 0.90074455440E+00 0.94883947278E+00 0.97688063075E+00 0.98277615903E+00
 0.99319318359E+00 0.10067675320E+01 0.99477667549E+00 0.95737927845E+00 0.92555063100E+00
 0.82748875845E+00 0.82335037395E+00 0.80804485703E+00 0.80241093775E+00 0.82666771423E+00
 0.85951160622E+00 0.87390066767E+00 0.87861309991E+00 0.88757937799E+00 0.88524332945E+00
 0.85987992869E+00 0.83425840326E+00 0.82666275322E+00 0.81925665791E+00 0.80035136235E+00
 0.79696409201E+00 0.82741890774E+00 0.86235852024E+00 0.87193444651E+00 0.87165781999E+00
 0.88244923546E+00 0.88646202876E+00 0.86422251140E+00 0.83651365128E+00 0.74090818473E+00
 0.74988647618E+00 0.75427175909E+00 0.75474223541E+00 0.77547823384E+00 0.81602454047E+00
 0.84929910619E+00 0.86785334603E+00 0.88534810562E+00 0.89464346330E+00 0.87413696540E+00
 0.83417741587E+00 0.80724260441E+00 0.79375508256E+00 0.76797312933E+00 0.73474974638E+00
 0.72695579368E+00 0.74654936458E+00 0.76117276268E+00 0.76065074875E+00 0.76504739748E+00
 0.77547668889E+00 0.76951814550E+00 0.74884307954E+00 0.65935462492E+00 0.67089110706E+00
 0.69025605827E+00 0.70498475134E+00 0.72717796881E+00 0.76719091938E+00 0.80883838557E+00
 0.83673987895E+00 0.85973158199E+00 0.88173689098E+00 0.88081933223E+00 0.84556095117E+00
 0.80173904753E+00 0.77368024562E+00 0.74903596775E+00 0.71120427512E+00 0.67598569808E+00
 0.66417393650E+00 0.66579525755E+00 0.66290844054E+00 0.66139958846E+00 0.67020844673E+00
 0.67565900845E+00 0.66651267622E+00 0.58854070466E+00 0.59855668257E+00 0.62302696278E+00
 0.65070257267E+00 0.68174714494E+00 0.72518653470E+00 0.77398227614E+00 0.81025660437E+00
 0.83342601656E+00 0.85507079930E+00 0.86823820726E+00 0.85240327710E+00 0.80931080444E+00
 0.76401358353E+00 0.72850791452E+00 0.69280052679E+00 0.65359646465E+00 0.62297503495E+00
 0.60521614463E+00 0.59163533141E+00 0.58133971938E+00 0.58215285379E+00 0.58973266368E+00
 0.59091122246E+00 0.52879326961E+00 0.53895064738E+00 0.56265462539E+00 0.59574374334E+00
 0.63444992561E+00 0.68332500125E+00 0.74134720975E+00 0.79325096154E+00 0.82666755902E+00
 0.84612652019E+00 0.85823715373E+00 0.85516700993E+00 0.82664072361E+00 0.77856943890E+00
 0.72644077122E+00 0.67811883345E+00 0.63439127647E+00 0.59793124576E+00 0.57034265027E+00
 0.54773783833E+00 0.52876034936E+00 0.51916359393E+00 0.52068930218E+00 0.52532998222E+00
 0.48044096565E+00 0.49238017721E+00 0.51531892450E+00 0.54958999120E+00 0.59187382678E+00
 0.64256753051E+00 0.70364116749E+00 0.76864521372E+00 0.82304875458E+00 0.85694050684E+00
 0.87131807052E+00 0.87009918253E+00 0.85227729599E+00 0.81513627215E+00 0.76096703478E+00
 0.69796836651E+00 0.63680480386E+00 0.58627689066E+00 0.54885521037E+00 0.52034323173E+00
 0.49670656003E+00 0.47978853310E+00 0.47300044120E+00 0.47451715959E+00 0.44559820875E+00
 0.45812201961E+00 0.48122075573E+00 0.51666258797E+00 0.56275667453E+00 0.61623552644E+00
 0.67598476823E+00 0.74171261148E+00 0.80814706143E+00 0.86341050137E+00 0.89595045151E+00
 0.90277627014E+00 0.88909227483E+00 0.86010048745E+00 0.81572196193E+00 0.75487122888E+00
 0.68308602246E+00 0.61275594681E+00 0.55488361701E+00 0.51221227032E+00 0.48124396463E+00
 0.45898726034E+00 0.44554991003E+00 0.44138896027E+00 0.42554426872E+00 0.43618596022E+00
 0.45833133099E+00 0.49393316057E+00 0.54395491606E+00 0.60513874141E+00 0.67110033885E+00
 0.73753648127E+00 0.80384690927E+00 0.86738388657E+00 0.91832209286E+00 0.94439882893E+00
 0.94122570911E+00 0.91494896052E+00 0.87388525624E+00 0.82053484592E+00 0.75392128627E+00
 0.67759602770E+00 0.60189204925E+00 0.53776634890E+00 0.49007684764E+00 0.45731565933E+00
 0.43629387223E+00 0.42565597614E+00 0.46574802794E+00 0.47573359068E+00 0.50498702277E+00
 0.55354471669E+00 0.62270123349E+00 0.71162172310E+00 0.81365486668E+00 0.91803029543E+00
 0.10159101310E+01 0.11033843513E+01 0.11772930825E+01 0.12294794425E+01 0.12484580873E+01
 0.12285168566E+01 0.11755797647E+01 0.11018961585E+01 0.10157838447E+01 0.91916979666E+00
 0.81481985882E+00 0.71202074124E+00 0.62264635506E+00 0.55349919337E+00 0.50492561606E+00
 0.47561102491E+00 0.47545580808E+00 0.47564182094E+00 0.50088192961E+00 0.54976950515E+00
 0.62142530730E+00 0.71589886880E+00 0.83143725433E+00 0.96064454064E+00 0.10902674213E+01
 0.12067187520E+01 0.13022395646E+01 0.13738785763E+01 0.14162570558E+01 0.14192610401E+01
 0.13765195151E+01 0.12944834465E+01 0.11891540811E+01 0.10740765930E+01 0.95485197530E+00
 0.83493236873E+00 0.72182845170E+00 0.62506548436E+00 0.55074055820E+00 0.50068792574E+00
 0.50507243884E+00 0.48957855399E+00 0.50498054302E+00 0.55119154120E+00 0.62494163042E+00
 0.72212784106E+00 0.84128240295E+00 0.98138834554E+00 0.11351633618E+01 0.12868546599E+01
 0.14188862585E+01 0.15201278602E+01 0.15862767480E+01 0.16133279495E+01 0.15943209658E+01
 0.15251000578E+01 0.14124030661E+01 0.12735360861E+01 0.11268521650E+01 0.98343801676E+00
 0.84818665553E+00 0.72617481668E+00 0.62484100948E+00 0.55036151674E+00 0.55495765453E+00
 0.51954025523E+00 0.51778853810E+00 0.55403221465E+00 0.62738019253E+00 0.72948095755E+00
 0.85341121407E+00 0.99830072179E+00 0.11622850684E+01 0.13355527500E+01 0.15019450816E+01
 0.16436651854E+01 0.17450306597E+01 0.17970289747E+01 0.17987738132E+01 0.17514283027E+01
 0.16539287696E+01 0.15106772138E+01 0.13399592337E+01 0.11659391032E+01 0.10028806880E+01
 0.85418360024E+00 0.72449253088E+00 0.62300416512E+00 0.62264637792E+00 0.56635825780E+00
 0.54300788792E+00 0.55945691461E+00 0.62267130810E+00 0.72531666005E+00 0.85499894473E+00
 0.10081627995E+01 0.11832692352E+01 0.13700715480E+01 0.15556502840E+01 0.17297576501E+01
 0.18750325904E+01 0.19660464894E+01 0.19899545482E+01 0.19559814570E+01 0.18750072471E+01
 0.17452807374E+01 0.15702086740E+01 0.13738682308E+01 0.11832197324E+01 0.10074079200E+01
 0.84803980987E+00 0.71599797535E+00 0.70437871752E+00 0.62700857257E+00 0.58357055987E+00
 0.57509321283E+00 0.61677302807E+00 0.70889482839E+00 0.83513507632E+00 0.98954271562E+00
 0.11761726550E+01 0.13831973732E+01 0.15868770744E+01 0.17786557462E+01 0.19574145179E+01
 0.20984546872E+01 0.21647684808E+01 0.21496049758E+01 0.20762333169E+01 0.19573363750E+01
 0.17887448623E+01 0.15828627763E+01 0.13722119003E+01 0.11754873004E+01 0.99130386509E+00
 0.82744549081E+00 0.79867112896E+00 0.69651573820E+00 0.63662369385E+00 0.60608158436E+00
 0.62045333778E+00 0.69336687078E+00 0.80801026980E+00 0.94861509873E+00 0.11269701147E+01
 0.13469962558E+01 0.15768186403E+01 0.17871096250E+01 0.19822806046E+01 0.21613486224E+01
 0.22841859186E+01 0.23135555601E+01 0.22598093170E+01 0.21507983622E+01 0.19903503866E+01
 0.17808789258E+01 0.15540599670E+01 0.13416416076E+01 0.11431477176E+01 0.95447284575E+00
 0.90474200373E+00 0.77232472378E+00 0.69491197187E+00 0.64871199296E+00 0.63635807697E+00
 0.68398374603E+00 0.78650494190E+00 0.91305189685E+00 0.10646011597E+01 0.12674015877E+01
 0.15098203100E+01 0.17444427901E+01 0.19525822595E+01 0.21473586796E+01 0.23123723261E+01
 0.23986130472E+01 0.23880212346E+01 0.23052686353E+01 0.21650022424E+01 0.19636742454E+01
 0.17248672513E+01 0.14947911462E+01 0.12877400544E+01 0.10879013413E+01 0.10157836939E+01
 0.85449342928E+00 0.75363301544E+00 0.69505241974E+00 0.66143416442E+00 0.67711338777E+00
 0.76054898552E+00 0.88237778190E+00 0.10158279384E+01 0.11832163512E+01 0.14057525080E+01
 0.16507940466E+01 0.18749985362E+01 0.20767184082E+01 0.22596595282E+01 0.23878201738E+01
 0.24248299377E+01 0.23803936765E+01 0.22759581976E+01 0.21059306917E+01 0.18750070735E+01
 0.16304149574E+01 0.14122563940E+01 0.12113646490E+01 0.11167298495E+01 0.93984593772E+00
 0.81337511682E+00 0.74026951974E+00 0.69395183995E+00 0.67857134245E+00 0.72631548073E+00
 0.83409437441E+00 0.96388919594E+00 0.11081648143E+01 0.12946867281E+01 0.15228269875E+01
 0.17530800825E+01 0.19625082209E+01 0.21535215557E+01 0.23062507593E+01 0.23805985138E+01
 0.23697991739E+01 0.22989457818E+01 0.21720809787E+01 0.19768008412E+01 0.17385004970E+01
 0.15104901913E+01 0.13094725715E+01 0.11920362520E+01 0.10173292403E+01 0.87434574606E+00
 0.78356886153E+00 0.72993306152E+00 0.69776799440E+00 0.70666789857E+00 0.77691551320E+00
 0.89081174752E+00 0.10235912862E+01 0.11821612870E+01 0.13785859503E+01 0.15943453398E+01
 0.18030088346E+01 0.19981465325E+01 0.21681315476E+01 0.22761158648E+01 0.22981682323E+01
 0.22515807014E+01 0.21569027579E+01 0.20064110584E+01 0.18004559735E+01 0.15780113012E+01
 0.13761405991E+01 0.12351913827E+01 0.10723729750E+01 0.92933875634E+00 0.82458150478E+00
 0.76128786834E+00 0.72544882021E+00 0.71530999291E+00 0.74588451477E+00 0.82158612433E+00
 0.93016410648E+00 0.10654428003E+01 0.12306734045E+01 0.14181753331E+01 0.16097809441E+01
 0.17961106093E+01 0.19702200549E+01 0.21054482854E+01 0.21684607189E+01 0.21544501836E+01
 0.20836905183E+01 0.19667353223E+01 0.18022449465E+01 0.16064295987E+01 0.14119837490E+01
 0.12484580924E+01 0.10969925348E+01 0.96565002508E+00 0.85983165012E+00 0.78511939333E+00
 0.74281021207E+00 0.72997361324E+00 0.74398542293E+00 0.78513940855E+00 0.85600342341E+00
 0.95917292077E+00 0.10930128418E+01 0.12484415340E+01 0.14129318260E+01 0.15778888473E+01
 0.17368153725E+01 0.18749986920E+01 0.19684410714E+01 0.19984293293E+01 0.19636255226E+01
 0.18750325726E+01 0.17450032176E+01 0.15861299201E+01 0.14149812535E+01 0.12342570513E+01
 0.10937579788E+01 0.97489366439E+00 0.88131373333E+00 0.80551880819E+00 0.75061435806E+00
 0.72900403727E+00 0.73961938080E+00 0.76773123647E+00 0.80957481527E+00 0.87741153512E+00
 0.97720253321E+00 0.10992214697E+01 0.12330177836E+01 0.13740320405E+01 0.15127707744E+01
 0.16335163044E+01 0.17256851299E+01 0.17825559288E+01 0.17910755360E+01 0.17405209521E+01
 0.16407935927E+01 0.15155740759E+01 0.13788114882E+01 0.11904306584E+01 0.10688313648E+01
 0.95920703910E+00 0.88028810378E+00 0.81964975039E+00 0.76304341721E+00 0.72528961970E+00
 0.72350233784E+00 0.74525652009E+00 0.77244216987E+00 0.81309608111E+00 0.88196542753E+00
 0.97231050181E+00 0.10723410429E+01 0.11854801983E+01 0.13092967027E+01 0.14188899333E+01
 0.14956162335E+01 0.15475323345E+01 0.15790113342E+01 0.15687878828E+01 0.15036272591E+01
 0.14058955053E+01 0.13018606312E+01 0.11154503767E+01 0.10237049083E+01 0.92670970149E+00
 0.85579030128E+00 0.81431951427E+00 0.77568297615E+00 0.73550658789E+00 0.71774151866E+00
 0.72678799105E+00 0.74168083405E+00 0.76015242799E+00 0.80183901895E+00 0.86663842985E+00
 0.93555552366E+00 0.10113015616E+01 0.11104852311E+01 0.12173377277E+01 0.12938950442E+01
 0.13347063176E+01 0.13630417871E+01 0.13761518802E+01 0.13461601389E+01 0.12745648098E+01
 0.11940500438E+01 0.10159102579E+01 0.95672014391E+00 0.88256285569E+00 0.81751501115E+00
 0.78513903205E+00 0.76871966711E+00 0.74554083116E+00 0.72673409556E+00 0.72742534802E+00
 0.73317653350E+00 0.73211881721E+00 0.74449905975E+00 0.78513953041E+00 0.83336616608E+00
 0.87435513326E+00 0.93060093699E+00 0.10158282161E+01 0.10974835205E+01 0.11431187176E+01
 0.11653601108E+01 0.11832693392E+01 0.11792811751E+01 0.11350164121E+01 0.10719680702E+01
 0.90609460892E+00 0.87141500604E+00 0.82683460893E+00 0.77633466798E+00 0.74688180951E+00
 0.74156844804E+00 0.73737841593E+00 0.72963672367E+00 0.73325297697E+00 0.74219084364E+00
 0.73566174078E+00 0.72290585219E+00 0.73348075548E+00 0.76494242257E+00 0.78907489883E+00
 0.80732463269E+00 0.84838674437E+00 0.91100776527E+00 0.96077469790E+00 0.98524897676E+00
 0.10022128062E+01 0.10121426577E+01 0.99354785661E+00 0.94886392386E+00 0.79998091277E+00
 0.77936731831E+00 0.76063795822E+00 0.73429622913E+00 0.71495105584E+00 0.71554873680E+00
 0.72316632605E+00 0.72521883009E+00 0.73186700420E+00 0.74779651273E+00 0.75210114959E+00
 0.73355774677E+00 0.71629966445E+00 0.72220841844E+00 0.73679833981E+00 0.74092527243E+00
 0.74687488089E+00 0.77230104836E+00 0.80553549384E+00 0.82726915322E+00 0.84132501369E+00
 0.85509357457E+00 0.85510317960E+00 0.83105813811E+00 0.70488866918E+00 0.69351292617E+00
 0.69115681986E+00 0.68871199688E+00 0.68840909204E+00 0.70109607862E+00 0.72205789134E+00
 0.73591795287E+00 0.74353204535E+00 0.75688414640E+00 0.76955275470E+00 0.76167739154E+00
 0.73464613919E+00 0.71204140764E+00 0.70427734918E+00 0.69969058900E+00 0.69243568492E+00