   6   6   0   0
  0.2185851E+02  0.3190316E-09  0.3190316E-09  0.1487900E-08  0.5000000E-15
  1.000000000000000E-004
  CAR 
 unknown system                          
      8.35045087    -12.93572065  301      3.32159285      1.00000000
    -12.936  0.0000E+00  0.0000E+00
    -12.865  0.0000E+00  0.0000E+00
    -12.794  0.0000E+00  0.0000E+00
    -12.723  0.0000E+00  0.0000E+00
    -12.652  0.0000E+00  0.0000E+00
    -12.581  0.0000E+00  0.0000E+00
    -12.510  0.0000E+00  0.0000E+00
    -12.439  0.0000E+00  0.0000E+00
    -12.368  0.0000E+00  0.0000E+00
    -12.297  0.0000E+00  0.0000E+00
    -12.226  0.0000E+00  0.0000E+00
    -12.155  0.0000E+00  0.0000E+00
    -12.084  0.0000E+00  0.0000E+00
    -12.013  0.0000E+00  0.0000E+00
    -11.942  0.0000E+00  0.0000E+00
    -11.871  0.0000E+00  0.0000E+00
    -11.800  0.0000E+00  0.0000E+00
    -11.730  0.0000E+00  0.0000E+00
    -11.659  0.0000E+00  0.0000E+00
    -11.588  0.0000E+00  0.0000E+00
    -11.517  0.0000E+00  0.0000E+00
    -11.446  0.0000E+00  0.0000E+00
    -11.375  0.0000E+00  0.0000E+00
    -11.304  0.0000E+00  0.0000E+00
    -11.233  0.0000E+00  0.0000E+00
    -11.162  0.0000E+00  0.0000E+00
    -11.091  0.0000E+00  0.0000E+00
    -11.020  0.0000E+00  0.0000E+00
    -10.949  0.0000E+00  0.0000E+00
    -10.878  0.3946E+00  0.9637E-02
    -10.807  0.9754E+00  0.5824E-01
    -10.736  0.1556E+01  0.1481E+00
    -10.665  0.9985E+00  0.2334E+00
    -10.594  0.1064E+01  0.3066E+00
    -10.523  0.1130E+01  0.3845E+00
    -10.452  0.1196E+01  0.4670E+00
    -10.381  0.1262E+01  0.5542E+00
    -10.310  0.1321E+01  0.6460E+00
    -10.239  0.1332E+01  0.7401E+00
    -10.169  0.1344E+01  0.8351E+00
    -10.098  0.1384E+01  0.9315E+00
    -10.027  0.1439E+01  0.1032E+01
     -9.956  0.1494E+01  0.1136E+01
     -9.885  0.1549E+01  0.1244E+01
     -9.814  0.1604E+01  0.1356E+01
     -9.743  0.1659E+01  0.1471E+01
     -9.672  0.3517E+01  0.1632E+01
     -9.601  0.4189E+01  0.1950E+01
     -9.530  0.4625E+01  0.2261E+01
     -9.459  0.5129E+01  0.2607E+01
     -9.388  0.5583E+01  0.2989E+01
     -9.317  0.6020E+01  0.3399E+01
     -9.246  0.6583E+01  0.3846E+01
     -9.175  0.7147E+01  0.4333E+01
     -9.104  0.8452E+01  0.5127E+01
     -9.033  0.8331E+01  0.5722E+01
     -8.962  0.8684E+01  0.6325E+01
     -8.891  0.2183E+02  0.6991E+01
     -8.820  0.6025E+01  0.7649E+01
     -8.749  0.0000E+00  0.8000E+01
     -8.678  0.0000E+00  0.8000E+01
     -8.608  0.0000E+00  0.8000E+01
     -8.537  0.0000E+00  0.8000E+01
     -8.466  0.0000E+00  0.8000E+01
     -8.395  0.0000E+00  0.8000E+01
     -8.324  0.0000E+00  0.8000E+01
     -8.253  0.0000E+00  0.8000E+01
     -8.182  0.0000E+00  0.8000E+01
     -8.111  0.0000E+00  0.8000E+01
     -8.040  0.0000E+00  0.8000E+01
     -7.969  0.0000E+00  0.8000E+01
     -7.898  0.0000E+00  0.8000E+01
     -7.827  0.0000E+00  0.8000E+01
     -7.756  0.0000E+00  0.8000E+01
     -7.685  0.0000E+00  0.8000E+01
     -7.614  0.0000E+00  0.8000E+01
     -7.543  0.0000E+00  0.8000E+01
     -7.472  0.0000E+00  0.8000E+01
     -7.401  0.0000E+00  0.8000E+01
     -7.330  0.0000E+00  0.8000E+01
     -7.259  0.0000E+00  0.8000E+01
     -7.188  0.0000E+00  0.8000E+01
     -7.118  0.0000E+00  0.8000E+01
     -7.047  0.0000E+00  0.8000E+01
     -6.976  0.0000E+00  0.8000E+01
     -6.905  0.0000E+00  0.8000E+01
     -6.834  0.0000E+00  0.8000E+01
     -6.763  0.0000E+00  0.8000E+01
     -6.692  0.0000E+00  0.8000E+01
     -6.621  0.0000E+00  0.8000E+01
     -6.550  0.0000E+00  0.8000E+01
     -6.479  0.0000E+00  0.8000E+01
     -6.408  0.0000E+00  0.8000E+01
     -6.337  0.0000E+00  0.8000E+01
     -6.266  0.0000E+00  0.8000E+01
     -6.195  0.0000E+00  0.8000E+01
     -6.124  0.0000E+00  0.8000E+01
     -6.053  0.0000E+00  0.8000E+01
     -5.982  0.0000E+00  0.8000E+01
     -5.911  0.0000E+00  0.8000E+01
     -5.840  0.0000E+00  0.8000E+01
     -5.769  0.0000E+00  0.8000E+01
     -5.698  0.0000E+00  0.8000E+01
     -5.627  0.0000E+00  0.8000E+01
     -5.557  0.0000E+00  0.8000E+01
     -5.486  0.0000E+00  0.8000E+01
     -5.415  0.0000E+00  0.8000E+01
     -5.344  0.0000E+00  0.8000E+01
     -5.273  0.0000E+00  0.8000E+01
     -5.202  0.0000E+00  0.8000E+01
     -5.131  0.0000E+00  0.8000E+01
     -5.060  0.0000E+00  0.8000E+01
     -4.989  0.0000E+00  0.8000E+01
     -4.918  0.0000E+00  0.8000E+01
     -4.847  0.0000E+00  0.8000E+01
     -4.776  0.0000E+00  0.8000E+01
     -4.705  0.0000E+00  0.8000E+01
     -4.634  0.0000E+00  0.8000E+01
     -4.563  0.0000E+00  0.8000E+01
     -4.492  0.0000E+00  0.8000E+01
     -4.421  0.0000E+00  0.8000E+01
     -4.350  0.0000E+00  0.8000E+01
     -4.279  0.0000E+00  0.8000E+01
     -4.208  0.0000E+00  0.8000E+01
     -4.137  0.0000E+00  0.8000E+01
     -4.066  0.0000E+00  0.8000E+01
     -3.996  0.0000E+00  0.8000E+01
     -3.925  0.0000E+00  0.8000E+01
     -3.854  0.0000E+00  0.8000E+01
     -3.783  0.0000E+00  0.8000E+01
     -3.712  0.0000E+00  0.8000E+01
     -3.641  0.0000E+00  0.8000E+01
     -3.570  0.0000E+00  0.8000E+01
     -3.499  0.0000E+00  0.8000E+01
     -3.428  0.0000E+00  0.8000E+01
     -3.357  0.0000E+00  0.8000E+01
     -3.286  0.0000E+00  0.8000E+01
     -3.215  0.0000E+00  0.8000E+01
     -3.144  0.0000E+00  0.8000E+01
     -3.073  0.0000E+00  0.8000E+01
     -3.002  0.0000E+00  0.8000E+01
     -2.931  0.0000E+00  0.8000E+01
     -2.860  0.0000E+00  0.8000E+01
     -2.789  0.0000E+00  0.8000E+01
     -2.718  0.0000E+00  0.8000E+01
     -2.647  0.0000E+00  0.8000E+01
     -2.576  0.2667E+00  0.8003E+01
     -2.505  0.1148E+01  0.8053E+01
     -2.435  0.2165E+01  0.8170E+01
     -2.364  0.3375E+01  0.8365E+01
     -2.293  0.5187E+01  0.8662E+01
     -2.222  0.5573E+01  0.9041E+01
     -2.151  0.6020E+01  0.9453E+01
     -2.080  0.7413E+01  0.1003E+02
     -2.009  0.6288E+01  0.1052E+02
     -1.938  0.8484E+01  0.1096E+02
     -1.867  0.7494E+01  0.1168E+02
     -1.796  0.1594E+01  0.1198E+02
     -1.725  0.8553E+01  0.1263E+02
     -1.654  0.4034E+01  0.1308E+02
     -1.583  0.2651E+01  0.1328E+02
     -1.512  0.2424E+01  0.1346E+02
     -1.441  0.2197E+01  0.1363E+02
     -1.370  0.1971E+01  0.1377E+02
     -1.299  0.1745E+01  0.1391E+02
     -1.228  0.1671E+01  0.1403E+02
     -1.157  0.1679E+01  0.1415E+02
     -1.086  0.1686E+01  0.1426E+02
     -1.015  0.1694E+01  0.1438E+02
     -0.945  0.1902E+01  0.1451E+02
     -0.874  0.5691E+01  0.1476E+02
     -0.803  0.1119E+02  0.1535E+02
     -0.732  0.1043E+02  0.1624E+02
     -0.661  0.9869E+01  0.1695E+02
     -0.590  0.7823E+01  0.1760E+02
     -0.519  0.4609E+01  0.1804E+02
     -0.448  0.2597E+01  0.1827E+02
     -0.377  0.2344E+01  0.1845E+02
     -0.306  0.2178E+01  0.1861E+02
     -0.235  0.2018E+01  0.1876E+02
     -0.164  0.1859E+01  0.1890E+02
     -0.093  0.1750E+02  0.1924E+02
     -0.022  0.1973E+02  0.2067E+02
      0.049  0.7272E+01  0.2136E+02
      0.120  0.6461E+01  0.2181E+02
      0.191  0.5486E+01  0.2229E+02
      0.262  0.3759E+01  0.2259E+02
      0.333  0.3573E+01  0.2285E+02
      0.404  0.3388E+01  0.2310E+02
      0.475  0.3638E+01  0.2334E+02
      0.546  0.5297E+01  0.2365E+02
      0.616  0.5043E+01  0.2402E+02
      0.687  0.4061E+01  0.2436E+02
      0.758  0.2539E+01  0.2459E+02
      0.829  0.1789E+01  0.2472E+02
      0.900  0.1746E+01  0.2485E+02
      0.971  0.1710E+01  0.2497E+02
      1.042  0.1681E+01  0.2509E+02
      1.113  0.5392E+01  0.2528E+02
      1.184  0.1160E+02  0.2585E+02
      1.255  0.1748E+02  0.2697E+02
      1.326  0.1276E+02  0.2809E+02
      1.397  0.4593E+01  0.2866E+02
      1.468  0.3116E+01  0.2892E+02
      1.539  0.2956E+01  0.2913E+02
      1.610  0.2879E+01  0.2934E+02
      1.681  0.3059E+01  0.2955E+02
      1.752  0.3847E+01  0.2978E+02
      1.823  0.6982E+01  0.3015E+02
      1.894  0.8441E+01  0.3072E+02
      1.965  0.4866E+01  0.3117E+02
      2.036  0.4285E+01  0.3150E+02
      2.107  0.2905E+01  0.3176E+02
      2.177  0.1523E+01  0.3191E+02
      2.248  0.2898E+01  0.3205E+02
      2.319  0.8693E+01  0.3239E+02
      2.390  0.7725E+01  0.3298E+02
      2.461  0.7138E+01  0.3350E+02
      2.532  0.6593E+01  0.3399E+02
      2.603  0.6134E+01  0.3444E+02
      2.674  0.4242E+01  0.3481E+02
      2.745  0.3715E+01  0.3509E+02
      2.816  0.3187E+01  0.3533E+02
      2.887  0.2940E+01  0.3555E+02
      2.958  0.2310E+01  0.3574E+02
      3.029  0.9633E+00  0.3589E+02
      3.100  0.7377E+00  0.3595E+02
      3.171  0.2754E+00  0.3599E+02
      3.242  0.6140E-01  0.3600E+02
      3.313  0.0000E+00  0.3600E+02
      3.384  0.0000E+00  0.3600E+02
      3.455  0.0000E+00  0.3600E+02
      3.526  0.0000E+00  0.3600E+02
      3.597  0.0000E+00  0.3600E+02
      3.667  0.0000E+00  0.3600E+02
      3.738  0.0000E+00  0.3600E+02
      3.809  0.0000E+00  0.3600E+02
      3.880  0.0000E+00  0.3600E+02
      3.951  0.0000E+00  0.3600E+02
      4.022  0.0000E+00  0.3600E+02
      4.093  0.0000E+00  0.3600E+02
      4.164  0.0000E+00  0.3600E+02
      4.235  0.0000E+00  0.3600E+02
      4.306  0.0000E+00  0.3600E+02
      4.377  0.0000E+00  0.3600E+02
      4.448  0.0000E+00  0.3600E+02
      4.519  0.0000E+00  0.3600E+02
      4.590  0.0000E+00  0.3600E+02
      4.661  0.0000E+00  0.3600E+02
      4.732  0.0000E+00  0.3600E+02
      4.803  0.0000E+00  0.3600E+02
      4.874  0.0000E+00  0.3600E+02
      4.945  0.1257E+01  0.3608E+02
      5.016  0.2126E+01  0.3619E+02
      5.087  0.5752E+01  0.3646E+02
      5.158  0.9502E+01  0.3700E+02
      5.228  0.1337E+02  0.3782E+02
      5.299  0.1738E+02  0.3909E+02
      5.370  0.2035E+01  0.3948E+02
      5.441  0.1519E+01  0.3960E+02
      5.512  0.1000E+02  0.4001E+02
      5.583  0.1017E+02  0.4081E+02
      5.654  0.7664E+01  0.4150E+02
      5.725  0.7632E+01  0.4204E+02
      5.796  0.9316E+01  0.4261E+02
      5.867  0.3642E+01  0.4309E+02
      5.938  0.2755E+01  0.4331E+02
      6.009  0.2190E+01  0.4349E+02
      6.080  0.1866E+01  0.4363E+02
      6.151  0.1666E+01  0.4375E+02
      6.222  0.1605E+01  0.4388E+02
      6.293  0.8598E+00  0.4397E+02
      6.364  0.0000E+00  0.4400E+02
      6.435  0.0000E+00  0.4400E+02
      6.506  0.0000E+00  0.4400E+02
      6.577  0.0000E+00  0.4400E+02
      6.648  0.0000E+00  0.4400E+02
      6.719  0.0000E+00  0.4400E+02
      6.789  0.0000E+00  0.4400E+02
      6.860  0.0000E+00  0.4400E+02
      6.931  0.0000E+00  0.4400E+02
      7.002  0.0000E+00  0.4400E+02
      7.073  0.0000E+00  0.4400E+02
      7.144  0.0000E+00  0.4400E+02
      7.215  0.0000E+00  0.4400E+02
      7.286  0.0000E+00  0.4400E+02
      7.357  0.0000E+00  0.4400E+02
      7.428  0.0000E+00  0.4400E+02
      7.499  0.0000E+00  0.4400E+02
      7.570  0.0000E+00  0.4400E+02
      7.641  0.0000E+00  0.4400E+02
      7.712  0.0000E+00  0.4400E+02
      7.783  0.0000E+00  0.4400E+02
      7.854  0.0000E+00  0.4400E+02
      7.925  0.0000E+00  0.4400E+02
      7.996  0.0000E+00  0.4400E+02
      8.067  0.0000E+00  0.4400E+02
      8.138  0.0000E+00  0.4400E+02
      8.209  0.0000E+00  0.4400E+02
      8.279  0.0000E+00  0.4400E+02
      8.350  0.0000E+00  0.4400E+02
