       N       E                     dE             d eps       ncg     rms          rms(c)
DAV:   1     0.133610061140E+03    0.13361E+03   -0.10753E+04   880   0.789E+02
DAV:   2    -0.354222393659E+02   -0.16903E+03   -0.16532E+03  1204   0.199E+02
DAV:   3    -0.464436849268E+02   -0.11021E+02   -0.10967E+02  1158   0.562E+01
DAV:   4    -0.467346920827E+02   -0.29101E+00   -0.29050E+00  1232   0.951E+00
DAV:   5    -0.467413952722E+02   -0.67032E-02   -0.66998E-02  1144   0.137E+00    0.977E+00
RMM:   6    -0.443680972496E+02    0.23733E+01   -0.24336E+01   980   0.181E+01    0.341E+00
RMM:   7    -0.436261069507E+02    0.74199E+00   -0.20623E+00   977   0.510E+00    0.183E+00
RMM:   8    -0.435559009271E+02    0.70206E-01   -0.82738E-01  1007   0.324E+00    0.780E-01
RMM:   9    -0.435458168920E+02    0.10084E-01   -0.23197E-01  1059   0.183E+00    0.498E-01
RMM:  10    -0.435338919491E+02    0.11925E-01   -0.52875E-02  1059   0.907E-01    0.790E-02
RMM:  11    -0.435338828422E+02    0.91069E-05   -0.26534E-03  1107   0.203E-01    0.295E-02
RMM:  12    -0.435340245944E+02   -0.14175E-03   -0.48455E-04  1136   0.900E-02    0.194E-02
RMM:  13    -0.435340333624E+02   -0.87680E-05   -0.30735E-04  1133   0.644E-02    0.190E-02
RMM:  14    -0.435340182187E+02    0.15144E-04   -0.57808E-05   850   0.310E-02    0.366E-03
RMM:  15    -0.435340183138E+02   -0.95089E-07   -0.91120E-06   680   0.136E-02
   1 F= -.44865305E+02 E0= -.44865305E+02  d E =0.000000E+00
