 vasp.5.4.4.18Apr17-6-g9f103f2a35 (build Jun 30 2017 11:15:00) complex          
  
 executed on    STALLO_VASP_5.4.4 date 2019.11.08  11:35:49
 running on    4 total cores
 distrk:  each k-point on    4 cores,    1 groups
 distr:  one band on NCORES_PER_BAND=   2 cores,    2 groups


--------------------------------------------------------------------------------------------------------


 INCAR:
 POTCAR:   PAW_PBE Mo 08Apr2002                   
 POTCAR:    PAW_PBE S 17Jan2003                   
 POTCAR:   PAW_PBE Mo 08Apr2002                   
   VRHFIN =Mo: 4p5s4d                                                           
   LEXCH  = PE                                                                  
   EATOM  =   217.5180 eV,   15.9871 Ry                                         
                                                                                
   TITEL  = PAW_PBE Mo 08Apr2002                                                
   LULTRA =        F    use ultrasoft PP ?                                      
   IUNSCR =        1    unscreen: 0-lin 1-nonlin 2-no                           
   RPACOR =    2.200    partial core radius                                     
   POMASS =   95.940; ZVAL   =    6.000    mass and valenz                      
   RCORE  =    2.750    outmost cutoff radius                                   
   RWIGS  =    2.750; RWIGS  =    1.455    wigner-seitz radius (au A)           
   ENMAX  =  224.584; ENMIN  =  168.438 eV                                      
   RCLOC  =    2.111    cutoff for local pot                                    
   LCOR   =        T    correct aug charges                                     
   LPAW   =        T    paw PP                                                  
   EAUG   =  345.278                                                            
   DEXC   =    -.088                                                            
   RMAX   =    3.077    core radius for proj-oper                               
   RAUG   =    1.300    factor for augmentation sphere                          
   RDEP   =    2.815    radius for radial grids                                 
   QCUT   =   -4.063; QGAM   =    8.126    optimization parameters              
                                                                                
   Description                                                                  
     l     E      TYP  RCUT    TYP  RCUT                                        
     2   .000     23  2.500                                                     
     2   .000     23  2.500                                                     
     0   .000     23  2.600                                                     
     0  1.000     23  2.600                                                     
     1   .400     23  2.750                                                     
     1  2.000     23  2.750                                                     
     3   .000      7   .000                                                     
  local pseudopotential read in
  partial core-charges read in
  atomic valenz-charges read in
  non local Contribution for L=           2  read in
    real space projection operators read in
  non local Contribution for L=           2  read in
    real space projection operators read in
  non local Contribution for L=           0  read in
    real space projection operators read in
  non local Contribution for L=           0  read in
    real space projection operators read in
  non local Contribution for L=           1  read in
    real space projection operators read in
  non local Contribution for L=           1  read in
    real space projection operators read in
    PAW grid and wavefunctions read in
 
   number of l-projection  operators is LMAX  =           6
   number of lm-projection operators is LMMAX =          18
 
 POTCAR:    PAW_PBE S 17Jan2003                   
   VRHFIN =S : s2p4                                                             
   LEXCH  = PE                                                                  
   EATOM  =   276.8230 eV,   20.3459 Ry                                         
                                                                                
   TITEL  = PAW_PBE S 17Jan2003                                                 
   LULTRA =        F    use ultrasoft PP ?                                      
   IUNSCR =        1    unscreen: 0-lin 1-nonlin 2-no                           
   RPACOR =    1.500    partial core radius                                     
   POMASS =   32.066; ZVAL   =    6.000    mass and valenz                      
   RCORE  =    1.900    outmost cutoff radius                                   
   RWIGS  =    2.200; RWIGS  =    1.164    wigner-seitz radius (au A)           
   ENMAX  =  280.000; ENMIN  =  194.016 eV                                      
   ICORE  =        2    local potential                                         
   LCOR   =        T    correct aug charges                                     
   LPAW   =        T    paw PP                                                  
   EAUG   =  335.092                                                            
   DEXC   =     .000                                                            
   RMAX   =    2.867    core radius for proj-oper                               
   RAUG   =    1.300    factor for augmentation sphere                          
   RDEP   =    1.954    radius for radial grids                                 
   QCUT   =   -4.360; QGAM   =    8.721    optimization parameters              
                                                                                
   Description                                                                  
     l     E      TYP  RCUT    TYP  RCUT                                        
     0   .000     23  1.900                                                     
     0   .000     23  1.900                                                     
     1   .000     23  1.900                                                     
     1   .000     23  1.900                                                     
     2   .000     23  1.900                                                     
  local pseudopotential read in
  partial core-charges read in
  atomic valenz-charges read in
  non local Contribution for L=           0  read in
    real space projection operators read in
  non local Contribution for L=           0  read in
    real space projection operators read in
  non local Contribution for L=           1  read in
    real space projection operators read in
  non local Contribution for L=           1  read in
    real space projection operators read in
    PAW grid and wavefunctions read in
 
   number of l-projection  operators is LMAX  =           4
   number of lm-projection operators is LMMAX =           8
 
 PAW_PBE Mo 08Apr2002                   :
 energy of atom  1       EATOM= -217.5180
 kinetic energy error for atom=    0.0235 (will be added to EATOM!!)
  PAW_PBE S 17Jan2003                   :
 energy of atom  2       EATOM= -276.8230
 kinetic energy error for atom=    0.0359 (will be added to EATOM!!)
 
 
 POSCAR: MoS2_mp-2815_computed                   
  positions in direct lattice
  No initial velocities read in
 exchange correlation table for  LEXCH =        8
   RHO(1)=    0.500       N(1)  =     2000
   RHO(2)=  100.500       N(2)  =     4000
 


--------------------------------------------------------------------------------------------------------


 ion  position               nearest neighbor table
   1  0.333  0.667  0.250-   5 2.42   4 2.42   4 2.42   5 2.42   5 2.42   4 2.42
   2  0.667  0.333  0.750-   6 2.42   3 2.42   3 2.42   6 2.42   6 2.42   3 2.42
   3  0.333  0.667  0.855-   2 2.42   2 2.42   2 2.42
   4  0.667  0.333  0.145-   1 2.42   1 2.42   1 2.42
   5  0.667  0.333  0.355-   1 2.42   1 2.42   1 2.42
   6  0.333  0.667  0.645-   2 2.42   2 2.42   2 2.42
 
  LATTYP: Found a hexagonal cell.
 ALAT       =     3.1903157300
 C/A-ratio  =     4.6638030713
  
  Lattice vectors:
  
 A1 = (   3.1903157300,   0.0000000000,   0.0000000000)
 A2 = (  -1.5951578650,   2.7628944683,   0.0000000000)
 A3 = (   0.0000000000,   0.0000000000,  14.8790043000)


Analysis of symmetry for initial positions (statically):
=====================================================================
 Subroutine PRICEL returns:
 Original cell was already a primitive cell.
 

 Routine SETGRP: Setting up the symmetry group for a 
 hexagonal supercell.


 Subroutine GETGRP returns: Found 24 space group operations
 (whereof 12 operations were pure point group operations)
 out of a pool of 24 trial point group operations.


The static configuration has the point symmetry D_3d.
 The point group associated with its full space group is D_6h.


Analysis of symmetry for dynamics (positions and initial velocities):
=====================================================================
 Subroutine PRICEL returns:
 Original cell was already a primitive cell.
 

 Routine SETGRP: Setting up the symmetry group for a 
 hexagonal supercell.


 Subroutine GETGRP returns: Found 24 space group operations
 (whereof 12 operations were pure point group operations)
 out of a pool of 24 trial point group operations.


The dynamic configuration has the point symmetry D_3d.
 The point group associated with its full space group is D_6h.


 Subroutine INISYM returns: Found 24 space group operations
 (whereof 12 operations are pure point group operations),
 and found     1 'primitive' translations

 
 
 KPOINTS: k-density: 4.0                          

Automatic generation of k-mesh.
Space group operators:
 irot       det(A)        alpha          n_x          n_y          n_z        tau_x        tau_y        tau_z
    1     1.000000     0.000001     1.000000     0.000000     0.000000     0.000000     0.000000     0.000000
    2    -1.000000     0.000001     1.000000     0.000000     0.000000     0.000000     0.000000     0.000000
    3     1.000000   120.000000     0.000000     0.000000    -1.000000     0.000000     0.000000     0.000000
    4    -1.000000   120.000000     0.000000     0.000000    -1.000000     0.000000     0.000000     0.000000
    5     1.000000   120.000000     0.000000     0.000000     1.000000     0.000000     0.000000     0.000000
    6    -1.000000   120.000000     0.000000     0.000000     1.000000     0.000000     0.000000     0.000000
    7     1.000000   179.999999     1.000000    -0.000000     0.000000     0.000000     0.000000     0.000000
    8    -1.000000   179.999999     1.000000    -0.000000     0.000000     0.000000     0.000000     0.000000
    9     1.000000   180.000000     0.500000    -0.866025     0.000000     0.000000     0.000000     0.000000
   10    -1.000000   180.000000     0.500000    -0.866025     0.000000     0.000000     0.000000     0.000000
   11     1.000000   180.000000    -0.500000    -0.866025     0.000000     0.000000     0.000000     0.000000
   12    -1.000000   180.000000    -0.500000    -0.866025     0.000000     0.000000     0.000000     0.000000
   13     1.000000    60.000000     0.000000     0.000000    -1.000000     0.000001     0.000000     0.500000
   14    -1.000000    60.000000     0.000000     0.000000    -1.000000     0.000001     0.000000     0.500000
   15     1.000000   180.000000     0.000000     0.000000     1.000000     0.000000     0.000000     0.500000
   16    -1.000000   180.000000     0.000000     0.000000     1.000000     0.000000     0.000000     0.500000
   17     1.000000    60.000000     0.000000     0.000000     1.000000     0.000000     0.000000     0.500000
   18    -1.000000    60.000000     0.000000     0.000000     1.000000     0.000000     0.000000     0.500000
   19     1.000000   179.999999     0.866025    -0.500000     0.000000     0.000000     0.000000     0.500000
   20    -1.000000   179.999999     0.866025    -0.500000     0.000000     0.000000     0.000000     0.500000
   21     1.000000   180.000000     0.000000     1.000000     0.000000     0.000001     0.000000     0.500000
   22    -1.000000   180.000000     0.000000     1.000000     0.000000     0.000001     0.000000     0.500000
   23     1.000000   179.999999     0.866025     0.500000     0.000000     0.000000     0.000000     0.500000
   24    -1.000000   179.999999     0.866025     0.500000     0.000000     0.000000     0.000000     0.500000
 
 Subroutine IBZKPT returns following result:
 ===========================================
 
 Found     20 irreducible k-points:
 
 Following reciprocal coordinates:
            Coordinates               Weight
  0.000000  0.000000  0.000000      1.000000
  0.125000 -0.000000  0.000000      6.000000
  0.250000 -0.000000  0.000000      6.000000
  0.375000 -0.000000  0.000000      6.000000
  0.500000 -0.000000  0.000000      3.000000
  0.125000  0.125000  0.000000      6.000000
  0.250000  0.125000  0.000000     12.000000
  0.375000  0.125000  0.000000     12.000000
  0.250000  0.250000  0.000000      6.000000
  0.375000  0.250000  0.000000      6.000000
  0.000000  0.000000  0.500000      1.000000
  0.125000 -0.000000  0.500000      6.000000
  0.250000 -0.000000  0.500000      6.000000
  0.375000 -0.000000  0.500000      6.000000
  0.500000 -0.000000  0.500000      3.000000
  0.125000  0.125000  0.500000      6.000000
  0.250000  0.125000  0.500000     12.000000
  0.375000  0.125000  0.500000     12.000000
  0.250000  0.250000  0.500000      6.000000
  0.375000  0.250000  0.500000      6.000000
 
 Following cartesian coordinates:
            Coordinates               Weight
  0.000000  0.000000  0.000000      1.000000
  0.039181  0.022621  0.000000      6.000000
  0.078362  0.045242  0.000000      6.000000
  0.117543  0.067864  0.000000      6.000000
  0.156724  0.090485  0.000000      3.000000
  0.039181  0.067864  0.000000      6.000000
  0.078362  0.090485  0.000000     12.000000
  0.117543  0.113106  0.000000     12.000000
  0.078362  0.135727  0.000000      6.000000
  0.117543  0.158348  0.000000      6.000000
  0.000000  0.000000  0.033604      1.000000
  0.039181  0.022621  0.033604      6.000000
  0.078362  0.045242  0.033604      6.000000
  0.117543  0.067864  0.033604      6.000000
  0.156724  0.090485  0.033604      3.000000
  0.039181  0.067864  0.033604      6.000000
  0.078362  0.090485  0.033604     12.000000
  0.117543  0.113106  0.033604     12.000000
  0.078362  0.135727  0.033604      6.000000
  0.117543  0.158348  0.033604      6.000000
 
 TETIRR: Found    136 inequivalent tetrahedra from      768


--------------------------------------------------------------------------------------------------------




 Dimension of arrays:
   k-points           NKPTS =     20   k-points in BZ     NKDIM =     20   number of bands    NBANDS=     22
   number of dos      NEDOS =    301   number of ions     NIONS =      6
   non local maximal  LDIM  =      6   non local SUM 2l+1 LMDIM =     18
   total plane-waves  NPLWV =   8640
   max r-space proj   IRMAX =      1   max aug-charges    IRDMAX=   4429
   dimension x,y,z NGX =    12 NGY =   12 NGZ =   60
   dimension x,y,z NGXF=    24 NGYF=   24 NGZF=  120
   support grid    NGXF=    24 NGYF=   24 NGZF=  120
   ions per type =               2   4
   NGX,Y,Z   is equivalent  to a cutoff of   6.25,  6.25,  6.70 a.u.
   NGXF,Y,Z  is equivalent  to a cutoff of  12.51, 12.51, 13.41 a.u.

 SYSTEM =  unknown system                          
 POSCAR =  MoS2_mp-2815_computed                   

 Startparameter for this run:
   NWRITE =      2    write-flag & timer
   PREC   = normal    normal or accurate (medium, high low for compatibility)
   ISTART =      0    job   : 0-new  1-cont  2-samecut
   ICHARG =      2    charge: 1-file 2-atom 10-const
   ISPIN  =      1    spin polarized calculation?
   LNONCOLLINEAR =      F non collinear calculations
   LSORBIT =      F    spin-orbit coupling
   INIWAV =      1    electr: 0-lowe 1-rand  2-diag
   LASPH  =      F    aspherical Exc in radial PAW
   METAGGA=      F    non-selfconsistent MetaGGA calc.

 Electronic Relaxation 1
   ENCUT  =  250.0 eV  18.37 Ry    4.29 a.u.   4.11  4.11 19.18*2*pi/ulx,y,z
   ENINI  =  250.0     initial cutoff
   ENAUG  =  345.3 eV  augmentation charge cutoff
   NELM   =     60;   NELMIN=  4; NELMDL=  0     # of ELM steps 
   EDIFF  = 0.1E-04   stopping-criterion for ELM
   LREAL  =      F    real-space projection
   NLSPLINE    = F    spline interpolate recip. space projectors
   LCOMPAT=      F    compatible to vasp.4.4
   GGA_COMPAT  = T    GGA compatible to vasp.4.4-vasp.4.6
   LMAXPAW     = -100 max onsite density
   LMAXMIX     =    2 max onsite mixed and CHGCAR
   VOSKOWN=      0    Vosko Wilk Nusair interpolation
   ROPT   =    0.00000   0.00000
 Ionic relaxation
   EDIFFG = 0.1E-03   stopping-criterion for IOM
   NSW    =      0    number of steps for IOM
   NBLOCK =      1;   KBLOCK =      1    inner block; outer block 
   IBRION =     -1    ionic relax: 0-MD 1-quasi-New 2-CG
   NFREE  =      0    steps in history (QN), initial steepest desc. (CG)
   ISIF   =      2    stress and relaxation
   IWAVPR =     10    prediction:  0-non 1-charg 2-wave 3-comb
   ISYM   =      2    0-nonsym 1-usesym 2-fastsym
   LCORR  =      T    Harris-Foulkes like correction to forces

   POTIM  = 0.5000    time-step for ionic-motion
   TEIN   =    0.0    initial temperature
   TEBEG  =    0.0;   TEEND  =   0.0 temperature during run
   SMASS  =  -3.00    Nose mass-parameter (am)
   estimated Nose-frequenzy (Omega)   =  0.10E-29 period in steps =****** mass=  -0.233E-27a.u.
   SCALEE = 1.0000    scale energy and forces
   NPACO  =    256;   APACO  = 16.0  distance and # of slots for P.C.
   PSTRESS=    0.0 pullay stress

  Mass of Ions in am
   POMASS =  95.94 32.07
  Ionic Valenz
   ZVAL   =   6.00  6.00
  Atomic Wigner-Seitz radii
   RWIGS  =  -1.00 -1.00
  virtual crystal weights 
   VCA    =   1.00  1.00
   NELECT =      36.0000    total number of electrons
   NUPDOWN=      -1.0000    fix difference up-down

 DOS related values:
   EMIN   =  10.00;   EMAX   =-10.00  energy-range for DOS
   EFERMI =   0.00
   ISMEAR =    -5;   SIGMA  =   0.20  broadening in eV -4-tet -1-fermi 0-gaus

 Electronic relaxation 2 (details)
   IALGO  =     68    algorithm
   LDIAG  =      T    sub-space diagonalisation (order eigenvalues)
   LSUBROT=      F    optimize rotation matrix (better conditioning)
   TURBO    =      0    0=normal 1=particle mesh
   IRESTART =      0    0=no restart 2=restart with 2 vectors
   NREBOOT  =      0    no. of reboots
   NMIN     =      0    reboot dimension
   EREF     =   0.00    reference energy to select bands
   IMIX   =      4    mixing-type and parameters
     AMIX     =   0.40;   BMIX     =  1.00
     AMIX_MAG =   1.60;   BMIX_MAG =  1.00
     AMIN     =   0.10
     WC   =   100.;   INIMIX=   1;  MIXPRE=   1;  MAXMIX= -45

 Intra band minimization:
   WEIMIN = 0.0000     energy-eigenvalue tresh-hold
   EBREAK =  0.11E-06  absolut break condition
   DEPER  =   0.30     relativ break condition  

   TIME   =   0.40     timestep for ELM

  volume/ion in A,a.u.               =      21.86       147.51
  Fermi-wavevector in a.u.,A,eV,Ry     =   1.063943  2.010561 15.401453  1.131975
  Thomas-Fermi vector in A             =   2.199445
 
 Write flags
   LWAVE        =      F    write WAVECAR
   LDOWNSAMPLE  =      F    k-point downsampling of WAVECAR
   LCHARG       =      T    write CHGCAR
   LVTOT        =      F    write LOCPOT, total local potential
   LVHAR        =      F    write LOCPOT, Hartree potential only
   LELF         =      F    write electronic localiz. function (ELF)
   LORBIT       =      0    0 simple, 1 ext, 2 COOP (PROOUT), +10 PAW based schemes


 Dipole corrections
   LMONO  =      F    monopole corrections only (constant potential shift)
   LDIPOL =      F    correct potential (dipole corrections)
   IDIPOL =      0    1-x, 2-y, 3-z, 4-all directions 
   EPSILON=  1.0000000 bulk dielectric constant

 Exchange correlation treatment:
   GGA     =    --    GGA type
   LEXCH   =     8    internal setting for exchange type
   VOSKOWN=      0    Vosko Wilk Nusair interpolation
   LHFCALC =     F    Hartree Fock is set to
   LHFONE  =     F    Hartree Fock one center treatment
   AEXX    =    0.0000 exact exchange contribution

 Linear response parameters
   LEPSILON=     F    determine dielectric tensor
   LRPA    =     F    only Hartree local field effects (RPA)
   LNABLA  =     F    use nabla operator in PAW spheres
   LVEL    =     F    velocity operator in full k-point grid
   LINTERFAST=   F  fast interpolation
   KINTER  =     0    interpolate to denser k-point grid
   CSHIFT  =0.1000    complex shift for real part using Kramers Kronig
   OMEGAMAX=  -1.0    maximum frequency
   DEG_THRESHOLD= 0.2000000E-02 threshold for treating states as degnerate
   RTIME   =   -0.100 relaxation time in fs
  (WPLASMAI=    0.000 imaginary part of plasma frequency in eV, 0.658/RTIME)
   DFIELD  = 0.0000000 0.0000000 0.0000000 field for delta impulse in time
 
 Orbital magnetization related:
   ORBITALMAG=     F  switch on orbital magnetization
   LCHIMAG   =     F  perturbation theory with respect to B field
   DQ        =  0.001000  dq finite difference perturbation B field
   LLRAUG    =     F  two centre corrections for induced B field



--------------------------------------------------------------------------------------------------------


 Static calculation
 charge density and potential will be updated during run
 non-spin polarized calculation
 RMM-DIIS sequential band-by-band and
  variant of blocked Davidson during initial phase
 perform sub-space diagonalisation
    before iterative eigenvector-optimisation
 modified Broyden-mixing scheme, WC =      100.0
 initial mixing is a Kerker type mixing with AMIX =  0.4000 and BMIX =      1.0000
 Hartree-type preconditioning will be used
 using additional bands            4
 reciprocal scheme for non local part
 use partial core corrections
 calculate Harris-corrections to forces 
   (improved forces if not selfconsistent)
 use gradient corrections 
 use of overlap-Matrix (Vanderbilt PP)
 Fermi weights with tetrahedron method with Bloechl corrections


--------------------------------------------------------------------------------------------------------


  energy-cutoff  :      250.00
  volume of cell :      131.15
      direct lattice vectors                 reciprocal lattice vectors
     3.190315730  0.000000000  0.000000000     0.313448600  0.180969634  0.000000000
    -1.595157865  2.762894468  0.000000000     0.000000000  0.361939267  0.000000000
     0.000000000  0.000000000 14.879004300     0.000000000  0.000000000  0.067208798

  length of vectors
     3.190315730  3.190315730 14.879004300     0.361939267  0.361939267  0.067208798


 
 k-points in units of 2pi/SCALE and weight: k-density: 4.0                          
   0.00000000  0.00000000  0.00000000       0.008
   0.03918108  0.02262120  0.00000000       0.047
   0.07836215  0.04524241  0.00000000       0.047
   0.11754323  0.06786361  0.00000000       0.047
   0.15672430  0.09048482  0.00000000       0.023
   0.03918108  0.06786361  0.00000000       0.047
   0.07836215  0.09048482  0.00000000       0.094
   0.11754323  0.11310602  0.00000000       0.094
   0.07836215  0.13572723  0.00000000       0.047
   0.11754323  0.15834843  0.00000000       0.047
   0.00000000  0.00000000  0.03360440       0.008
   0.03918108  0.02262120  0.03360440       0.047
   0.07836215  0.04524241  0.03360440       0.047
   0.11754323  0.06786361  0.03360440       0.047
   0.15672430  0.09048482  0.03360440       0.023
   0.03918108  0.06786361  0.03360440       0.047
   0.07836215  0.09048482  0.03360440       0.094
   0.11754323  0.11310602  0.03360440       0.094
   0.07836215  0.13572723  0.03360440       0.047
   0.11754323  0.15834843  0.03360440       0.047
 
 k-points in reciprocal lattice and weights: k-density: 4.0                          
   0.00000000  0.00000000  0.00000000       0.008
   0.12500000 -0.00000000  0.00000000       0.047
   0.25000000 -0.00000000  0.00000000       0.047
   0.37500000 -0.00000000  0.00000000       0.047
   0.50000000 -0.00000000  0.00000000       0.023
   0.12500000  0.12500000  0.00000000       0.047
   0.25000000  0.12500000  0.00000000       0.094
   0.37500000  0.12500000  0.00000000       0.094
   0.25000000  0.25000000  0.00000000       0.047
   0.37500000  0.25000000  0.00000000       0.047
   0.00000000  0.00000000  0.50000000       0.008
   0.12500000 -0.00000000  0.50000000       0.047
   0.25000000 -0.00000000  0.50000000       0.047
   0.37500000 -0.00000000  0.50000000       0.047
   0.50000000 -0.00000000  0.50000000       0.023
   0.12500000  0.12500000  0.50000000       0.047
   0.25000000  0.12500000  0.50000000       0.094
   0.37500000  0.12500000  0.50000000       0.094
   0.25000000  0.25000000  0.50000000       0.047
   0.37500000  0.25000000  0.50000000       0.047
 
 position of ions in fractional coordinates (direct lattice) 
   0.33333300  0.66666700  0.25000000
   0.66666700  0.33333300  0.75000000
   0.33333300  0.66666700  0.85517400
   0.66666700  0.33333300  0.14482600
   0.66666600  0.33333300  0.35517400
   0.33333400  0.66666700  0.64482600
 
 position of ions in cartesian coordinates  (Angst):
  -0.00000160  1.84193057  3.71975108
   1.59515946  0.92096390 11.15925323
  -0.00000160  1.84193057 12.72413762
   1.59515946  0.92096390  2.15486668
   1.59515627  0.92096390  5.28463547
   0.00000160  1.84193057  9.59436883
 


--------------------------------------------------------------------------------------------------------


 k-point  1 :   0.0000 0.0000 0.0000  plane waves:    1125
 k-point  2 :   0.1250-0.0000 0.0000  plane waves:    1153
 k-point  3 :   0.2500-0.0000 0.0000  plane waves:    1185
 k-point  4 :   0.3750-0.0000 0.0000  plane waves:    1189
 k-point  5 :   0.5000-0.0000 0.0000  plane waves:    1184
 k-point  6 :   0.1250 0.1250 0.0000  plane waves:    1168
 k-point  7 :   0.2500 0.1250 0.0000  plane waves:    1179
 k-point  8 :   0.3750 0.1250 0.0000  plane waves:    1177
 k-point  9 :   0.2500 0.2500 0.0000  plane waves:    1184
 k-point 10 :   0.3750 0.2500 0.0000  plane waves:    1180
 k-point 11 :   0.0000 0.0000 0.5000  plane waves:    1130
 k-point 12 :   0.1250-0.0000 0.5000  plane waves:    1146
 k-point 13 :   0.2500-0.0000 0.5000  plane waves:    1172
 k-point 14 :   0.3750-0.0000 0.5000  plane waves:    1188
 k-point 15 :   0.5000-0.0000 0.5000  plane waves:    1200
 k-point 16 :   0.1250 0.1250 0.5000  plane waves:    1164
 k-point 17 :   0.2500 0.1250 0.5000  plane waves:    1186
 k-point 18 :   0.3750 0.1250 0.5000  plane waves:    1180
 k-point 19 :   0.2500 0.2500 0.5000  plane waves:    1188
 k-point 20 :   0.3750 0.2500 0.5000  plane waves:    1178

 maximum and minimum number of plane-waves per node :       602      559

 maximum number of plane-waves:      1200
 maximum index in each direction: 
   IXMAX=    4   IYMAX=    4   IZMAX=   19
   IXMIN=   -4   IYMIN=   -4   IZMIN=  -19


 parallel 3D FFT for wavefunctions:
    minimum data exchange during FFTs selected (reduces bandwidth)
 parallel 3D FFT for charge:
    minimum data exchange during FFTs selected (reduces bandwidth)


 total amount of memory used by VASP MPI-rank0    37680. kBytes
=======================================================================

   base      :      30000. kBytes
   nonl-proj :       3525. kBytes
   fftplans  :        718. kBytes
   grid      :       1153. kBytes
   one-center:         46. kBytes
   wavefun   :       2238. kBytes
 
     INWAV:  cpu time    0.0010: real time    0.0002
 Broyden mixing: mesh for mixing (old mesh)
   NGX =  9   NGY =  9   NGZ = 39
  (NGX  = 24   NGY  = 24   NGZ  =120)
  gives a total of   3159 points

 initial charge density was supplied:
 charge density of overlapping atoms calculated
 number of electron      36.0000000 magnetization 
 keeping initial charge density in first step


--------------------------------------------------------------------------------------------------------


 Maximum index for augmentation-charges         1037 (set IRDMAX)


--------------------------------------------------------------------------------------------------------


 First call to EWALD:  gamma=   0.349
 Maximum number of real-space cells 5x 5x 1
 Maximum number of reciprocal cells 2x 2x 7

    FEWALD:  cpu time    0.0020: real time    0.0015


--------------------------------------- Iteration      1(   1)  ---------------------------------------


    POTLOK:  cpu time    0.0120: real time    0.0645
    SETDIJ:  cpu time    0.0030: real time    0.0036
     EDDAV:  cpu time    0.1980: real time    0.2032
 BZINTS: Fermi energy: 12.231853; 36.000000 electrons
         Band energy: 100.540686;  BLOECHL correction: -0.251381
       DOS:  cpu time    0.0050: real time    0.0049
    --------------------------------------------
      LOOP:  cpu time    0.2180: real time    0.2763

 eigenvalue-minimisations  :   880
 total energy-change (2. order) : 0.1336101E+03  (-0.1075314E+04)
 number of electron      36.0000000 magnetization 
 augmentation part       36.0000000 magnetization 

 Free energy of the ion-electron system (eV)
  ---------------------------------------------------
  alpha Z        PSCENC =        90.42577596
  Ewald energy   TEWEN  =     -1146.88905665
  -Hartree energ DENC   =      -535.10238360
  -exchange      EXHF   =         0.00000000
  -V(xc)+E(xc)   XCENC  =       -72.59367185
  PAW double counting   =       813.77302396     -658.68146406
  entropy T*S    EENTRO =         0.00000000
  eigenvalues    EBANDS =       100.54068587
  atomic energy  EATOM  =      1542.13715150
  Solvation  Ediel_sol  =         0.00000000
  ---------------------------------------------------
  free energy    TOTEN  =       133.61006114 eV

  energy without entropy =      133.61006114  energy(sigma->0) =      133.61006114


--------------------------------------------------------------------------------------------------------




--------------------------------------- Iteration      1(   2)  ---------------------------------------


     EDDAV:  cpu time    0.2470: real time    0.2474
 BZINTS: Fermi energy:  4.723272; 36.000000 electrons
         Band energy: -68.491615;  BLOECHL correction:  0.000000
       DOS:  cpu time    0.0020: real time    0.0015
    --------------------------------------------
      LOOP:  cpu time    0.2490: real time    0.2488

 eigenvalue-minimisations  :  1204
 total energy-change (2. order) :-0.1690323E+03  (-0.1653165E+03)
 number of electron      36.0000000 magnetization 
 augmentation part       36.0000000 magnetization 

 Free energy of the ion-electron system (eV)
  ---------------------------------------------------
  alpha Z        PSCENC =        90.42577596
  Ewald energy   TEWEN  =     -1146.88905665
  -Hartree energ DENC   =      -535.10238360
  -exchange      EXHF   =         0.00000000
  -V(xc)+E(xc)   XCENC  =       -72.59367185
  PAW double counting   =       813.77302396     -658.68146406
  entropy T*S    EENTRO =         0.00000000
  eigenvalues    EBANDS =       -68.49161463
  atomic energy  EATOM  =      1542.13715150
  Solvation  Ediel_sol  =         0.00000000
  ---------------------------------------------------
  free energy    TOTEN  =       -35.42223937 eV

  energy without entropy =      -35.42223937  energy(sigma->0) =      -35.42223937


--------------------------------------------------------------------------------------------------------




--------------------------------------- Iteration      1(   3)  ---------------------------------------


     EDDAV:  cpu time    0.2410: real time    0.2416
 BZINTS: Fermi energy:  3.934114; 36.000000 electrons
         Band energy: -79.513060;  BLOECHL correction:  0.000000
       DOS:  cpu time    0.0010: real time    0.0013
    --------------------------------------------
      LOOP:  cpu time    0.2420: real time    0.2430

 eigenvalue-minimisations  :  1158
 total energy-change (2. order) :-0.1102145E+02  (-0.1096693E+02)
 number of electron      36.0000000 magnetization 
 augmentation part       36.0000000 magnetization 

 Free energy of the ion-electron system (eV)
  ---------------------------------------------------
  alpha Z        PSCENC =        90.42577596
  Ewald energy   TEWEN  =     -1146.88905665
  -Hartree energ DENC   =      -535.10238360
  -exchange      EXHF   =         0.00000000
  -V(xc)+E(xc)   XCENC  =       -72.59367185
  PAW double counting   =       813.77302396     -658.68146406
  entropy T*S    EENTRO =         0.00000000
  eigenvalues    EBANDS =       -79.51306019
  atomic energy  EATOM  =      1542.13715150
  Solvation  Ediel_sol  =         0.00000000
  ---------------------------------------------------
  free energy    TOTEN  =       -46.44368493 eV

  energy without entropy =      -46.44368493  energy(sigma->0) =      -46.44368493


--------------------------------------------------------------------------------------------------------




--------------------------------------- Iteration      1(   4)  ---------------------------------------


     EDDAV:  cpu time    0.2530: real time    0.2555
 BZINTS: Fermi energy:  3.874227; 36.000000 electrons
         Band energy: -79.804067;  BLOECHL correction:  0.000000
       DOS:  cpu time    0.0010: real time    0.0012
    --------------------------------------------
      LOOP:  cpu time    0.2540: real time    0.2566

 eigenvalue-minimisations  :  1232
 total energy-change (2. order) :-0.2910072E+00  (-0.2905002E+00)
 number of electron      36.0000000 magnetization 
 augmentation part       36.0000000 magnetization 

 Free energy of the ion-electron system (eV)
  ---------------------------------------------------
  alpha Z        PSCENC =        90.42577596
  Ewald energy   TEWEN  =     -1146.88905665
  -Hartree energ DENC   =      -535.10238360
  -exchange      EXHF   =         0.00000000
  -V(xc)+E(xc)   XCENC  =       -72.59367185
  PAW double counting   =       813.77302396     -658.68146406
  entropy T*S    EENTRO =         0.00000000
  eigenvalues    EBANDS =       -79.80406735
  atomic energy  EATOM  =      1542.13715150
  Solvation  Ediel_sol  =         0.00000000
  ---------------------------------------------------
  free energy    TOTEN  =       -46.73469208 eV

  energy without entropy =      -46.73469208  energy(sigma->0) =      -46.73469208


--------------------------------------------------------------------------------------------------------




--------------------------------------- Iteration      1(   5)  ---------------------------------------


     EDDAV:  cpu time    0.2390: real time    0.2390
 BZINTS: Fermi energy:  3.875837; 36.000000 electrons
         Band energy: -79.810771;  BLOECHL correction:  0.000000
       DOS:  cpu time    0.0010: real time    0.0012
    CHARGE:  cpu time    0.0140: real time    0.0134
    MIXING:  cpu time    0.0000: real time    0.0007
    --------------------------------------------
      LOOP:  cpu time    0.2540: real time    0.2544

 eigenvalue-minimisations  :  1144
 total energy-change (2. order) :-0.6703189E-02  (-0.6699830E-02)
 number of electron      35.9999801 magnetization 
 augmentation part       -1.9034346 magnetization 

 Broyden mixing:
  rms(total) = 0.97708E+00    rms(broyden)= 0.97692E+00
  rms(prec ) = 0.12204E+01
  weight for this iteration     100.00

 Free energy of the ion-electron system (eV)
  ---------------------------------------------------
  alpha Z        PSCENC =        90.42577596
  Ewald energy   TEWEN  =     -1146.88905665
  -Hartree energ DENC   =      -535.10238360
  -exchange      EXHF   =         0.00000000
  -V(xc)+E(xc)   XCENC  =       -72.59367185
  PAW double counting   =       813.77302396     -658.68146406
  entropy T*S    EENTRO =         0.00000000
  eigenvalues    EBANDS =       -79.81077054
  atomic energy  EATOM  =      1542.13715150
  Solvation  Ediel_sol  =         0.00000000
  ---------------------------------------------------
  free energy    TOTEN  =       -46.74139527 eV

  energy without entropy =      -46.74139527  energy(sigma->0) =      -46.74139527


--------------------------------------------------------------------------------------------------------




--------------------------------------- Iteration      1(   6)  ---------------------------------------


    POTLOK:  cpu time    0.0100: real time    0.0093
    SETDIJ:  cpu time    0.0030: real time    0.0032
    EDDIAG:  cpu time    0.0420: real time    0.0422
  RMM-DIIS:  cpu time    0.1400: real time    0.1400
    ORTHCH:  cpu time    0.0040: real time    0.0051
 BZINTS: Fermi energy:  2.866127; 36.000000 electrons
         Band energy: -79.057286;  BLOECHL correction:  0.000000
       DOS:  cpu time    0.0020: real time    0.0012
    CHARGE:  cpu time    0.0130: real time    0.0132
    MIXING:  cpu time    0.0010: real time    0.0004
    --------------------------------------------
      LOOP:  cpu time    0.2150: real time    0.2146

 eigenvalue-minimisations  :   980
 total energy-change (2. order) : 0.2373298E+01  (-0.2433571E+01)
 number of electron      35.9999793 magnetization 
 augmentation part       -0.8781824 magnetization 

 Broyden mixing:
  rms(total) = 0.34147E+00    rms(broyden)= 0.34124E+00
  rms(prec ) = 0.49876E+00
  weight for this iteration     100.00

 eigenvalues of (default mixing * dielectric matrix)
  average eigenvalue GAMMA=   0.8735
  0.8735

 Free energy of the ion-electron system (eV)
  ---------------------------------------------------
  alpha Z        PSCENC =        90.42577596
  Ewald energy   TEWEN  =     -1146.88905665
  -Hartree energ DENC   =      -533.48992286
  -exchange      EXHF   =         0.00000000
  -V(xc)+E(xc)   XCENC  =       -70.80598785
  PAW double counting   =       852.28240074     -698.97117238
  entropy T*S    EENTRO =         0.00000000
  eigenvalues    EBANDS =       -79.05728570
  atomic energy  EATOM  =      1542.13715150
  Solvation  Ediel_sol  =         0.00000000
  ---------------------------------------------------
  free energy    TOTEN  =       -44.36809725 eV

  energy without entropy =      -44.36809725  energy(sigma->0) =      -44.36809725


--------------------------------------------------------------------------------------------------------




--------------------------------------- Iteration      1(   7)  ---------------------------------------


    POTLOK:  cpu time    0.0080: real time    0.0092
    SETDIJ:  cpu time    0.0040: real time    0.0032
    EDDIAG:  cpu time    0.0420: real time    0.0417
  RMM-DIIS:  cpu time    0.1440: real time    0.1438
    ORTHCH:  cpu time    0.0040: real time    0.0051
 BZINTS: Fermi energy:  3.232365; 36.000000 electrons
         Band energy: -73.311051;  BLOECHL correction:  0.000000
       DOS:  cpu time    0.0010: real time    0.0012
    CHARGE:  cpu time    0.0130: real time    0.0132
    MIXING:  cpu time    0.0010: real time    0.0004
    --------------------------------------------
      LOOP:  cpu time    0.2170: real time    0.2177

 eigenvalue-minimisations  :   977
 total energy-change (2. order) : 0.7419903E+00  (-0.2062294E+00)
 number of electron      35.9999795 magnetization 
 augmentation part       -1.1387109 magnetization 

 Broyden mixing:
  rms(total) = 0.18333E+00    rms(broyden)= 0.18332E+00
  rms(prec ) = 0.21723E+00
  weight for this iteration     100.00

 eigenvalues of (default mixing * dielectric matrix)
  average eigenvalue GAMMA=   1.4137
  0.7492  2.0781

 Free energy of the ion-electron system (eV)
  ---------------------------------------------------
  alpha Z        PSCENC =        90.42577596
  Ewald energy   TEWEN  =     -1146.88905665
  -Hartree energ DENC   =      -537.81411358
  -exchange      EXHF   =         0.00000000
  -V(xc)+E(xc)   XCENC  =       -70.99498258
  PAW double counting   =       888.54301817     -735.72284916
  entropy T*S    EENTRO =         0.00000000
  eigenvalues    EBANDS =       -73.31105062
  atomic energy  EATOM  =      1542.13715150
  Solvation  Ediel_sol  =         0.00000000
  ---------------------------------------------------
  free energy    TOTEN  =       -43.62610695 eV

  energy without entropy =      -43.62610695  energy(sigma->0) =      -43.62610695


--------------------------------------------------------------------------------------------------------




--------------------------------------- Iteration      1(   8)  ---------------------------------------


    POTLOK:  cpu time    0.0090: real time    0.0093
    SETDIJ:  cpu time    0.0040: real time    0.0032
    EDDIAG:  cpu time    0.0410: real time    0.0416
  RMM-DIIS:  cpu time    0.1460: real time    0.1461
    ORTHCH:  cpu time    0.0050: real time    0.0051
 BZINTS: Fermi energy:  3.335507; 36.000000 electrons
         Band energy: -68.459102;  BLOECHL correction:  0.000000
       DOS:  cpu time    0.0010: real time    0.0012
    CHARGE:  cpu time    0.0130: real time    0.0131
    MIXING:  cpu time    0.0010: real time    0.0010
    --------------------------------------------
      LOOP:  cpu time    0.2200: real time    0.2206

 eigenvalue-minimisations  :  1007
 total energy-change (2. order) : 0.7020602E-01  (-0.8273844E-01)
 number of electron      35.9999795 magnetization 
 augmentation part       -1.1833546 magnetization 

 Broyden mixing:
  rms(total) = 0.77956E-01    rms(broyden)= 0.77932E-01
  rms(prec ) = 0.10343E+00
  weight for this iteration     100.00

 eigenvalues of (default mixing * dielectric matrix)
  average eigenvalue GAMMA=   1.4854
  2.0971  1.5597  0.7994

 Free energy of the ion-electron system (eV)
  ---------------------------------------------------
  alpha Z        PSCENC =        90.42577596
  Ewald energy   TEWEN  =     -1146.88905665
  -Hartree energ DENC   =      -542.02125966
  -exchange      EXHF   =         0.00000000
  -V(xc)+E(xc)   XCENC  =       -70.57378641
  PAW double counting   =       943.65832749     -791.83395098
  entropy T*S    EENTRO =         0.00000000
  eigenvalues    EBANDS =       -68.45910218
  atomic energy  EATOM  =      1542.13715150
  Solvation  Ediel_sol  =         0.00000000
  ---------------------------------------------------
  free energy    TOTEN  =       -43.55590093 eV

  energy without entropy =      -43.55590093  energy(sigma->0) =      -43.55590093


--------------------------------------------------------------------------------------------------------




--------------------------------------- Iteration      1(   9)  ---------------------------------------


    POTLOK:  cpu time    0.0090: real time    0.0128
    SETDIJ:  cpu time    0.0040: real time    0.0032
    EDDIAG:  cpu time    0.0410: real time    0.0415
  RMM-DIIS:  cpu time    0.1550: real time    0.1546
    ORTHCH:  cpu time    0.0050: real time    0.0051
 BZINTS: Fermi energy:  3.257907; 36.000000 electrons
         Band energy: -68.794016;  BLOECHL correction:  0.000000
       DOS:  cpu time    0.0010: real time    0.0013
    CHARGE:  cpu time    0.0130: real time    0.0132
    MIXING:  cpu time    0.0010: real time    0.0005
    --------------------------------------------
      LOOP:  cpu time    0.2290: real time    0.2321

 eigenvalue-minimisations  :  1059
 total energy-change (2. order) : 0.1008404E-01  (-0.2319712E-01)
 number of electron      35.9999794 magnetization 
 augmentation part       -1.0729691 magnetization 

 Broyden mixing:
  rms(total) = 0.49775E-01    rms(broyden)= 0.49746E-01
  rms(prec ) = 0.69425E-01
  weight for this iteration     100.00

 eigenvalues of (default mixing * dielectric matrix)
  average eigenvalue GAMMA=   1.5348
  0.9082  0.9082  2.2903  2.0326

 Free energy of the ion-electron system (eV)
  ---------------------------------------------------
  alpha Z        PSCENC =        90.42577596
  Ewald energy   TEWEN  =     -1146.88905665
  -Hartree energ DENC   =      -541.75390329
  -exchange      EXHF   =         0.00000000
  -V(xc)+E(xc)   XCENC  =       -70.32984446
  PAW double counting   =       951.28889446     -799.63081794
  entropy T*S    EENTRO =         0.00000000
  eigenvalues    EBANDS =       -68.79401649
  atomic energy  EATOM  =      1542.13715150
  Solvation  Ediel_sol  =         0.00000000
  ---------------------------------------------------
  free energy    TOTEN  =       -43.54581689 eV

  energy without entropy =      -43.54581689  energy(sigma->0) =      -43.54581689


--------------------------------------------------------------------------------------------------------




--------------------------------------- Iteration      1(  10)  ---------------------------------------


    POTLOK:  cpu time    0.0090: real time    0.0092
    SETDIJ:  cpu time    0.0030: real time    0.0032
    EDDIAG:  cpu time    0.0410: real time    0.0415
  RMM-DIIS:  cpu time    0.1540: real time    0.1538
    ORTHCH:  cpu time    0.0050: real time    0.0051
 BZINTS: Fermi energy:  3.322840; 36.000000 electrons
         Band energy: -67.935413;  BLOECHL correction:  0.000000
       DOS:  cpu time    0.0020: real time    0.0012
    CHARGE:  cpu time    0.0130: real time    0.0132
    MIXING:  cpu time    0.0000: real time    0.0005
    --------------------------------------------
      LOOP:  cpu time    0.2270: real time    0.2277

 eigenvalue-minimisations  :  1059
 total energy-change (2. order) : 0.1192494E-01  (-0.5287517E-02)
 number of electron      35.9999794 magnetization 
 augmentation part       -1.1266984 magnetization 

 Broyden mixing:
  rms(total) = 0.78967E-02    rms(broyden)= 0.78798E-02
  rms(prec ) = 0.10080E-01
  weight for this iteration     100.00

 eigenvalues of (default mixing * dielectric matrix)
  average eigenvalue GAMMA=   1.4343
  2.4365  0.8913  0.8913  1.4762  1.4762

 Free energy of the ion-electron system (eV)
  ---------------------------------------------------
  alpha Z        PSCENC =        90.42577596
  Ewald energy   TEWEN  =     -1146.88905665
  -Hartree energ DENC   =      -542.51563399
  -exchange      EXHF   =         0.00000000
  -V(xc)+E(xc)   XCENC  =       -70.36859949
  PAW double counting   =       957.53834909     -805.92646531
  entropy T*S    EENTRO =         0.00000000
  eigenvalues    EBANDS =       -67.93541306
  atomic energy  EATOM  =      1542.13715150
  Solvation  Ediel_sol  =         0.00000000
  ---------------------------------------------------
  free energy    TOTEN  =       -43.53389195 eV

  energy without entropy =      -43.53389195  energy(sigma->0) =      -43.53389195


--------------------------------------------------------------------------------------------------------




--------------------------------------- Iteration      1(  11)  ---------------------------------------


    POTLOK:  cpu time    0.0090: real time    0.0094
    SETDIJ:  cpu time    0.0040: real time    0.0032
    EDDIAG:  cpu time    0.0410: real time    0.0415
  RMM-DIIS:  cpu time    0.1600: real time    0.1597
    ORTHCH:  cpu time    0.0050: real time    0.0052
 BZINTS: Fermi energy:  3.318246; 36.000000 electrons
         Band energy: -67.827812;  BLOECHL correction:  0.000000
       DOS:  cpu time    0.0000: real time    0.0012
    CHARGE:  cpu time    0.0140: real time    0.0132
    MIXING:  cpu time    0.0010: real time    0.0005
    --------------------------------------------
      LOOP:  cpu time    0.2340: real time    0.2338

 eigenvalue-minimisations  :  1107
 total energy-change (2. order) : 0.9106940E-05  (-0.2653402E-03)
 number of electron      35.9999794 magnetization 
 augmentation part       -1.1204958 magnetization 

 Broyden mixing:
  rms(total) = 0.29511E-02    rms(broyden)= 0.29366E-02
  rms(prec ) = 0.35961E-02
  weight for this iteration     100.00

 eigenvalues of (default mixing * dielectric matrix)
  average eigenvalue GAMMA=   1.6650
  2.9102  2.5385  1.7933  0.9009  0.9009  0.9459

 Free energy of the ion-electron system (eV)
  ---------------------------------------------------
  alpha Z        PSCENC =        90.42577596
  Ewald energy   TEWEN  =     -1146.88905665
  -Hartree energ DENC   =      -542.64265037
  -exchange      EXHF   =         0.00000000
  -V(xc)+E(xc)   XCENC  =       -70.34437356
  PAW double counting   =       957.61791139     -806.01082929
  entropy T*S    EENTRO =         0.00000000
  eigenvalues    EBANDS =       -67.82781183
  atomic energy  EATOM  =      1542.13715150
  Solvation  Ediel_sol  =         0.00000000
  ---------------------------------------------------
  free energy    TOTEN  =       -43.53388284 eV

  energy without entropy =      -43.53388284  energy(sigma->0) =      -43.53388284


--------------------------------------------------------------------------------------------------------




--------------------------------------- Iteration      1(  12)  ---------------------------------------


    POTLOK:  cpu time    0.0080: real time    0.0093
    SETDIJ:  cpu time    0.0040: real time    0.0032
    EDDIAG:  cpu time    0.0420: real time    0.0417
  RMM-DIIS:  cpu time    0.1620: real time    0.1619
    ORTHCH:  cpu time    0.0050: real time    0.0052
 BZINTS: Fermi energy:  3.322098; 36.000000 electrons
         Band energy: -67.654375;  BLOECHL correction:  0.000000
       DOS:  cpu time    0.0000: real time    0.0012
    CHARGE:  cpu time    0.0140: real time    0.0132
    MIXING:  cpu time    0.0000: real time    0.0005
    --------------------------------------------
      LOOP:  cpu time    0.2350: real time    0.2361

 eigenvalue-minimisations  :  1136
 total energy-change (2. order) :-0.1417522E-03  (-0.4845476E-04)
 number of electron      35.9999794 magnetization 
 augmentation part       -1.1190536 magnetization 

 Broyden mixing:
  rms(total) = 0.19442E-02    rms(broyden)= 0.19253E-02
  rms(prec ) = 0.24439E-02
  weight for this iteration     100.00

 eigenvalues of (default mixing * dielectric matrix)
  average eigenvalue GAMMA=   1.6151
  2.9799  2.3238  1.6439  1.6439  0.8994  0.8994  0.9150

 Free energy of the ion-electron system (eV)
  ---------------------------------------------------
  alpha Z        PSCENC =        90.42577596
  Ewald energy   TEWEN  =     -1146.88905665
  -Hartree energ DENC   =      -542.83872432
  -exchange      EXHF   =         0.00000000
  -V(xc)+E(xc)   XCENC  =       -70.33414377
  PAW double counting   =       957.35982567     -805.74047809
  entropy T*S    EENTRO =         0.00000000
  eigenvalues    EBANDS =       -67.65437490
  atomic energy  EATOM  =      1542.13715150
  Solvation  Ediel_sol  =         0.00000000
  ---------------------------------------------------
  free energy    TOTEN  =       -43.53402459 eV

  energy without entropy =      -43.53402459  energy(sigma->0) =      -43.53402459


--------------------------------------------------------------------------------------------------------




--------------------------------------- Iteration      1(  13)  ---------------------------------------


    POTLOK:  cpu time    0.0100: real time    0.0093
    SETDIJ:  cpu time    0.0030: real time    0.0032
    EDDIAG:  cpu time    0.0420: real time    0.0415
  RMM-DIIS:  cpu time    0.1620: real time    0.1617
    ORTHCH:  cpu time    0.0050: real time    0.0052
 BZINTS: Fermi energy:  3.324253; 36.000000 electrons
         Band energy: -67.648505;  BLOECHL correction:  0.000000
       DOS:  cpu time    0.0000: real time    0.0012
    CHARGE:  cpu time    0.0130: real time    0.0132
    MIXING:  cpu time    0.0010: real time    0.0006
    --------------------------------------------
      LOOP:  cpu time    0.2360: real time    0.2358

 eigenvalue-minimisations  :  1133
 total energy-change (2. order) :-0.8768000E-05  (-0.3073531E-04)
 number of electron      35.9999794 magnetization 
 augmentation part       -1.1224565 magnetization 

 Broyden mixing:
  rms(total) = 0.18972E-02    rms(broyden)= 0.18779E-02
  rms(prec ) = 0.25077E-02
  weight for this iteration     100.00

 eigenvalues of (default mixing * dielectric matrix)
  average eigenvalue GAMMA=   1.7354
  3.2272  2.6283  2.6283  1.6085  1.1389  0.8930  0.8930  0.8663

 Free energy of the ion-electron system (eV)
  ---------------------------------------------------
  alpha Z        PSCENC =        90.42577596
  Ewald energy   TEWEN  =     -1146.88905665
  -Hartree energ DENC   =      -542.83932768
  -exchange      EXHF   =         0.00000000
  -V(xc)+E(xc)   XCENC  =       -70.33780018
  PAW double counting   =       957.55274321     -805.93501456
  entropy T*S    EENTRO =         0.00000000
  eigenvalues    EBANDS =       -67.64850497
  atomic energy  EATOM  =      1542.13715150
  Solvation  Ediel_sol  =         0.00000000
  ---------------------------------------------------
  free energy    TOTEN  =       -43.53403336 eV

  energy without entropy =      -43.53403336  energy(sigma->0) =      -43.53403336


--------------------------------------------------------------------------------------------------------




--------------------------------------- Iteration      1(  14)  ---------------------------------------


    POTLOK:  cpu time    0.0090: real time    0.0122
    SETDIJ:  cpu time    0.0040: real time    0.0032
    EDDIAG:  cpu time    0.0410: real time    0.0416
  RMM-DIIS:  cpu time    0.1260: real time    0.1250
    ORTHCH:  cpu time    0.0050: real time    0.0051
 BZINTS: Fermi energy:  3.322153; 36.000000 electrons
         Band energy: -67.666290;  BLOECHL correction:  0.000000
       DOS:  cpu time    0.0000: real time    0.0012
    CHARGE:  cpu time    0.0130: real time    0.0132
    MIXING:  cpu time    0.0010: real time    0.0006
    --------------------------------------------
      LOOP:  cpu time    0.1990: real time    0.2020

 eigenvalue-minimisations  :   850
 total energy-change (2. order) : 0.1514370E-04  (-0.5780755E-05)
 number of electron      35.9999794 magnetization 
 augmentation part       -1.1208483 magnetization 

 Broyden mixing:
  rms(total) = 0.36556E-03    rms(broyden)= 0.25026E-03
  rms(prec ) = 0.28925E-03
  weight for this iteration     100.00
  WARNING: grid for Broyden might be to small

 eigenvalues of (default mixing * dielectric matrix)
  average eigenvalue GAMMA=   1.6089
  3.0949  2.7125  2.2422  1.3893  1.3893  0.8919  0.8919  0.8856  0.9823

 Free energy of the ion-electron system (eV)
  ---------------------------------------------------
  alpha Z        PSCENC =        90.42577596
  Ewald energy   TEWEN  =     -1146.88905665
  -Hartree energ DENC   =      -542.82403602
  -exchange      EXHF   =         0.00000000
  -V(xc)+E(xc)   XCENC  =       -70.33525413
  PAW double counting   =       957.38478757     -805.76709600
  entropy T*S    EENTRO =         0.00000000
  eigenvalues    EBANDS =       -67.66629045
  atomic energy  EATOM  =      1542.13715150
  Solvation  Ediel_sol  =         0.00000000
  ---------------------------------------------------
  free energy    TOTEN  =       -43.53401822 eV

  energy without entropy =      -43.53401822  energy(sigma->0) =      -43.53401822


--------------------------------------------------------------------------------------------------------




--------------------------------------- Iteration      1(  15)  ---------------------------------------


    POTLOK:  cpu time    0.0100: real time    0.0091
    SETDIJ:  cpu time    0.0030: real time    0.0032
    EDDIAG:  cpu time    0.0410: real time    0.0416
  RMM-DIIS:  cpu time    0.1030: real time    0.1029
    ORTHCH:  cpu time    0.0050: real time    0.0052
 BZINTS: Fermi energy:  3.321593; 36.000000 electrons
         Band energy: -67.661135;  BLOECHL correction:  0.000000
       DOS:  cpu time    0.0010: real time    0.0012
    --------------------------------------------
      LOOP:  cpu time    0.1630: real time    0.1631

 eigenvalue-minimisations  :   680
 total energy-change (2. order) :-0.9508904E-07  (-0.9112015E-06)
 number of electron      35.9999794 magnetization 
 augmentation part       -1.1208483 magnetization 

 Free energy of the ion-electron system (eV)
  ---------------------------------------------------
  alpha Z        PSCENC =        90.42577596
  Ewald energy   TEWEN  =     -1146.88905665
  -Hartree energ DENC   =      -542.83005669
  -exchange      EXHF   =         0.00000000
  -V(xc)+E(xc)   XCENC  =       -70.33511733
  PAW double counting   =       957.34553429     -805.72711476
  entropy T*S    EENTRO =         0.00000000
  eigenvalues    EBANDS =       -67.66113463
  atomic energy  EATOM  =      1542.13715150
  Solvation  Ediel_sol  =         0.00000000
  ---------------------------------------------------
  free energy    TOTEN  =       -43.53401831 eV

  energy without entropy =      -43.53401831  energy(sigma->0) =      -43.53401831


--------------------------------------------------------------------------------------------------------




 average (electrostatic) potential at core
  the test charge radii are     1.2296  0.9698
  (the norm of the test charge is              1.0000)
       1 -40.3449       2 -40.3449       3 -88.1962       4 -88.1962       5 -88.1962
       6 -88.1962
 
 
 
 E-fermi :   3.3216     XC(G=0):  -9.3234     alpha+bet : -9.6368


 k-point     1 :       0.0000    0.0000    0.0000
  band No.  band energies     occupation 
      1     -10.9357      2.00000
      2     -10.9167      2.00000
      3      -9.7348      2.00000
      4      -9.7010      2.00000
      5      -2.5184      2.00000
      6      -2.3560      2.00000
      7       0.5250      2.00000
      8       0.5252      2.00000
      9       0.5263      2.00000
     10       0.5266      2.00000
     11       1.1096      2.00000
     12       1.6335      2.00000
     13       1.6336      2.00000
     14       1.6339      2.00000
     15       1.6341      2.00000
     16       1.6792      2.00000
     17       2.9295      2.00000
     18       3.3052      2.00000
     19       5.8868      0.00000
     20       5.9257      0.00000
     21       6.0167      0.00000
     22       6.0817      0.00000

 k-point     2 :       0.1250   -0.0000    0.0000
  band No.  band energies     occupation 
      1     -10.7215      2.00000
      2     -10.7029      2.00000
      3      -9.6312      2.00000
      4      -9.5998      2.00000
      5      -2.2734      2.00000
      6      -2.1143      2.00000
      7       0.0597      2.00000
      8       0.0626      2.00000
      9       0.4611      2.00000
     10       0.6780      2.00000
     11       0.7594      2.00000
     12       0.7603      2.00000
     13       1.2960      2.00000
     14       1.2983      2.00000
     15       1.9346      2.00000
     16       2.2204      2.00000
     17       2.8496      2.00000
     18       3.0906      2.00000
     19       5.5308      0.00000
     20       5.6808      0.00000
     21       5.7640      0.00000
     22       5.7833      0.00000

 k-point     3 :       0.2500   -0.0000    0.0000
  band No.  band energies     occupation 
      1     -10.1520      2.00000
      2     -10.1352      2.00000
      3      -9.3586      2.00000
      4      -9.3344      2.00000
      5      -1.8835      2.00000
      6      -1.7728      2.00000
      7      -0.6896      2.00000
      8      -0.6449      2.00000
      9      -0.4571      2.00000
     10      -0.3558      2.00000
     11       0.6583      2.00000
     12       0.6619      2.00000
     13       1.3433      2.00000
     14       1.3469      2.00000
     15       1.7079      2.00000
     16       1.9178      2.00000
     17       2.3748      2.00000
     18       2.4230      2.00000
     19       5.1250      0.00000
     20       5.4450      0.00000
     21       5.4481      0.00000
     22       5.4605      0.00000

 k-point     4 :       0.3750   -0.0000    0.0000
  band No.  band energies     occupation 
      1      -9.4744      2.00000
      2      -9.4627      2.00000
      3      -9.0449      2.00000
      4      -9.0306      2.00000
      5      -2.2828      2.00000
      6      -2.2484      2.00000
      7      -1.2951      2.00000
      8      -1.2510      2.00000
      9      -0.8424      2.00000
     10      -0.7567      2.00000
     11       0.1590      2.00000
     12       0.1645      2.00000
     13       1.3455      2.00000
     14       1.4554      2.00000
     15       1.9314      2.00000
     16       1.9400      2.00000
     17       2.1801      2.00000
     18       2.2300      2.00000
     19       5.2627      0.00000
     20       5.2716      0.00000
     21       5.4595      0.00000
     22       5.6372      0.00000

 k-point     5 :       0.5000   -0.0000    0.0000
  band No.  band energies     occupation 
      1      -9.1435      2.00000
      2      -9.1370      2.00000
      3      -8.8976      2.00000
      4      -8.8911      2.00000
      5      -2.6113      2.00000
      6      -2.5843      2.00000
      7      -1.6511      2.00000
      8      -1.6271      2.00000
      9      -0.9627      2.00000
     10      -0.8864      2.00000
     11      -0.0209      2.00000
     12      -0.0178      2.00000
     13       1.2537      2.00000
     14       1.2718      2.00000
     15       2.1566      2.00000
     16       2.1697      2.00000
     17       2.4838      2.00000
     18       2.4878      2.00000
     19       5.2873      0.00000
     20       5.2907      0.00000
     21       5.7757      0.00000
     22       5.8311      0.00000

 k-point     6 :       0.1250    0.1250    0.0000
  band No.  band energies     occupation 
      1     -10.3282      2.00000
      2     -10.3108      2.00000
      3      -9.4416      2.00000
      4      -9.4151      2.00000
      5      -1.9165      2.00000
      6      -1.7767      2.00000
      7      -0.5107      2.00000
      8      -0.4974      2.00000
      9      -0.0611      2.00000
     10       0.0813      2.00000
     11       0.4696      2.00000
     12       0.4963      2.00000
     13       1.0976      2.00000
     14       1.0991      2.00000
     15       2.1003      2.00000
     16       2.3035      2.00000
     17       2.5570      2.00000
     18       2.6323      2.00000
     19       5.0682      0.00000
     20       5.3291      0.00000
     21       5.5381      0.00000
     22       5.6135      0.00000

 k-point     7 :       0.2500    0.1250    0.0000
  band No.  band energies     occupation 
      1      -9.6930      2.00000
      2      -9.6790      2.00000
      3      -9.1387      2.00000
      4      -9.1205      2.00000
      5      -1.9358      2.00000
      6      -1.8832      2.00000
      7      -0.9477      2.00000
      8      -0.9164      2.00000
      9      -0.7050      2.00000
     10      -0.6309      2.00000
     11      -0.0621      2.00000
     12       0.0132      2.00000
     13       1.1939      2.00000
     14       1.2001      2.00000
     15       1.7915      2.00000
     16       1.8791      2.00000
     17       2.3070      2.00000
     18       2.3168      2.00000
     19       5.0023      0.00000
     20       5.2176      0.00000
     21       5.5324      0.00000
     22       5.6546      0.00000

 k-point     8 :       0.3750    0.1250    0.0000
  band No.  band energies     occupation 
      1      -9.1593      2.00000
      2      -9.1516      2.00000
      3      -8.8897      2.00000
      4      -8.8813      2.00000
      5      -2.3236      2.00000
      6      -2.2967      2.00000
      7      -1.6993      2.00000
      8      -1.6902      2.00000
      9      -0.8325      2.00000
     10      -0.7618      2.00000
     11      -0.0626      2.00000
     12      -0.0205      2.00000
     13       1.2041      2.00000
     14       1.2209      2.00000
     15       1.3340      2.00000
     16       1.3721      2.00000
     17       2.6295      2.00000
     18       2.6476      2.00000
     19       5.2739      0.00000
     20       5.3377      0.00000
     21       5.7813      0.00000
     22       5.8565      0.00000

 k-point     9 :       0.2500    0.2500    0.0000
  band No.  band energies     occupation 
      1      -9.1749      2.00000
      2      -9.1662      2.00000
      3      -8.8815      2.00000
      4      -8.8716      2.00000
      5      -1.9644      2.00000
      6      -1.9359      2.00000
      7      -1.7496      2.00000
      8      -1.7392      2.00000
      9      -0.4834      2.00000
     10      -0.4594      2.00000
     11      -0.1354      2.00000
     12      -0.0464      2.00000
     13       0.2190      2.00000
     14       0.2416      2.00000
     15       1.4819      2.00000
     16       1.4911      2.00000
     17       2.6043      2.00000
     18       2.6142      2.00000
     19       5.1897      0.00000
     20       5.3164      0.00000
     21       5.8811      0.00000
     22       6.0949      0.00000

 k-point    10 :       0.3750    0.2500    0.0000
  band No.  band energies     occupation 
      1      -8.9370      2.00000
      2      -8.9340      2.00000
      3      -8.7590      2.00000
      4      -8.7559      2.00000
      5      -2.1345      2.00000
      6      -2.1236      2.00000
      7      -1.7885      2.00000
      8      -1.7717      2.00000
      9      -0.7730      2.00000
     10      -0.7354      2.00000
     11      -0.1028      2.00000
     12      -0.0815      2.00000
     13       0.1092      2.00000
     14       0.1607      2.00000
     15       1.0816      2.00000
     16       1.1221      2.00000
     17       2.9660      2.00000
     18       2.9870      2.00000
     19       4.9263      0.00000
     20       4.9355      0.00000
     21       6.1617      0.00000
     22       6.3505      0.00000

 k-point    11 :       0.0000    0.0000    0.5000
  band No.  band energies     occupation 
      1     -10.9263      2.00000
      2     -10.9263      2.00000
      3      -9.7179      2.00000
      4      -9.7179      2.00000
      5      -2.4408      2.00000
      6      -2.4408      2.00000
      7       0.5259      2.00000
      8       0.5259      2.00000
      9       0.5262      2.00000
     10       0.5262      2.00000
     11       1.3686      2.00000
     12       1.3686      2.00000
     13       1.6327      2.00000
     14       1.6327      2.00000
     15       1.6331      2.00000
     16       1.6331      2.00000
     17       3.1469      2.00000
     18       3.1469      2.00000
     19       5.8827      0.00000
     20       5.8840      0.00000
     21       5.9307      0.00000
     22       5.9829      0.00000

 k-point    12 :       0.1250   -0.0000    0.5000
  band No.  band energies     occupation 
      1     -10.7123      2.00000
      2     -10.7123      2.00000
      3      -9.6153      2.00000
      4      -9.6153      2.00000
      5      -2.1960      2.00000
      6      -2.1960      2.00000
      7       0.0612      2.00000
      8       0.0612      2.00000
      9       0.5765      2.00000
     10       0.5765      2.00000
     11       0.7597      2.00000
     12       0.7597      2.00000
     13       1.2966      2.00000
     14       1.2966      2.00000
     15       2.0489      2.00000
     16       2.0489      2.00000
     17       2.9962      2.00000
     18       2.9962      2.00000
     19       5.5873      0.00000
     20       5.6226      0.00000
     21       5.7294      0.00000
     22       5.7723      0.00000

 k-point    13 :       0.2500   -0.0000    0.5000
  band No.  band energies     occupation 
      1     -10.1437      2.00000
      2     -10.1437      2.00000
      3      -9.3464      2.00000
      4      -9.3464      2.00000
      5      -1.8294      2.00000
      6      -1.8294      2.00000
      7      -0.6724      2.00000
      8      -0.6724      2.00000
      9      -0.3983      2.00000
     10      -0.3983      2.00000
     11       0.6601      2.00000
     12       0.6601      2.00000
     13       1.3460      2.00000
     14       1.3460      2.00000
     15       1.8054      2.00000
     16       1.8054      2.00000
     17       2.4047      2.00000
     18       2.4047      2.00000
     19       5.2661      0.00000
     20       5.2670      0.00000
     21       5.4506      0.00000
     22       5.4539      0.00000

 k-point    14 :       0.3750   -0.0000    0.5000
  band No.  band energies     occupation 
      1      -9.4686      2.00000
      2      -9.4686      2.00000
      3      -9.0377      2.00000
      4      -9.0377      2.00000
      5      -2.2654      2.00000
      6      -2.2654      2.00000
      7      -1.2754      2.00000
      8      -1.2754      2.00000
      9      -0.7977      2.00000
     10      -0.7977      2.00000
     11       0.1616      2.00000
     12       0.1616      2.00000
     13       1.3986      2.00000
     14       1.3986      2.00000
     15       1.9358      2.00000
     16       1.9358      2.00000
     17       2.2069      2.00000
     18       2.2069      2.00000
     19       5.2674      0.00000
     20       5.2674      0.00000
     21       5.5419      0.00000
     22       5.5423      0.00000

 k-point    15 :       0.5000   -0.0000    0.5000
  band No.  band energies     occupation 
      1      -9.1403      2.00000
      2      -9.1403      2.00000
      3      -8.8943      2.00000
      4      -8.8943      2.00000
      5      -2.5981      2.00000
      6      -2.5981      2.00000
      7      -1.6399      2.00000
      8      -1.6399      2.00000
      9      -0.9246      2.00000
     10      -0.9246      2.00000
     11      -0.0197      2.00000
     12      -0.0197      2.00000
     13       1.2612      2.00000
     14       1.2612      2.00000
     15       2.1620      2.00000
     16       2.1620      2.00000
     17       2.4857      2.00000
     18       2.4857      2.00000
     19       5.2889      0.00000
     20       5.2889      0.00000
     21       5.8033      0.00000
     22       5.8055      0.00000

 k-point    16 :       0.1250    0.1250    0.5000
  band No.  band energies     occupation 
      1     -10.3195      2.00000
      2     -10.3195      2.00000
      3      -9.4282      2.00000
      4      -9.4281      2.00000
      5      -1.8489      2.00000
      6      -1.8489      2.00000
      7      -0.5057      2.00000
      8      -0.5057      2.00000
      9       0.0171      2.00000
     10       0.0171      2.00000
     11       0.4821      2.00000
     12       0.4821      2.00000
     13       1.0981      2.00000
     14       1.0981      2.00000
     15       2.1873      2.00000
     16       2.1873      2.00000
     17       2.6064      2.00000
     18       2.6064      2.00000
     19       5.1880      0.00000
     20       5.1900      0.00000
     21       5.5494      0.00000
     22       5.6059      0.00000

 k-point    17 :       0.2500    0.1250    0.5000
  band No.  band energies     occupation 
      1      -9.6862      2.00000
      2      -9.6861      2.00000
      3      -9.1295      2.00000
      4      -9.1295      2.00000
      5      -1.9100      2.00000
      6      -1.9100      2.00000
      7      -0.9344      2.00000
      8      -0.9344      2.00000
      9      -0.6682      2.00000
     10      -0.6682      2.00000
     11      -0.0217      2.00000
     12      -0.0217      2.00000
     13       1.1971      2.00000
     14       1.1971      2.00000
     15       1.8329      2.00000
     16       1.8329      2.00000
     17       2.3123      2.00000
     18       2.3123      2.00000
     19       5.1082      0.00000
     20       5.1082      0.00000
     21       5.5597      0.00000
     22       5.5736      0.00000

 k-point    18 :       0.3750    0.1250    0.5000
  band No.  band energies     occupation 
      1      -9.1555      2.00000
      2      -9.1555      2.00000
      3      -8.8854      2.00000
      4      -8.8854      2.00000
      5      -2.3105      2.00000
      6      -2.3105      2.00000
      7      -1.6949      2.00000
      8      -1.6949      2.00000
      9      -0.7982      2.00000
     10      -0.7982      2.00000
     11      -0.0402      2.00000
     12      -0.0402      2.00000
     13       1.2112      2.00000
     14       1.2112      2.00000
     15       1.3528      2.00000
     16       1.3528      2.00000
     17       2.6387      2.00000
     18       2.6387      2.00000
     19       5.3062      0.00000
     20       5.3062      0.00000
     21       5.8148      0.00000
     22       5.8150      0.00000

 k-point    19 :       0.2500    0.2500    0.5000
  band No.  band energies     occupation 
      1      -9.1706      2.00000
      2      -9.1706      2.00000
      3      -8.8765      2.00000
      4      -8.8765      2.00000
      5      -1.9503      2.00000
      6      -1.9503      2.00000
      7      -1.7444      2.00000
      8      -1.7444      2.00000
      9      -0.4756      2.00000
     10      -0.4756      2.00000
     11      -0.0869      2.00000
     12      -0.0869      2.00000
     13       0.2307      2.00000
     14       0.2307      2.00000
     15       1.4854      2.00000
     16       1.4854      2.00000
     17       2.6092      2.00000
     18       2.6092      2.00000
     19       5.2528      0.00000
     20       5.2530      0.00000
     21       5.8632      0.00000
     22       6.1702      0.00000

 k-point    20 :       0.3750    0.2500    0.5000
  band No.  band energies     occupation 
      1      -8.9356      2.00000
      2      -8.9355      2.00000
      3      -8.7575      2.00000
      4      -8.7575      2.00000
      5      -2.1289      2.00000
      6      -2.1289      2.00000
      7      -1.7808      2.00000
      8      -1.7808      2.00000
      9      -0.7549      2.00000
     10      -0.7549      2.00000
     11      -0.0943      2.00000
     12      -0.0943      2.00000
     13       0.1404      2.00000
     14       0.1404      2.00000
     15       1.1000      2.00000
     16       1.1000      2.00000
     17       2.9764      2.00000
     18       2.9764      2.00000
     19       4.9310      0.00000
     20       4.9310      0.00000
     21       6.2397      0.00000
     22       6.2433      0.00000


--------------------------------------------------------------------------------------------------------


 soft charge-density along one line, spin component           1
         0         1         2         3         4         5         6         7         8         9
 total charge-density along one line
 
 pseudopotential strength for first ion, spin component:           1
 -8.241  -0.000  -0.000   0.000  -0.000  -0.073   0.000   0.000
 -0.000  -8.241  -0.000  -0.000  -0.000   0.000  -0.074   0.000
 -0.000  -0.000  -8.220  -0.000   0.000   0.000   0.000  -0.075
  0.000  -0.000  -0.000  -8.241   0.000  -0.000   0.000   0.000
 -0.000  -0.000   0.000   0.000  -8.241   0.000   0.000  -0.000
 -0.073   0.000   0.000  -0.000   0.000   0.112  -0.000  -0.000
  0.000  -0.074   0.000   0.000   0.000  -0.000   0.112  -0.000
  0.000   0.000  -0.075   0.000  -0.000  -0.000  -0.000   0.112
 -0.000   0.000   0.000  -0.074  -0.000   0.000   0.000  -0.000
  0.000   0.000  -0.000  -0.000  -0.073  -0.000  -0.000   0.000
 -0.000  -0.000  -0.005   0.000   0.000   0.000   0.000   0.000
  0.000   0.000   0.001  -0.000  -0.000  -0.000  -0.000  -0.000
 -0.000   0.000  -0.000  -0.000  -0.007   0.000  -0.000   0.000
 -0.000   0.000   0.000  -0.000  -0.000  -0.000  -0.000  -0.000
 -0.007  -0.000   0.000   0.000  -0.000  -0.000  -0.000  -0.000
  0.000  -0.000   0.000   0.000   0.004  -0.000   0.000  -0.000
  0.000  -0.000  -0.000   0.000   0.000  -0.000   0.000   0.000
  0.004   0.000  -0.000  -0.000   0.000   0.000  -0.000   0.000
 total augmentation occupancy for first ion, spin component:           1
  0.970   0.000  -0.000  -0.000  -0.000   0.662  -0.000  -0.000  -0.000  -0.000  -0.000  -0.000   0.000   0.000  -0.066  -0.000
 -0.000   0.911   0.000   0.000  -0.000  -0.000   0.897   0.000   0.000  -0.000   0.000   0.000   0.000  -0.000  -0.000  -0.000
 -0.000   0.000   1.035  -0.000   0.000  -0.000   0.000   0.566   0.000   0.000   0.111  -0.019  -0.000   0.000   0.000   0.000
  0.000   0.000   0.000   0.911   0.000  -0.000   0.000   0.000   0.897  -0.000   0.000  -0.000   0.000  -0.000   0.000  -0.000
 -0.000   0.000   0.000   0.000   0.970  -0.000   0.000   0.000   0.000   0.662   0.000  -0.000  -0.066   0.000  -0.000   0.007
  0.662   0.000  -0.000   0.000  -0.000   0.769   0.000  -0.000   0.000  -0.000   0.000   0.000   0.000   0.000  -0.143  -0.000
  0.000   0.897   0.000   0.000   0.000   0.000   1.206   0.000   0.000   0.000  -0.000   0.000   0.000   0.000  -0.000  -0.000
 -0.000   0.000   0.566   0.000   0.000  -0.000   0.000   0.551   0.000   0.000   0.066  -0.023  -0.000   0.000   0.000   0.000
  0.000   0.000  -0.000   0.897   0.000  -0.000   0.000  -0.000   1.206  -0.000   0.000   0.000  -0.000   0.000   0.000  -0.000
 -0.000  -0.000   0.000  -0.000   0.662  -0.000   0.000   0.000   0.000   0.769   0.000  -0.000  -0.143  -0.000  -0.000   0.024
 -0.000   0.000   0.111   0.000   0.000   0.000  -0.000   0.066  -0.000   0.000   1.210  -0.183   0.000  -0.000   0.000   0.000
 -0.000   0.000  -0.019   0.000  -0.000   0.000   0.000  -0.023   0.000  -0.000  -0.183   0.041  -0.000   0.000   0.000  -0.000
  0.000   0.000  -0.000   0.000  -0.066   0.000  -0.000  -0.000   0.000  -0.143   0.000   0.000   0.217   0.000   0.000  -0.033
 -0.000   0.000   0.000  -0.000  -0.000   0.000   0.000   0.000  -0.000  -0.000  -0.000   0.000   0.000   0.265  -0.000  -0.000
 -0.066  -0.000   0.000   0.000  -0.000  -0.143   0.000   0.000   0.000  -0.000   0.000   0.000   0.000   0.000   0.217  -0.000
 -0.000   0.000   0.000   0.000   0.007  -0.000   0.000   0.000  -0.000   0.024   0.000  -0.000  -0.033  -0.000  -0.000   0.005
  0.000   0.000   0.000   0.000  -0.000   0.000  -0.000   0.000  -0.000  -0.000  -0.000  -0.000  -0.000  -0.039  -0.000  -0.000
  0.007  -0.000  -0.000  -0.000   0.000   0.024   0.000  -0.000  -0.000   0.000   0.000  -0.000  -0.000  -0.000  -0.033   0.000


------------------------ aborting loop because EDIFF is reached ----------------------------------------


    CHARGE:  cpu time    0.0130: real time    0.0135
    FORLOC:  cpu time    0.0010: real time    0.0011
    FORNL :  cpu time    0.0490: real time    0.0485
    STRESS:  cpu time    0.1290: real time    0.1295
    FORCOR:  cpu time    0.0110: real time    0.0102
    FORHAR:  cpu time    0.0020: real time    0.0022
    MIXING:  cpu time    0.0010: real time    0.0007
    OFIELD:  cpu time    0.0000: real time    0.0000

  DFT-D2 method for vdW energy calculation
  -------------------------------------------------------------------

  Parameters of vdW forcefield:
         C6(Jnm^6/mol)     R0(A)
   -----------------------------
   Mo      24.670          1.639
   S        5.570          1.683

  IVDW =   1
  VDW_RADIUS =    50.000 A
  VDW_S6 =     0.750
  VDW_SR =     1.000
  VDW_D =    20.000
  LVDW_EWALD = F

  Number of pair interactions contributing to vdW energy:   84128
  Edisp (eV):   -1.33129
    FORVDW:  cpu time    0.0200: real time    0.0248

  FORCE on cell =-STRESS in cart. coord.  units (eV):
  Direction    XX          YY          ZZ          XY          YZ          ZX
  --------------------------------------------------------------------------------------
  Alpha Z    90.42578    90.42578    90.42578
  Ewald     -12.90873   -12.90785 -1121.07429     0.00038     0.00000     0.00025
  Hartree   466.52499   466.52501  -390.20689     0.00003     0.00000    -0.00001
  E(xc)    -140.68209  -140.68203  -141.87254     0.00005    -0.00006    -0.00004
  Local   -1081.89573 -1081.89890   871.05099    -0.00259    -0.00058    -0.00045
  n-local   254.63066   251.86624   263.70190    -0.53212    -0.00011     0.00023
  augment   -51.33222   -51.33134   -53.53998     0.00078    -0.00003    -0.00002
  Kinetic   472.33188   477.90934   480.02265   -14.84177    -0.00004     0.00003
  Fock        0.00000     0.00000     0.00000     0.00000     0.00000     0.00000
  vdW         0.17103     0.17103    -0.86546     0.00000     0.00000    -0.00000
  -------------------------------------------------------------------------------------
  Total      -1.32858    -1.32858    -2.35786    -0.00000    -0.00000    -0.00000
  in kB     -16.23025   -16.23025   -28.80423    -0.00000    -0.00000    -0.00000
  external pressure =      -20.42 kB  Pullay stress =        0.00 kB


 VOLUME and BASIS-vectors are now :
 -----------------------------------------------------------------------------
  energy-cutoff  :      250.00
  volume of cell :      131.15
      direct lattice vectors                 reciprocal lattice vectors
     3.190315730  0.000000000  0.000000000     0.313448600  0.180969634  0.000000000
    -1.595157865  2.762894468  0.000000000     0.000000000  0.361939267  0.000000000
     0.000000000  0.000000000 14.879004300     0.000000000  0.000000000  0.067208798

  length of vectors
     3.190315730  3.190315730 14.879004300     0.361939267  0.361939267  0.067208798


 FORCES acting on ions
    electron-ion (+dipol)            ewald-force                    non-local-force                 convergence-correction
 -----------------------------------------------------------------------------------------------
   0.489E-04 -.354E-04 -.959E-05   0.928E-04 -.107E-03 0.288E-09   -.347E-17 0.000E+00 -.635E-21   0.644E-09 -.333E-08 -.305E-09
   0.636E-04 -.295E-04 -.959E-05   -.928E-04 0.107E-03 -.288E-09   -.208E-16 0.694E-17 -.212E-21   0.760E-08 -.143E-08 -.306E-09
   0.897E-03 0.217E-03 -.242E+03   0.865E-04 -.537E-04 0.247E+03   -.182E-16 -.867E-17 -.496E+01   0.605E-08 -.176E-08 0.460E-02
   -.154E-02 0.157E-03 0.242E+03   -.865E-04 0.537E-04 -.247E+03   0.781E-17 0.867E-17 0.496E+01   -.208E-07 0.103E-07 -.460E-02
   0.788E-03 0.127E-02 -.242E+03   -.638E-05 0.537E-04 0.247E+03   0.000E+00 0.781E-17 -.496E+01   0.162E-07 0.122E-07 0.460E-02
   -.147E-02 -.875E-03 0.242E+03   0.638E-05 -.537E-04 -.247E+03   0.347E-17 -.781E-17 0.496E+01   -.266E-07 -.619E-08 -.460E-02
 -----------------------------------------------------------------------------------------------
   -.122E-02 0.706E-03 -.107E-04   -.561E-14 0.109E-13 0.284E-13   -.312E-16 0.694E-17 0.000E+00   -.169E-07 0.974E-08 -.740E-09
 
 
 POSITION                                       TOTAL-FORCE (eV/Angst)
 -----------------------------------------------------------------------------------
     -0.00000      1.84193      3.71975         0.000000      0.000000      0.000000
      1.59516      0.92096     11.15925         0.000000      0.000000      0.000000
     -0.00000      1.84193     12.72414        -0.000000      0.000000     -0.072378
      1.59516      0.92096      2.15487         0.000000     -0.000000      0.072378
      1.59516      0.92096      5.28464         0.000000     -0.000000     -0.072378
      0.00000      1.84193      9.59437        -0.000000      0.000000      0.072378
 -----------------------------------------------------------------------------------
    total drift:                               -0.001222      0.000706     -0.000011


--------------------------------------------------------------------------------------------------------



  FREE ENERGIE OF THE ION-ELECTRON SYSTEM (eV)
  ---------------------------------------------------
  free  energy   TOTEN  =       -44.86530533 eV

  energy  without entropy=      -44.86530533  energy(sigma->0) =      -44.86530533
 


--------------------------------------------------------------------------------------------------------


    POTLOK:  cpu time    0.0140: real time    0.0133


--------------------------------------------------------------------------------------------------------


     LOOP+:  cpu time    3.7104: real time    3.8609
    4ORBIT:  cpu time    0.0000: real time    0.0000
 BZINTS: Fermi energy:  3.321593; 36.000000 electrons
         Band energy: -67.661135;  BLOECHL correction:  0.000000

 total amount of memory used by VASP MPI-rank0    37680. kBytes
=======================================================================

   base      :      30000. kBytes
   nonl-proj :       3525. kBytes
   fftplans  :        718. kBytes
   grid      :       1153. kBytes
   one-center:         46. kBytes
   wavefun   :       2238. kBytes
 
  
  
 General timing and accounting informations for this job:
 ========================================================
  
                  Total CPU time used (sec):        4.370
                            User time (sec):        4.310
                          System time (sec):        0.060
                         Elapsed time (sec):        5.022
  
                   Maximum memory used (kb):       27760.
                   Average memory used (kb):           0.
  
                          Minor page faults:         7049
                          Major page faults:          144
                 Voluntary context switches:         2160
