<?xml version="1.0" encoding="ISO-8859-1"?>
<modeling>
 <generator>
  <i name="program" type="string">vasp </i>
  <i name="version" type="string">5.4.4.18Apr17-6-g9f103f2a35  </i>
  <i name="subversion" type="string">(build Jun 30 2017 11:15:00) complex            parallel </i>
  <i name="platform" type="string">STALLO_VASP_5.4.4 </i>
  <i name="date" type="string">2019 11 08 </i>
  <i name="time" type="string">11:35:49 </i>
 </generator>
 <incar>
  <i type="string" name="PREC">normal    ! low/normal/accurate</i>
  <i type="string" name="ALGO"> Fast      ! Algorithm for electronic re</i>
  <i type="int" name="ISPIN">     1</i>
  <i type="int" name="NELMIN">     4</i>
  <i name="EDIFF">      0.00001000</i>
  <i type="int" name="NSW">     0</i>
  <i name="ENCUT">    250.00000000</i>
  <i type="logical" name="LREAL"> F  </i>
  <i type="int" name="ISMEAR">    -5</i>
  <i name="SIGMA">      0.20000000</i>
  <i type="logical" name="LWAVE"> F  </i>
  <v type="int" name="KPOINT_BSE">    -1     0     0     0</v>
 </incar>
 <structure name="primitive_cell" >
  <crystal>
   <varray name="basis" >
    <v>       3.19031573       0.00000000       0.00000000 </v>
    <v>      -1.59515786       2.76289447       0.00000000 </v>
    <v>       0.00000000       0.00000000      14.87900430 </v>
   </varray>
   <i name="volume">    131.15106795 </i>
   <varray name="rec_basis" >
    <v>       0.31344860       0.18096963       0.00000000 </v>
    <v>       0.00000000       0.36193927       0.00000000 </v>
    <v>       0.00000000       0.00000000       0.06720880 </v>
   </varray>
  </crystal>
  <varray name="positions" >
   <v>       0.33333300      -0.33333300       0.25000000 </v>
   <v>      -0.33333400       0.33333300       0.35517400 </v>
   <v>      -0.33333300       0.33333300       0.14482600 </v>
   <v>       0.33333300      -0.33333300      -0.14482600 </v>
   <v>       0.33333400      -0.33333300      -0.35517400 </v>
   <v>      -0.33333300       0.33333300      -0.25000000 </v>
  </varray>
 </structure>
 <varray name="primitive_index" >
  <v type="int" >        1 </v>
  <v type="int" >        5 </v>
  <v type="int" >        4 </v>
  <v type="int" >        3 </v>
  <v type="int" >        6 </v>
  <v type="int" >        2 </v>
 </varray>
 <kpoints>
  <generation param="Gamma">
   <v type="int" name="divisions">       8        8        2 </v>
   <v name="usershift">      0.00000000       0.00000000       0.00000000 </v>
   <v name="genvec1">      0.12500000       0.00000000       0.00000000 </v>
   <v name="genvec2">      0.00000000       0.12500000       0.00000000 </v>
   <v name="genvec3">      0.00000000       0.00000000       0.50000000 </v>
   <v name="shift">      0.00000000       0.00000000       0.00000000 </v>
  </generation>
  <varray name="kpointlist" >
   <v>       0.00000000       0.00000000       0.00000000 </v>
   <v>       0.12500000      -0.00000000       0.00000000 </v>
   <v>       0.25000000      -0.00000000       0.00000000 </v>
   <v>       0.37500000      -0.00000000       0.00000000 </v>
   <v>       0.50000000      -0.00000000       0.00000000 </v>
   <v>       0.12500000       0.12500000       0.00000000 </v>
   <v>       0.25000000       0.12500000       0.00000000 </v>
   <v>       0.37500000       0.12500000       0.00000000 </v>
   <v>       0.25000000       0.25000000       0.00000000 </v>
   <v>       0.37500000       0.25000000       0.00000000 </v>
   <v>       0.00000000       0.00000000       0.50000000 </v>
   <v>       0.12500000      -0.00000000       0.50000000 </v>
   <v>       0.25000000      -0.00000000       0.50000000 </v>
   <v>       0.37500000      -0.00000000       0.50000000 </v>
   <v>       0.50000000      -0.00000000       0.50000000 </v>
   <v>       0.12500000       0.12500000       0.50000000 </v>
   <v>       0.25000000       0.12500000       0.50000000 </v>
   <v>       0.37500000       0.12500000       0.50000000 </v>
   <v>       0.25000000       0.25000000       0.50000000 </v>
   <v>       0.37500000       0.25000000       0.50000000 </v>
  </varray>
  <varray name="weights" >
   <v>       0.00781250 </v>
   <v>       0.04687500 </v>
   <v>       0.04687500 </v>
   <v>       0.04687500 </v>
   <v>       0.02343750 </v>
   <v>       0.04687500 </v>
   <v>       0.09375000 </v>
   <v>       0.09375000 </v>
   <v>       0.04687500 </v>
   <v>       0.04687500 </v>
   <v>       0.00781250 </v>
   <v>       0.04687500 </v>
   <v>       0.04687500 </v>
   <v>       0.04687500 </v>
   <v>       0.02343750 </v>
   <v>       0.04687500 </v>
   <v>       0.09375000 </v>
   <v>       0.09375000 </v>
   <v>       0.04687500 </v>
   <v>       0.04687500 </v>
  </varray>
  <varray name="tetrahedronlist"  type="int" >
   <v type="int" >        8        2        2        6       12 </v>
   <v type="int" >        8        1        2        2       12 </v>
   <v type="int" >        4        1        2       11       12 </v>
   <v type="int" >        4        2        6       12       16 </v>
   <v type="int" >        8        2       12       12       16 </v>
   <v type="int" >        8        2       11       12       12 </v>
   <v type="int" >        8        3        6        7       16 </v>
   <v type="int" >        8        2        3        6       16 </v>
   <v type="int" >        4        2        3       12       16 </v>
   <v type="int" >        4        3        7       16       17 </v>
   <v type="int" >        8        3       13       16       17 </v>
   <v type="int" >        8        3       12       13       16 </v>
   <v type="int" >        8        4        7        8       17 </v>
   <v type="int" >        8        3        4        7       17 </v>
   <v type="int" >        4        3        4       13       17 </v>
   <v type="int" >        4        4        8       17       18 </v>
   <v type="int" >        8        4       14       17       18 </v>
   <v type="int" >        8        4       13       14       17 </v>
   <v type="int" >        8        5        8        8       18 </v>
   <v type="int" >        8        4        5        8       18 </v>
   <v type="int" >        4        4        5       14       18 </v>
   <v type="int" >        4        5        8       18       18 </v>
   <v type="int" >        4        5       15       18       18 </v>
   <v type="int" >        8        5       14       15       18 </v>
   <v type="int" >        8        4        7        8       18 </v>
   <v type="int" >        4        4        5       15       18 </v>
   <v type="int" >        4        4        7       17       18 </v>
   <v type="int" >        8        4       14       15       18 </v>
   <v type="int" >        8        3        6        7       17 </v>
   <v type="int" >        4        3        4       14       17 </v>
   <v type="int" >        4        3        6       16       17 </v>
   <v type="int" >        8        3       13       14       17 </v>
   <v type="int" >        4        2        2        6       16 </v>
   <v type="int" >        4        2        3       13       16 </v>
   <v type="int" >        4        2        2       12       16 </v>
   <v type="int" >        8        2       12       13       16 </v>
   <v type="int" >        4        1        2       12       12 </v>
   <v type="int" >        4        1       11       12       12 </v>
   <v type="int" >        8        3        6        7       13 </v>
   <v type="int" >        8        2        3        6       13 </v>
   <v type="int" >        4        2        6       12       13 </v>
   <v type="int" >        4        6        7       13       17 </v>
   <v type="int" >        8        6       13       16       17 </v>
   <v type="int" >        8        6       12       13       16 </v>
   <v type="int" >        8        7        7        9       17 </v>
   <v type="int" >        8        6        7        7       17 </v>
   <v type="int" >        4        6        7       16       17 </v>
   <v type="int" >        4        7        9       17       19 </v>
   <v type="int" >        8        7       17       17       19 </v>
   <v type="int" >        8        7       16       17       17 </v>
   <v type="int" >        8        8        9       10       19 </v>
   <v type="int" >        8        7        8        9       19 </v>
   <v type="int" >        4        7        8       17       19 </v>
   <v type="int" >        4        8       10       19       20 </v>
   <v type="int" >        8        8       18       19       20 </v>
   <v type="int" >        8        8       17       18       19 </v>
   <v type="int" >        8        8        9       10       20 </v>
   <v type="int" >        4        8        8       10       20 </v>
   <v type="int" >        4        8        8       18       20 </v>
   <v type="int" >        4        8        9       19       20 </v>
   <v type="int" >        8        8       18       18       20 </v>
   <v type="int" >        4        7        7        9       19 </v>
   <v type="int" >        4        7        8       18       19 </v>
   <v type="int" >        4        7        7       17       19 </v>
   <v type="int" >        8        7       17       18       19 </v>
   <v type="int" >        4        6        7       17       17 </v>
   <v type="int" >        4        3        6       13       17 </v>
   <v type="int" >        4        6       16       17       17 </v>
   <v type="int" >        4        2        6       13       16 </v>
   <v type="int" >        8        4        7        8       14 </v>
   <v type="int" >        8        3        4        7       14 </v>
   <v type="int" >        4        3        7       13       14 </v>
   <v type="int" >        4        7        8       14       18 </v>
   <v type="int" >        8        7       14       17       18 </v>
   <v type="int" >        8        7       13       14       17 </v>
   <v type="int" >        8        8        9       10       18 </v>
   <v type="int" >        8        7        8        9       18 </v>
   <v type="int" >        4        7        9       17       18 </v>
   <v type="int" >        4        9       10       18       20 </v>
   <v type="int" >        8        9       18       19       20 </v>
   <v type="int" >        8        9       17       18       19 </v>
   <v type="int" >        4       10       10       10       20 </v>
   <v type="int" >        8        9       10       10       20 </v>
   <v type="int" >        4        9       10       19       20 </v>
   <v type="int" >        4       10       10       20       20 </v>
   <v type="int" >        4       10       20       20       20 </v>
   <v type="int" >        8       10       19       20       20 </v>
   <v type="int" >        4        9       10       20       20 </v>
   <v type="int" >        4        8        9       18       20 </v>
   <v type="int" >        4        9       19       20       20 </v>
   <v type="int" >        4        7        9       18       19 </v>
   <v type="int" >        4        4        7       14       18 </v>
   <v type="int" >        4        3        7       14       17 </v>
   <v type="int" >        4        5        8        8       15 </v>
   <v type="int" >        8        4        5        8       15 </v>
   <v type="int" >        4        4        8       14       15 </v>
   <v type="int" >        4        8        8       15       18 </v>
   <v type="int" >        8        8       15       18       18 </v>
   <v type="int" >        8        8       14       15       18 </v>
   <v type="int" >        8        8        8       10       18 </v>
   <v type="int" >        4        8       10       18       18 </v>
   <v type="int" >        4        9       10       18       19 </v>
   <v type="int" >        8       10       18       19       20 </v>
   <v type="int" >        4       10       18       18       20 </v>
   <v type="int" >        4        9       10       10       19 </v>
   <v type="int" >        4       10       10       19       20 </v>
   <v type="int" >        4        8       10       18       19 </v>
   <v type="int" >        4        8       10       18       20 </v>
   <v type="int" >        4        5        8       15       18 </v>
   <v type="int" >        4        4        8       15       18 </v>
   <v type="int" >        8        4        5        8       14 </v>
   <v type="int" >        4        5        8       14       15 </v>
   <v type="int" >        4        7        8       14       17 </v>
   <v type="int" >        8        8       14       17       18 </v>
   <v type="int" >        8        7        8        9       17 </v>
   <v type="int" >        4        8        9       17       18 </v>
   <v type="int" >        4        7        9       17       17 </v>
   <v type="int" >        4        9       17       17       19 </v>
   <v type="int" >        4        8        9       17       19 </v>
   <v type="int" >        4        4        8       14       17 </v>
   <v type="int" >        4        5        8       14       18 </v>
   <v type="int" >        8        3        4        7       13 </v>
   <v type="int" >        4        4        7       13       14 </v>
   <v type="int" >        4        6        7       13       16 </v>
   <v type="int" >        8        7       13       16       17 </v>
   <v type="int" >        4        6        7        7       16 </v>
   <v type="int" >        4        7        7       16       17 </v>
   <v type="int" >        4        3        7       13       16 </v>
   <v type="int" >        4        4        7       13       17 </v>
   <v type="int" >        8        2        3        6       12 </v>
   <v type="int" >        4        3        6       12       13 </v>
   <v type="int" >        4        2        6       12       12 </v>
   <v type="int" >        4        6       12       12       16 </v>
   <v type="int" >        4        3        6       12       16 </v>
   <v type="int" >        4        1        2        2       11 </v>
   <v type="int" >        4        2        2       11       12 </v>
  </varray>
  <i name="volumeweight">      0.00130208 </i>
 </kpoints>
 <parameters>
  <separator name="general" >
   <i type="string" name="SYSTEM">unknown system</i>
   <i type="logical" name="LCOMPAT"> F  </i>
  </separator>
  <separator name="electronic" >
   <i type="string" name="PREC">normal</i>
   <i name="ENMAX">    250.00000000</i>
   <i name="ENAUG">    345.27800000</i>
   <i name="EDIFF">      0.00001000</i>
   <i type="int" name="IALGO">    68</i>
   <i type="int" name="IWAVPR">    10</i>
   <i type="int" name="NBANDS">    22</i>
   <i name="NELECT">     36.00000000</i>
   <i type="int" name="TURBO">     0</i>
   <i type="int" name="IRESTART">     0</i>
   <i type="int" name="NREBOOT">     0</i>
   <i type="int" name="NMIN">     0</i>
   <i name="EREF">      0.00000000</i>
   <separator name="electronic smearing" >
    <i type="int" name="ISMEAR">    -5</i>
    <i name="SIGMA">      0.20000000</i>
    <i name="KSPACING">      0.50000000</i>
    <i type="logical" name="KGAMMA"> T  </i>
   </separator>
   <separator name="electronic projectors" >
    <i type="logical" name="LREAL"> F  </i>
    <v name="ROPT">      0.00000000      0.00000000</v>
    <i type="int" name="LMAXPAW">  -100</i>
    <i type="int" name="LMAXMIX">     2</i>
    <i type="logical" name="NLSPLINE"> F  </i>
   </separator>
   <separator name="electronic startup" >
    <i type="int" name="ISTART">     0</i>
    <i type="int" name="ICHARG">     2</i>
    <i type="int" name="INIWAV">     1</i>
   </separator>
   <separator name="electronic spin" >
    <i type="int" name="ISPIN">     1</i>
    <i type="logical" name="LNONCOLLINEAR"> F  </i>
    <v name="MAGMOM">      1.00000000      1.00000000      1.00000000      1.00000000      1.00000000      1.00000000</v>
    <i name="NUPDOWN">     -1.00000000</i>
    <i type="logical" name="LSORBIT"> F  </i>
    <v name="SAXIS">      0.00000000      0.00000000      1.00000000</v>
    <i type="logical" name="LSPIRAL"> F  </i>
    <v name="QSPIRAL">      0.00000000      0.00000000      0.00000000</v>
    <i type="logical" name="LZEROZ"> F  </i>
   </separator>
   <separator name="electronic exchange-correlation" >
    <i type="logical" name="LASPH"> F  </i>
    <i type="logical" name="LMETAGGA"> F  </i>
   </separator>
   <separator name="electronic convergence" >
    <i type="int" name="NELM">    60</i>
    <i type="int" name="NELMDL">     0</i>
    <i type="int" name="NELMIN">     4</i>
    <i name="ENINI">    250.00000000</i>
    <separator name="electronic convergence detail" >
     <i type="logical" name="LDIAG"> T  </i>
     <i type="logical" name="LSUBROT"> F  </i>
     <i name="WEIMIN">      0.00000000</i>
     <i name="EBREAK">      0.00000011</i>
     <i name="DEPER">      0.30000000</i>
     <i type="int" name="NRMM">     4</i>
     <i name="TIME">      0.40000000</i>
    </separator>
   </separator>
   <separator name="electronic mixer" >
    <i name="AMIX">      0.40000000</i>
    <i name="BMIX">      1.00000000</i>
    <i name="AMIN">      0.10000000</i>
    <i name="AMIX_MAG">      1.60000000</i>
    <i name="BMIX_MAG">      1.00000000</i>
    <separator name="electronic mixer details" >
     <i type="int" name="IMIX">     4</i>
     <i type="logical" name="MIXFIRST"> F  </i>
     <i type="int" name="MAXMIX">   -45</i>
     <i name="WC">    100.00000000</i>
     <i type="int" name="INIMIX">     1</i>
     <i type="int" name="MIXPRE">     1</i>
     <i type="int" name="MREMOVE">     5</i>
    </separator>
   </separator>
   <separator name="electronic dipolcorrection" >
    <i type="logical" name="LDIPOL"> F  </i>
    <i type="logical" name="LMONO"> F  </i>
    <i type="int" name="IDIPOL">     0</i>
    <i name="EPSILON">      1.00000000</i>
    <v name="DIPOL">   -100.00000000   -100.00000000   -100.00000000</v>
    <i name="EFIELD">      0.00000000</i>
   </separator>
  </separator>
  <separator name="grids" >
   <i type="int" name="NGX">    12</i>
   <i type="int" name="NGY">    12</i>
   <i type="int" name="NGZ">    60</i>
   <i type="int" name="NGXF">    24</i>
   <i type="int" name="NGYF">    24</i>
   <i type="int" name="NGZF">   120</i>
   <i type="logical" name="ADDGRID"> F  </i>
  </separator>
  <separator name="ionic" >
   <i type="int" name="NSW">     0</i>
   <i type="int" name="IBRION">    -1</i>
   <i type="int" name="MDALGO">     0</i>
   <i type="int" name="ISIF">     2</i>
   <i name="PSTRESS">      0.00000000</i>
   <i name="EDIFFG">      0.00010000</i>
   <i type="int" name="NFREE">     0</i>
   <i name="POTIM">      0.50000000</i>
   <i name="SMASS">     -3.00000000</i>
   <i name="SCALEE">      1.00000000</i>
  </separator>
  <separator name="ionic md" >
   <i name="TEBEG">      0.00010000</i>
   <i name="TEEND">      0.00010000</i>
   <i type="int" name="NBLOCK">     1</i>
   <i type="int" name="KBLOCK">     1</i>
   <i type="int" name="NPACO">   256</i>
   <i name="APACO">     16.00000000</i>
  </separator>
  <separator name="symmetry" >
   <i type="int" name="ISYM">     2</i>
   <i name="SYMPREC">      0.00001000</i>
  </separator>
  <separator name="dos" >
   <i type="int" name="LORBIT">     0</i>
   <v name="RWIGS">     -1.00000000     -1.00000000</v>
   <i type="int" name="NEDOS">   301</i>
   <i name="EMIN">     10.00000000</i>
   <i name="EMAX">    -10.00000000</i>
   <i name="EFERMI">      0.00000000</i>
  </separator>
  <separator name="writing" >
   <i type="int" name="NWRITE">     2</i>
   <i type="logical" name="LWAVE"> F  </i>
   <i type="logical" name="LDOWNSAMPLE"> F  </i>
   <i type="logical" name="LCHARG"> T  </i>
   <i type="logical" name="LPARD"> F  </i>
   <i type="logical" name="LVTOT"> F  </i>
   <i type="logical" name="LVHAR"> F  </i>
   <i type="logical" name="LELF"> F  </i>
   <i type="logical" name="LOPTICS"> F  </i>
   <v name="STM">      0.00000000      0.00000000      0.00000000      0.00000000      0.00000000      0.00000000      0.00000000</v>
  </separator>
  <separator name="performance" >
   <i type="int" name="NPAR">     2</i>
   <i type="int" name="NSIM">     4</i>
   <i type="int" name="NBLK">    -1</i>
   <i type="logical" name="LPLANE"> T  </i>
   <i type="logical" name="LSCALAPACK"> T  </i>
   <i type="logical" name="LSCAAWARE"> F  </i>
   <i type="logical" name="LSCALU"> F  </i>
   <i type="logical" name="LASYNC"> F  </i>
   <i type="logical" name="LORBITALREAL"> F  </i>
  </separator>
  <separator name="miscellaneous" >
   <i type="int" name="IDIOT">     3</i>
   <i type="int" name="ISPECIAL">     0</i>
   <i type="logical" name="LMUSIC"> F  </i>
   <v name="POMASS">     95.94000000     32.06600000</v>
   <v name="DARWINR">      0.00000000      0.00000000</v>
   <v name="DARWINV">      1.00000000      1.00000000</v>
   <i type="logical" name="LCORR"> T  </i>
  </separator>
  <i type="logical" name="GGA_COMPAT"> T  </i>
  <i type="logical" name="LBERRY"> F  </i>
  <i type="int" name="ICORELEVEL">     0</i>
  <i type="logical" name="LDAU"> F  </i>
  <i type="int" name="I_CONSTRAINED_M">     0</i>
  <separator name="electronic exchange-correlation" >
   <i type="string" name="GGA">--</i>
   <i type="int" name="VOSKOWN">     0</i>
   <i type="logical" name="LHFCALC"> F  </i>
   <i type="string" name="PRECFOCK"></i>
   <i type="logical" name="LSYMGRAD"> F  </i>
   <i type="logical" name="LHFONE"> F  </i>
   <i type="logical" name="LRHFCALC"> F  </i>
   <i type="logical" name="LTHOMAS"> F  </i>
   <i type="logical" name="LMODELHF"> F  </i>
   <i name="ENCUT4O">     -1.00000000</i>
   <i type="int" name="EXXOEP">     0</i>
   <i type="int" name="FOURORBIT">     0</i>
   <i name="AEXX">      0.00000000</i>
   <i name="HFALPHA">      0.00000000</i>
   <i name="MCALPHA">      0.00000000</i>
   <i name="ALDAX">      1.00000000</i>
   <i name="AGGAX">      1.00000000</i>
   <i name="ALDAC">      1.00000000</i>
   <i name="AGGAC">      1.00000000</i>
   <i type="int" name="NKREDX">     1</i>
   <i type="int" name="NKREDY">     1</i>
   <i type="int" name="NKREDZ">     1</i>
   <i type="logical" name="SHIFTRED"> F  </i>
   <i type="logical" name="ODDONLY"> F  </i>
   <i type="logical" name="EVENONLY"> F  </i>
   <i type="int" name="LMAXFOCK">     0</i>
   <i type="int" name="NMAXFOCKAE">     0</i>
   <i type="logical" name="LFOCKAEDFT"> F  </i>
   <i name="HFSCREEN">      0.00000000</i>
   <i name="HFSCREENC">      0.00000000</i>
   <i type="int" name="NBANDSGWLOW">     0</i>
  </separator>
  <separator name="vdW DFT" >
   <i type="logical" name="LUSE_VDW"> F  </i>
   <i name="Zab_VDW">     -0.84910000</i>
   <i name="PARAM1">      0.12340000</i>
   <i name="PARAM2">      1.00000000</i>
   <i name="PARAM3">      0.00000000</i>
  </separator>
  <separator name="model GW" >
   <i type="int" name="MODEL_GW">     0</i>
   <i name="MODEL_EPS0">     13.11510680</i>
   <i name="MODEL_ALPHA">      1.00000000</i>
  </separator>
  <separator name="linear response parameters" >
   <i type="logical" name="LEPSILON"> F  </i>
   <i type="logical" name="LRPA"> F  </i>
   <i type="logical" name="LNABLA"> F  </i>
   <i type="logical" name="LVEL"> F  </i>
   <i type="int" name="KINTER">     0</i>
   <i name="CSHIFT">      0.10000000</i>
   <i name="OMEGAMAX">     -1.00000000</i>
   <i name="DEG_THRESHOLD">      0.00200000</i>
   <i name="RTIME">     -0.10000000</i>
   <i name="WPLASMAI">      0.00000000</i>
   <v name="DFIELD">      0.00000000      0.00000000      0.00000000</v>
   <v name="WPLASMA">      0.00000000      0.00000000      0.00000000      0.00000000      0.00000000      0.00000000      0.00000000      0.00000000      0.00000000</v>
  </separator>
  <separator name="orbital magnetization" >
   <i type="logical" name="NUCIND"> F  </i>
   <v name="MAGPOS">      0.00000000      0.00000000      0.00000000</v>
   <i type="logical" name="LNICSALL"> T  </i>
   <i type="logical" name="ORBITALMAG"> F  </i>
   <i type="logical" name="LMAGBLOCH"> F  </i>
   <i type="logical" name="LCHIMAG"> F  </i>
   <i type="logical" name="LGAUGE"> T  </i>
   <i type="int" name="MAGATOM">     0</i>
   <v name="MAGDIPOL">      0.00000000      0.00000000      0.00000000</v>
   <v name="AVECCONST">      0.00000000      0.00000000      0.00000000</v>
  </separator>
  <separator name="response functions" >
   <i type="logical" name="LADDER"> F  </i>
   <i type="logical" name="LRPAFORCE"> F  </i>
   <i type="logical" name="LFXC"> F  </i>
   <i type="logical" name="LHARTREE"> T  </i>
   <i type="int" name="IBSE">     0</i>
   <v type="int" name="KPOINT">    -1     0     0     0</v>
   <i type="logical" name="LTCTE"> F  </i>
   <i type="logical" name="LTETE"> F  </i>
   <i type="logical" name="LTRIPLET"> F  </i>
   <i type="logical" name="LFXCEPS"> F  </i>
   <i type="logical" name="LFXHEG"> F  </i>
   <i type="int" name="NATURALO">     2</i>
   <i type="logical" name="L2ORDER"> F  </i>
   <i type="logical" name="LMP2LT"> F  </i>
   <i type="logical" name="LUSEW"> F  </i>
   <i name="ENCUTGW">     -2.00000000</i>
   <i name="ENCUTGWSOFT">     -2.00000000</i>
   <i name="ENCUTLF">     -1.00000000</i>
   <i type="int" name="LMAXMP2">    -1</i>
   <i name="SCISSOR">      0.00000000</i>
   <i type="int" name="NOMEGA">     0</i>
   <i type="int" name="NOMEGAR">     0</i>
   <i type="int" name="NBANDSGW">    -1</i>
   <i type="int" name="NBANDSO">    -1</i>
   <i type="int" name="NBANDSV">    -1</i>
   <i type="int" name="NELM">     1</i>
   <i type="int" name="NELMHF">     1</i>
   <i type="int" name="DIM">     3</i>
   <i type="int" name="ANTIRES">     0</i>
   <i name="OMEGAMAX">    -30.00000000</i>
   <i name="OMEGAMIN">    -30.00000000</i>
   <i name="OMEGATL">   -200.00000000</i>
   <i type="int" name="OMEGAGRID">   140</i>
   <i name="CSHIFT">     -0.10000000</i>
   <i type="logical" name="SELFENERGY"> F  </i>
   <i type="logical" name="LSPECTRAL"> F  </i>
   <i type="logical" name="LSPECTRALGW"> F  </i>
   <i type="logical" name="LSINGLES"> F  </i>
   <i type="logical" name="LFERMIGW"> F  </i>
   <i type="logical" name="ODDONLYGW"> F  </i>
   <i type="logical" name="EVENONLYGW"> F  </i>
   <i type="int" name="NKREDLFX">     1</i>
   <i type="int" name="NKREDLFY">     1</i>
   <i type="int" name="NKREDLFZ">     1</i>
   <i type="int" name="MAXMEM">  2800</i>
   <i type="int" name="TELESCOPE">     0</i>
   <i type="int" name="TAUPAR">     1</i>
   <i type="int" name="OMEGAPAR">    -1</i>
   <i name="LAMBDA">      1.00000000</i>
  </separator>
  <separator name="External order field" >
   <i name="OFIELD_KAPPA">      0.00000000</i>
   <v name="OFIELD_K">      0.00000000      0.00000000      0.00000000</v>
   <i name="OFIELD_Q6_NEAR">      0.00000000</i>
   <i name="OFIELD_Q6_FAR">      0.00000000</i>
   <i name="OFIELD_A">      0.00000000</i>
  </separator>
 </parameters>
 <atominfo>
  <atoms>       6 </atoms>
  <types>       2 </types>
  <array name="atoms" >
   <dimension dim="1">ion</dimension>
   <field type="string">element</field>
   <field type="int">atomtype</field>
   <set>
    <rc><c>Mo</c><c>   1</c></rc>
    <rc><c>Mo</c><c>   1</c></rc>
    <rc><c>S </c><c>   2</c></rc>
    <rc><c>S </c><c>   2</c></rc>
    <rc><c>S </c><c>   2</c></rc>
    <rc><c>S </c><c>   2</c></rc>
   </set>
  </array>
  <array name="atomtypes" >
   <dimension dim="1">type</dimension>
   <field type="int">atomspertype</field>
   <field type="string">element</field>
   <field>mass</field>
   <field>valence</field>
   <field type="string">pseudopotential</field>
   <set>
    <rc><c>   2</c><c>Mo</c><c>     95.94000000</c><c>      6.00000000</c><c> PAW_PBE Mo 08Apr2002                   </c></rc>
    <rc><c>   4</c><c>S </c><c>     32.06600000</c><c>      6.00000000</c><c>  PAW_PBE S 17Jan2003                   </c></rc>
   </set>
  </array>
 </atominfo>
 <structure name="initialpos" >
  <crystal>
   <varray name="basis" >
    <v>       3.19031573       0.00000000       0.00000000 </v>
    <v>      -1.59515786       2.76289447       0.00000000 </v>
    <v>       0.00000000       0.00000000      14.87900430 </v>
   </varray>
   <i name="volume">    131.15106795 </i>
   <varray name="rec_basis" >
    <v>       0.31344860       0.18096963       0.00000000 </v>
    <v>       0.00000000       0.36193927       0.00000000 </v>
    <v>       0.00000000       0.00000000       0.06720880 </v>
   </varray>
  </crystal>
  <varray name="positions" >
   <v>       0.33333300       0.66666700       0.25000000 </v>
   <v>       0.66666700       0.33333300       0.75000000 </v>
   <v>       0.33333300       0.66666700       0.85517400 </v>
   <v>       0.66666700       0.33333300       0.14482600 </v>
   <v>       0.66666600       0.33333300       0.35517400 </v>
   <v>       0.33333400       0.66666700       0.64482600 </v>
  </varray>
 </structure>
 <calculation>
  <scstep>
   <time name="dav">    0.20    0.20</time>
   <time name="total">    0.22    0.28</time>
   <energy>
    <i name="alphaZ">     90.42577596 </i>
    <i name="ewald">  -1146.88905665 </i>
    <i name="hartreedc">   -535.10238360 </i>
    <i name="XCdc">    -72.59367185 </i>
    <i name="pawpsdc">    813.77302396 </i>
    <i name="pawaedc">   -658.68146406 </i>
    <i name="eentropy">      0.00000000 </i>
    <i name="bandstr">    100.54068587 </i>
    <i name="atom">   1542.13715150 </i>
    <i name="e_fr_energy">    133.61006114 </i>
    <i name="e_wo_entrp">    133.61006114 </i>
    <i name="e_0_energy">    133.61006114 </i>
   </energy>
  </scstep>
  <scstep>
   <time name="dav">    0.25    0.25</time>
   <time name="total">    0.25    0.25</time>
   <energy>
    <i name="e_fr_energy">    -35.42223937 </i>
    <i name="e_wo_entrp">    -35.42223937 </i>
    <i name="e_0_energy">    -35.42223937 </i>
   </energy>
  </scstep>
  <scstep>
   <time name="dav">    0.24    0.24</time>
   <time name="total">    0.24    0.24</time>
   <energy>
    <i name="e_fr_energy">    -46.44368493 </i>
    <i name="e_wo_entrp">    -46.44368493 </i>
    <i name="e_0_energy">    -46.44368493 </i>
   </energy>
  </scstep>
  <scstep>
   <time name="dav">    0.25    0.26</time>
   <time name="total">    0.25    0.26</time>
   <energy>
    <i name="e_fr_energy">    -46.73469208 </i>
    <i name="e_wo_entrp">    -46.73469208 </i>
    <i name="e_0_energy">    -46.73469208 </i>
   </energy>
  </scstep>
  <scstep>
   <time name="dav">    0.24    0.24</time>
   <time name="total">    0.25    0.25</time>
   <energy>
    <i name="e_fr_energy">    -46.74139527 </i>
    <i name="e_wo_entrp">    -46.74139527 </i>
    <i name="e_0_energy">    -46.74139527 </i>
   </energy>
  </scstep>
  <scstep>
   <time name="diag">    0.04    0.04</time>
   <time name="diis">    0.14    0.14</time>
   <time name="orth">    0.00    0.01</time>
   <time name="total">    0.21    0.21</time>
   <energy>
    <i name="e_fr_energy">    -44.36809725 </i>
    <i name="e_wo_entrp">    -44.36809725 </i>
    <i name="e_0_energy">    -44.36809725 </i>
   </energy>
  </scstep>
  <scstep>
   <time name="diag">    0.04    0.04</time>
   <time name="diis">    0.14    0.14</time>
   <time name="orth">    0.00    0.01</time>
   <time name="total">    0.22    0.22</time>
   <energy>
    <i name="e_fr_energy">    -43.62610695 </i>
    <i name="e_wo_entrp">    -43.62610695 </i>
    <i name="e_0_energy">    -43.62610695 </i>
   </energy>
  </scstep>
  <scstep>
   <time name="diag">    0.04    0.04</time>
   <time name="diis">    0.15    0.15</time>
   <time name="orth">    0.00    0.01</time>
   <time name="total">    0.22    0.22</time>
   <energy>
    <i name="e_fr_energy">    -43.55590093 </i>
    <i name="e_wo_entrp">    -43.55590093 </i>
    <i name="e_0_energy">    -43.55590093 </i>
   </energy>
  </scstep>
  <scstep>
   <time name="diag">    0.04    0.04</time>
   <time name="diis">    0.15    0.15</time>
   <time name="orth">    0.01    0.01</time>
   <time name="total">    0.23    0.23</time>
   <energy>
    <i name="e_fr_energy">    -43.54581689 </i>
    <i name="e_wo_entrp">    -43.54581689 </i>
    <i name="e_0_energy">    -43.54581689 </i>
   </energy>
  </scstep>
  <scstep>
   <time name="diag">    0.04    0.04</time>
   <time name="diis">    0.15    0.15</time>
   <time name="orth">    0.00    0.01</time>
   <time name="total">    0.23    0.23</time>
   <energy>
    <i name="e_fr_energy">    -43.53389195 </i>
    <i name="e_wo_entrp">    -43.53389195 </i>
    <i name="e_0_energy">    -43.53389195 </i>
   </energy>
  </scstep>
  <scstep>
   <time name="diag">    0.04    0.04</time>
   <time name="diis">    0.16    0.16</time>
   <time name="orth">    0.01    0.01</time>
   <time name="total">    0.23    0.23</time>
   <energy>
    <i name="e_fr_energy">    -43.53388284 </i>
    <i name="e_wo_entrp">    -43.53388284 </i>
    <i name="e_0_energy">    -43.53388284 </i>
   </energy>
  </scstep>
  <scstep>
   <time name="diag">    0.04    0.04</time>
   <time name="diis">    0.16    0.16</time>
   <time name="orth">    0.00    0.01</time>
   <time name="total">    0.23    0.24</time>
   <energy>
    <i name="e_fr_energy">    -43.53402459 </i>
    <i name="e_wo_entrp">    -43.53402459 </i>
    <i name="e_0_energy">    -43.53402459 </i>
   </energy>
  </scstep>
  <scstep>
   <time name="diag">    0.04    0.04</time>
   <time name="diis">    0.16    0.16</time>
   <time name="orth">    0.00    0.01</time>
   <time name="total">    0.24    0.24</time>
   <energy>
    <i name="e_fr_energy">    -43.53403336 </i>
    <i name="e_wo_entrp">    -43.53403336 </i>
    <i name="e_0_energy">    -43.53403336 </i>
   </energy>
  </scstep>
  <scstep>
   <time name="diag">    0.04    0.04</time>
   <time name="diis">    0.13    0.12</time>
   <time name="orth">    0.00    0.01</time>
   <time name="total">    0.20    0.20</time>
   <energy>
    <i name="e_fr_energy">    -43.53401822 </i>
    <i name="e_wo_entrp">    -43.53401822 </i>
    <i name="e_0_energy">    -43.53401822 </i>
   </energy>
  </scstep>
  <scstep>
   <time name="diag">    0.04    0.04</time>
   <time name="diis">    0.10    0.10</time>
   <time name="orth">    0.00    0.01</time>
   <time name="total">    0.16    0.16</time>
   <energy>
    <i name="alphaZ">     90.42577596 </i>
    <i name="ewald">  -1146.88905665 </i>
    <i name="hartreedc">   -542.83005669 </i>
    <i name="XCdc">    -70.33511733 </i>
    <i name="pawpsdc">    957.34553429 </i>
    <i name="pawaedc">   -805.72711476 </i>
    <i name="eentropy">      0.00000000 </i>
    <i name="bandstr">    -67.66113463 </i>
    <i name="atom">   1542.13715150 </i>
    <i name="e_fr_energy">    -43.53401831 </i>
    <i name="e_wo_entrp">    -43.53401831 </i>
    <i name="e_0_energy">    -43.53401831 </i>
   </energy>
  </scstep>
  <structure>
   <crystal>
    <varray name="basis" >
     <v>       3.19031573       0.00000000       0.00000000 </v>
     <v>      -1.59515786       2.76289447       0.00000000 </v>
     <v>       0.00000000       0.00000000      14.87900430 </v>
    </varray>
    <i name="volume">    131.15106795 </i>
    <varray name="rec_basis" >
     <v>       0.31344860       0.18096963       0.00000000 </v>
     <v>       0.00000000       0.36193927       0.00000000 </v>
     <v>       0.00000000       0.00000000       0.06720880 </v>
    </varray>
   </crystal>
   <varray name="positions" >
    <v>       0.33333300       0.66666700       0.25000000 </v>
    <v>       0.66666700       0.33333300       0.75000000 </v>
    <v>       0.33333300       0.66666700       0.85517400 </v>
    <v>       0.66666700       0.33333300       0.14482600 </v>
    <v>       0.66666600       0.33333300       0.35517400 </v>
    <v>       0.33333400       0.66666700       0.64482600 </v>
   </varray>
  </structure>
  <varray name="forces" >
   <v>       0.00000000       0.00000000       0.00000000 </v>
   <v>       0.00000000       0.00000000       0.00000000 </v>
   <v>      -0.00000000       0.00000000      -0.07237777 </v>
   <v>       0.00000000      -0.00000000       0.07237777 </v>
   <v>       0.00000000      -0.00000000      -0.07237777 </v>
   <v>      -0.00000000       0.00000000       0.07237777 </v>
  </varray>
  <varray name="stress" >
   <v>     -16.23024812       0.00000000      -0.00000000 </v>
   <v>      -0.00000000     -16.23024812      -0.00000000 </v>
   <v>      -0.00000000      -0.00000000     -28.80423049 </v>
  </varray>
  <energy>
   <i name="e_fr_energy">    -44.86530533 </i>
   <i name="e_wo_entrp">    -44.86530533 </i>
   <i name="e_0_energy">      0.00000000 </i>
  </energy>
  <time name="totalsc">    3.71    3.86</time>
  <eigenvalues>
   <array>
    <dimension dim="1">band</dimension>
    <dimension dim="2">kpoint</dimension>
    <dimension dim="3">spin</dimension>
    <field>eigene</field>
    <field>occ</field>
    <set>
     <set comment="spin 1">
      <set comment="kpoint 1">
       <r>  -10.9357    1.0000 </r>
       <r>  -10.9167    1.0000 </r>
       <r>   -9.7348    1.0000 </r>
       <r>   -9.7010    1.0000 </r>
       <r>   -2.5184    1.0000 </r>
       <r>   -2.3560    1.0000 </r>
       <r>    0.5250    1.0000 </r>
       <r>    0.5252    1.0000 </r>
       <r>    0.5263    1.0000 </r>
       <r>    0.5266    1.0000 </r>
       <r>    1.1096    1.0000 </r>
       <r>    1.6335    1.0000 </r>
       <r>    1.6336    1.0000 </r>
       <r>    1.6339    1.0000 </r>
       <r>    1.6341    1.0000 </r>
       <r>    1.6792    1.0000 </r>
       <r>    2.9295    1.0000 </r>
       <r>    3.3052    1.0000 </r>
       <r>    5.8868    0.0000 </r>
       <r>    5.9257    0.0000 </r>
       <r>    6.0167    0.0000 </r>
       <r>    6.0817    0.0000 </r>
      </set>
      <set comment="kpoint 2">
       <r>  -10.7215    1.0000 </r>
       <r>  -10.7029    1.0000 </r>
       <r>   -9.6312    1.0000 </r>
       <r>   -9.5998    1.0000 </r>
       <r>   -2.2734    1.0000 </r>
       <r>   -2.1143    1.0000 </r>
       <r>    0.0597    1.0000 </r>
       <r>    0.0626    1.0000 </r>
       <r>    0.4611    1.0000 </r>
       <r>    0.6780    1.0000 </r>
       <r>    0.7594    1.0000 </r>
       <r>    0.7603    1.0000 </r>
       <r>    1.2960    1.0000 </r>
       <r>    1.2983    1.0000 </r>
       <r>    1.9346    1.0000 </r>
       <r>    2.2204    1.0000 </r>
       <r>    2.8496    1.0000 </r>
       <r>    3.0906    1.0000 </r>
       <r>    5.5308    0.0000 </r>
       <r>    5.6808    0.0000 </r>
       <r>    5.7640    0.0000 </r>
       <r>    5.7833    0.0000 </r>
      </set>
      <set comment="kpoint 3">
       <r>  -10.1520    1.0000 </r>
       <r>  -10.1352    1.0000 </r>
       <r>   -9.3586    1.0000 </r>
       <r>   -9.3344    1.0000 </r>
       <r>   -1.8835    1.0000 </r>
       <r>   -1.7728    1.0000 </r>
       <r>   -0.6896    1.0000 </r>
       <r>   -0.6449    1.0000 </r>
       <r>   -0.4571    1.0000 </r>
       <r>   -0.3558    1.0000 </r>
       <r>    0.6583    1.0000 </r>
       <r>    0.6619    1.0000 </r>
       <r>    1.3433    1.0000 </r>
       <r>    1.3469    1.0000 </r>
       <r>    1.7079    1.0000 </r>
       <r>    1.9178    1.0000 </r>
       <r>    2.3748    1.0000 </r>
       <r>    2.4230    1.0000 </r>
       <r>    5.1250    0.0000 </r>
       <r>    5.4450    0.0000 </r>
       <r>    5.4481    0.0000 </r>
       <r>    5.4605    0.0000 </r>
      </set>
      <set comment="kpoint 4">
       <r>   -9.4744    1.0000 </r>
       <r>   -9.4627    1.0000 </r>
       <r>   -9.0449    1.0000 </r>
       <r>   -9.0306    1.0000 </r>
       <r>   -2.2828    1.0000 </r>
       <r>   -2.2484    1.0000 </r>
       <r>   -1.2951    1.0000 </r>
       <r>   -1.2510    1.0000 </r>
       <r>   -0.8424    1.0000 </r>
       <r>   -0.7567    1.0000 </r>
       <r>    0.1590    1.0000 </r>
       <r>    0.1645    1.0000 </r>
       <r>    1.3455    1.0000 </r>
       <r>    1.4554    1.0000 </r>
       <r>    1.9314    1.0000 </r>
       <r>    1.9400    1.0000 </r>
       <r>    2.1801    1.0000 </r>
       <r>    2.2300    1.0000 </r>
       <r>    5.2627    0.0000 </r>
       <r>    5.2716    0.0000 </r>
       <r>    5.4595    0.0000 </r>
       <r>    5.6372    0.0000 </r>
      </set>
      <set comment="kpoint 5">
       <r>   -9.1435    1.0000 </r>
       <r>   -9.1370    1.0000 </r>
       <r>   -8.8976    1.0000 </r>
       <r>   -8.8911    1.0000 </r>
       <r>   -2.6113    1.0000 </r>
       <r>   -2.5843    1.0000 </r>
       <r>   -1.6511    1.0000 </r>
       <r>   -1.6271    1.0000 </r>
       <r>   -0.9627    1.0000 </r>
       <r>   -0.8864    1.0000 </r>
       <r>   -0.0209    1.0000 </r>
       <r>   -0.0178    1.0000 </r>
       <r>    1.2537    1.0000 </r>
       <r>    1.2718    1.0000 </r>
       <r>    2.1566    1.0000 </r>
       <r>    2.1697    1.0000 </r>
       <r>    2.4838    1.0000 </r>
       <r>    2.4878    1.0000 </r>
       <r>    5.2873    0.0000 </r>
       <r>    5.2907    0.0000 </r>
       <r>    5.7757    0.0000 </r>
       <r>    5.8311    0.0000 </r>
      </set>
      <set comment="kpoint 6">
       <r>  -10.3282    1.0000 </r>
       <r>  -10.3108    1.0000 </r>
       <r>   -9.4416    1.0000 </r>
       <r>   -9.4151    1.0000 </r>
       <r>   -1.9165    1.0000 </r>
       <r>   -1.7767    1.0000 </r>
       <r>   -0.5107    1.0000 </r>
       <r>   -0.4974    1.0000 </r>
       <r>   -0.0611    1.0000 </r>
       <r>    0.0813    1.0000 </r>
       <r>    0.4696    1.0000 </r>
       <r>    0.4963    1.0000 </r>
       <r>    1.0976    1.0000 </r>
       <r>    1.0991    1.0000 </r>
       <r>    2.1003    1.0000 </r>
       <r>    2.3035    1.0000 </r>
       <r>    2.5570    1.0000 </r>
       <r>    2.6323    1.0000 </r>
       <r>    5.0682    0.0000 </r>
       <r>    5.3291    0.0000 </r>
       <r>    5.5381    0.0000 </r>
       <r>    5.6135    0.0000 </r>
      </set>
      <set comment="kpoint 7">
       <r>   -9.6930    1.0000 </r>
       <r>   -9.6790    1.0000 </r>
       <r>   -9.1387    1.0000 </r>
       <r>   -9.1205    1.0000 </r>
       <r>   -1.9358    1.0000 </r>
       <r>   -1.8832    1.0000 </r>
       <r>   -0.9477    1.0000 </r>
       <r>   -0.9164    1.0000 </r>
       <r>   -0.7050    1.0000 </r>
       <r>   -0.6309    1.0000 </r>
       <r>   -0.0621    1.0000 </r>
       <r>    0.0132    1.0000 </r>
       <r>    1.1939    1.0000 </r>
       <r>    1.2001    1.0000 </r>
       <r>    1.7915    1.0000 </r>
       <r>    1.8791    1.0000 </r>
       <r>    2.3070    1.0000 </r>
       <r>    2.3168    1.0000 </r>
       <r>    5.0023    0.0000 </r>
       <r>    5.2176    0.0000 </r>
       <r>    5.5324    0.0000 </r>
       <r>    5.6546    0.0000 </r>
      </set>
      <set comment="kpoint 8">
       <r>   -9.1593    1.0000 </r>
       <r>   -9.1516    1.0000 </r>
       <r>   -8.8897    1.0000 </r>
       <r>   -8.8813    1.0000 </r>
       <r>   -2.3236    1.0000 </r>
       <r>   -2.2967    1.0000 </r>
       <r>   -1.6993    1.0000 </r>
       <r>   -1.6902    1.0000 </r>
       <r>   -0.8325    1.0000 </r>
       <r>   -0.7618    1.0000 </r>
       <r>   -0.0626    1.0000 </r>
       <r>   -0.0205    1.0000 </r>
       <r>    1.2041    1.0000 </r>
       <r>    1.2209    1.0000 </r>
       <r>    1.3340    1.0000 </r>
       <r>    1.3721    1.0000 </r>
       <r>    2.6295    1.0000 </r>
       <r>    2.6476    1.0000 </r>
       <r>    5.2739    0.0000 </r>
       <r>    5.3377    0.0000 </r>
       <r>    5.7813    0.0000 </r>
       <r>    5.8565    0.0000 </r>
      </set>
      <set comment="kpoint 9">
       <r>   -9.1749    1.0000 </r>
       <r>   -9.1662    1.0000 </r>
       <r>   -8.8815    1.0000 </r>
       <r>   -8.8716    1.0000 </r>
       <r>   -1.9644    1.0000 </r>
       <r>   -1.9359    1.0000 </r>
       <r>   -1.7496    1.0000 </r>
       <r>   -1.7392    1.0000 </r>
       <r>   -0.4834    1.0000 </r>
       <r>   -0.4594    1.0000 </r>
       <r>   -0.1354    1.0000 </r>
       <r>   -0.0464    1.0000 </r>
       <r>    0.2190    1.0000 </r>
       <r>    0.2416    1.0000 </r>
       <r>    1.4819    1.0000 </r>
       <r>    1.4911    1.0000 </r>
       <r>    2.6043    1.0000 </r>
       <r>    2.6142    1.0000 </r>
       <r>    5.1897    0.0000 </r>
       <r>    5.3164    0.0000 </r>
       <r>    5.8811    0.0000 </r>
       <r>    6.0949    0.0000 </r>
      </set>
      <set comment="kpoint 10">
       <r>   -8.9370    1.0000 </r>
       <r>   -8.9340    1.0000 </r>
       <r>   -8.7590    1.0000 </r>
       <r>   -8.7559    1.0000 </r>
       <r>   -2.1345    1.0000 </r>
       <r>   -2.1236    1.0000 </r>
       <r>   -1.7885    1.0000 </r>
       <r>   -1.7717    1.0000 </r>
       <r>   -0.7730    1.0000 </r>
       <r>   -0.7354    1.0000 </r>
       <r>   -0.1028    1.0000 </r>
       <r>   -0.0815    1.0000 </r>
       <r>    0.1092    1.0000 </r>
       <r>    0.1607    1.0000 </r>
       <r>    1.0816    1.0000 </r>
       <r>    1.1221    1.0000 </r>
       <r>    2.9660    1.0000 </r>
       <r>    2.9870    1.0000 </r>
       <r>    4.9263    0.0000 </r>
       <r>    4.9355    0.0000 </r>
       <r>    6.1617    0.0000 </r>
       <r>    6.3505    0.0000 </r>
      </set>
      <set comment="kpoint 11">
       <r>  -10.9263    1.0000 </r>
       <r>  -10.9263    1.0000 </r>
       <r>   -9.7179    1.0000 </r>
       <r>   -9.7179    1.0000 </r>
       <r>   -2.4408    1.0000 </r>
       <r>   -2.4408    1.0000 </r>
       <r>    0.5259    1.0000 </r>
       <r>    0.5259    1.0000 </r>
       <r>    0.5262    1.0000 </r>
       <r>    0.5262    1.0000 </r>
       <r>    1.3686    1.0000 </r>
       <r>    1.3686    1.0000 </r>
       <r>    1.6327    1.0000 </r>
       <r>    1.6327    1.0000 </r>
       <r>    1.6331    1.0000 </r>
       <r>    1.6331    1.0000 </r>
       <r>    3.1469    1.0000 </r>
       <r>    3.1469    1.0000 </r>
       <r>    5.8827    0.0000 </r>
       <r>    5.8840    0.0000 </r>
       <r>    5.9307    0.0000 </r>
       <r>    5.9829    0.0000 </r>
      </set>
      <set comment="kpoint 12">
       <r>  -10.7123    1.0000 </r>
       <r>  -10.7123    1.0000 </r>
       <r>   -9.6153    1.0000 </r>
       <r>   -9.6153    1.0000 </r>
       <r>   -2.1960    1.0000 </r>
       <r>   -2.1960    1.0000 </r>
       <r>    0.0612    1.0000 </r>
       <r>    0.0612    1.0000 </r>
       <r>    0.5765    1.0000 </r>
       <r>    0.5765    1.0000 </r>
       <r>    0.7597    1.0000 </r>
       <r>    0.7597    1.0000 </r>
       <r>    1.2966    1.0000 </r>
       <r>    1.2966    1.0000 </r>
       <r>    2.0489    1.0000 </r>
       <r>    2.0489    1.0000 </r>
       <r>    2.9962    1.0000 </r>
       <r>    2.9962    1.0000 </r>
       <r>    5.5873    0.0000 </r>
       <r>    5.6226    0.0000 </r>
       <r>    5.7294    0.0000 </r>
       <r>    5.7723    0.0000 </r>
      </set>
      <set comment="kpoint 13">
       <r>  -10.1437    1.0000 </r>
       <r>  -10.1437    1.0000 </r>
       <r>   -9.3464    1.0000 </r>
       <r>   -9.3464    1.0000 </r>
       <r>   -1.8294    1.0000 </r>
       <r>   -1.8294    1.0000 </r>
       <r>   -0.6724    1.0000 </r>
       <r>   -0.6724    1.0000 </r>
       <r>   -0.3983    1.0000 </r>
       <r>   -0.3983    1.0000 </r>
       <r>    0.6601    1.0000 </r>
       <r>    0.6601    1.0000 </r>
       <r>    1.3460    1.0000 </r>
       <r>    1.3460    1.0000 </r>
       <r>    1.8054    1.0000 </r>
       <r>    1.8054    1.0000 </r>
       <r>    2.4047    1.0000 </r>
       <r>    2.4047    1.0000 </r>
       <r>    5.2661    0.0000 </r>
       <r>    5.2670    0.0000 </r>
       <r>    5.4506    0.0000 </r>
       <r>    5.4539    0.0000 </r>
      </set>
      <set comment="kpoint 14">
       <r>   -9.4686    1.0000 </r>
       <r>   -9.4686    1.0000 </r>
       <r>   -9.0377    1.0000 </r>
       <r>   -9.0377    1.0000 </r>
       <r>   -2.2654    1.0000 </r>
       <r>   -2.2654    1.0000 </r>
       <r>   -1.2754    1.0000 </r>
       <r>   -1.2754    1.0000 </r>
       <r>   -0.7977    1.0000 </r>
       <r>   -0.7977    1.0000 </r>
       <r>    0.1616    1.0000 </r>
       <r>    0.1616    1.0000 </r>
       <r>    1.3986    1.0000 </r>
       <r>    1.3986    1.0000 </r>
       <r>    1.9358    1.0000 </r>
       <r>    1.9358    1.0000 </r>
       <r>    2.2069    1.0000 </r>
       <r>    2.2069    1.0000 </r>
       <r>    5.2674    0.0000 </r>
       <r>    5.2674    0.0000 </r>
       <r>    5.5419    0.0000 </r>
       <r>    5.5423    0.0000 </r>
      </set>
      <set comment="kpoint 15">
       <r>   -9.1403    1.0000 </r>
       <r>   -9.1403    1.0000 </r>
       <r>   -8.8943    1.0000 </r>
       <r>   -8.8943    1.0000 </r>
       <r>   -2.5981    1.0000 </r>
       <r>   -2.5981    1.0000 </r>
       <r>   -1.6399    1.0000 </r>
       <r>   -1.6399    1.0000 </r>
       <r>   -0.9246    1.0000 </r>
       <r>   -0.9246    1.0000 </r>
       <r>   -0.0197    1.0000 </r>
       <r>   -0.0197    1.0000 </r>
       <r>    1.2612    1.0000 </r>
       <r>    1.2612    1.0000 </r>
       <r>    2.1620    1.0000 </r>
       <r>    2.1620    1.0000 </r>
       <r>    2.4857    1.0000 </r>
       <r>    2.4857    1.0000 </r>
       <r>    5.2889    0.0000 </r>
       <r>    5.2889    0.0000 </r>
       <r>    5.8033    0.0000 </r>
       <r>    5.8055    0.0000 </r>
      </set>
      <set comment="kpoint 16">
       <r>  -10.3195    1.0000 </r>
       <r>  -10.3195    1.0000 </r>
       <r>   -9.4282    1.0000 </r>
       <r>   -9.4281    1.0000 </r>
       <r>   -1.8489    1.0000 </r>
       <r>   -1.8489    1.0000 </r>
       <r>   -0.5057    1.0000 </r>
       <r>   -0.5057    1.0000 </r>
       <r>    0.0171    1.0000 </r>
       <r>    0.0171    1.0000 </r>
       <r>    0.4821    1.0000 </r>
       <r>    0.4821    1.0000 </r>
       <r>    1.0981    1.0000 </r>
       <r>    1.0981    1.0000 </r>
       <r>    2.1873    1.0000 </r>
       <r>    2.1873    1.0000 </r>
       <r>    2.6064    1.0000 </r>
       <r>    2.6064    1.0000 </r>
       <r>    5.1880    0.0000 </r>
       <r>    5.1900    0.0000 </r>
       <r>    5.5494    0.0000 </r>
       <r>    5.6059    0.0000 </r>
      </set>
      <set comment="kpoint 17">
       <r>   -9.6862    1.0000 </r>
       <r>   -9.6861    1.0000 </r>
       <r>   -9.1295    1.0000 </r>
       <r>   -9.1295    1.0000 </r>
       <r>   -1.9100    1.0000 </r>
       <r>   -1.9100    1.0000 </r>
       <r>   -0.9344    1.0000 </r>
       <r>   -0.9344    1.0000 </r>
       <r>   -0.6682    1.0000 </r>
       <r>   -0.6682    1.0000 </r>
       <r>   -0.0217    1.0000 </r>
       <r>   -0.0217    1.0000 </r>
       <r>    1.1971    1.0000 </r>
       <r>    1.1971    1.0000 </r>
       <r>    1.8329    1.0000 </r>
       <r>    1.8329    1.0000 </r>
       <r>    2.3123    1.0000 </r>
       <r>    2.3123    1.0000 </r>
       <r>    5.1082    0.0000 </r>
       <r>    5.1082    0.0000 </r>
       <r>    5.5597    0.0000 </r>
       <r>    5.5736    0.0000 </r>
      </set>
      <set comment="kpoint 18">
       <r>   -9.1555    1.0000 </r>
       <r>   -9.1555    1.0000 </r>
       <r>   -8.8854    1.0000 </r>
       <r>   -8.8854    1.0000 </r>
       <r>   -2.3105    1.0000 </r>
       <r>   -2.3105    1.0000 </r>
       <r>   -1.6949    1.0000 </r>
       <r>   -1.6949    1.0000 </r>
       <r>   -0.7982    1.0000 </r>
       <r>   -0.7982    1.0000 </r>
       <r>   -0.0402    1.0000 </r>
       <r>   -0.0402    1.0000 </r>
       <r>    1.2112    1.0000 </r>
       <r>    1.2112    1.0000 </r>
       <r>    1.3528    1.0000 </r>
       <r>    1.3528    1.0000 </r>
       <r>    2.6387    1.0000 </r>
       <r>    2.6387    1.0000 </r>
       <r>    5.3062    0.0000 </r>
       <r>    5.3062    0.0000 </r>
       <r>    5.8148    0.0000 </r>
       <r>    5.8150    0.0000 </r>
      </set>
      <set comment="kpoint 19">
       <r>   -9.1706    1.0000 </r>
       <r>   -9.1706    1.0000 </r>
       <r>   -8.8765    1.0000 </r>
       <r>   -8.8765    1.0000 </r>
       <r>   -1.9503    1.0000 </r>
       <r>   -1.9503    1.0000 </r>
       <r>   -1.7444    1.0000 </r>
       <r>   -1.7444    1.0000 </r>
       <r>   -0.4756    1.0000 </r>
       <r>   -0.4756    1.0000 </r>
       <r>   -0.0869    1.0000 </r>
       <r>   -0.0869    1.0000 </r>
       <r>    0.2307    1.0000 </r>
       <r>    0.2307    1.0000 </r>
       <r>    1.4854    1.0000 </r>
       <r>    1.4854    1.0000 </r>
       <r>    2.6092    1.0000 </r>
       <r>    2.6092    1.0000 </r>
       <r>    5.2528    0.0000 </r>
       <r>    5.2530    0.0000 </r>
       <r>    5.8632    0.0000 </r>
       <r>    6.1702    0.0000 </r>
      </set>
      <set comment="kpoint 20">
       <r>   -8.9356    1.0000 </r>
       <r>   -8.9355    1.0000 </r>
       <r>   -8.7575    1.0000 </r>
       <r>   -8.7575    1.0000 </r>
       <r>   -2.1289    1.0000 </r>
       <r>   -2.1289    1.0000 </r>
       <r>   -1.7808    1.0000 </r>
       <r>   -1.7808    1.0000 </r>
       <r>   -0.7549    1.0000 </r>
       <r>   -0.7549    1.0000 </r>
       <r>   -0.0943    1.0000 </r>
       <r>   -0.0943    1.0000 </r>
       <r>    0.1404    1.0000 </r>
       <r>    0.1404    1.0000 </r>
       <r>    1.1000    1.0000 </r>
       <r>    1.1000    1.0000 </r>
       <r>    2.9764    1.0000 </r>
       <r>    2.9764    1.0000 </r>
       <r>    4.9310    0.0000 </r>
       <r>    4.9310    0.0000 </r>
       <r>    6.2397    0.0000 </r>
       <r>    6.2433    0.0000 </r>
      </set>
     </set>
    </set>
   </array>
  </eigenvalues>
  <separator name="orbital magnetization" >
   <v name="MAGDIPOLOUT">      0.00000000      0.00000000      0.00000000</v>
  </separator>
  <dos>
   <i name="efermi">      3.32159285 </i>
   <total>
    <array>
     <dimension dim="1">gridpoints</dimension>
     <dimension dim="2">spin</dimension>
     <field>energy</field>
     <field>total</field>
     <field>integrated</field>
     <set>
      <set comment="spin 1">
       <r>   -12.9357     0.0000     0.0000 </r>
       <r>   -12.8648     0.0000     0.0000 </r>
       <r>   -12.7938     0.0000     0.0000 </r>
       <r>   -12.7229     0.0000     0.0000 </r>
       <r>   -12.6519     0.0000     0.0000 </r>
       <r>   -12.5810     0.0000     0.0000 </r>
       <r>   -12.5100     0.0000     0.0000 </r>
       <r>   -12.4390     0.0000     0.0000 </r>
       <r>   -12.3681     0.0000     0.0000 </r>
       <r>   -12.2971     0.0000     0.0000 </r>
       <r>   -12.2262     0.0000     0.0000 </r>
       <r>   -12.1552     0.0000     0.0000 </r>
       <r>   -12.0843     0.0000     0.0000 </r>
       <r>   -12.0133     0.0000     0.0000 </r>
       <r>   -11.9424     0.0000     0.0000 </r>
       <r>   -11.8714     0.0000     0.0000 </r>
       <r>   -11.8005     0.0000     0.0000 </r>
       <r>   -11.7295     0.0000     0.0000 </r>
       <r>   -11.6586     0.0000     0.0000 </r>
       <r>   -11.5876     0.0000     0.0000 </r>
       <r>   -11.5166     0.0000     0.0000 </r>
       <r>   -11.4457     0.0000     0.0000 </r>
       <r>   -11.3747     0.0000     0.0000 </r>
       <r>   -11.3038     0.0000     0.0000 </r>
       <r>   -11.2328     0.0000     0.0000 </r>
       <r>   -11.1619     0.0000     0.0000 </r>
       <r>   -11.0909     0.0000     0.0000 </r>
       <r>   -11.0200     0.0000     0.0000 </r>
       <r>   -10.9490     0.0000     0.0000 </r>
       <r>   -10.8781     0.3946     0.0096 </r>
       <r>   -10.8071     0.9754     0.0582 </r>
       <r>   -10.7361     1.5562     0.1481 </r>
       <r>   -10.6652     0.9985     0.2334 </r>
       <r>   -10.5942     1.0643     0.3066 </r>
       <r>   -10.5233     1.1301     0.3845 </r>
       <r>   -10.4523     1.1959     0.4670 </r>
       <r>   -10.3814     1.2617     0.5542 </r>
       <r>   -10.3104     1.3205     0.6460 </r>
       <r>   -10.2395     1.3324     0.7401 </r>
       <r>   -10.1685     1.3442     0.8351 </r>
       <r>   -10.0976     1.3841     0.9315 </r>
       <r>   -10.0266     1.4391     1.0317 </r>
       <r>    -9.9557     1.4941     1.1357 </r>
       <r>    -9.8847     1.5491     1.2437 </r>
       <r>    -9.8137     1.6041     1.3556 </r>
       <r>    -9.7428     1.6591     1.4713 </r>
       <r>    -9.6718     3.5168     1.6325 </r>
       <r>    -9.6009     4.1893     1.9503 </r>
       <r>    -9.5299     4.6247     2.2610 </r>
       <r>    -9.4590     5.1291     2.6067 </r>
       <r>    -9.3880     5.5825     2.9887 </r>
       <r>    -9.3171     6.0198     3.3985 </r>
       <r>    -9.2461     6.5834     3.8456 </r>
       <r>    -9.1752     7.1472     4.3328 </r>
       <r>    -9.1042     8.4519     5.1275 </r>
       <r>    -9.0333     8.3314     5.7219 </r>
       <r>    -8.9623     8.6840     6.3254 </r>
       <r>    -8.8913    21.8267     6.9910 </r>
       <r>    -8.8204     6.0248     7.6487 </r>
       <r>    -8.7494     0.0000     8.0000 </r>
       <r>    -8.6785     0.0000     8.0000 </r>
       <r>    -8.6075     0.0000     8.0000 </r>
       <r>    -8.5366     0.0000     8.0000 </r>
       <r>    -8.4656     0.0000     8.0000 </r>
       <r>    -8.3947     0.0000     8.0000 </r>
       <r>    -8.3237     0.0000     8.0000 </r>
       <r>    -8.2528     0.0000     8.0000 </r>
       <r>    -8.1818     0.0000     8.0000 </r>
       <r>    -8.1109     0.0000     8.0000 </r>
       <r>    -8.0399     0.0000     8.0000 </r>
       <r>    -7.9689     0.0000     8.0000 </r>
       <r>    -7.8980     0.0000     8.0000 </r>
       <r>    -7.8270     0.0000     8.0000 </r>
       <r>    -7.7561     0.0000     8.0000 </r>
       <r>    -7.6851     0.0000     8.0000 </r>
       <r>    -7.6142     0.0000     8.0000 </r>
       <r>    -7.5432     0.0000     8.0000 </r>
       <r>    -7.4723     0.0000     8.0000 </r>
       <r>    -7.4013     0.0000     8.0000 </r>
       <r>    -7.3304     0.0000     8.0000 </r>
       <r>    -7.2594     0.0000     8.0000 </r>
       <r>    -7.1885     0.0000     8.0000 </r>
       <r>    -7.1175     0.0000     8.0000 </r>
       <r>    -7.0465     0.0000     8.0000 </r>
       <r>    -6.9756     0.0000     8.0000 </r>
       <r>    -6.9046     0.0000     8.0000 </r>
       <r>    -6.8337     0.0000     8.0000 </r>
       <r>    -6.7627     0.0000     8.0000 </r>
       <r>    -6.6918     0.0000     8.0000 </r>
       <r>    -6.6208     0.0000     8.0000 </r>
       <r>    -6.5499     0.0000     8.0000 </r>
       <r>    -6.4789     0.0000     8.0000 </r>
       <r>    -6.4080     0.0000     8.0000 </r>
       <r>    -6.3370     0.0000     8.0000 </r>
       <r>    -6.2661     0.0000     8.0000 </r>
       <r>    -6.1951     0.0000     8.0000 </r>
       <r>    -6.1241     0.0000     8.0000 </r>
       <r>    -6.0532     0.0000     8.0000 </r>
       <r>    -5.9822     0.0000     8.0000 </r>
       <r>    -5.9113     0.0000     8.0000 </r>
       <r>    -5.8403     0.0000     8.0000 </r>
       <r>    -5.7694     0.0000     8.0000 </r>
       <r>    -5.6984     0.0000     8.0000 </r>
       <r>    -5.6275     0.0000     8.0000 </r>
       <r>    -5.5565     0.0000     8.0000 </r>
       <r>    -5.4856     0.0000     8.0000 </r>
       <r>    -5.4146     0.0000     8.0000 </r>
       <r>    -5.3437     0.0000     8.0000 </r>
       <r>    -5.2727     0.0000     8.0000 </r>
       <r>    -5.2017     0.0000     8.0000 </r>
       <r>    -5.1308     0.0000     8.0000 </r>
       <r>    -5.0598     0.0000     8.0000 </r>
       <r>    -4.9889     0.0000     8.0000 </r>
       <r>    -4.9179     0.0000     8.0000 </r>
       <r>    -4.8470     0.0000     8.0000 </r>
       <r>    -4.7760     0.0000     8.0000 </r>
       <r>    -4.7051     0.0000     8.0000 </r>
       <r>    -4.6341     0.0000     8.0000 </r>
       <r>    -4.5632     0.0000     8.0000 </r>
       <r>    -4.4922     0.0000     8.0000 </r>
       <r>    -4.4213     0.0000     8.0000 </r>
       <r>    -4.3503     0.0000     8.0000 </r>
       <r>    -4.2793     0.0000     8.0000 </r>
       <r>    -4.2084     0.0000     8.0000 </r>
       <r>    -4.1374     0.0000     8.0000 </r>
       <r>    -4.0665     0.0000     8.0000 </r>
       <r>    -3.9955     0.0000     8.0000 </r>
       <r>    -3.9246     0.0000     8.0000 </r>
       <r>    -3.8536     0.0000     8.0000 </r>
       <r>    -3.7827     0.0000     8.0000 </r>
       <r>    -3.7117     0.0000     8.0000 </r>
       <r>    -3.6408     0.0000     8.0000 </r>
       <r>    -3.5698     0.0000     8.0000 </r>
       <r>    -3.4989     0.0000     8.0000 </r>
       <r>    -3.4279     0.0000     8.0000 </r>
       <r>    -3.3569     0.0000     8.0000 </r>
       <r>    -3.2860     0.0000     8.0000 </r>
       <r>    -3.2150     0.0000     8.0000 </r>
       <r>    -3.1441     0.0000     8.0000 </r>
       <r>    -3.0731     0.0000     8.0000 </r>
       <r>    -3.0022     0.0000     8.0000 </r>
       <r>    -2.9312     0.0000     8.0000 </r>
       <r>    -2.8603     0.0000     8.0000 </r>
       <r>    -2.7893     0.0000     8.0000 </r>
       <r>    -2.7184     0.0000     8.0000 </r>
       <r>    -2.6474     0.0000     8.0000 </r>
       <r>    -2.5765     0.2667     8.0032 </r>
       <r>    -2.5055     1.1482     8.0533 </r>
       <r>    -2.4345     2.1645     8.1697 </r>
       <r>    -2.3636     3.3746     8.3651 </r>
       <r>    -2.2926     5.1871     8.6617 </r>
       <r>    -2.2217     5.5734     9.0411 </r>
       <r>    -2.1507     6.0197     9.4529 </r>
       <r>    -2.0798     7.4134    10.0320 </r>
       <r>    -2.0088     6.2878    10.5181 </r>
       <r>    -1.9379     8.4836    10.9579 </r>
       <r>    -1.8669     7.4940    11.6778 </r>
       <r>    -1.7960     1.5942    11.9830 </r>
       <r>    -1.7250     8.5532    12.6257 </r>
       <r>    -1.6540     4.0344    13.0770 </r>
       <r>    -1.5831     2.6505    13.2829 </r>
       <r>    -1.5121     2.4239    13.4630 </r>
       <r>    -1.4412     2.1974    13.6269 </r>
       <r>    -1.3702     1.9713    13.7748 </r>
       <r>    -1.2993     1.7454    13.9067 </r>
       <r>    -1.2283     1.6713    14.0263 </r>
       <r>    -1.1574     1.6789    14.1451 </r>
       <r>    -1.0864     1.6865    14.2645 </r>
       <r>    -1.0155     1.6942    14.3844 </r>
       <r>    -0.9445     1.9015    14.5059 </r>
       <r>    -0.8736     5.6906    14.7584 </r>
       <r>    -0.8026    11.1890    15.3504 </r>
       <r>    -0.7316    10.4257    16.2415 </r>
       <r>    -0.6607     9.8694    16.9468 </r>
       <r>    -0.5897     7.8228    17.5987 </r>
       <r>    -0.5188     4.6092    18.0399 </r>
       <r>    -0.4478     2.5974    18.2738 </r>
       <r>    -0.3769     2.3437    18.4485 </r>
       <r>    -0.3059     2.1780    18.6088 </r>
       <r>    -0.2350     2.0182    18.7576 </r>
       <r>    -0.1640     1.8588    18.8952 </r>
       <r>    -0.0931    17.4961    19.2399 </r>
       <r>    -0.0221    19.7328    20.6701 </r>
       <r>     0.0488     7.2715    21.3637 </r>
       <r>     0.1198     6.4606    21.8119 </r>
       <r>     0.1908     5.4864    22.2892 </r>
       <r>     0.2617     3.7585    22.5948 </r>
       <r>     0.3327     3.5733    22.8549 </r>
       <r>     0.4036     3.3879    23.1019 </r>
       <r>     0.4746     3.6384    23.3387 </r>
       <r>     0.5455     5.2965    23.6516 </r>
       <r>     0.6165     5.0431    24.0164 </r>
       <r>     0.6874     4.0613    24.3569 </r>
       <r>     0.7584     2.5387    24.5911 </r>
       <r>     0.8293     1.7888    24.7207 </r>
       <r>     0.9003     1.7459    24.8461 </r>
       <r>     0.9712     1.7099    24.9687 </r>
       <r>     1.0422     1.6808    25.0889 </r>
       <r>     1.1132     5.3918    25.2817 </r>
       <r>     1.1841    11.6038    25.8530 </r>
       <r>     1.2551    17.4796    26.9709 </r>
       <r>     1.3260    12.7598    28.0920 </r>
       <r>     1.3970     4.5930    28.6633 </r>
       <r>     1.4679     3.1160    28.9192 </r>
       <r>     1.5389     2.9563    29.1326 </r>
       <r>     1.6098     2.8794    29.3396 </r>
       <r>     1.6808     3.0592    29.5472 </r>
       <r>     1.7517     3.8470    29.7827 </r>
       <r>     1.8227     6.9825    30.1510 </r>
       <r>     1.8936     8.4407    30.7237 </r>
       <r>     1.9646     4.8665    31.1727 </r>
       <r>     2.0356     4.2848    31.5020 </r>
       <r>     2.1065     2.9054    31.7621 </r>
       <r>     2.1775     1.5225    31.9142 </r>
       <r>     2.2484     2.8983    32.0470 </r>
       <r>     2.3194     8.6934    32.3937 </r>
       <r>     2.3903     7.7250    32.9755 </r>
       <r>     2.4613     7.1380    33.5004 </r>
       <r>     2.5322     6.5931    33.9883 </r>
       <r>     2.6032     6.1343    34.4375 </r>
       <r>     2.6741     4.2421    34.8051 </r>
       <r>     2.7451     3.7149    35.0874 </r>
       <r>     2.8160     3.1872    35.3322 </r>
       <r>     2.8870     2.9401    35.5457 </r>
       <r>     2.9580     2.3103    35.7356 </r>
       <r>     3.0289     0.9633    35.8910 </r>
       <r>     3.0999     0.7377    35.9545 </r>
       <r>     3.1708     0.2754    35.9877 </r>
       <r>     3.2418     0.0614    35.9987 </r>
       <r>     3.3127     0.0000    36.0000 </r>
       <r>     3.3837     0.0000    36.0000 </r>
       <r>     3.4546     0.0000    36.0000 </r>
       <r>     3.5256     0.0000    36.0000 </r>
       <r>     3.5965     0.0000    36.0000 </r>
       <r>     3.6675     0.0000    36.0000 </r>
       <r>     3.7384     0.0000    36.0000 </r>
       <r>     3.8094     0.0000    36.0000 </r>
       <r>     3.8804     0.0000    36.0000 </r>
       <r>     3.9513     0.0000    36.0000 </r>
       <r>     4.0223     0.0000    36.0000 </r>
       <r>     4.0932     0.0000    36.0000 </r>
       <r>     4.1642     0.0000    36.0000 </r>
       <r>     4.2351     0.0000    36.0000 </r>
       <r>     4.3061     0.0000    36.0000 </r>
       <r>     4.3770     0.0000    36.0000 </r>
       <r>     4.4480     0.0000    36.0000 </r>
       <r>     4.5189     0.0000    36.0000 </r>
       <r>     4.5899     0.0000    36.0000 </r>
       <r>     4.6608     0.0000    36.0000 </r>
       <r>     4.7318     0.0000    36.0000 </r>
       <r>     4.8028     0.0000    36.0000 </r>
       <r>     4.8737     0.0000    36.0000 </r>
       <r>     4.9447     1.2573    36.0796 </r>
       <r>     5.0156     2.1260    36.1851 </r>
       <r>     5.0866     5.7524    36.4602 </r>
       <r>     5.1575     9.5015    36.9971 </r>
       <r>     5.2285    13.3726    37.8231 </r>
       <r>     5.2994    17.3778    39.0926 </r>
       <r>     5.3704     2.0354    39.4776 </r>
       <r>     5.4413     1.5185    39.6005 </r>
       <r>     5.5123     9.9996    40.0141 </r>
       <r>     5.5832    10.1703    40.8142 </r>
       <r>     5.6542     7.6645    41.4971 </r>
       <r>     5.7252     7.6315    42.0412 </r>
       <r>     5.7961     9.3161    42.6100 </r>
       <r>     5.8671     3.6424    43.0877 </r>
       <r>     5.9380     2.7546    43.3113 </r>
       <r>     6.0090     2.1899    43.4851 </r>
       <r>     6.0799     1.8659    43.6281 </r>
       <r>     6.1509     1.6656    43.7526 </r>
       <r>     6.2218     1.6051    43.8794 </r>
       <r>     6.2928     0.8598    43.9672 </r>
       <r>     6.3637     0.0000    44.0000 </r>
       <r>     6.4347     0.0000    44.0000 </r>
       <r>     6.5056     0.0000    44.0000 </r>
       <r>     6.5766     0.0000    44.0000 </r>
       <r>     6.6476     0.0000    44.0000 </r>
       <r>     6.7185     0.0000    44.0000 </r>
       <r>     6.7895     0.0000    44.0000 </r>
       <r>     6.8604     0.0000    44.0000 </r>
       <r>     6.9314     0.0000    44.0000 </r>
       <r>     7.0023     0.0000    44.0000 </r>
       <r>     7.0733     0.0000    44.0000 </r>
       <r>     7.1442     0.0000    44.0000 </r>
       <r>     7.2152     0.0000    44.0000 </r>
       <r>     7.2861     0.0000    44.0000 </r>
       <r>     7.3571     0.0000    44.0000 </r>
       <r>     7.4281     0.0000    44.0000 </r>
       <r>     7.4990     0.0000    44.0000 </r>
       <r>     7.5700     0.0000    44.0000 </r>
       <r>     7.6409     0.0000    44.0000 </r>
       <r>     7.7119     0.0000    44.0000 </r>
       <r>     7.7828     0.0000    44.0000 </r>
       <r>     7.8538     0.0000    44.0000 </r>
       <r>     7.9247     0.0000    44.0000 </r>
       <r>     7.9957     0.0000    44.0000 </r>
       <r>     8.0666     0.0000    44.0000 </r>
       <r>     8.1376     0.0000    44.0000 </r>
       <r>     8.2085     0.0000    44.0000 </r>
       <r>     8.2795     0.0000    44.0000 </r>
       <r>     8.3505     0.0000    44.0000 </r>
      </set>
     </set>
    </array>
   </total>
  </dos>
 </calculation>
 <structure name="finalpos" >
  <crystal>
   <varray name="basis" >
    <v>       3.19031573       0.00000000       0.00000000 </v>
    <v>      -1.59515786       2.76289447       0.00000000 </v>
    <v>       0.00000000       0.00000000      14.87900430 </v>
   </varray>
   <i name="volume">    131.15106795 </i>
   <varray name="rec_basis" >
    <v>       0.31344860       0.18096963       0.00000000 </v>
    <v>       0.00000000       0.36193927       0.00000000 </v>
    <v>       0.00000000       0.00000000       0.06720880 </v>
   </varray>
  </crystal>
  <varray name="positions" >
   <v>       0.33333300       0.66666700       0.25000000 </v>
   <v>       0.66666700       0.33333300       0.75000000 </v>
   <v>       0.33333300       0.66666700       0.85517400 </v>
   <v>       0.66666700       0.33333300       0.14482600 </v>
   <v>       0.66666600       0.33333300       0.35517400 </v>
   <v>       0.33333400       0.66666700       0.64482600 </v>
  </varray>
 </structure>
</modeling>
