   6   6   0   0
  0.2185851E+02  0.3190316E-09  0.3190316E-09  0.1487900E-08  0.5000000E-15
  1.000000000000000E-004
  CAR 
 unknown system                          
      8.66291522    -12.92951133  301      3.34128176      1.00000000
    -12.930  0.0000E+00  0.0000E+00
    -12.858  0.0000E+00  0.0000E+00
    -12.786  0.0000E+00  0.0000E+00
    -12.714  0.0000E+00  0.0000E+00
    -12.642  0.0000E+00  0.0000E+00
    -12.570  0.0000E+00  0.0000E+00
    -12.498  0.0000E+00  0.0000E+00
    -12.426  0.0000E+00  0.0000E+00
    -12.354  0.0000E+00  0.0000E+00
    -12.282  0.0000E+00  0.0000E+00
    -12.210  0.0000E+00  0.0000E+00
    -12.138  0.0000E+00  0.0000E+00
    -12.066  0.0000E+00  0.0000E+00
    -11.994  0.0000E+00  0.0000E+00
    -11.922  0.0000E+00  0.0000E+00
    -11.850  0.0000E+00  0.0000E+00
    -11.778  0.0000E+00  0.0000E+00
    -11.706  0.0000E+00  0.0000E+00
    -11.634  0.0000E+00  0.0000E+00
    -11.562  0.0000E+00  0.0000E+00
    -11.490  0.0000E+00  0.0000E+00
    -11.418  0.0000E+00  0.0000E+00
    -11.346  0.0000E+00  0.0000E+00
    -11.274  0.0000E+00  0.0000E+00
    -11.202  0.0000E+00  0.0000E+00
    -11.130  0.0000E+00  0.0000E+00
    -11.058  0.0000E+00  0.0000E+00
    -10.986  0.0000E+00  0.0000E+00
    -10.914  0.5077E-01  0.2594E-03
    -10.842  0.6364E+00  0.2489E-01
    -10.770  0.1225E+01  0.9187E-01
    -10.698  0.1034E+01  0.1948E+00
    -10.626  0.1028E+01  0.2664E+00
    -10.554  0.1095E+01  0.3429E+00
    -10.482  0.1162E+01  0.4241E+00
    -10.410  0.1229E+01  0.5101E+00
    -10.338  0.1295E+01  0.6009E+00
    -10.266  0.1326E+01  0.6957E+00
    -10.194  0.1338E+01  0.7916E+00
    -10.122  0.1359E+01  0.8885E+00
    -10.051  0.1415E+01  0.9883E+00
     -9.979  0.1471E+01  0.1092E+01
     -9.907  0.1527E+01  0.1200E+01
     -9.835  0.1583E+01  0.1312E+01
     -9.763  0.1638E+01  0.1428E+01
     -9.691  0.2453E+01  0.1558E+01
     -9.619  0.4968E+01  0.1839E+01
     -9.547  0.4468E+01  0.2157E+01
     -9.475  0.4967E+01  0.2496E+01
     -9.403  0.5481E+01  0.2873E+01
     -9.331  0.5865E+01  0.3281E+01
     -9.259  0.6437E+01  0.3724E+01
     -9.187  0.7009E+01  0.4207E+01
     -9.115  0.8505E+01  0.4986E+01
     -9.043  0.8350E+01  0.5593E+01
     -8.971  0.8634E+01  0.6202E+01
     -8.899  0.7866E+01  0.6858E+01
     -8.827  0.6568E+01  0.7573E+01
     -8.755  0.3290E+01  0.7928E+01
     -8.683  0.0000E+00  0.8000E+01
     -8.611  0.0000E+00  0.8000E+01
     -8.539  0.0000E+00  0.8000E+01
     -8.467  0.0000E+00  0.8000E+01
     -8.395  0.0000E+00  0.8000E+01
     -8.323  0.0000E+00  0.8000E+01
     -8.251  0.0000E+00  0.8000E+01
     -8.179  0.0000E+00  0.8000E+01
     -8.107  0.0000E+00  0.8000E+01
     -8.035  0.0000E+00  0.8000E+01
     -7.963  0.0000E+00  0.8000E+01
     -7.891  0.0000E+00  0.8000E+01
     -7.819  0.0000E+00  0.8000E+01
     -7.747  0.0000E+00  0.8000E+01
     -7.675  0.0000E+00  0.8000E+01
     -7.603  0.0000E+00  0.8000E+01
     -7.531  0.0000E+00  0.8000E+01
     -7.459  0.0000E+00  0.8000E+01
     -7.387  0.0000E+00  0.8000E+01
     -7.315  0.0000E+00  0.8000E+01
     -7.244  0.0000E+00  0.8000E+01
     -7.172  0.0000E+00  0.8000E+01
     -7.100  0.0000E+00  0.8000E+01
     -7.028  0.0000E+00  0.8000E+01
     -6.956  0.0000E+00  0.8000E+01
     -6.884  0.0000E+00  0.8000E+01
     -6.812  0.0000E+00  0.8000E+01
     -6.740  0.0000E+00  0.8000E+01
     -6.668  0.0000E+00  0.8000E+01
     -6.596  0.0000E+00  0.8000E+01
     -6.524  0.0000E+00  0.8000E+01
     -6.452  0.0000E+00  0.8000E+01
     -6.380  0.0000E+00  0.8000E+01
     -6.308  0.0000E+00  0.8000E+01
     -6.236  0.0000E+00  0.8000E+01
     -6.164  0.0000E+00  0.8000E+01
     -6.092  0.0000E+00  0.8000E+01
     -6.020  0.0000E+00  0.8000E+01
     -5.948  0.0000E+00  0.8000E+01
     -5.876  0.0000E+00  0.8000E+01
     -5.804  0.0000E+00  0.8000E+01
     -5.732  0.0000E+00  0.8000E+01
     -5.660  0.0000E+00  0.8000E+01
     -5.588  0.0000E+00  0.8000E+01
     -5.516  0.0000E+00  0.8000E+01
     -5.444  0.0000E+00  0.8000E+01
     -5.372  0.0000E+00  0.8000E+01
     -5.300  0.0000E+00  0.8000E+01
     -5.228  0.0000E+00  0.8000E+01
     -5.156  0.0000E+00  0.8000E+01
     -5.084  0.0000E+00  0.8000E+01
     -5.012  0.0000E+00  0.8000E+01
     -4.940  0.0000E+00  0.8000E+01
     -4.868  0.0000E+00  0.8000E+01
     -4.796  0.0000E+00  0.8000E+01
     -4.724  0.0000E+00  0.8000E+01
     -4.652  0.0000E+00  0.8000E+01
     -4.580  0.0000E+00  0.8000E+01
     -4.508  0.0000E+00  0.8000E+01
     -4.436  0.0000E+00  0.8000E+01
     -4.365  0.0000E+00  0.8000E+01
     -4.293  0.0000E+00  0.8000E+01
     -4.221  0.0000E+00  0.8000E+01
     -4.149  0.0000E+00  0.8000E+01
     -4.077  0.0000E+00  0.8000E+01
     -4.005  0.0000E+00  0.8000E+01
     -3.933  0.0000E+00  0.8000E+01
     -3.861  0.0000E+00  0.8000E+01
     -3.789  0.0000E+00  0.8000E+01
     -3.717  0.0000E+00  0.8000E+01
     -3.645  0.0000E+00  0.8000E+01
     -3.573  0.0000E+00  0.8000E+01
     -3.501  0.0000E+00  0.8000E+01
     -3.429  0.0000E+00  0.8000E+01
     -3.357  0.0000E+00  0.8000E+01
     -3.285  0.0000E+00  0.8000E+01
     -3.213  0.0000E+00  0.8000E+01
     -3.141  0.0000E+00  0.8000E+01
     -3.069  0.0000E+00  0.8000E+01
     -2.997  0.0000E+00  0.8000E+01
     -2.925  0.0000E+00  0.8000E+01
     -2.853  0.0000E+00  0.8000E+01
     -2.781  0.0000E+00  0.8000E+01
     -2.709  0.0000E+00  0.8000E+01
     -2.637  0.0000E+00  0.8000E+01
     -2.565  0.4370E+00  0.8008E+01
     -2.493  0.1348E+01  0.8072E+01
     -2.421  0.2432E+01  0.8207E+01
     -2.349  0.3710E+01  0.8427E+01
     -2.277  0.5276E+01  0.8759E+01
     -2.205  0.5713E+01  0.9153E+01
     -2.133  0.1296E+02  0.9610E+01
     -2.061  0.7072E+01  0.1019E+02
     -1.989  0.5944E+01  0.1066E+02
     -1.917  0.1204E+02  0.1122E+02
     -1.845  0.4893E+01  0.1184E+02
     -1.773  0.1057E+02  0.1217E+02
     -1.701  0.6006E+01  0.1282E+02
     -1.629  0.2796E+01  0.1316E+02
     -1.558  0.2564E+01  0.1336E+02
     -1.486  0.2333E+01  0.1353E+02
     -1.414  0.2102E+01  0.1369E+02
     -1.342  0.1872E+01  0.1384E+02
     -1.270  0.1675E+01  0.1396E+02
     -1.198  0.1675E+01  0.1408E+02
     -1.126  0.1682E+01  0.1420E+02
     -1.054  0.1690E+01  0.1433E+02
     -0.982  0.1698E+01  0.1445E+02
     -0.910  0.3665E+01  0.1461E+02
     -0.838  0.8533E+01  0.1505E+02
     -0.766  0.1413E+02  0.1587E+02
     -0.694  0.9791E+01  0.1666E+02
     -0.622  0.9080E+01  0.1736E+02
     -0.550  0.5831E+01  0.1790E+02
     -0.478  0.2836E+01  0.1820E+02
     -0.406  0.2425E+01  0.1839E+02
     -0.334  0.2236E+01  0.1856E+02
     -0.262  0.2073E+01  0.1871E+02
     -0.190  0.1911E+01  0.1885E+02
     -0.118  0.5167E+01  0.1901E+02
     -0.046  0.2031E+02  0.2026E+02
      0.026  0.7928E+01  0.2122E+02
      0.098  0.5504E+01  0.2171E+02
      0.170  0.6216E+01  0.2219E+02
      0.242  0.3802E+01  0.2254E+02
      0.314  0.3613E+01  0.2280E+02
      0.386  0.3424E+01  0.2306E+02
      0.458  0.3287E+01  0.2330E+02
      0.530  0.5009E+01  0.2360E+02
      0.602  0.5034E+01  0.2397E+02
      0.674  0.4232E+01  0.2432E+02
      0.746  0.2688E+01  0.2457E+02
      0.818  0.1791E+01  0.2471E+02
      0.890  0.1748E+01  0.2484E+02
      0.962  0.1711E+01  0.2496E+02
      1.034  0.1681E+01  0.2508E+02
      1.106  0.5095E+01  0.2527E+02
      1.178  0.1139E+02  0.2583E+02
      1.250  0.1759E+02  0.2696E+02
      1.321  0.1271E+02  0.2810E+02
      1.393  0.4514E+01  0.2867E+02
      1.465  0.3090E+01  0.2893E+02
      1.537  0.2939E+01  0.2914E+02
      1.609  0.2860E+01  0.2935E+02
      1.681  0.3083E+01  0.2956E+02
      1.753  0.4002E+01  0.2981E+02
      1.825  0.7322E+01  0.3020E+02
      1.897  0.8193E+01  0.3079E+02
      1.969  0.4848E+01  0.3122E+02
      2.041  0.4145E+01  0.3155E+02
      2.113  0.2631E+01  0.3180E+02
      2.185  0.1436E+01  0.3193E+02
      2.257  0.3508E+01  0.3209E+02
      2.329  0.8472E+01  0.3252E+02
      2.401  0.7546E+01  0.3310E+02
      2.473  0.7027E+01  0.3362E+02
      2.545  0.6433E+01  0.3410E+02
      2.617  0.5958E+01  0.3455E+02
      2.689  0.4094E+01  0.3489E+02
      2.761  0.3561E+01  0.3516E+02
      2.833  0.3029E+01  0.3540E+02
      2.905  0.2822E+01  0.3561E+02
      2.977  0.4295E+01  0.3583E+02
      3.049  0.9265E+00  0.3592E+02
      3.121  0.5054E+00  0.3597E+02
      3.193  0.1723E+00  0.3599E+02
      3.265  0.1727E-01  0.3600E+02
      3.337  0.0000E+00  0.3600E+02
      3.409  0.0000E+00  0.3600E+02
      3.481  0.0000E+00  0.3600E+02
      3.553  0.0000E+00  0.3600E+02
      3.625  0.0000E+00  0.3600E+02
      3.697  0.0000E+00  0.3600E+02
      3.769  0.0000E+00  0.3600E+02
      3.841  0.0000E+00  0.3600E+02
      3.913  0.0000E+00  0.3600E+02
      3.985  0.0000E+00  0.3600E+02
      4.057  0.0000E+00  0.3600E+02
      4.129  0.0000E+00  0.3600E+02
      4.200  0.0000E+00  0.3600E+02
      4.272  0.0000E+00  0.3600E+02
      4.344  0.0000E+00  0.3600E+02
      4.416  0.0000E+00  0.3600E+02
      4.488  0.0000E+00  0.3600E+02
      4.560  0.0000E+00  0.3600E+02
      4.632  0.0000E+00  0.3600E+02
      4.704  0.0000E+00  0.3600E+02
      4.776  0.0000E+00  0.3600E+02
      4.848  0.0000E+00  0.3600E+02
      4.920  0.0000E+00  0.3600E+02
      4.992  0.1522E+01  0.3615E+02
      5.064  0.4837E+01  0.3637E+02
      5.136  0.8537E+01  0.3685E+02
      5.208  0.1280E+02  0.3762E+02
      5.280  0.2686E+02  0.3873E+02
      5.352  0.2237E+01  0.3946E+02
      5.424  0.1617E+01  0.3959E+02
      5.496  0.8437E+01  0.3989E+02
      5.568  0.1058E+02  0.4071E+02
      5.640  0.6975E+01  0.4140E+02
      5.712  0.6484E+01  0.4188E+02
      5.784  0.9200E+01  0.4234E+02
      5.856  0.3742E+01  0.4276E+02
      5.928  0.2850E+01  0.4299E+02
      6.000  0.2423E+01  0.4318E+02
      6.072  0.2099E+01  0.4334E+02
      6.144  0.1953E+01  0.4348E+02
      6.216  0.2601E+01  0.4366E+02
      6.288  0.1824E+01  0.4382E+02
      6.360  0.7224E+00  0.4391E+02
      6.432  0.4966E+00  0.4395E+02
      6.504  0.3046E+00  0.4398E+02
      6.576  0.1464E+00  0.4399E+02
      6.648  0.2207E-01  0.4400E+02
      6.720  0.0000E+00  0.4400E+02
      6.792  0.0000E+00  0.4400E+02
      6.864  0.0000E+00  0.4400E+02
      6.936  0.0000E+00  0.4400E+02
      7.007  0.0000E+00  0.4400E+02
      7.079  0.0000E+00  0.4400E+02
      7.151  0.0000E+00  0.4400E+02
      7.223  0.0000E+00  0.4400E+02
      7.295  0.0000E+00  0.4400E+02
      7.367  0.0000E+00  0.4400E+02
      7.439  0.0000E+00  0.4400E+02
      7.511  0.0000E+00  0.4400E+02
      7.583  0.0000E+00  0.4400E+02
      7.655  0.0000E+00  0.4400E+02
      7.727  0.0000E+00  0.4400E+02
      7.799  0.0000E+00  0.4400E+02
      7.871  0.0000E+00  0.4400E+02
      7.943  0.0000E+00  0.4400E+02
      8.015  0.0000E+00  0.4400E+02
      8.087  0.0000E+00  0.4400E+02
      8.159  0.0000E+00  0.4400E+02
      8.231  0.0000E+00  0.4400E+02
      8.303  0.0000E+00  0.4400E+02
      8.375  0.0000E+00  0.4400E+02
      8.447  0.0000E+00  0.4400E+02
      8.519  0.0000E+00  0.4400E+02
      8.591  0.0000E+00  0.4400E+02
      8.663  0.0000E+00  0.4400E+02
