       N       E                     dE             d eps       ncg     rms          rms(c)
DAV:   1     0.260257182183E+03    0.26026E+03   -0.18588E+04   880   0.179E+03
DAV:   2    -0.209258894232E+02   -0.28118E+03   -0.27333E+03  1160   0.316E+02
DAV:   3    -0.460852495556E+02   -0.25159E+02   -0.25043E+02  1176   0.881E+01
DAV:   4    -0.468039589394E+02   -0.71871E+00   -0.71701E+00  1194   0.162E+01
DAV:   5    -0.468244430891E+02   -0.20484E-01   -0.20472E-01  1196   0.274E+00    0.973E+00
RMM:   6    -0.444278062608E+02    0.23966E+01   -0.24076E+01   980   0.197E+01    0.335E+00
RMM:   7    -0.436983875820E+02    0.72942E+00   -0.19208E+00   970   0.563E+00    0.178E+00
RMM:   8    -0.436367441160E+02    0.61643E-01   -0.90942E-01  1011   0.337E+00    0.845E-01
RMM:   9    -0.436271934913E+02    0.95506E-02   -0.30944E-01  1045   0.232E+00    0.593E-01
RMM:  10    -0.436101823852E+02    0.17011E-01   -0.72343E-02  1054   0.116E+00    0.856E-02
RMM:  11    -0.436102094700E+02   -0.27085E-04   -0.34164E-03  1117   0.242E-01    0.311E-02
RMM:  12    -0.436103629830E+02   -0.15351E-03   -0.57812E-04  1135   0.115E-01    0.236E-02
RMM:  13    -0.436103708023E+02   -0.78193E-05   -0.39714E-04  1148   0.825E-02    0.205E-02
RMM:  14    -0.436103540389E+02    0.16763E-04   -0.77624E-05   900   0.396E-02    0.259E-03
RMM:  15    -0.436103543911E+02   -0.35219E-06   -0.94202E-06   684   0.142E-02
   1 F= -.44941641E+02 E0= -.44941641E+02  d E =0.000000E+00
