 vasp.5.4.4.18Apr17-6-g9f103f2a35 (build Jun 30 2017 11:15:00) complex          
  
 executed on    STALLO_VASP_5.4.4 date 2019.11.08  11:38:06
 running on    4 total cores
 distrk:  each k-point on    4 cores,    1 groups
 distr:  one band on NCORES_PER_BAND=   2 cores,    2 groups


--------------------------------------------------------------------------------------------------------


 INCAR:
 POTCAR:   PAW_PBE Mo 08Apr2002                   
 POTCAR:    PAW_PBE S 17Jan2003                   
 POTCAR:   PAW_PBE Mo 08Apr2002                   
   VRHFIN =Mo: 4p5s4d                                                           
   LEXCH  = PE                                                                  
   EATOM  =   217.5180 eV,   15.9871 Ry                                         
                                                                                
   TITEL  = PAW_PBE Mo 08Apr2002                                                
   LULTRA =        F    use ultrasoft PP ?                                      
   IUNSCR =        1    unscreen: 0-lin 1-nonlin 2-no                           
   RPACOR =    2.200    partial core radius                                     
   POMASS =   95.940; ZVAL   =    6.000    mass and valenz                      
   RCORE  =    2.750    outmost cutoff radius                                   
   RWIGS  =    2.750; RWIGS  =    1.455    wigner-seitz radius (au A)           
   ENMAX  =  224.584; ENMIN  =  168.438 eV                                      
   RCLOC  =    2.111    cutoff for local pot                                    
   LCOR   =        T    correct aug charges                                     
   LPAW   =        T    paw PP                                                  
   EAUG   =  345.278                                                            
   DEXC   =    -.088                                                            
   RMAX   =    3.077    core radius for proj-oper                               
   RAUG   =    1.300    factor for augmentation sphere                          
   RDEP   =    2.815    radius for radial grids                                 
   QCUT   =   -4.063; QGAM   =    8.126    optimization parameters              
                                                                                
   Description                                                                  
     l     E      TYP  RCUT    TYP  RCUT                                        
     2   .000     23  2.500                                                     
     2   .000     23  2.500                                                     
     0   .000     23  2.600                                                     
     0  1.000     23  2.600                                                     
     1   .400     23  2.750                                                     
     1  2.000     23  2.750                                                     
     3   .000      7   .000                                                     
  local pseudopotential read in
  partial core-charges read in
  atomic valenz-charges read in
  non local Contribution for L=           2  read in
    real space projection operators read in
  non local Contribution for L=           2  read in
    real space projection operators read in
  non local Contribution for L=           0  read in
    real space projection operators read in
  non local Contribution for L=           0  read in
    real space projection operators read in
  non local Contribution for L=           1  read in
    real space projection operators read in
  non local Contribution for L=           1  read in
    real space projection operators read in
    PAW grid and wavefunctions read in
 
   number of l-projection  operators is LMAX  =           6
   number of lm-projection operators is LMMAX =          18
 
 POTCAR:    PAW_PBE S 17Jan2003                   
   VRHFIN =S : s2p4                                                             
   LEXCH  = PE                                                                  
   EATOM  =   276.8230 eV,   20.3459 Ry                                         
                                                                                
   TITEL  = PAW_PBE S 17Jan2003                                                 
   LULTRA =        F    use ultrasoft PP ?                                      
   IUNSCR =        1    unscreen: 0-lin 1-nonlin 2-no                           
   RPACOR =    1.500    partial core radius                                     
   POMASS =   32.066; ZVAL   =    6.000    mass and valenz                      
   RCORE  =    1.900    outmost cutoff radius                                   
   RWIGS  =    2.200; RWIGS  =    1.164    wigner-seitz radius (au A)           
   ENMAX  =  280.000; ENMIN  =  194.016 eV                                      
   ICORE  =        2    local potential                                         
   LCOR   =        T    correct aug charges                                     
   LPAW   =        T    paw PP                                                  
   EAUG   =  335.092                                                            
   DEXC   =     .000                                                            
   RMAX   =    2.867    core radius for proj-oper                               
   RAUG   =    1.300    factor for augmentation sphere                          
   RDEP   =    1.954    radius for radial grids                                 
   QCUT   =   -4.360; QGAM   =    8.721    optimization parameters              
                                                                                
   Description                                                                  
     l     E      TYP  RCUT    TYP  RCUT                                        
     0   .000     23  1.900                                                     
     0   .000     23  1.900                                                     
     1   .000     23  1.900                                                     
     1   .000     23  1.900                                                     
     2   .000     23  1.900                                                     
  local pseudopotential read in
  partial core-charges read in
  atomic valenz-charges read in
  non local Contribution for L=           0  read in
    real space projection operators read in
  non local Contribution for L=           0  read in
    real space projection operators read in
  non local Contribution for L=           1  read in
    real space projection operators read in
  non local Contribution for L=           1  read in
    real space projection operators read in
    PAW grid and wavefunctions read in
 
   number of l-projection  operators is LMAX  =           4
   number of lm-projection operators is LMMAX =           8
 
 PAW_PBE Mo 08Apr2002                   :
 energy of atom  1       EATOM= -217.5180
 kinetic energy error for atom=    0.0004 (will be added to EATOM!!)
  PAW_PBE S 17Jan2003                   :
 energy of atom  2       EATOM= -276.8230
 kinetic energy error for atom=    0.0007 (will be added to EATOM!!)
 
 
 POSCAR: MoS2_mp-2815_computed                   
  positions in direct lattice
  No initial velocities read in
 exchange correlation table for  LEXCH =        8
   RHO(1)=    0.500       N(1)  =     2000
   RHO(2)=  100.500       N(2)  =     4000
 


--------------------------------------------------------------------------------------------------------


 ion  position               nearest neighbor table
   1  0.333  0.667  0.250-   5 2.42   4 2.42   4 2.42   5 2.42   5 2.42   4 2.42
   2  0.667  0.333  0.750-   6 2.42   3 2.42   3 2.42   6 2.42   6 2.42   3 2.42
   3  0.333  0.667  0.855-   2 2.42   2 2.42   2 2.42
   4  0.667  0.333  0.145-   1 2.42   1 2.42   1 2.42
   5  0.667  0.333  0.355-   1 2.42   1 2.42   1 2.42
   6  0.333  0.667  0.645-   2 2.42   2 2.42   2 2.42
 
  LATTYP: Found a hexagonal cell.
 ALAT       =     3.1903157300
 C/A-ratio  =     4.6638030713
  
  Lattice vectors:
  
 A1 = (   3.1903157300,   0.0000000000,   0.0000000000)
 A2 = (  -1.5951578650,   2.7628944683,   0.0000000000)
 A3 = (   0.0000000000,   0.0000000000,  14.8790043000)


Analysis of symmetry for initial positions (statically):
=====================================================================
 Subroutine PRICEL returns:
 Original cell was already a primitive cell.
 

 Routine SETGRP: Setting up the symmetry group for a 
 hexagonal supercell.


 Subroutine GETGRP returns: Found 24 space group operations
 (whereof 12 operations were pure point group operations)
 out of a pool of 24 trial point group operations.


The static configuration has the point symmetry D_3d.
 The point group associated with its full space group is D_6h.


Analysis of symmetry for dynamics (positions and initial velocities):
=====================================================================
 Subroutine PRICEL returns:
 Original cell was already a primitive cell.
 

 Routine SETGRP: Setting up the symmetry group for a 
 hexagonal supercell.


 Subroutine GETGRP returns: Found 24 space group operations
 (whereof 12 operations were pure point group operations)
 out of a pool of 24 trial point group operations.


The dynamic configuration has the point symmetry D_3d.
 The point group associated with its full space group is D_6h.


 Subroutine INISYM returns: Found 24 space group operations
 (whereof 12 operations are pure point group operations),
 and found     1 'primitive' translations

 
 
 KPOINTS: k-density: 4.0                          

Automatic generation of k-mesh.
Space group operators:
 irot       det(A)        alpha          n_x          n_y          n_z        tau_x        tau_y        tau_z
    1     1.000000     0.000001     1.000000     0.000000     0.000000     0.000000     0.000000     0.000000
    2    -1.000000     0.000001     1.000000     0.000000     0.000000     0.000000     0.000000     0.000000
    3     1.000000   120.000000     0.000000     0.000000    -1.000000     0.000000     0.000000     0.000000
    4    -1.000000   120.000000     0.000000     0.000000    -1.000000     0.000000     0.000000     0.000000
    5     1.000000   120.000000     0.000000     0.000000     1.000000     0.000000     0.000000     0.000000
    6    -1.000000   120.000000     0.000000     0.000000     1.000000     0.000000     0.000000     0.000000
    7     1.000000   179.999999     1.000000    -0.000000     0.000000     0.000000     0.000000     0.000000
    8    -1.000000   179.999999     1.000000    -0.000000     0.000000     0.000000     0.000000     0.000000
    9     1.000000   180.000000     0.500000    -0.866025     0.000000     0.000000     0.000000     0.000000
   10    -1.000000   180.000000     0.500000    -0.866025     0.000000     0.000000     0.000000     0.000000
   11     1.000000   180.000000    -0.500000    -0.866025     0.000000     0.000000     0.000000     0.000000
   12    -1.000000   180.000000    -0.500000    -0.866025     0.000000     0.000000     0.000000     0.000000
   13     1.000000    60.000000     0.000000     0.000000    -1.000000     0.000001     0.000000     0.500000
   14    -1.000000    60.000000     0.000000     0.000000    -1.000000     0.000001     0.000000     0.500000
   15     1.000000   180.000000     0.000000     0.000000     1.000000     0.000000     0.000000     0.500000
   16    -1.000000   180.000000     0.000000     0.000000     1.000000     0.000000     0.000000     0.500000
   17     1.000000    60.000000     0.000000     0.000000     1.000000     0.000000     0.000000     0.500000
   18    -1.000000    60.000000     0.000000     0.000000     1.000000     0.000000     0.000000     0.500000
   19     1.000000   179.999999     0.866025    -0.500000     0.000000     0.000000     0.000000     0.500000
   20    -1.000000   179.999999     0.866025    -0.500000     0.000000     0.000000     0.000000     0.500000
   21     1.000000   180.000000     0.000000     1.000000     0.000000     0.000001     0.000000     0.500000
   22    -1.000000   180.000000     0.000000     1.000000     0.000000     0.000001     0.000000     0.500000
   23     1.000000   179.999999     0.866025     0.500000     0.000000     0.000000     0.000000     0.500000
   24    -1.000000   179.999999     0.866025     0.500000     0.000000     0.000000     0.000000     0.500000
 
 Subroutine IBZKPT returns following result:
 ===========================================
 
 Found     20 irreducible k-points:
 
 Following reciprocal coordinates:
            Coordinates               Weight
  0.000000  0.000000  0.000000      1.000000
  0.125000 -0.000000  0.000000      6.000000
  0.250000 -0.000000  0.000000      6.000000
  0.375000 -0.000000  0.000000      6.000000
  0.500000 -0.000000  0.000000      3.000000
  0.125000  0.125000  0.000000      6.000000
  0.250000  0.125000  0.000000     12.000000
  0.375000  0.125000  0.000000     12.000000
  0.250000  0.250000  0.000000      6.000000
  0.375000  0.250000  0.000000      6.000000
  0.000000  0.000000  0.500000      1.000000
  0.125000 -0.000000  0.500000      6.000000
  0.250000 -0.000000  0.500000      6.000000
  0.375000 -0.000000  0.500000      6.000000
  0.500000 -0.000000  0.500000      3.000000
  0.125000  0.125000  0.500000      6.000000
  0.250000  0.125000  0.500000     12.000000
  0.375000  0.125000  0.500000     12.000000
  0.250000  0.250000  0.500000      6.000000
  0.375000  0.250000  0.500000      6.000000
 
 Following cartesian coordinates:
            Coordinates               Weight
  0.000000  0.000000  0.000000      1.000000
  0.039181  0.022621  0.000000      6.000000
  0.078362  0.045242  0.000000      6.000000
  0.117543  0.067864  0.000000      6.000000
  0.156724  0.090485  0.000000      3.000000
  0.039181  0.067864  0.000000      6.000000
  0.078362  0.090485  0.000000     12.000000
  0.117543  0.113106  0.000000     12.000000
  0.078362  0.135727  0.000000      6.000000
  0.117543  0.158348  0.000000      6.000000
  0.000000  0.000000  0.033604      1.000000
  0.039181  0.022621  0.033604      6.000000
  0.078362  0.045242  0.033604      6.000000
  0.117543  0.067864  0.033604      6.000000
  0.156724  0.090485  0.033604      3.000000
  0.039181  0.067864  0.033604      6.000000
  0.078362  0.090485  0.033604     12.000000
  0.117543  0.113106  0.033604     12.000000
  0.078362  0.135727  0.033604      6.000000
  0.117543  0.158348  0.033604      6.000000
 
 TETIRR: Found    136 inequivalent tetrahedra from      768


--------------------------------------------------------------------------------------------------------




 Dimension of arrays:
   k-points           NKPTS =     20   k-points in BZ     NKDIM =     20   number of bands    NBANDS=     22
   number of dos      NEDOS =    301   number of ions     NIONS =      6
   non local maximal  LDIM  =      6   non local SUM 2l+1 LMDIM =     18
   total plane-waves  NPLWV =  55296
   max r-space proj   IRMAX =      1   max aug-charges    IRDMAX=  27266
   dimension x,y,z NGX =    24 NGY =   24 NGZ =   96
   dimension x,y,z NGXF=    48 NGYF=   48 NGZF=  192
   support grid    NGXF=    48 NGYF=   48 NGZF=  192
   ions per type =               2   4
   NGX,Y,Z   is equivalent  to a cutoff of  12.51, 12.51, 10.73 a.u.
   NGXF,Y,Z  is equivalent  to a cutoff of  25.01, 25.01, 21.45 a.u.

 SYSTEM =  unknown system                          
 POSCAR =  MoS2_mp-2815_computed                   

 Startparameter for this run:
   NWRITE =      2    write-flag & timer
   PREC   = normal    normal or accurate (medium, high low for compatibility)
   ISTART =      0    job   : 0-new  1-cont  2-samecut
   ICHARG =      2    charge: 1-file 2-atom 10-const
   ISPIN  =      1    spin polarized calculation?
   LNONCOLLINEAR =      F non collinear calculations
   LSORBIT =      F    spin-orbit coupling
   INIWAV =      1    electr: 0-lowe 1-rand  2-diag
   LASPH  =      F    aspherical Exc in radial PAW
   METAGGA=      F    non-selfconsistent MetaGGA calc.

 Electronic Relaxation 1
   ENCUT  =  700.0 eV  51.45 Ry    7.17 a.u.   6.88  6.88 32.10*2*pi/ulx,y,z
   ENINI  =  700.0     initial cutoff
   ENAUG  =  345.3 eV  augmentation charge cutoff
   NELM   =     60;   NELMIN=  4; NELMDL=  0     # of ELM steps 
   EDIFF  = 0.1E-04   stopping-criterion for ELM
   LREAL  =      F    real-space projection
   NLSPLINE    = F    spline interpolate recip. space projectors
   LCOMPAT=      F    compatible to vasp.4.4
   GGA_COMPAT  = T    GGA compatible to vasp.4.4-vasp.4.6
   LMAXPAW     = -100 max onsite density
   LMAXMIX     =    2 max onsite mixed and CHGCAR
   VOSKOWN=      0    Vosko Wilk Nusair interpolation
   ROPT   =    0.00000   0.00000
 Ionic relaxation
   EDIFFG = 0.1E-03   stopping-criterion for IOM
   NSW    =      0    number of steps for IOM
   NBLOCK =      1;   KBLOCK =      1    inner block; outer block 
   IBRION =     -1    ionic relax: 0-MD 1-quasi-New 2-CG
   NFREE  =      0    steps in history (QN), initial steepest desc. (CG)
   ISIF   =      2    stress and relaxation
   IWAVPR =     10    prediction:  0-non 1-charg 2-wave 3-comb
   ISYM   =      2    0-nonsym 1-usesym 2-fastsym
   LCORR  =      T    Harris-Foulkes like correction to forces

   POTIM  = 0.5000    time-step for ionic-motion
   TEIN   =    0.0    initial temperature
   TEBEG  =    0.0;   TEEND  =   0.0 temperature during run
   SMASS  =  -3.00    Nose mass-parameter (am)
   estimated Nose-frequenzy (Omega)   =  0.10E-29 period in steps =****** mass=  -0.233E-27a.u.
   SCALEE = 1.0000    scale energy and forces
   NPACO  =    256;   APACO  = 16.0  distance and # of slots for P.C.
   PSTRESS=    0.0 pullay stress

  Mass of Ions in am
   POMASS =  95.94 32.07
  Ionic Valenz
   ZVAL   =   6.00  6.00
  Atomic Wigner-Seitz radii
   RWIGS  =  -1.00 -1.00
  virtual crystal weights 
   VCA    =   1.00  1.00
   NELECT =      36.0000    total number of electrons
   NUPDOWN=      -1.0000    fix difference up-down

 DOS related values:
   EMIN   =  10.00;   EMAX   =-10.00  energy-range for DOS
   EFERMI =   0.00
   ISMEAR =    -5;   SIGMA  =   0.20  broadening in eV -4-tet -1-fermi 0-gaus

 Electronic relaxation 2 (details)
   IALGO  =     68    algorithm
   LDIAG  =      T    sub-space diagonalisation (order eigenvalues)
   LSUBROT=      F    optimize rotation matrix (better conditioning)
   TURBO    =      0    0=normal 1=particle mesh
   IRESTART =      0    0=no restart 2=restart with 2 vectors
   NREBOOT  =      0    no. of reboots
   NMIN     =      0    reboot dimension
   EREF     =   0.00    reference energy to select bands
   IMIX   =      4    mixing-type and parameters
     AMIX     =   0.40;   BMIX     =  1.00
     AMIX_MAG =   1.60;   BMIX_MAG =  1.00
     AMIN     =   0.10
     WC   =   100.;   INIMIX=   1;  MIXPRE=   1;  MAXMIX= -45

 Intra band minimization:
   WEIMIN = 0.0000     energy-eigenvalue tresh-hold
   EBREAK =  0.11E-06  absolut break condition
   DEPER  =   0.30     relativ break condition  

   TIME   =   0.40     timestep for ELM

  volume/ion in A,a.u.               =      21.86       147.51
  Fermi-wavevector in a.u.,A,eV,Ry     =   1.063943  2.010561 15.401453  1.131975
  Thomas-Fermi vector in A             =   2.199445
 
 Write flags
   LWAVE        =      F    write WAVECAR
   LDOWNSAMPLE  =      F    k-point downsampling of WAVECAR
   LCHARG       =      T    write CHGCAR
   LVTOT        =      F    write LOCPOT, total local potential
   LVHAR        =      F    write LOCPOT, Hartree potential only
   LELF         =      F    write electronic localiz. function (ELF)
   LORBIT       =      0    0 simple, 1 ext, 2 COOP (PROOUT), +10 PAW based schemes


 Dipole corrections
   LMONO  =      F    monopole corrections only (constant potential shift)
   LDIPOL =      F    correct potential (dipole corrections)
   IDIPOL =      0    1-x, 2-y, 3-z, 4-all directions 
   EPSILON=  1.0000000 bulk dielectric constant

 Exchange correlation treatment:
   GGA     =    --    GGA type
   LEXCH   =     8    internal setting for exchange type
   VOSKOWN=      0    Vosko Wilk Nusair interpolation
   LHFCALC =     F    Hartree Fock is set to
   LHFONE  =     F    Hartree Fock one center treatment
   AEXX    =    0.0000 exact exchange contribution

 Linear response parameters
   LEPSILON=     F    determine dielectric tensor
   LRPA    =     F    only Hartree local field effects (RPA)
   LNABLA  =     F    use nabla operator in PAW spheres
   LVEL    =     F    velocity operator in full k-point grid
   LINTERFAST=   F  fast interpolation
   KINTER  =     0    interpolate to denser k-point grid
   CSHIFT  =0.1000    complex shift for real part using Kramers Kronig
   OMEGAMAX=  -1.0    maximum frequency
   DEG_THRESHOLD= 0.2000000E-02 threshold for treating states as degnerate
   RTIME   =   -0.100 relaxation time in fs
  (WPLASMAI=    0.000 imaginary part of plasma frequency in eV, 0.658/RTIME)
   DFIELD  = 0.0000000 0.0000000 0.0000000 field for delta impulse in time
 
 Orbital magnetization related:
   ORBITALMAG=     F  switch on orbital magnetization
   LCHIMAG   =     F  perturbation theory with respect to B field
   DQ        =  0.001000  dq finite difference perturbation B field
   LLRAUG    =     F  two centre corrections for induced B field



--------------------------------------------------------------------------------------------------------


 Static calculation
 charge density and potential will be updated during run
 non-spin polarized calculation
 RMM-DIIS sequential band-by-band and
  variant of blocked Davidson during initial phase
 perform sub-space diagonalisation
    before iterative eigenvector-optimisation
 modified Broyden-mixing scheme, WC =      100.0
 initial mixing is a Kerker type mixing with AMIX =  0.4000 and BMIX =      1.0000
 Hartree-type preconditioning will be used
 using additional bands            4
 reciprocal scheme for non local part
 use partial core corrections
 calculate Harris-corrections to forces 
   (improved forces if not selfconsistent)
 use gradient corrections 
 use of overlap-Matrix (Vanderbilt PP)
 Fermi weights with tetrahedron method with Bloechl corrections


--------------------------------------------------------------------------------------------------------


  energy-cutoff  :      700.00
  volume of cell :      131.15
      direct lattice vectors                 reciprocal lattice vectors
     3.190315730  0.000000000  0.000000000     0.313448600  0.180969634  0.000000000
    -1.595157865  2.762894468  0.000000000     0.000000000  0.361939267  0.000000000
     0.000000000  0.000000000 14.879004300     0.000000000  0.000000000  0.067208798

  length of vectors
     3.190315730  3.190315730 14.879004300     0.361939267  0.361939267  0.067208798


 
 k-points in units of 2pi/SCALE and weight: k-density: 4.0                          
   0.00000000  0.00000000  0.00000000       0.008
   0.03918108  0.02262120  0.00000000       0.047
   0.07836215  0.04524241  0.00000000       0.047
   0.11754323  0.06786361  0.00000000       0.047
   0.15672430  0.09048482  0.00000000       0.023
   0.03918108  0.06786361  0.00000000       0.047
   0.07836215  0.09048482  0.00000000       0.094
   0.11754323  0.11310602  0.00000000       0.094
   0.07836215  0.13572723  0.00000000       0.047
   0.11754323  0.15834843  0.00000000       0.047
   0.00000000  0.00000000  0.03360440       0.008
   0.03918108  0.02262120  0.03360440       0.047
   0.07836215  0.04524241  0.03360440       0.047
   0.11754323  0.06786361  0.03360440       0.047
   0.15672430  0.09048482  0.03360440       0.023
   0.03918108  0.06786361  0.03360440       0.047
   0.07836215  0.09048482  0.03360440       0.094
   0.11754323  0.11310602  0.03360440       0.094
   0.07836215  0.13572723  0.03360440       0.047
   0.11754323  0.15834843  0.03360440       0.047
 
 k-points in reciprocal lattice and weights: k-density: 4.0                          
   0.00000000  0.00000000  0.00000000       0.008
   0.12500000 -0.00000000  0.00000000       0.047
   0.25000000 -0.00000000  0.00000000       0.047
   0.37500000 -0.00000000  0.00000000       0.047
   0.50000000 -0.00000000  0.00000000       0.023
   0.12500000  0.12500000  0.00000000       0.047
   0.25000000  0.12500000  0.00000000       0.094
   0.37500000  0.12500000  0.00000000       0.094
   0.25000000  0.25000000  0.00000000       0.047
   0.37500000  0.25000000  0.00000000       0.047
   0.00000000  0.00000000  0.50000000       0.008
   0.12500000 -0.00000000  0.50000000       0.047
   0.25000000 -0.00000000  0.50000000       0.047
   0.37500000 -0.00000000  0.50000000       0.047
   0.50000000 -0.00000000  0.50000000       0.023
   0.12500000  0.12500000  0.50000000       0.047
   0.25000000  0.12500000  0.50000000       0.094
   0.37500000  0.12500000  0.50000000       0.094
   0.25000000  0.25000000  0.50000000       0.047
   0.37500000  0.25000000  0.50000000       0.047
 
 position of ions in fractional coordinates (direct lattice) 
   0.33333300  0.66666700  0.25000000
   0.66666700  0.33333300  0.75000000
   0.33333300  0.66666700  0.85517400
   0.66666700  0.33333300  0.14482600
   0.66666600  0.33333300  0.35517400
   0.33333400  0.66666700  0.64482600
 
 position of ions in cartesian coordinates  (Angst):
  -0.00000160  1.84193057  3.71975108
   1.59515946  0.92096390 11.15925323
  -0.00000160  1.84193057 12.72413762
   1.59515946  0.92096390  2.15486668
   1.59515627  0.92096390  5.28463547
   0.00000160  1.84193057  9.59436883
 


--------------------------------------------------------------------------------------------------------


 k-point  1 :   0.0000 0.0000 0.0000  plane waves:    5429
 k-point  2 :   0.1250-0.0000 0.0000  plane waves:    5472
 k-point  3 :   0.2500-0.0000 0.0000  plane waves:    5522
 k-point  4 :   0.3750-0.0000 0.0000  plane waves:    5518
 k-point  5 :   0.5000-0.0000 0.0000  plane waves:    5538
 k-point  6 :   0.1250 0.1250 0.0000  plane waves:    5485
 k-point  7 :   0.2500 0.1250 0.0000  plane waves:    5523
 k-point  8 :   0.3750 0.1250 0.0000  plane waves:    5526
 k-point  9 :   0.2500 0.2500 0.0000  plane waves:    5539
 k-point 10 :   0.3750 0.2500 0.0000  plane waves:    5533
 k-point 11 :   0.0000 0.0000 0.5000  plane waves:    5488
 k-point 12 :   0.1250-0.0000 0.5000  plane waves:    5482
 k-point 13 :   0.2500-0.0000 0.5000  plane waves:    5502
 k-point 14 :   0.3750-0.0000 0.5000  plane waves:    5540
 k-point 15 :   0.5000-0.0000 0.5000  plane waves:    5520
 k-point 16 :   0.1250 0.1250 0.5000  plane waves:    5500
 k-point 17 :   0.2500 0.1250 0.5000  plane waves:    5518
 k-point 18 :   0.3750 0.1250 0.5000  plane waves:    5530
 k-point 19 :   0.2500 0.2500 0.5000  plane waves:    5522
 k-point 20 :   0.3750 0.2500 0.5000  plane waves:    5522

 maximum and minimum number of plane-waves per node :      2775     2694

 maximum number of plane-waves:      5540
 maximum index in each direction: 
   IXMAX=    6   IYMAX=    6   IZMAX=   32
   IXMIN=   -7   IYMIN=   -7   IZMIN=  -32


 parallel 3D FFT for wavefunctions:
    minimum data exchange during FFTs selected (reduces bandwidth)
 parallel 3D FFT for charge:
    minimum data exchange during FFTs selected (reduces bandwidth)


 total amount of memory used by VASP MPI-rank0    68130. kBytes
=======================================================================

   base      :      30000. kBytes
   nonl-proj :      16256. kBytes
   fftplans  :       4588. kBytes
   grid      :       7349. kBytes
   one-center:         46. kBytes
   wavefun   :       9891. kBytes
 
     INWAV:  cpu time    0.0000: real time    0.0000
 Broyden mixing: mesh for mixing (old mesh)
   NGX = 13   NGY = 13   NGZ = 65
  (NGX  = 48   NGY  = 48   NGZ  =192)
  gives a total of  10985 points

 initial charge density was supplied:
 charge density of overlapping atoms calculated
 number of electron      36.0000000 magnetization 
 keeping initial charge density in first step


--------------------------------------------------------------------------------------------------------


 Maximum index for augmentation-charges         6609 (set IRDMAX)


--------------------------------------------------------------------------------------------------------


 First call to EWALD:  gamma=   0.349
 Maximum number of real-space cells 5x 5x 1
 Maximum number of reciprocal cells 2x 2x 7

    FEWALD:  cpu time    0.0010: real time    0.0015


--------------------------------------- Iteration      1(   1)  ---------------------------------------


    POTLOK:  cpu time    0.0680: real time    0.1012
    SETDIJ:  cpu time    0.0070: real time    0.0074
     EDDAV:  cpu time    0.9569: real time    0.9616
 BZINTS: Fermi energy: 16.614664; 36.000000 electrons
         Band energy: 227.000824;  BLOECHL correction: -0.151418
       DOS:  cpu time    0.0050: real time    0.0050
    --------------------------------------------
      LOOP:  cpu time    1.0368: real time    1.0752

 eigenvalue-minimisations  :   880
 total energy-change (2. order) : 0.2602572E+03  (-0.1858815E+04)
 number of electron      36.0000000 magnetization 
 augmentation part       36.0000000 magnetization 

 Free energy of the ion-electron system (eV)
  ---------------------------------------------------
  alpha Z        PSCENC =        90.42577596
  Ewald energy   TEWEN  =     -1146.88905665
  -Hartree energ DENC   =      -535.10238363
  -exchange      EXHF   =         0.00000000
  -V(xc)+E(xc)   XCENC  =       -72.59367951
  PAW double counting   =       813.77302396     -658.68146406
  entropy T*S    EENTRO =         0.00000000
  eigenvalues    EBANDS =       227.00082370
  atomic energy  EATOM  =      1542.32414240
  Solvation  Ediel_sol  =         0.00000000
  ---------------------------------------------------
  free energy    TOTEN  =       260.25718218 eV

  energy without entropy =      260.25718218  energy(sigma->0) =      260.25718218


--------------------------------------------------------------------------------------------------------




--------------------------------------- Iteration      1(   2)  ---------------------------------------


     EDDAV:  cpu time    1.1718: real time    1.1768
 BZINTS: Fermi energy:  5.839851; 36.000000 electrons
         Band energy: -54.182248;  BLOECHL correction:  0.000000
       DOS:  cpu time    0.0010: real time    0.0014
    --------------------------------------------
      LOOP:  cpu time    1.1728: real time    1.1782

 eigenvalue-minimisations  :  1160
 total energy-change (2. order) :-0.2811831E+03  (-0.2733299E+03)
 number of electron      36.0000000 magnetization 
 augmentation part       36.0000000 magnetization 

 Free energy of the ion-electron system (eV)
  ---------------------------------------------------
  alpha Z        PSCENC =        90.42577596
  Ewald energy   TEWEN  =     -1146.88905665
  -Hartree energ DENC   =      -535.10238363
  -exchange      EXHF   =         0.00000000
  -V(xc)+E(xc)   XCENC  =       -72.59367951
  PAW double counting   =       813.77302396     -658.68146406
  entropy T*S    EENTRO =         0.00000000
  eigenvalues    EBANDS =       -54.18224791
  atomic energy  EATOM  =      1542.32414240
  Solvation  Ediel_sol  =         0.00000000
  ---------------------------------------------------
  free energy    TOTEN  =       -20.92588942 eV

  energy without entropy =      -20.92588942  energy(sigma->0) =      -20.92588942


--------------------------------------------------------------------------------------------------------




--------------------------------------- Iteration      1(   3)  ---------------------------------------


     EDDAV:  cpu time    1.1878: real time    1.1900
 BZINTS: Fermi energy:  3.961148; 36.000000 electrons
         Band energy: -79.341608;  BLOECHL correction:  0.000000
       DOS:  cpu time    0.0010: real time    0.0012
    --------------------------------------------
      LOOP:  cpu time    1.1888: real time    1.1912

 eigenvalue-minimisations  :  1176
 total energy-change (2. order) :-0.2515936E+02  (-0.2504289E+02)
 number of electron      36.0000000 magnetization 
 augmentation part       36.0000000 magnetization 

 Free energy of the ion-electron system (eV)
  ---------------------------------------------------
  alpha Z        PSCENC =        90.42577596
  Ewald energy   TEWEN  =     -1146.88905665
  -Hartree energ DENC   =      -535.10238363
  -exchange      EXHF   =         0.00000000
  -V(xc)+E(xc)   XCENC  =       -72.59367951
  PAW double counting   =       813.77302396     -658.68146406
  entropy T*S    EENTRO =         0.00000000
  eigenvalues    EBANDS =       -79.34160804
  atomic energy  EATOM  =      1542.32414240
  Solvation  Ediel_sol  =         0.00000000
  ---------------------------------------------------
  free energy    TOTEN  =       -46.08524956 eV

  energy without entropy =      -46.08524956  energy(sigma->0) =      -46.08524956


--------------------------------------------------------------------------------------------------------




--------------------------------------- Iteration      1(   4)  ---------------------------------------


     EDDAV:  cpu time    1.1978: real time    1.2006
 BZINTS: Fermi energy:  3.916457; 36.000000 electrons
         Band energy: -80.060317;  BLOECHL correction:  0.000000
       DOS:  cpu time    0.0010: real time    0.0013
    --------------------------------------------
      LOOP:  cpu time    1.1988: real time    1.2019

 eigenvalue-minimisations  :  1194
 total energy-change (2. order) :-0.7187094E+00  (-0.7170088E+00)
 number of electron      36.0000000 magnetization 
 augmentation part       36.0000000 magnetization 

 Free energy of the ion-electron system (eV)
  ---------------------------------------------------
  alpha Z        PSCENC =        90.42577596
  Ewald energy   TEWEN  =     -1146.88905665
  -Hartree energ DENC   =      -535.10238363
  -exchange      EXHF   =         0.00000000
  -V(xc)+E(xc)   XCENC  =       -72.59367951
  PAW double counting   =       813.77302396     -658.68146406
  entropy T*S    EENTRO =         0.00000000
  eigenvalues    EBANDS =       -80.06031742
  atomic energy  EATOM  =      1542.32414240
  Solvation  Ediel_sol  =         0.00000000
  ---------------------------------------------------
  free energy    TOTEN  =       -46.80395894 eV

  energy without entropy =      -46.80395894  energy(sigma->0) =      -46.80395894


--------------------------------------------------------------------------------------------------------




--------------------------------------- Iteration      1(   5)  ---------------------------------------


     EDDAV:  cpu time    1.2028: real time    1.2042
 BZINTS: Fermi energy:  3.867509; 36.000000 electrons
         Band energy: -80.080802;  BLOECHL correction:  0.000000
       DOS:  cpu time    0.0000: real time    0.0012
    CHARGE:  cpu time    0.0790: real time    0.0782
    MIXING:  cpu time    0.0020: real time    0.0021
    --------------------------------------------
      LOOP:  cpu time    1.2838: real time    1.2857

 eigenvalue-minimisations  :  1196
 total energy-change (2. order) :-0.2048415E-01  (-0.2047191E-01)
 number of electron      36.0000006 magnetization 
 augmentation part       -1.8888386 magnetization 

 Broyden mixing:
  rms(total) = 0.97332E+00    rms(broyden)= 0.97332E+00
  rms(prec ) = 0.12177E+01
  weight for this iteration     100.00

 Free energy of the ion-electron system (eV)
  ---------------------------------------------------
  alpha Z        PSCENC =        90.42577596
  Ewald energy   TEWEN  =     -1146.88905665
  -Hartree energ DENC   =      -535.10238363
  -exchange      EXHF   =         0.00000000
  -V(xc)+E(xc)   XCENC  =       -72.59367951
  PAW double counting   =       813.77302396     -658.68146406
  entropy T*S    EENTRO =         0.00000000
  eigenvalues    EBANDS =       -80.08080157
  atomic energy  EATOM  =      1542.32414240
  Solvation  Ediel_sol  =         0.00000000
  ---------------------------------------------------
  free energy    TOTEN  =       -46.82444309 eV

  energy without entropy =      -46.82444309  energy(sigma->0) =      -46.82444309


--------------------------------------------------------------------------------------------------------




--------------------------------------- Iteration      1(   6)  ---------------------------------------


    POTLOK:  cpu time    0.0630: real time    0.0659
    SETDIJ:  cpu time    0.0070: real time    0.0066
    EDDIAG:  cpu time    0.1750: real time    0.1755
  RMM-DIIS:  cpu time    0.8459: real time    0.8456
    ORTHCH:  cpu time    0.0180: real time    0.0182
 BZINTS: Fermi energy:  2.870531; 36.000000 electrons
         Band energy: -79.165902;  BLOECHL correction:  0.000000
       DOS:  cpu time    0.0010: real time    0.0012
    CHARGE:  cpu time    0.0790: real time    0.0783
    MIXING:  cpu time    0.0020: real time    0.0018
    --------------------------------------------
      LOOP:  cpu time    1.1908: real time    1.1930

 eigenvalue-minimisations  :   980
 total energy-change (2. order) : 0.2396637E+01  (-0.2407566E+01)
 number of electron      36.0000006 magnetization 
 augmentation part       -0.8628851 magnetization 

 Broyden mixing:
  rms(total) = 0.33537E+00    rms(broyden)= 0.33536E+00
  rms(prec ) = 0.49063E+00
  weight for this iteration     100.00

 eigenvalues of (default mixing * dielectric matrix)
  average eigenvalue GAMMA=   0.8763
  0.8763

 Free energy of the ion-electron system (eV)
  ---------------------------------------------------
  alpha Z        PSCENC =        90.42577596
  Ewald energy   TEWEN  =     -1146.88905665
  -Hartree energ DENC   =      -533.61207971
  -exchange      EXHF   =         0.00000000
  -V(xc)+E(xc)   XCENC  =       -70.82362185
  PAW double counting   =       847.66153883     -694.34860334
  entropy T*S    EENTRO =         0.00000000
  eigenvalues    EBANDS =       -79.16590190
  atomic energy  EATOM  =      1542.32414240
  Solvation  Ediel_sol  =         0.00000000
  ---------------------------------------------------
  free energy    TOTEN  =       -44.42780626 eV

  energy without entropy =      -44.42780626  energy(sigma->0) =      -44.42780626


--------------------------------------------------------------------------------------------------------




--------------------------------------- Iteration      1(   7)  ---------------------------------------


    POTLOK:  cpu time    0.0630: real time    0.0654
    SETDIJ:  cpu time    0.0070: real time    0.0065
    EDDIAG:  cpu time    0.1750: real time    0.1753
  RMM-DIIS:  cpu time    0.8359: real time    0.8355
    ORTHCH:  cpu time    0.0180: real time    0.0182
 BZINTS: Fermi energy:  3.201498; 36.000000 electrons
         Band energy: -73.440839;  BLOECHL correction:  0.000000
       DOS:  cpu time    0.0010: real time    0.0012
    CHARGE:  cpu time    0.0780: real time    0.0782
    MIXING:  cpu time    0.0020: real time    0.0019
    --------------------------------------------
      LOOP:  cpu time    1.1798: real time    1.1822

 eigenvalue-minimisations  :   970
 total energy-change (2. order) : 0.7294187E+00  (-0.1920808E+00)
 number of electron      36.0000006 magnetization 
 augmentation part       -1.1100398 magnetization 

 Broyden mixing:
  rms(total) = 0.17808E+00    rms(broyden)= 0.17808E+00
  rms(prec ) = 0.21288E+00
  weight for this iteration     100.00

 eigenvalues of (default mixing * dielectric matrix)
  average eigenvalue GAMMA=   1.4084
  0.7615  2.0553

 Free energy of the ion-electron system (eV)
  ---------------------------------------------------
  alpha Z        PSCENC =        90.42577596
  Ewald energy   TEWEN  =     -1146.88905665
  -Hartree energ DENC   =      -537.92076888
  -exchange      EXHF   =         0.00000000
  -V(xc)+E(xc)   XCENC  =       -71.01120254
  PAW double counting   =       880.85221966     -728.03865807
  entropy T*S    EENTRO =         0.00000000
  eigenvalues    EBANDS =       -73.44083946
  atomic energy  EATOM  =      1542.32414240
  Solvation  Ediel_sol  =         0.00000000
  ---------------------------------------------------
  free energy    TOTEN  =       -43.69838758 eV

  energy without entropy =      -43.69838758  energy(sigma->0) =      -43.69838758


--------------------------------------------------------------------------------------------------------




--------------------------------------- Iteration      1(   8)  ---------------------------------------


    POTLOK:  cpu time    0.0630: real time    0.0665
    SETDIJ:  cpu time    0.0070: real time    0.0065
    EDDIAG:  cpu time    0.1750: real time    0.1752
  RMM-DIIS:  cpu time    0.8699: real time    0.8692
    ORTHCH:  cpu time    0.0170: real time    0.0181
 BZINTS: Fermi energy:  3.321178; 36.000000 electrons
         Band energy: -68.494579;  BLOECHL correction:  0.000000
       DOS:  cpu time    0.0010: real time    0.0012
    CHARGE:  cpu time    0.0790: real time    0.0781
    MIXING:  cpu time    0.0020: real time    0.0026
    --------------------------------------------
      LOOP:  cpu time    1.2138: real time    1.2175

 eigenvalue-minimisations  :  1011
 total energy-change (2. order) : 0.6164347E-01  (-0.9094152E-01)
 number of electron      36.0000006 magnetization 
 augmentation part       -1.1701005 magnetization 

 Broyden mixing:
  rms(total) = 0.84499E-01    rms(broyden)= 0.84499E-01
  rms(prec ) = 0.11297E+00
  weight for this iteration     100.00

 eigenvalues of (default mixing * dielectric matrix)
  average eigenvalue GAMMA=   1.4812
  2.1211  1.4970  0.8254

 Free energy of the ion-electron system (eV)
  ---------------------------------------------------
  alpha Z        PSCENC =        90.42577596
  Ewald energy   TEWEN  =     -1146.88905665
  -Hartree energ DENC   =      -542.20277646
  -exchange      EXHF   =         0.00000000
  -V(xc)+E(xc)   XCENC  =       -70.62896986
  PAW double counting   =       931.03619402     -779.20747464
  entropy T*S    EENTRO =         0.00000000
  eigenvalues    EBANDS =       -68.49457889
  atomic energy  EATOM  =      1542.32414240
  Solvation  Ediel_sol  =         0.00000000
  ---------------------------------------------------
  free energy    TOTEN  =       -43.63674412 eV

  energy without entropy =      -43.63674412  energy(sigma->0) =      -43.63674412


--------------------------------------------------------------------------------------------------------




--------------------------------------- Iteration      1(   9)  ---------------------------------------


    POTLOK:  cpu time    0.0640: real time    0.0655
    SETDIJ:  cpu time    0.0070: real time    0.0065
    EDDIAG:  cpu time    0.1740: real time    0.1751
  RMM-DIIS:  cpu time    0.9049: real time    0.9040
    ORTHCH:  cpu time    0.0180: real time    0.0182
 BZINTS: Fermi energy:  3.240086; 36.000000 electrons
         Band energy: -68.951272;  BLOECHL correction:  0.000000
       DOS:  cpu time    0.0010: real time    0.0013
    CHARGE:  cpu time    0.0780: real time    0.0781
    MIXING:  cpu time    0.0020: real time    0.0020
    --------------------------------------------
      LOOP:  cpu time    1.2488: real time    1.2507

 eigenvalue-minimisations  :  1045
 total energy-change (2. order) : 0.9550625E-02  (-0.3094388E-01)
 number of electron      36.0000006 magnetization 
 augmentation part       -1.0405946 magnetization 

 Broyden mixing:
  rms(total) = 0.59256E-01    rms(broyden)= 0.59255E-01
  rms(prec ) = 0.82585E-01
  weight for this iteration     100.00

 eigenvalues of (default mixing * dielectric matrix)
  average eigenvalue GAMMA=   1.5221
  2.1419  2.1419  0.9023  0.9023

 Free energy of the ion-electron system (eV)
  ---------------------------------------------------
  alpha Z        PSCENC =        90.42577596
  Ewald energy   TEWEN  =     -1146.88905665
  -Hartree energ DENC   =      -541.82467931
  -exchange      EXHF   =         0.00000000
  -V(xc)+E(xc)   XCENC  =       -70.36610134
  PAW double counting   =       937.65859478     -786.00459768
  entropy T*S    EENTRO =         0.00000000
  eigenvalues    EBANDS =       -68.95127165
  atomic energy  EATOM  =      1542.32414240
  Solvation  Ediel_sol  =         0.00000000
  ---------------------------------------------------
  free energy    TOTEN  =       -43.62719349 eV

  energy without entropy =      -43.62719349  energy(sigma->0) =      -43.62719349


--------------------------------------------------------------------------------------------------------




--------------------------------------- Iteration      1(  10)  ---------------------------------------


    POTLOK:  cpu time    0.0630: real time    0.0662
    SETDIJ:  cpu time    0.0070: real time    0.0065
    EDDIAG:  cpu time    0.1750: real time    0.1746
  RMM-DIIS:  cpu time    0.9099: real time    0.9095
    ORTHCH:  cpu time    0.0180: real time    0.0181
 BZINTS: Fermi energy:  3.316492; 36.000000 electrons
         Band energy: -68.032301;  BLOECHL correction:  0.000000
       DOS:  cpu time    0.0010: real time    0.0012
    CHARGE:  cpu time    0.0780: real time    0.0779
    MIXING:  cpu time    0.0020: real time    0.0021
    --------------------------------------------
      LOOP:  cpu time    1.2538: real time    1.2561

 eigenvalue-minimisations  :  1054
 total energy-change (2. order) : 0.1701111E-01  (-0.7234255E-02)
 number of electron      36.0000006 magnetization 
 augmentation part       -1.1049237 magnetization 

 Broyden mixing:
  rms(total) = 0.85555E-02    rms(broyden)= 0.85555E-02
  rms(prec ) = 0.10979E-01
  weight for this iteration     100.00

 eigenvalues of (default mixing * dielectric matrix)
  average eigenvalue GAMMA=   1.4294
  2.4532  1.6421  0.8831  0.8831  1.2858

 Free energy of the ion-electron system (eV)
  ---------------------------------------------------
  alpha Z        PSCENC =        90.42577596
  Ewald energy   TEWEN  =     -1146.88905665
  -Hartree energ DENC   =      -542.62952035
  -exchange      EXHF   =         0.00000000
  -V(xc)+E(xc)   XCENC  =       -70.42308901
  PAW double counting   =       943.57866344     -791.96479753
  entropy T*S    EENTRO =         0.00000000
  eigenvalues    EBANDS =       -68.03230064
  atomic energy  EATOM  =      1542.32414240
  Solvation  Ediel_sol  =         0.00000000
  ---------------------------------------------------
  free energy    TOTEN  =       -43.61018239 eV

  energy without entropy =      -43.61018239  energy(sigma->0) =      -43.61018239


--------------------------------------------------------------------------------------------------------




--------------------------------------- Iteration      1(  11)  ---------------------------------------


    POTLOK:  cpu time    0.0630: real time    0.0651
    SETDIJ:  cpu time    0.0070: real time    0.0065
    EDDIAG:  cpu time    0.1730: real time    0.1739
  RMM-DIIS:  cpu time    0.9479: real time    0.9473
    ORTHCH:  cpu time    0.0180: real time    0.0180
 BZINTS: Fermi energy:  3.321754; 36.000000 electrons
         Band energy: -67.908790;  BLOECHL correction:  0.000000
       DOS:  cpu time    0.0010: real time    0.0013
    CHARGE:  cpu time    0.0780: real time    0.0775
    MIXING:  cpu time    0.0020: real time    0.0022
    --------------------------------------------
      LOOP:  cpu time    1.2898: real time    1.2919

 eigenvalue-minimisations  :  1117
 total energy-change (2. order) :-0.2708477E-04  (-0.3416364E-03)
 number of electron      36.0000006 magnetization 
 augmentation part       -1.0979006 magnetization 

 Broyden mixing:
  rms(total) = 0.31131E-02    rms(broyden)= 0.31131E-02
  rms(prec ) = 0.38187E-02
  weight for this iteration     100.00

 eigenvalues of (default mixing * dielectric matrix)
  average eigenvalue GAMMA=   1.6260
  2.5943  2.5943  1.8381  0.8833  0.8833  0.9623

 Free energy of the ion-electron system (eV)
  ---------------------------------------------------
  alpha Z        PSCENC =        90.42577596
  Ewald energy   TEWEN  =     -1146.88905665
  -Hartree energ DENC   =      -542.77189953
  -exchange      EXHF   =         0.00000000
  -V(xc)+E(xc)   XCENC  =       -70.39436845
  PAW double counting   =       943.93493103     -792.33094450
  entropy T*S    EENTRO =         0.00000000
  eigenvalues    EBANDS =       -67.90878973
  atomic energy  EATOM  =      1542.32414240
  Solvation  Ediel_sol  =         0.00000000
  ---------------------------------------------------
  free energy    TOTEN  =       -43.61020947 eV

  energy without entropy =      -43.61020947  energy(sigma->0) =      -43.61020947


--------------------------------------------------------------------------------------------------------




--------------------------------------- Iteration      1(  12)  ---------------------------------------


    POTLOK:  cpu time    0.0630: real time    0.0664
    SETDIJ:  cpu time    0.0070: real time    0.0065
    EDDIAG:  cpu time    0.1740: real time    0.1737
  RMM-DIIS:  cpu time    0.9529: real time    0.9520
    ORTHCH:  cpu time    0.0170: real time    0.0180
 BZINTS: Fermi energy:  3.328525; 36.000000 electrons
         Band energy: -67.740834;  BLOECHL correction:  0.000000
       DOS:  cpu time    0.0020: real time    0.0013
    CHARGE:  cpu time    0.0770: real time    0.0775
    MIXING:  cpu time    0.0030: real time    0.0023
    --------------------------------------------
      LOOP:  cpu time    1.2958: real time    1.2978

 eigenvalue-minimisations  :  1135
 total energy-change (2. order) :-0.1535131E-03  (-0.5781161E-04)
 number of electron      36.0000006 magnetization 
 augmentation part       -1.0962613 magnetization 

 Broyden mixing:
  rms(total) = 0.23584E-02    rms(broyden)= 0.23584E-02
  rms(prec ) = 0.30295E-02
  weight for this iteration     100.00

 eigenvalues of (default mixing * dielectric matrix)
  average eigenvalue GAMMA=   1.5934
  2.9628  2.3887  1.5500  1.5500  0.8875  0.8875  0.9270

 Free energy of the ion-electron system (eV)
  ---------------------------------------------------
  alpha Z        PSCENC =        90.42577596
  Ewald energy   TEWEN  =     -1146.88905665
  -Hartree energ DENC   =      -542.96307448
  -exchange      EXHF   =         0.00000000
  -V(xc)+E(xc)   XCENC  =       -70.38506439
  PAW double counting   =       943.60789124     -791.99014328
  entropy T*S    EENTRO =         0.00000000
  eigenvalues    EBANDS =       -67.74083379
  atomic energy  EATOM  =      1542.32414240
  Solvation  Ediel_sol  =         0.00000000
  ---------------------------------------------------
  free energy    TOTEN  =       -43.61036298 eV

  energy without entropy =      -43.61036298  energy(sigma->0) =      -43.61036298


--------------------------------------------------------------------------------------------------------




--------------------------------------- Iteration      1(  13)  ---------------------------------------


    POTLOK:  cpu time    0.0630: real time    0.0651
    SETDIJ:  cpu time    0.0060: real time    0.0065
    EDDIAG:  cpu time    0.1740: real time    0.1738
  RMM-DIIS:  cpu time    0.9689: real time    0.9684
    ORTHCH:  cpu time    0.0170: real time    0.0180
 BZINTS: Fermi energy:  3.337177; 36.000000 electrons
         Band energy: -67.722121;  BLOECHL correction:  0.000000
       DOS:  cpu time    0.0020: real time    0.0013
    CHARGE:  cpu time    0.0770: real time    0.0775
    MIXING:  cpu time    0.0030: real time    0.0023
    --------------------------------------------
      LOOP:  cpu time    1.3108: real time    1.3130

 eigenvalue-minimisations  :  1148
 total energy-change (2. order) :-0.7819277E-05  (-0.3971406E-04)
 number of electron      36.0000006 magnetization 
 augmentation part       -1.1003095 magnetization 

 Broyden mixing:
  rms(total) = 0.20491E-02    rms(broyden)= 0.20491E-02
  rms(prec ) = 0.27628E-02
  weight for this iteration     100.00

 eigenvalues of (default mixing * dielectric matrix)
  average eigenvalue GAMMA=   1.7390
  3.2197  2.6478  2.6478  1.6001  1.1495  0.8785  0.8785  0.8904

 Free energy of the ion-electron system (eV)
  ---------------------------------------------------
  alpha Z        PSCENC =        90.42577596
  Ewald energy   TEWEN  =     -1146.88905665
  -Hartree energ DENC   =      -542.97734165
  -exchange      EXHF   =         0.00000000
  -V(xc)+E(xc)   XCENC  =       -70.38915286
  PAW double counting   =       943.77316458     -792.15578203
  entropy T*S    EENTRO =         0.00000000
  eigenvalues    EBANDS =       -67.72212056
  atomic energy  EATOM  =      1542.32414240
  Solvation  Ediel_sol  =         0.00000000
  ---------------------------------------------------
  free energy    TOTEN  =       -43.61037080 eV

  energy without entropy =      -43.61037080  energy(sigma->0) =      -43.61037080


--------------------------------------------------------------------------------------------------------




--------------------------------------- Iteration      1(  14)  ---------------------------------------


    POTLOK:  cpu time    0.0620: real time    0.0669
    SETDIJ:  cpu time    0.0080: real time    0.0065
    EDDIAG:  cpu time    0.1740: real time    0.1738
  RMM-DIIS:  cpu time    0.7729: real time    0.7731
    ORTHCH:  cpu time    0.0180: real time    0.0180
 BZINTS: Fermi energy:  3.337306; 36.000000 electrons
         Band energy: -67.742780;  BLOECHL correction:  0.000000
       DOS:  cpu time    0.0010: real time    0.0013
    CHARGE:  cpu time    0.0780: real time    0.0774
    MIXING:  cpu time    0.0020: real time    0.0025
    --------------------------------------------
      LOOP:  cpu time    1.1158: real time    1.1196

 eigenvalue-minimisations  :   900
 total energy-change (2. order) : 0.1676339E-04  (-0.7762412E-05)
 number of electron      36.0000006 magnetization 
 augmentation part       -1.0984186 magnetization 

 Broyden mixing:
  rms(total) = 0.25932E-03    rms(broyden)= 0.25931E-03
  rms(prec ) = 0.30486E-03
  weight for this iteration     100.00

 eigenvalues of (default mixing * dielectric matrix)
  average eigenvalue GAMMA=   1.6026
  3.0425  2.7522  2.3083  1.5087  1.2165  0.8739  0.8739  0.9237  0.9237

 Free energy of the ion-electron system (eV)
  ---------------------------------------------------
  alpha Z        PSCENC =        90.42577596
  Ewald energy   TEWEN  =     -1146.88905665
  -Hartree energ DENC   =      -542.95909665
  -exchange      EXHF   =         0.00000000
  -V(xc)+E(xc)   XCENC  =       -70.38614426
  PAW double counting   =       943.62339072     -792.00658533
  entropy T*S    EENTRO =         0.00000000
  eigenvalues    EBANDS =       -67.74278023
  atomic energy  EATOM  =      1542.32414240
  Solvation  Ediel_sol  =         0.00000000
  ---------------------------------------------------
  free energy    TOTEN  =       -43.61035404 eV

  energy without entropy =      -43.61035404  energy(sigma->0) =      -43.61035404


--------------------------------------------------------------------------------------------------------




--------------------------------------- Iteration      1(  15)  ---------------------------------------


    POTLOK:  cpu time    0.0630: real time    0.0669
    SETDIJ:  cpu time    0.0070: real time    0.0065
    EDDIAG:  cpu time    0.1730: real time    0.1738
  RMM-DIIS:  cpu time    0.6109: real time    0.6094
    ORTHCH:  cpu time    0.0170: real time    0.0181
 BZINTS: Fermi energy:  3.341282; 36.000000 electrons
         Band energy: -67.737416;  BLOECHL correction:  0.000000
       DOS:  cpu time    0.0010: real time    0.0013
    --------------------------------------------
      LOOP:  cpu time    0.8719: real time    0.8761

 eigenvalue-minimisations  :   684
 total energy-change (2. order) :-0.3521914E-06  (-0.9420233E-06)
 number of electron      36.0000006 magnetization 
 augmentation part       -1.0984186 magnetization 

 Free energy of the ion-electron system (eV)
  ---------------------------------------------------
  alpha Z        PSCENC =        90.42577596
  Ewald energy   TEWEN  =     -1146.88905665
  -Hartree energ DENC   =      -542.96541218
  -exchange      EXHF   =         0.00000000
  -V(xc)+E(xc)   XCENC  =       -70.38604577
  PAW double counting   =       943.58062849     -791.96297023
  entropy T*S    EENTRO =         0.00000000
  eigenvalues    EBANDS =       -67.73741642
  atomic energy  EATOM  =      1542.32414240
  Solvation  Ediel_sol  =         0.00000000
  ---------------------------------------------------
  free energy    TOTEN  =       -43.61035439 eV

  energy without entropy =      -43.61035439  energy(sigma->0) =      -43.61035439


--------------------------------------------------------------------------------------------------------




 average (electrostatic) potential at core
  the test charge radii are     1.2296  0.9698
  (the norm of the test charge is              1.0000)
       1 -40.3303       2 -40.3303       3 -88.1712       4 -88.1712       5 -88.1712
       6 -88.1712
 
 
 
 E-fermi :   3.3413     XC(G=0):  -9.3243     alpha+bet : -9.6368


 k-point     1 :       0.0000    0.0000    0.0000
  band No.  band energies     occupation 
      1     -10.9295      2.00000
      2     -10.9105      2.00000
      3      -9.7290      2.00000
      4      -9.6951      2.00000
      5      -2.5236      2.00000
      6      -2.3622      2.00000
      7       0.5195      2.00000
      8       0.5195      2.00000
      9       0.5200      2.00000
     10       0.5201      2.00000
     11       1.1060      2.00000
     12       1.6244      2.00000
     13       1.6245      2.00000
     14       1.6264      2.00000
     15       1.6264      2.00000
     16       1.6744      2.00000
     17       2.9224      2.00000
     18       3.2981      2.00000
     19       5.8798      0.00000
     20       5.8912      0.00000
     21       5.9405      0.00000
     22       6.0716      0.00000

 k-point     2 :       0.1250   -0.0000    0.0000
  band No.  band energies     occupation 
      1     -10.7152      2.00000
      2     -10.6966      2.00000
      3      -9.6254      2.00000
      4      -9.5939      2.00000
      5      -2.2778      2.00000
      6      -2.1189      2.00000
      7       0.0550      2.00000
      8       0.0577      2.00000
      9       0.4564      2.00000
     10       0.6725      2.00000
     11       0.7536      2.00000
     12       0.7548      2.00000
     13       1.2884      2.00000
     14       1.2910      2.00000
     15       1.9305      2.00000
     16       2.2144      2.00000
     17       2.8432      2.00000
     18       3.0852      2.00000
     19       5.5197      0.00000
     20       5.6431      0.00000
     21       5.7248      0.00000
     22       5.8261      0.00000

 k-point     3 :       0.2500   -0.0000    0.0000
  band No.  band energies     occupation 
      1     -10.1455      2.00000
      2     -10.1288      2.00000
      3      -9.3530      2.00000
      4      -9.3286      2.00000
      5      -1.8879      2.00000
      6      -1.7770      2.00000
      7      -0.6916      2.00000
      8      -0.6481      2.00000
      9      -0.4614      2.00000
     10      -0.3599      2.00000
     11       0.6529      2.00000
     12       0.6564      2.00000
     13       1.3396      2.00000
     14       1.3431      2.00000
     15       1.7040      2.00000
     16       1.9127      2.00000
     17       2.3696      2.00000
     18       2.4181      2.00000
     19       5.1190      0.00000
     20       5.4379      0.00000
     21       5.4511      0.00000
     22       5.5140      0.00000

 k-point     4 :       0.3750   -0.0000    0.0000
  band No.  band energies     occupation 
      1      -9.4679      2.00000
      2      -9.4561      2.00000
      3      -9.0395      2.00000
      4      -9.0252      2.00000
      5      -2.2854      2.00000
      6      -2.2507      2.00000
      7      -1.2977      2.00000
      8      -1.2547      2.00000
      9      -0.8466      2.00000
     10      -0.7616      2.00000
     11       0.1554      2.00000
     12       0.1593      2.00000
     13       1.3419      2.00000
     14       1.4495      2.00000
     15       1.9277      2.00000
     16       1.9363      2.00000
     17       2.1733      2.00000
     18       2.2240      2.00000
     19       5.2594      0.00000
     20       5.2684      0.00000
     21       5.4544      0.00000
     22       5.6335      0.00000

 k-point     5 :       0.5000   -0.0000    0.0000
  band No.  band energies     occupation 
      1      -9.1370      2.00000
      2      -9.1305      2.00000
      3      -8.8923      2.00000
      4      -8.8858      2.00000
      5      -2.6138      2.00000
      6      -2.5868      2.00000
      7      -1.6529      2.00000
      8      -1.6284      2.00000
      9      -0.9684      2.00000
     10      -0.8925      2.00000
     11      -0.0253      2.00000
     12      -0.0212      2.00000
     13       1.2465      2.00000
     14       1.2660      2.00000
     15       2.1531      2.00000
     16       2.1652      2.00000
     17       2.4769      2.00000
     18       2.4807      2.00000
     19       5.2842      0.00000
     20       5.2880      0.00000
     21       5.7746      0.00000
     22       5.8311      0.00000

 k-point     6 :       0.1250    0.1250    0.0000
  band No.  band energies     occupation 
      1     -10.3218      2.00000
      2     -10.3043      2.00000
      3      -9.4359      2.00000
      4      -9.4092      2.00000
      5      -1.9210      2.00000
      6      -1.7813      2.00000
      7      -0.5138      2.00000
      8      -0.5012      2.00000
      9      -0.0652      2.00000
     10       0.0768      2.00000
     11       0.4638      2.00000
     12       0.4899      2.00000
     13       1.0929      2.00000
     14       1.0946      2.00000
     15       2.0957      2.00000
     16       2.2980      2.00000
     17       2.5519      2.00000
     18       2.6275      2.00000
     19       5.0622      0.00000
     20       5.3234      0.00000
     21       5.5257      0.00000
     22       5.5690      0.00000

 k-point     7 :       0.2500    0.1250    0.0000
  band No.  band energies     occupation 
      1      -9.6865      2.00000
      2      -9.6724      2.00000
      3      -9.1331      2.00000
      4      -9.1149      2.00000
      5      -1.9396      2.00000
      6      -1.8866      2.00000
      7      -0.9512      2.00000
      8      -0.9200      2.00000
      9      -0.7085      2.00000
     10      -0.6350      2.00000
     11      -0.0668      2.00000
     12       0.0079      2.00000
     13       1.1902      2.00000
     14       1.1961      2.00000
     15       1.7872      2.00000
     16       1.8735      2.00000
     17       2.3022      2.00000
     18       2.3120      2.00000
     19       4.9959      0.00000
     20       5.2121      0.00000
     21       5.5280      0.00000
     22       5.6260      0.00000

 k-point     8 :       0.3750    0.1250    0.0000
  band No.  band energies     occupation 
      1      -9.1528      2.00000
      2      -9.1451      2.00000
      3      -8.8842      2.00000
      4      -8.8759      2.00000
      5      -2.3265      2.00000
      6      -2.2996      2.00000
      7      -1.7023      2.00000
      8      -1.6932      2.00000
      9      -0.8380      2.00000
     10      -0.7674      2.00000
     11      -0.0673      2.00000
     12      -0.0249      2.00000
     13       1.1999      2.00000
     14       1.2162      2.00000
     15       1.3283      2.00000
     16       1.3666      2.00000
     17       2.6245      2.00000
     18       2.6428      2.00000
     19       5.2706      0.00000
     20       5.3348      0.00000
     21       5.7837      0.00000
     22       5.8596      0.00000

 k-point     9 :       0.2500    0.2500    0.0000
  band No.  band energies     occupation 
      1      -9.1683      2.00000
      2      -9.1596      2.00000
      3      -8.8760      2.00000
      4      -8.8661      2.00000
      5      -1.9672      2.00000
      6      -1.9387      2.00000
      7      -1.7537      2.00000
      8      -1.7426      2.00000
      9      -0.4881      2.00000
     10      -0.4637      2.00000
     11      -0.1393      2.00000
     12      -0.0510      2.00000
     13       0.2146      2.00000
     14       0.2372      2.00000
     15       1.4762      2.00000
     16       1.4869      2.00000
     17       2.6005      2.00000
     18       2.6103      2.00000
     19       5.1854      0.00000
     20       5.3134      0.00000
     21       5.8569      0.00000
     22       6.1519      0.00000

 k-point    10 :       0.3750    0.2500    0.0000
  band No.  band energies     occupation 
      1      -8.9306      2.00000
      2      -8.9275      2.00000
      3      -8.7535      2.00000
      4      -8.7503      2.00000
      5      -2.1379      2.00000
      6      -2.1272      2.00000
      7      -1.7918      2.00000
      8      -1.7756      2.00000
      9      -0.7781      2.00000
     10      -0.7409      2.00000
     11      -0.1070      2.00000
     12      -0.0861      2.00000
     13       0.1069      2.00000
     14       0.1579      2.00000
     15       1.0756      2.00000
     16       1.1155      2.00000
     17       2.9621      2.00000
     18       2.9832      2.00000
     19       4.9235      0.00000
     20       4.9325      0.00000
     21       6.1664      0.00000
     22       6.3240      0.00000

 k-point    11 :       0.0000    0.0000    0.5000
  band No.  band energies     occupation 
      1     -10.9201      2.00000
      2     -10.9201      2.00000
      3      -9.7119      2.00000
      4      -9.7119      2.00000
      5      -2.4457      2.00000
      6      -2.4456      2.00000
      7       0.5198      2.00000
      8       0.5198      2.00000
      9       0.5198      2.00000
     10       0.5198      2.00000
     11       1.3628      2.00000
     12       1.3628      2.00000
     13       1.6254      2.00000
     14       1.6254      2.00000
     15       1.6254      2.00000
     16       1.6254      2.00000
     17       3.1409      2.00000
     18       3.1409      2.00000
     19       5.8742      0.00000
     20       5.9004      0.00000
     21       5.9607      0.00000
     22       6.0933      0.00000

 k-point    12 :       0.1250   -0.0000    0.5000
  band No.  band energies     occupation 
      1     -10.7060      2.00000
      2     -10.7060      2.00000
      3      -9.6095      2.00000
      4      -9.6095      2.00000
      5      -2.2014      2.00000
      6      -2.2014      2.00000
      7       0.0561      2.00000
      8       0.0561      2.00000
      9       0.5711      2.00000
     10       0.5711      2.00000
     11       0.7542      2.00000
     12       0.7542      2.00000
     13       1.2897      2.00000
     14       1.2897      2.00000
     15       2.0427      2.00000
     16       2.0427      2.00000
     17       2.9902      2.00000
     18       2.9902      2.00000
     19       5.5804      0.00000
     20       5.6004      0.00000
     21       5.7299      0.00000
     22       5.7994      0.00000

 k-point    13 :       0.2500   -0.0000    0.5000
  band No.  band energies     occupation 
      1     -10.1372      2.00000
      2     -10.1372      2.00000
      3      -9.3407      2.00000
      4      -9.3407      2.00000
      5      -1.8343      2.00000
      6      -1.8343      2.00000
      7      -0.6755      2.00000
      8      -0.6755      2.00000
      9      -0.4027      2.00000
     10      -0.4027      2.00000
     11       0.6547      2.00000
     12       0.6547      2.00000
     13       1.3414      2.00000
     14       1.3414      2.00000
     15       1.8005      2.00000
     16       1.8005      2.00000
     17       2.3994      2.00000
     18       2.3994      2.00000
     19       5.2600      0.00000
     20       5.2602      0.00000
     21       5.4457      0.00000
     22       5.4475      0.00000

 k-point    14 :       0.3750   -0.0000    0.5000
  band No.  band energies     occupation 
      1      -9.4621      2.00000
      2      -9.4621      2.00000
      3      -9.0323      2.00000
      4      -9.0323      2.00000
      5      -2.2682      2.00000
      6      -2.2682      2.00000
      7      -1.2781      2.00000
      8      -1.2781      2.00000
      9      -0.8021      2.00000
     10      -0.8021      2.00000
     11       0.1573      2.00000
     12       0.1573      2.00000
     13       1.3936      2.00000
     14       1.3936      2.00000
     15       1.9320      2.00000
     16       1.9320      2.00000
     17       2.2006      2.00000
     18       2.2006      2.00000
     19       5.2638      0.00000
     20       5.2638      0.00000
     21       5.5374      0.00000
     22       5.5375      0.00000

 k-point    15 :       0.5000   -0.0000    0.5000
  band No.  band energies     occupation 
      1      -9.1338      2.00000
      2      -9.1338      2.00000
      3      -8.8890      2.00000
      4      -8.8890      2.00000
      5      -2.6004      2.00000
      6      -2.6004      2.00000
      7      -1.6415      2.00000
      8      -1.6415      2.00000
      9      -0.9295      2.00000
     10      -0.9295      2.00000
     11      -0.0232      2.00000
     12      -0.0232      2.00000
     13       1.2560      2.00000
     14       1.2561      2.00000
     15       2.1591      2.00000
     16       2.1591      2.00000
     17       2.4789      2.00000
     18       2.4789      2.00000
     19       5.2861      0.00000
     20       5.2861      0.00000
     21       5.8016      0.00000
     22       5.8019      0.00000

 k-point    16 :       0.1250    0.1250    0.5000
  band No.  band energies     occupation 
      1     -10.3132      2.00000
      2     -10.3132      2.00000
      3      -9.4225      2.00000
      4      -9.4225      2.00000
      5      -1.8540      2.00000
      6      -1.8540      2.00000
      7      -0.5092      2.00000
      8      -0.5092      2.00000
      9       0.0126      2.00000
     10       0.0126      2.00000
     11       0.4758      2.00000
     12       0.4758      2.00000
     13       1.0937      2.00000
     14       1.0937      2.00000
     15       2.1816      2.00000
     16       2.1816      2.00000
     17       2.6014      2.00000
     18       2.6014      2.00000
     19       5.1820      0.00000
     20       5.1826      0.00000
     21       5.5430      0.00000
     22       5.6477      0.00000

 k-point    17 :       0.2500    0.1250    0.5000
  band No.  band energies     occupation 
      1      -9.6796      2.00000
      2      -9.6796      2.00000
      3      -9.1239      2.00000
      4      -9.1239      2.00000
      5      -1.9135      2.00000
      6      -1.9135      2.00000
      7      -0.9374      2.00000
      8      -0.9374      2.00000
      9      -0.6717      2.00000
     10      -0.6717      2.00000
     11      -0.0268      2.00000
     12      -0.0267      2.00000
     13       1.1930      2.00000
     14       1.1930      2.00000
     15       1.8283      2.00000
     16       1.8283      2.00000
     17       2.3077      2.00000
     18       2.3077      2.00000
     19       5.1026      0.00000
     20       5.1027      0.00000
     21       5.5537      0.00000
     22       5.5666      0.00000

 k-point    18 :       0.3750    0.1250    0.5000
  band No.  band energies     occupation 
      1      -9.1490      2.00000
      2      -9.1490      2.00000
      3      -8.8800      2.00000
      4      -8.8800      2.00000
      5      -2.3132      2.00000
      6      -2.3132      2.00000
      7      -1.6979      2.00000
      8      -1.6979      2.00000
      9      -0.8034      2.00000
     10      -0.8034      2.00000
     11      -0.0447      2.00000
     12      -0.0447      2.00000
     13       1.2073      2.00000
     14       1.2073      2.00000
     15       1.3474      2.00000
     16       1.3474      2.00000
     17       2.6339      2.00000
     18       2.6339      2.00000
     19       5.3030      0.00000
     20       5.3034      0.00000
     21       5.8119      0.00000
     22       6.6629      0.00000

 k-point    19 :       0.2500    0.2500    0.5000
  band No.  band energies     occupation 
      1      -9.1640      2.00000
      2      -9.1640      2.00000
      3      -8.8710      2.00000
      4      -8.8710      2.00000
      5      -1.9532      2.00000
      6      -1.9532      2.00000
      7      -1.7480      2.00000
      8      -1.7480      2.00000
      9      -0.4797      2.00000
     10      -0.4797      2.00000
     11      -0.0909      2.00000
     12      -0.0909      2.00000
     13       0.2261      2.00000
     14       0.2261      2.00000
     15       1.4805      2.00000
     16       1.4805      2.00000
     17       2.6055      2.00000
     18       2.6055      2.00000
     19       5.2493      0.00000
     20       5.2495      0.00000
     21       5.8605      0.00000
     22       6.1419      0.00000

 k-point    20 :       0.3750    0.2500    0.5000
  band No.  band energies     occupation 
      1      -8.9291      2.00000
      2      -8.9291      2.00000
      3      -8.7519      2.00000
      4      -8.7519      2.00000
      5      -2.1326      2.00000
      6      -2.1326      2.00000
      7      -1.7835      2.00000
      8      -1.7835      2.00000
      9      -0.7605      2.00000
     10      -0.7605      2.00000
     11      -0.0993      2.00000
     12      -0.0993      2.00000
     13       0.1372      2.00000
     14       0.1372      2.00000
     15       1.0941      2.00000
     16       1.0941      2.00000
     17       2.9726      2.00000
     18       2.9726      2.00000
     19       4.9281      0.00000
     20       4.9281      0.00000
     21       6.2305      0.00000
     22       6.2390      0.00000


--------------------------------------------------------------------------------------------------------


 soft charge-density along one line, spin component           1
         0         1         2         3         4         5         6         7         8         9
 total charge-density along one line
 
 pseudopotential strength for first ion, spin component:           1
 -8.238  -0.000   0.000   0.000  -0.000  -0.074   0.000  -0.000
 -0.000  -8.238   0.000  -0.000  -0.000   0.000  -0.074  -0.000
  0.000   0.000  -8.217  -0.000  -0.000  -0.000  -0.000  -0.075
  0.000  -0.000  -0.000  -8.238  -0.000  -0.000   0.000   0.000
 -0.000  -0.000  -0.000  -0.000  -8.238   0.000   0.000   0.000
 -0.074   0.000  -0.000  -0.000   0.000   0.112  -0.000   0.000
  0.000  -0.074  -0.000   0.000   0.000  -0.000   0.112   0.000
 -0.000  -0.000  -0.075   0.000   0.000   0.000   0.000   0.112
 -0.000   0.000   0.000  -0.074   0.000   0.000  -0.000  -0.000
  0.000   0.000   0.000   0.000  -0.074  -0.000  -0.000  -0.000
  0.000  -0.000  -0.005   0.000  -0.000  -0.000   0.000   0.000
 -0.000   0.000   0.001  -0.000   0.000   0.000  -0.000  -0.000
 -0.000   0.000  -0.000  -0.000  -0.007   0.000  -0.000   0.000
 -0.000   0.000   0.000  -0.000  -0.000  -0.000  -0.000  -0.000
 -0.007  -0.000   0.000   0.000  -0.000  -0.000  -0.000  -0.000
  0.000  -0.000   0.000   0.000   0.004  -0.000   0.000  -0.000
  0.000  -0.000  -0.000   0.000   0.000  -0.000   0.000   0.000
  0.004   0.000  -0.000  -0.000   0.000   0.000  -0.000   0.000
 total augmentation occupancy for first ion, spin component:           1
  0.965  -0.000  -0.000   0.000  -0.000   0.595   0.000  -0.000   0.000  -0.000  -0.000   0.000   0.000   0.000  -0.065  -0.000
  0.000   0.906  -0.000   0.000   0.000   0.000   0.833   0.000   0.000  -0.000   0.000  -0.000  -0.000   0.000   0.000  -0.000
 -0.000   0.000   1.029   0.000   0.000  -0.000   0.000   0.495   0.000   0.000   0.111  -0.019  -0.000  -0.000   0.000   0.000
  0.000   0.000   0.000   0.906   0.000  -0.000   0.000  -0.000   0.833  -0.000  -0.000  -0.000   0.000  -0.000  -0.000  -0.000
 -0.000   0.000   0.000   0.000   0.965  -0.000   0.000   0.000  -0.000   0.595   0.000  -0.000  -0.065  -0.000  -0.000   0.007
  0.595   0.000  -0.000   0.000  -0.000   0.670   0.000  -0.000   0.000  -0.000   0.000  -0.000   0.000   0.000  -0.136  -0.000
  0.000   0.833   0.000   0.000   0.000  -0.000   1.069  -0.000   0.000   0.000  -0.000   0.000   0.000   0.000   0.000  -0.000
 -0.000   0.000   0.495   0.000   0.000  -0.000  -0.000   0.470   0.000   0.000   0.058  -0.021  -0.000   0.000   0.000   0.000
 -0.000   0.000   0.000   0.833  -0.000   0.000   0.000  -0.000   1.069  -0.000   0.000   0.000  -0.000   0.000   0.000  -0.000
 -0.000  -0.000   0.000   0.000   0.595  -0.000  -0.000   0.000  -0.000   0.670   0.000  -0.000  -0.136   0.000  -0.000   0.023
 -0.000   0.000   0.111   0.000   0.000   0.000   0.000   0.058   0.000   0.000   1.207  -0.185   0.000   0.000   0.000   0.000
  0.000   0.000  -0.019  -0.000  -0.000  -0.000   0.000  -0.021   0.000  -0.000  -0.185   0.042   0.000  -0.000  -0.000   0.000
  0.000   0.000  -0.000   0.000  -0.065   0.000  -0.000  -0.000  -0.000  -0.136  -0.000   0.000   0.217   0.000   0.000  -0.032
  0.000   0.000  -0.000  -0.000   0.000   0.000   0.000   0.000  -0.000   0.000   0.000  -0.000  -0.000   0.264  -0.000   0.000
 -0.065   0.000   0.000  -0.000  -0.000  -0.136   0.000   0.000  -0.000  -0.000   0.000  -0.000   0.000   0.000   0.217  -0.000
 -0.000   0.000   0.000   0.000   0.007  -0.000  -0.000   0.000   0.000   0.023   0.000  -0.000  -0.032   0.000  -0.000   0.005
  0.000  -0.000   0.000   0.000  -0.000   0.000   0.000   0.000  -0.000   0.000  -0.000  -0.000   0.000  -0.038   0.000  -0.000
  0.007   0.000  -0.000   0.000   0.000   0.023   0.000  -0.000   0.000   0.000   0.000   0.000  -0.000  -0.000  -0.032   0.000


------------------------ aborting loop because EDIFF is reached ----------------------------------------


    CHARGE:  cpu time    0.0770: real time    0.0780
    FORLOC:  cpu time    0.0070: real time    0.0064
    FORNL :  cpu time    0.2340: real time    0.2336
    STRESS:  cpu time    0.7119: real time    0.7112
    FORCOR:  cpu time    0.0690: real time    0.0691
    FORHAR:  cpu time    0.0150: real time    0.0153
    MIXING:  cpu time    0.0030: real time    0.0026
    OFIELD:  cpu time    0.0000: real time    0.0000

  DFT-D2 method for vdW energy calculation
  -------------------------------------------------------------------

  Parameters of vdW forcefield:
         C6(Jnm^6/mol)     R0(A)
   -----------------------------
   Mo      24.670          1.639
   S        5.570          1.683

  IVDW =   1
  VDW_RADIUS =    50.000 A
  VDW_S6 =     0.750
  VDW_SR =     1.000
  VDW_D =    20.000
  LVDW_EWALD = F

  Number of pair interactions contributing to vdW energy:   84128
  Edisp (eV):   -1.33129
    FORVDW:  cpu time    0.0210: real time    0.0281

  FORCE on cell =-STRESS in cart. coord.  units (eV):
  Direction    XX          YY          ZZ          XY          YZ          ZX
  --------------------------------------------------------------------------------------
  Alpha Z    90.42578    90.42578    90.42578
  Ewald     -12.90873   -12.90785 -1121.07429     0.00038     0.00000     0.00025
  Hartree   466.59873   466.59874  -390.21025     0.00003     0.00000    -0.00001
  E(xc)    -140.61620  -140.61620  -141.80804    -0.00001    -0.00000    -0.00000
  Local   -1080.44154 -1080.44209   872.66088    -0.00032     0.00000    -0.00011
  n-local   254.33760   251.58514   263.36643    -0.51734    -0.00002    -0.00022
  augment   -51.12572   -51.12569   -53.32933     0.00003    -0.00000    -0.00001
  Kinetic   471.76613   477.35495   479.52257   -14.79854     0.00010     0.00027
  Fock        0.00000     0.00000     0.00000     0.00000     0.00000     0.00000
  vdW         0.17103     0.17103    -0.86546     0.00000     0.00000    -0.00000
  -------------------------------------------------------------------------------------
  Total      -0.37456    -0.37456    -1.31171     0.00000    -0.00000    -0.00000
  in kB      -4.57573    -4.57573   -16.02419     0.00000    -0.00000    -0.00000
  external pressure =       -8.39 kB  Pullay stress =        0.00 kB


 VOLUME and BASIS-vectors are now :
 -----------------------------------------------------------------------------
  energy-cutoff  :      700.00
  volume of cell :      131.15
      direct lattice vectors                 reciprocal lattice vectors
     3.190315730  0.000000000  0.000000000     0.313448600  0.180969634  0.000000000
    -1.595157865  2.762894468  0.000000000     0.000000000  0.361939267  0.000000000
     0.000000000  0.000000000 14.879004300     0.000000000  0.000000000  0.067208798

  length of vectors
     3.190315730  3.190315730 14.879004300     0.361939267  0.361939267  0.067208798


 FORCES acting on ions
    electron-ion (+dipol)            ewald-force                    non-local-force                 convergence-correction
 -----------------------------------------------------------------------------------------------
   0.471E-04 -.344E-04 -.957E-05   0.928E-04 -.107E-03 0.288E-09   0.694E-17 -.104E-16 -.212E-21   0.236E-08 -.377E-08 -.219E-09
   0.662E-04 -.310E-04 -.957E-05   -.928E-04 0.107E-03 -.288E-09   0.694E-17 0.243E-16 -.662E-21   0.630E-08 -.122E-08 -.218E-09
   0.526E-03 -.304E-03 -.242E+03   0.865E-04 -.537E-04 0.247E+03   -.182E-16 -.217E-16 -.479E+01   0.974E-08 -.588E-08 0.784E-02
   -.118E-02 0.679E-03 0.242E+03   -.865E-04 0.537E-04 -.247E+03   0.351E-16 0.217E-16 0.479E+01   -.249E-07 0.146E-07 -.784E-02
   0.524E-03 0.690E-03 -.242E+03   -.638E-05 0.537E-04 0.247E+03   -.434E-18 0.356E-16 -.479E+01   0.984E-08 0.128E-07 0.784E-02
   -.121E-02 -.293E-03 0.242E+03   0.638E-05 -.537E-04 -.247E+03   -.139E-16 -.781E-17 0.479E+01   -.188E-07 -.768E-08 -.784E-02
 -----------------------------------------------------------------------------------------------
   -.122E-02 0.707E-03 -.106E-04   -.561E-14 0.109E-13 0.284E-13   0.165E-16 0.416E-16 0.000E+00   -.155E-07 0.893E-08 -.567E-09
 
 
 POSITION                                       TOTAL-FORCE (eV/Angst)
 -----------------------------------------------------------------------------------
     -0.00000      1.84193      3.71975         0.000000     -0.000000     -0.000000
      1.59516      0.92096     11.15925        -0.000000      0.000000     -0.000000
     -0.00000      1.84193     12.72414         0.000000      0.000000     -0.085322
      1.59516      0.92096      2.15487        -0.000000     -0.000000      0.085322
      1.59516      0.92096      5.28464        -0.000000     -0.000000     -0.085322
      0.00000      1.84193      9.59437         0.000000      0.000000      0.085322
 -----------------------------------------------------------------------------------
    total drift:                               -0.001224      0.000707     -0.000011


--------------------------------------------------------------------------------------------------------



  FREE ENERGIE OF THE ION-ELECTRON SYSTEM (eV)
  ---------------------------------------------------
  free  energy   TOTEN  =       -44.94164141 eV

  energy  without entropy=      -44.94164141  energy(sigma->0) =      -44.94164141
 


--------------------------------------------------------------------------------------------------------


    POTLOK:  cpu time    0.0690: real time    0.0682


--------------------------------------------------------------------------------------------------------


     LOOP+:  cpu time   19.5490: real time   19.7065
    4ORBIT:  cpu time    0.0000: real time    0.0000
 BZINTS: Fermi energy:  3.341282; 36.000000 electrons
         Band energy: -67.737416;  BLOECHL correction:  0.000000

 total amount of memory used by VASP MPI-rank0    68130. kBytes
=======================================================================

   base      :      30000. kBytes
   nonl-proj :      16256. kBytes
   fftplans  :       4588. kBytes
   grid      :       7349. kBytes
   one-center:         46. kBytes
   wavefun   :       9891. kBytes
 
  
  
 General timing and accounting informations for this job:
 ========================================================
  
                  Total CPU time used (sec):       20.908
                            User time (sec):       20.419
                          System time (sec):        0.489
                         Elapsed time (sec):       21.528
  
                   Maximum memory used (kb):       62696.
                   Average memory used (kb):           0.
  
                          Minor page faults:        16102
                          Major page faults:          168
                 Voluntary context switches:         2859
