perl: warning: Setting locale failed.
perl: warning: Please check that your locale settings:
	LANGUAGE = (unset),
	LC_ALL = (unset),
	LC_CTYPE = "UTF-8",
	LANG = "en_US.iso885915"
    are supported and installed on your system.
perl: warning: Falling back to the standard locale ("C").
Starting job 28526454 ("jobname") on c15-30 at Fri Nov 8 00:01:39 CET 2019
 running on    4 total cores
 distrk:  each k-point on    4 cores,    1 groups
 distr:  one band on    2 cores,    2 groups
 using from now: INCAR     
 vasp.5.4.4.18Apr17-6-g9f103f2a35 (build Jun 30 2017 11:15:00) complex          
  
 POSCAR found type information on POSCAR  Mo S 
 POSCAR found :  2 types and       6 ions
 scaLAPACK will be used
 LDA part: xc-table for Pade appr. of Perdew
 POSCAR, INCAR and KPOINTS ok, starting setup
 FFT: planning ...
 WAVECAR not read
 WARNING: random wavefunctions but no delay for mixing, default for NELMDL
 entering main loop
       N       E                     dE             d eps       ncg     rms          rms(c)
DAV:   1     0.260257182183E+03    0.26026E+03   -0.18588E+04   880   0.179E+03
DAV:   2    -0.209258894232E+02   -0.28118E+03   -0.27333E+03  1160   0.316E+02
DAV:   3    -0.460852495556E+02   -0.25159E+02   -0.25043E+02  1176   0.881E+01
DAV:   4    -0.468039589394E+02   -0.71871E+00   -0.71701E+00  1194   0.162E+01
DAV:   5    -0.468244430891E+02   -0.20484E-01   -0.20472E-01  1196   0.274E+00    0.973E+00
RMM:   6    -0.444278062608E+02    0.23966E+01   -0.24076E+01   980   0.197E+01    0.335E+00
RMM:   7    -0.436983875820E+02    0.72942E+00   -0.19208E+00   970   0.563E+00    0.178E+00
RMM:   8    -0.436367441160E+02    0.61643E-01   -0.90942E-01  1011   0.337E+00    0.845E-01
RMM:   9    -0.436271934913E+02    0.95506E-02   -0.30944E-01  1045   0.232E+00    0.593E-01
RMM:  10    -0.436101823852E+02    0.17011E-01   -0.72343E-02  1054   0.116E+00    0.856E-02
RMM:  11    -0.436102094700E+02   -0.27085E-04   -0.34164E-03  1117   0.242E-01    0.311E-02
RMM:  12    -0.436103629830E+02   -0.15351E-03   -0.57812E-04  1135   0.115E-01    0.236E-02
RMM:  13    -0.436103708023E+02   -0.78193E-05   -0.39714E-04  1148   0.825E-02    0.205E-02
RMM:  14    -0.436103540389E+02    0.16763E-04   -0.77624E-05   900   0.396E-02    0.259E-03
RMM:  15    -0.436103543911E+02   -0.35219E-06   -0.94202E-06   684   0.142E-02
 Error reading item 'IVDW' from file INCAR
   1 F= -.43610354E+02 E0= -.43610354E+02  d E =0.000000E+00

Currently Loaded Modulefiles:
  1) Anaconda3/5.1.0       3) vesta/3.3.8           5) intel/2016.1
  2) gnuplot/5.0.4         4) imagemagick/6.7.9-0   6) vasp/5.4.1.Feb16

Job script resource usage:
       JobID  MaxVMSize     MaxRSS 
------------ ---------- ---------- 
28526454.ba+    216888K      1944K 

Job step resource usage:
       JobID    JobName  AllocCPUS  MaxVMSize     MaxRSS    Elapsed ExitCode 
------------ ---------- ---------- ---------- ---------- ---------- -------- 
28526454        jobname          4                         00:00:26      0:0 
28526454.0    pmi_proxy          1    279832K       527K   00:00:25      0:0 

Job 28526454 ("jobname") completed on c15-30 at Fri Nov 8 00:02:04 CET 2019
