<?xml version="1.0" encoding="ISO-8859-1"?>
<modeling>
 <generator>
  <i name="program" type="string">vasp </i>
  <i name="version" type="string">5.4.4.18Apr17-6-g9f103f2a35  </i>
  <i name="subversion" type="string">(build Jun 30 2017 11:15:00) complex            parallel </i>
  <i name="platform" type="string">STALLO_VASP_5.4.4 </i>
  <i name="date" type="string">2019 11 08 </i>
  <i name="time" type="string">11:38:06 </i>
 </generator>
 <incar>
  <i type="string" name="PREC">normal    ! low/normal/accurate</i>
  <i type="string" name="ALGO"> Fast      ! Algorithm for electronic re</i>
  <i type="int" name="ISPIN">     1</i>
  <i type="int" name="NELMIN">     4</i>
  <i name="EDIFF">      0.00001000</i>
  <i type="int" name="NSW">     0</i>
  <i name="ENCUT">    700.00000000</i>
  <i type="logical" name="LREAL"> F  </i>
  <i type="int" name="ISMEAR">    -5</i>
  <i name="SIGMA">      0.20000000</i>
  <i type="logical" name="LWAVE"> F  </i>
  <v type="int" name="KPOINT_BSE">    -1     0     0     0</v>
 </incar>
 <structure name="primitive_cell" >
  <crystal>
   <varray name="basis" >
    <v>       3.19031573       0.00000000       0.00000000 </v>
    <v>      -1.59515786       2.76289447       0.00000000 </v>
    <v>       0.00000000       0.00000000      14.87900430 </v>
   </varray>
   <i name="volume">    131.15106795 </i>
   <varray name="rec_basis" >
    <v>       0.31344860       0.18096963       0.00000000 </v>
    <v>       0.00000000       0.36193927       0.00000000 </v>
    <v>       0.00000000       0.00000000       0.06720880 </v>
   </varray>
  </crystal>
  <varray name="positions" >
   <v>       0.33333300      -0.33333300       0.25000000 </v>
   <v>      -0.33333400       0.33333300       0.35517400 </v>
   <v>      -0.33333300       0.33333300       0.14482600 </v>
   <v>       0.33333300      -0.33333300      -0.14482600 </v>
   <v>       0.33333400      -0.33333300      -0.35517400 </v>
   <v>      -0.33333300       0.33333300      -0.25000000 </v>
  </varray>
 </structure>
 <varray name="primitive_index" >
  <v type="int" >        1 </v>
  <v type="int" >        5 </v>
  <v type="int" >        4 </v>
  <v type="int" >        3 </v>
  <v type="int" >        6 </v>
  <v type="int" >        2 </v>
 </varray>
 <kpoints>
  <generation param="Gamma">
   <v type="int" name="divisions">       8        8        2 </v>
   <v name="usershift">      0.00000000       0.00000000       0.00000000 </v>
   <v name="genvec1">      0.12500000       0.00000000       0.00000000 </v>
   <v name="genvec2">      0.00000000       0.12500000       0.00000000 </v>
   <v name="genvec3">      0.00000000       0.00000000       0.50000000 </v>
   <v name="shift">      0.00000000       0.00000000       0.00000000 </v>
  </generation>
  <varray name="kpointlist" >
   <v>       0.00000000       0.00000000       0.00000000 </v>
   <v>       0.12500000      -0.00000000       0.00000000 </v>
   <v>       0.25000000      -0.00000000       0.00000000 </v>
   <v>       0.37500000      -0.00000000       0.00000000 </v>
   <v>       0.50000000      -0.00000000       0.00000000 </v>
   <v>       0.12500000       0.12500000       0.00000000 </v>
   <v>       0.25000000       0.12500000       0.00000000 </v>
   <v>       0.37500000       0.12500000       0.00000000 </v>
   <v>       0.25000000       0.25000000       0.00000000 </v>
   <v>       0.37500000       0.25000000       0.00000000 </v>
   <v>       0.00000000       0.00000000       0.50000000 </v>
   <v>       0.12500000      -0.00000000       0.50000000 </v>
   <v>       0.25000000      -0.00000000       0.50000000 </v>
   <v>       0.37500000      -0.00000000       0.50000000 </v>
   <v>       0.50000000      -0.00000000       0.50000000 </v>
   <v>       0.12500000       0.12500000       0.50000000 </v>
   <v>       0.25000000       0.12500000       0.50000000 </v>
   <v>       0.37500000       0.12500000       0.50000000 </v>
   <v>       0.25000000       0.25000000       0.50000000 </v>
   <v>       0.37500000       0.25000000       0.50000000 </v>
  </varray>
  <varray name="weights" >
   <v>       0.00781250 </v>
   <v>       0.04687500 </v>
   <v>       0.04687500 </v>
   <v>       0.04687500 </v>
   <v>       0.02343750 </v>
   <v>       0.04687500 </v>
   <v>       0.09375000 </v>
   <v>       0.09375000 </v>
   <v>       0.04687500 </v>
   <v>       0.04687500 </v>
   <v>       0.00781250 </v>
   <v>       0.04687500 </v>
   <v>       0.04687500 </v>
   <v>       0.04687500 </v>
   <v>       0.02343750 </v>
   <v>       0.04687500 </v>
   <v>       0.09375000 </v>
   <v>       0.09375000 </v>
   <v>       0.04687500 </v>
   <v>       0.04687500 </v>
  </varray>
  <varray name="tetrahedronlist"  type="int" >
   <v type="int" >        8        2        2        6       12 </v>
   <v type="int" >        8        1        2        2       12 </v>
   <v type="int" >        4        1        2       11       12 </v>
   <v type="int" >        4        2        6       12       16 </v>
   <v type="int" >        8        2       12       12       16 </v>
   <v type="int" >        8        2       11       12       12 </v>
   <v type="int" >        8        3        6        7       16 </v>
   <v type="int" >        8        2        3        6       16 </v>
   <v type="int" >        4        2        3       12       16 </v>
   <v type="int" >        4        3        7       16       17 </v>
   <v type="int" >        8        3       13       16       17 </v>
   <v type="int" >        8        3       12       13       16 </v>
   <v type="int" >        8        4        7        8       17 </v>
   <v type="int" >        8        3        4        7       17 </v>
   <v type="int" >        4        3        4       13       17 </v>
   <v type="int" >        4        4        8       17       18 </v>
   <v type="int" >        8        4       14       17       18 </v>
   <v type="int" >        8        4       13       14       17 </v>
   <v type="int" >        8        5        8        8       18 </v>
   <v type="int" >        8        4        5        8       18 </v>
   <v type="int" >        4        4        5       14       18 </v>
   <v type="int" >        4        5        8       18       18 </v>
   <v type="int" >        4        5       15       18       18 </v>
   <v type="int" >        8        5       14       15       18 </v>
   <v type="int" >        8        4        7        8       18 </v>
   <v type="int" >        4        4        5       15       18 </v>
   <v type="int" >        4        4        7       17       18 </v>
   <v type="int" >        8        4       14       15       18 </v>
   <v type="int" >        8        3        6        7       17 </v>
   <v type="int" >        4        3        4       14       17 </v>
   <v type="int" >        4        3        6       16       17 </v>
   <v type="int" >        8        3       13       14       17 </v>
   <v type="int" >        4        2        2        6       16 </v>
   <v type="int" >        4        2        3       13       16 </v>
   <v type="int" >        4        2        2       12       16 </v>
   <v type="int" >        8        2       12       13       16 </v>
   <v type="int" >        4        1        2       12       12 </v>
   <v type="int" >        4        1       11       12       12 </v>
   <v type="int" >        8        3        6        7       13 </v>
   <v type="int" >        8        2        3        6       13 </v>
   <v type="int" >        4        2        6       12       13 </v>
   <v type="int" >        4        6        7       13       17 </v>
   <v type="int" >        8        6       13       16       17 </v>
   <v type="int" >        8        6       12       13       16 </v>
   <v type="int" >        8        7        7        9       17 </v>
   <v type="int" >        8        6        7        7       17 </v>
   <v type="int" >        4        6        7       16       17 </v>
   <v type="int" >        4        7        9       17       19 </v>
   <v type="int" >        8        7       17       17       19 </v>
   <v type="int" >        8        7       16       17       17 </v>
   <v type="int" >        8        8        9       10       19 </v>
   <v type="int" >        8        7        8        9       19 </v>
   <v type="int" >        4        7        8       17       19 </v>
   <v type="int" >        4        8       10       19       20 </v>
   <v type="int" >        8        8       18       19       20 </v>
   <v type="int" >        8        8       17       18       19 </v>
   <v type="int" >        8        8        9       10       20 </v>
   <v type="int" >        4        8        8       10       20 </v>
   <v type="int" >        4        8        8       18       20 </v>
   <v type="int" >        4        8        9       19       20 </v>
   <v type="int" >        8        8       18       18       20 </v>
   <v type="int" >        4        7        7        9       19 </v>
   <v type="int" >        4        7        8       18       19 </v>
   <v type="int" >        4        7        7       17       19 </v>
   <v type="int" >        8        7       17       18       19 </v>
   <v type="int" >        4        6        7       17       17 </v>
   <v type="int" >        4        3        6       13       17 </v>
   <v type="int" >        4        6       16       17       17 </v>
   <v type="int" >        4        2        6       13       16 </v>
   <v type="int" >        8        4        7        8       14 </v>
   <v type="int" >        8        3        4        7       14 </v>
   <v type="int" >        4        3        7       13       14 </v>
   <v type="int" >        4        7        8       14       18 </v>
   <v type="int" >        8        7       14       17       18 </v>
   <v type="int" >        8        7       13       14       17 </v>
   <v type="int" >        8        8        9       10       18 </v>
   <v type="int" >        8        7        8        9       18 </v>
   <v type="int" >        4        7        9       17       18 </v>
   <v type="int" >        4        9       10       18       20 </v>
   <v type="int" >        8        9       18       19       20 </v>
   <v type="int" >        8        9       17       18       19 </v>
   <v type="int" >        4       10       10       10       20 </v>
   <v type="int" >        8        9       10       10       20 </v>
   <v type="int" >        4        9       10       19       20 </v>
   <v type="int" >        4       10       10       20       20 </v>
   <v type="int" >        4       10       20       20       20 </v>
   <v type="int" >        8       10       19       20       20 </v>
   <v type="int" >        4        9       10       20       20 </v>
   <v type="int" >        4        8        9       18       20 </v>
   <v type="int" >        4        9       19       20       20 </v>
   <v type="int" >        4        7        9       18       19 </v>
   <v type="int" >        4        4        7       14       18 </v>
   <v type="int" >        4        3        7       14       17 </v>
   <v type="int" >        4        5        8        8       15 </v>
   <v type="int" >        8        4        5        8       15 </v>
   <v type="int" >        4        4        8       14       15 </v>
   <v type="int" >        4        8        8       15       18 </v>
   <v type="int" >        8        8       15       18       18 </v>
   <v type="int" >        8        8       14       15       18 </v>
   <v type="int" >        8        8        8       10       18 </v>
   <v type="int" >        4        8       10       18       18 </v>
   <v type="int" >        4        9       10       18       19 </v>
   <v type="int" >        8       10       18       19       20 </v>
   <v type="int" >        4       10       18       18       20 </v>
   <v type="int" >        4        9       10       10       19 </v>
   <v type="int" >        4       10       10       19       20 </v>
   <v type="int" >        4        8       10       18       19 </v>
   <v type="int" >        4        8       10       18       20 </v>
   <v type="int" >        4        5        8       15       18 </v>
   <v type="int" >        4        4        8       15       18 </v>
   <v type="int" >        8        4        5        8       14 </v>
   <v type="int" >        4        5        8       14       15 </v>
   <v type="int" >        4        7        8       14       17 </v>
   <v type="int" >        8        8       14       17       18 </v>
   <v type="int" >        8        7        8        9       17 </v>
   <v type="int" >        4        8        9       17       18 </v>
   <v type="int" >        4        7        9       17       17 </v>
   <v type="int" >        4        9       17       17       19 </v>
   <v type="int" >        4        8        9       17       19 </v>
   <v type="int" >        4        4        8       14       17 </v>
   <v type="int" >        4        5        8       14       18 </v>
   <v type="int" >        8        3        4        7       13 </v>
   <v type="int" >        4        4        7       13       14 </v>
   <v type="int" >        4        6        7       13       16 </v>
   <v type="int" >        8        7       13       16       17 </v>
   <v type="int" >        4        6        7        7       16 </v>
   <v type="int" >        4        7        7       16       17 </v>
   <v type="int" >        4        3        7       13       16 </v>
   <v type="int" >        4        4        7       13       17 </v>
   <v type="int" >        8        2        3        6       12 </v>
   <v type="int" >        4        3        6       12       13 </v>
   <v type="int" >        4        2        6       12       12 </v>
   <v type="int" >        4        6       12       12       16 </v>
   <v type="int" >        4        3        6       12       16 </v>
   <v type="int" >        4        1        2        2       11 </v>
   <v type="int" >        4        2        2       11       12 </v>
  </varray>
  <i name="volumeweight">      0.00130208 </i>
 </kpoints>
 <parameters>
  <separator name="general" >
   <i type="string" name="SYSTEM">unknown system</i>
   <i type="logical" name="LCOMPAT"> F  </i>
  </separator>
  <separator name="electronic" >
   <i type="string" name="PREC">normal</i>
   <i name="ENMAX">    700.00000000</i>
   <i name="ENAUG">    345.27800000</i>
   <i name="EDIFF">      0.00001000</i>
   <i type="int" name="IALGO">    68</i>
   <i type="int" name="IWAVPR">    10</i>
   <i type="int" name="NBANDS">    22</i>
   <i name="NELECT">     36.00000000</i>
   <i type="int" name="TURBO">     0</i>
   <i type="int" name="IRESTART">     0</i>
   <i type="int" name="NREBOOT">     0</i>
   <i type="int" name="NMIN">     0</i>
   <i name="EREF">      0.00000000</i>
   <separator name="electronic smearing" >
    <i type="int" name="ISMEAR">    -5</i>
    <i name="SIGMA">      0.20000000</i>
    <i name="KSPACING">      0.50000000</i>
    <i type="logical" name="KGAMMA"> T  </i>
   </separator>
   <separator name="electronic projectors" >
    <i type="logical" name="LREAL"> F  </i>
    <v name="ROPT">      0.00000000      0.00000000</v>
    <i type="int" name="LMAXPAW">  -100</i>
    <i type="int" name="LMAXMIX">     2</i>
    <i type="logical" name="NLSPLINE"> F  </i>
   </separator>
   <separator name="electronic startup" >
    <i type="int" name="ISTART">     0</i>
    <i type="int" name="ICHARG">     2</i>
    <i type="int" name="INIWAV">     1</i>
   </separator>
   <separator name="electronic spin" >
    <i type="int" name="ISPIN">     1</i>
    <i type="logical" name="LNONCOLLINEAR"> F  </i>
    <v name="MAGMOM">      1.00000000      1.00000000      1.00000000      1.00000000      1.00000000      1.00000000</v>
    <i name="NUPDOWN">     -1.00000000</i>
    <i type="logical" name="LSORBIT"> F  </i>
    <v name="SAXIS">      0.00000000      0.00000000      1.00000000</v>
    <i type="logical" name="LSPIRAL"> F  </i>
    <v name="QSPIRAL">      0.00000000      0.00000000      0.00000000</v>
    <i type="logical" name="LZEROZ"> F  </i>
   </separator>
   <separator name="electronic exchange-correlation" >
    <i type="logical" name="LASPH"> F  </i>
    <i type="logical" name="LMETAGGA"> F  </i>
   </separator>
   <separator name="electronic convergence" >
    <i type="int" name="NELM">    60</i>
    <i type="int" name="NELMDL">     0</i>
    <i type="int" name="NELMIN">     4</i>
    <i name="ENINI">    700.00000000</i>
    <separator name="electronic convergence detail" >
     <i type="logical" name="LDIAG"> T  </i>
     <i type="logical" name="LSUBROT"> F  </i>
     <i name="WEIMIN">      0.00000000</i>
     <i name="EBREAK">      0.00000011</i>
     <i name="DEPER">      0.30000000</i>
     <i type="int" name="NRMM">     4</i>
     <i name="TIME">      0.40000000</i>
    </separator>
   </separator>
   <separator name="electronic mixer" >
    <i name="AMIX">      0.40000000</i>
    <i name="BMIX">      1.00000000</i>
    <i name="AMIN">      0.10000000</i>
    <i name="AMIX_MAG">      1.60000000</i>
    <i name="BMIX_MAG">      1.00000000</i>
    <separator name="electronic mixer details" >
     <i type="int" name="IMIX">     4</i>
     <i type="logical" name="MIXFIRST"> F  </i>
     <i type="int" name="MAXMIX">   -45</i>
     <i name="WC">    100.00000000</i>
     <i type="int" name="INIMIX">     1</i>
     <i type="int" name="MIXPRE">     1</i>
     <i type="int" name="MREMOVE">     5</i>
    </separator>
   </separator>
   <separator name="electronic dipolcorrection" >
    <i type="logical" name="LDIPOL"> F  </i>
    <i type="logical" name="LMONO"> F  </i>
    <i type="int" name="IDIPOL">     0</i>
    <i name="EPSILON">      1.00000000</i>
    <v name="DIPOL">   -100.00000000   -100.00000000   -100.00000000</v>
    <i name="EFIELD">      0.00000000</i>
   </separator>
  </separator>
  <separator name="grids" >
   <i type="int" name="NGX">    24</i>
   <i type="int" name="NGY">    24</i>
   <i type="int" name="NGZ">    96</i>
   <i type="int" name="NGXF">    48</i>
   <i type="int" name="NGYF">    48</i>
   <i type="int" name="NGZF">   192</i>
   <i type="logical" name="ADDGRID"> F  </i>
  </separator>
  <separator name="ionic" >
   <i type="int" name="NSW">     0</i>
   <i type="int" name="IBRION">    -1</i>
   <i type="int" name="MDALGO">     0</i>
   <i type="int" name="ISIF">     2</i>
   <i name="PSTRESS">      0.00000000</i>
   <i name="EDIFFG">      0.00010000</i>
   <i type="int" name="NFREE">     0</i>
   <i name="POTIM">      0.50000000</i>
   <i name="SMASS">     -3.00000000</i>
   <i name="SCALEE">      1.00000000</i>
  </separator>
  <separator name="ionic md" >
   <i name="TEBEG">      0.00010000</i>
   <i name="TEEND">      0.00010000</i>
   <i type="int" name="NBLOCK">     1</i>
   <i type="int" name="KBLOCK">     1</i>
   <i type="int" name="NPACO">   256</i>
   <i name="APACO">     16.00000000</i>
  </separator>
  <separator name="symmetry" >
   <i type="int" name="ISYM">     2</i>
   <i name="SYMPREC">      0.00001000</i>
  </separator>
  <separator name="dos" >
   <i type="int" name="LORBIT">     0</i>
   <v name="RWIGS">     -1.00000000     -1.00000000</v>
   <i type="int" name="NEDOS">   301</i>
   <i name="EMIN">     10.00000000</i>
   <i name="EMAX">    -10.00000000</i>
   <i name="EFERMI">      0.00000000</i>
  </separator>
  <separator name="writing" >
   <i type="int" name="NWRITE">     2</i>
   <i type="logical" name="LWAVE"> F  </i>
   <i type="logical" name="LDOWNSAMPLE"> F  </i>
   <i type="logical" name="LCHARG"> T  </i>
   <i type="logical" name="LPARD"> F  </i>
   <i type="logical" name="LVTOT"> F  </i>
   <i type="logical" name="LVHAR"> F  </i>
   <i type="logical" name="LELF"> F  </i>
   <i type="logical" name="LOPTICS"> F  </i>
   <v name="STM">      0.00000000      0.00000000      0.00000000      0.00000000      0.00000000      0.00000000      0.00000000</v>
  </separator>
  <separator name="performance" >
   <i type="int" name="NPAR">     2</i>
   <i type="int" name="NSIM">     4</i>
   <i type="int" name="NBLK">    -1</i>
   <i type="logical" name="LPLANE"> T  </i>
   <i type="logical" name="LSCALAPACK"> T  </i>
   <i type="logical" name="LSCAAWARE"> F  </i>
   <i type="logical" name="LSCALU"> F  </i>
   <i type="logical" name="LASYNC"> F  </i>
   <i type="logical" name="LORBITALREAL"> F  </i>
  </separator>
  <separator name="miscellaneous" >
   <i type="int" name="IDIOT">     3</i>
   <i type="int" name="ISPECIAL">     0</i>
   <i type="logical" name="LMUSIC"> F  </i>
   <v name="POMASS">     95.94000000     32.06600000</v>
   <v name="DARWINR">      0.00000000      0.00000000</v>
   <v name="DARWINV">      1.00000000      1.00000000</v>
   <i type="logical" name="LCORR"> T  </i>
  </separator>
  <i type="logical" name="GGA_COMPAT"> T  </i>
  <i type="logical" name="LBERRY"> F  </i>
  <i type="int" name="ICORELEVEL">     0</i>
  <i type="logical" name="LDAU"> F  </i>
  <i type="int" name="I_CONSTRAINED_M">     0</i>
  <separator name="electronic exchange-correlation" >
   <i type="string" name="GGA">--</i>
   <i type="int" name="VOSKOWN">     0</i>
   <i type="logical" name="LHFCALC"> F  </i>
   <i type="string" name="PRECFOCK"></i>
   <i type="logical" name="LSYMGRAD"> F  </i>
   <i type="logical" name="LHFONE"> F  </i>
   <i type="logical" name="LRHFCALC"> F  </i>
   <i type="logical" name="LTHOMAS"> F  </i>
   <i type="logical" name="LMODELHF"> F  </i>
   <i name="ENCUT4O">     -1.00000000</i>
   <i type="int" name="EXXOEP">     0</i>
   <i type="int" name="FOURORBIT">     0</i>
   <i name="AEXX">      0.00000000</i>
   <i name="HFALPHA">      0.00000000</i>
   <i name="MCALPHA">      0.00000000</i>
   <i name="ALDAX">      1.00000000</i>
   <i name="AGGAX">      1.00000000</i>
   <i name="ALDAC">      1.00000000</i>
   <i name="AGGAC">      1.00000000</i>
   <i type="int" name="NKREDX">     1</i>
   <i type="int" name="NKREDY">     1</i>
   <i type="int" name="NKREDZ">     1</i>
   <i type="logical" name="SHIFTRED"> F  </i>
   <i type="logical" name="ODDONLY"> F  </i>
   <i type="logical" name="EVENONLY"> F  </i>
   <i type="int" name="LMAXFOCK">     0</i>
   <i type="int" name="NMAXFOCKAE">     0</i>
   <i type="logical" name="LFOCKAEDFT"> F  </i>
   <i name="HFSCREEN">      0.00000000</i>
   <i name="HFSCREENC">      0.00000000</i>
   <i type="int" name="NBANDSGWLOW">     0</i>
  </separator>
  <separator name="vdW DFT" >
   <i type="logical" name="LUSE_VDW"> F  </i>
   <i name="Zab_VDW">     -0.84910000</i>
   <i name="PARAM1">      0.12340000</i>
   <i name="PARAM2">      1.00000000</i>
   <i name="PARAM3">      0.00000000</i>
  </separator>
  <separator name="model GW" >
   <i type="int" name="MODEL_GW">     0</i>
   <i name="MODEL_EPS0">     13.11510680</i>
   <i name="MODEL_ALPHA">      1.00000000</i>
  </separator>
  <separator name="linear response parameters" >
   <i type="logical" name="LEPSILON"> F  </i>
   <i type="logical" name="LRPA"> F  </i>
   <i type="logical" name="LNABLA"> F  </i>
   <i type="logical" name="LVEL"> F  </i>
   <i type="int" name="KINTER">     0</i>
   <i name="CSHIFT">      0.10000000</i>
   <i name="OMEGAMAX">     -1.00000000</i>
   <i name="DEG_THRESHOLD">      0.00200000</i>
   <i name="RTIME">     -0.10000000</i>
   <i name="WPLASMAI">      0.00000000</i>
   <v name="DFIELD">      0.00000000      0.00000000      0.00000000</v>
   <v name="WPLASMA">      0.00000000      0.00000000      0.00000000      0.00000000      0.00000000      0.00000000      0.00000000      0.00000000      0.00000000</v>
  </separator>
  <separator name="orbital magnetization" >
   <i type="logical" name="NUCIND"> F  </i>
   <v name="MAGPOS">      0.00000000      0.00000000      0.00000000</v>
   <i type="logical" name="LNICSALL"> T  </i>
   <i type="logical" name="ORBITALMAG"> F  </i>
   <i type="logical" name="LMAGBLOCH"> F  </i>
   <i type="logical" name="LCHIMAG"> F  </i>
   <i type="logical" name="LGAUGE"> T  </i>
   <i type="int" name="MAGATOM">     0</i>
   <v name="MAGDIPOL">      0.00000000      0.00000000      0.00000000</v>
   <v name="AVECCONST">      0.00000000      0.00000000      0.00000000</v>
  </separator>
  <separator name="response functions" >
   <i type="logical" name="LADDER"> F  </i>
   <i type="logical" name="LRPAFORCE"> F  </i>
   <i type="logical" name="LFXC"> F  </i>
   <i type="logical" name="LHARTREE"> T  </i>
   <i type="int" name="IBSE">     0</i>
   <v type="int" name="KPOINT">    -1     0     0     0</v>
   <i type="logical" name="LTCTE"> F  </i>
   <i type="logical" name="LTETE"> F  </i>
   <i type="logical" name="LTRIPLET"> F  </i>
   <i type="logical" name="LFXCEPS"> F  </i>
   <i type="logical" name="LFXHEG"> F  </i>
   <i type="int" name="NATURALO">     2</i>
   <i type="logical" name="L2ORDER"> F  </i>
   <i type="logical" name="LMP2LT"> F  </i>
   <i type="logical" name="LUSEW"> F  </i>
   <i name="ENCUTGW">     -2.00000000</i>
   <i name="ENCUTGWSOFT">     -2.00000000</i>
   <i name="ENCUTLF">     -1.00000000</i>
   <i type="int" name="LMAXMP2">    -1</i>
   <i name="SCISSOR">      0.00000000</i>
   <i type="int" name="NOMEGA">     0</i>
   <i type="int" name="NOMEGAR">     0</i>
   <i type="int" name="NBANDSGW">    -1</i>
   <i type="int" name="NBANDSO">    -1</i>
   <i type="int" name="NBANDSV">    -1</i>
   <i type="int" name="NELM">     1</i>
   <i type="int" name="NELMHF">     1</i>
   <i type="int" name="DIM">     3</i>
   <i type="int" name="ANTIRES">     0</i>
   <i name="OMEGAMAX">    -30.00000000</i>
   <i name="OMEGAMIN">    -30.00000000</i>
   <i name="OMEGATL">   -200.00000000</i>
   <i type="int" name="OMEGAGRID">   140</i>
   <i name="CSHIFT">     -0.10000000</i>
   <i type="logical" name="SELFENERGY"> F  </i>
   <i type="logical" name="LSPECTRAL"> F  </i>
   <i type="logical" name="LSPECTRALGW"> F  </i>
   <i type="logical" name="LSINGLES"> F  </i>
   <i type="logical" name="LFERMIGW"> F  </i>
   <i type="logical" name="ODDONLYGW"> F  </i>
   <i type="logical" name="EVENONLYGW"> F  </i>
   <i type="int" name="NKREDLFX">     1</i>
   <i type="int" name="NKREDLFY">     1</i>
   <i type="int" name="NKREDLFZ">     1</i>
   <i type="int" name="MAXMEM">  2800</i>
   <i type="int" name="TELESCOPE">     0</i>
   <i type="int" name="TAUPAR">     1</i>
   <i type="int" name="OMEGAPAR">    -1</i>
   <i name="LAMBDA">      1.00000000</i>
  </separator>
  <separator name="External order field" >
   <i name="OFIELD_KAPPA">      0.00000000</i>
   <v name="OFIELD_K">      0.00000000      0.00000000      0.00000000</v>
   <i name="OFIELD_Q6_NEAR">      0.00000000</i>
   <i name="OFIELD_Q6_FAR">      0.00000000</i>
   <i name="OFIELD_A">      0.00000000</i>
  </separator>
 </parameters>
 <atominfo>
  <atoms>       6 </atoms>
  <types>       2 </types>
  <array name="atoms" >
   <dimension dim="1">ion</dimension>
   <field type="string">element</field>
   <field type="int">atomtype</field>
   <set>
    <rc><c>Mo</c><c>   1</c></rc>
    <rc><c>Mo</c><c>   1</c></rc>
    <rc><c>S </c><c>   2</c></rc>
    <rc><c>S </c><c>   2</c></rc>
    <rc><c>S </c><c>   2</c></rc>
    <rc><c>S </c><c>   2</c></rc>
   </set>
  </array>
  <array name="atomtypes" >
   <dimension dim="1">type</dimension>
   <field type="int">atomspertype</field>
   <field type="string">element</field>
   <field>mass</field>
   <field>valence</field>
   <field type="string">pseudopotential</field>
   <set>
    <rc><c>   2</c><c>Mo</c><c>     95.94000000</c><c>      6.00000000</c><c> PAW_PBE Mo 08Apr2002                   </c></rc>
    <rc><c>   4</c><c>S </c><c>     32.06600000</c><c>      6.00000000</c><c>  PAW_PBE S 17Jan2003                   </c></rc>
   </set>
  </array>
 </atominfo>
 <structure name="initialpos" >
  <crystal>
   <varray name="basis" >
    <v>       3.19031573       0.00000000       0.00000000 </v>
    <v>      -1.59515786       2.76289447       0.00000000 </v>
    <v>       0.00000000       0.00000000      14.87900430 </v>
   </varray>
   <i name="volume">    131.15106795 </i>
   <varray name="rec_basis" >
    <v>       0.31344860       0.18096963       0.00000000 </v>
    <v>       0.00000000       0.36193927       0.00000000 </v>
    <v>       0.00000000       0.00000000       0.06720880 </v>
   </varray>
  </crystal>
  <varray name="positions" >
   <v>       0.33333300       0.66666700       0.25000000 </v>
   <v>       0.66666700       0.33333300       0.75000000 </v>
   <v>       0.33333300       0.66666700       0.85517400 </v>
   <v>       0.66666700       0.33333300       0.14482600 </v>
   <v>       0.66666600       0.33333300       0.35517400 </v>
   <v>       0.33333400       0.66666700       0.64482600 </v>
  </varray>
 </structure>
 <calculation>
  <scstep>
   <time name="dav">    0.96    0.96</time>
   <time name="total">    1.04    1.08</time>
   <energy>
    <i name="alphaZ">     90.42577596 </i>
    <i name="ewald">  -1146.88905665 </i>
    <i name="hartreedc">   -535.10238363 </i>
    <i name="XCdc">    -72.59367951 </i>
    <i name="pawpsdc">    813.77302396 </i>
    <i name="pawaedc">   -658.68146406 </i>
    <i name="eentropy">      0.00000000 </i>
    <i name="bandstr">    227.00082370 </i>
    <i name="atom">   1542.32414240 </i>
    <i name="e_fr_energy">    260.25718218 </i>
    <i name="e_wo_entrp">    260.25718218 </i>
    <i name="e_0_energy">    260.25718218 </i>
   </energy>
  </scstep>
  <scstep>
   <time name="dav">    1.17    1.18</time>
   <time name="total">    1.17    1.18</time>
   <energy>
    <i name="e_fr_energy">    -20.92588942 </i>
    <i name="e_wo_entrp">    -20.92588942 </i>
    <i name="e_0_energy">    -20.92588942 </i>
   </energy>
  </scstep>
  <scstep>
   <time name="dav">    1.19    1.19</time>
   <time name="total">    1.19    1.19</time>
   <energy>
    <i name="e_fr_energy">    -46.08524956 </i>
    <i name="e_wo_entrp">    -46.08524956 </i>
    <i name="e_0_energy">    -46.08524956 </i>
   </energy>
  </scstep>
  <scstep>
   <time name="dav">    1.20    1.20</time>
   <time name="total">    1.20    1.20</time>
   <energy>
    <i name="e_fr_energy">    -46.80395894 </i>
    <i name="e_wo_entrp">    -46.80395894 </i>
    <i name="e_0_energy">    -46.80395894 </i>
   </energy>
  </scstep>
  <scstep>
   <time name="dav">    1.20    1.20</time>
   <time name="total">    1.28    1.29</time>
   <energy>
    <i name="e_fr_energy">    -46.82444309 </i>
    <i name="e_wo_entrp">    -46.82444309 </i>
    <i name="e_0_energy">    -46.82444309 </i>
   </energy>
  </scstep>
  <scstep>
   <time name="diag">    0.17    0.18</time>
   <time name="diis">    0.85    0.85</time>
   <time name="orth">    0.02    0.02</time>
   <time name="total">    1.19    1.19</time>
   <energy>
    <i name="e_fr_energy">    -44.42780626 </i>
    <i name="e_wo_entrp">    -44.42780626 </i>
    <i name="e_0_energy">    -44.42780626 </i>
   </energy>
  </scstep>
  <scstep>
   <time name="diag">    0.17    0.18</time>
   <time name="diis">    0.84    0.84</time>
   <time name="orth">    0.02    0.02</time>
   <time name="total">    1.18    1.18</time>
   <energy>
    <i name="e_fr_energy">    -43.69838758 </i>
    <i name="e_wo_entrp">    -43.69838758 </i>
    <i name="e_0_energy">    -43.69838758 </i>
   </energy>
  </scstep>
  <scstep>
   <time name="diag">    0.17    0.18</time>
   <time name="diis">    0.87    0.87</time>
   <time name="orth">    0.02    0.02</time>
   <time name="total">    1.21    1.22</time>
   <energy>
    <i name="e_fr_energy">    -43.63674412 </i>
    <i name="e_wo_entrp">    -43.63674412 </i>
    <i name="e_0_energy">    -43.63674412 </i>
   </energy>
  </scstep>
  <scstep>
   <time name="diag">    0.17    0.18</time>
   <time name="diis">    0.90    0.90</time>
   <time name="orth">    0.02    0.02</time>
   <time name="total">    1.25    1.25</time>
   <energy>
    <i name="e_fr_energy">    -43.62719349 </i>
    <i name="e_wo_entrp">    -43.62719349 </i>
    <i name="e_0_energy">    -43.62719349 </i>
   </energy>
  </scstep>
  <scstep>
   <time name="diag">    0.17    0.17</time>
   <time name="diis">    0.91    0.91</time>
   <time name="orth">    0.02    0.02</time>
   <time name="total">    1.25    1.26</time>
   <energy>
    <i name="e_fr_energy">    -43.61018239 </i>
    <i name="e_wo_entrp">    -43.61018239 </i>
    <i name="e_0_energy">    -43.61018239 </i>
   </energy>
  </scstep>
  <scstep>
   <time name="diag">    0.17    0.17</time>
   <time name="diis">    0.95    0.95</time>
   <time name="orth">    0.02    0.02</time>
   <time name="total">    1.29    1.29</time>
   <energy>
    <i name="e_fr_energy">    -43.61020947 </i>
    <i name="e_wo_entrp">    -43.61020947 </i>
    <i name="e_0_energy">    -43.61020947 </i>
   </energy>
  </scstep>
  <scstep>
   <time name="diag">    0.17    0.17</time>
   <time name="diis">    0.95    0.95</time>
   <time name="orth">    0.02    0.02</time>
   <time name="total">    1.30    1.30</time>
   <energy>
    <i name="e_fr_energy">    -43.61036298 </i>
    <i name="e_wo_entrp">    -43.61036298 </i>
    <i name="e_0_energy">    -43.61036298 </i>
   </energy>
  </scstep>
  <scstep>
   <time name="diag">    0.17    0.17</time>
   <time name="diis">    0.97    0.97</time>
   <time name="orth">    0.02    0.02</time>
   <time name="total">    1.31    1.31</time>
   <energy>
    <i name="e_fr_energy">    -43.61037080 </i>
    <i name="e_wo_entrp">    -43.61037080 </i>
    <i name="e_0_energy">    -43.61037080 </i>
   </energy>
  </scstep>
  <scstep>
   <time name="diag">    0.17    0.17</time>
   <time name="diis">    0.77    0.77</time>
   <time name="orth">    0.02    0.02</time>
   <time name="total">    1.12    1.12</time>
   <energy>
    <i name="e_fr_energy">    -43.61035404 </i>
    <i name="e_wo_entrp">    -43.61035404 </i>
    <i name="e_0_energy">    -43.61035404 </i>
   </energy>
  </scstep>
  <scstep>
   <time name="diag">    0.17    0.17</time>
   <time name="diis">    0.61    0.61</time>
   <time name="orth">    0.02    0.02</time>
   <time name="total">    0.87    0.88</time>
   <energy>
    <i name="alphaZ">     90.42577596 </i>
    <i name="ewald">  -1146.88905665 </i>
    <i name="hartreedc">   -542.96541218 </i>
    <i name="XCdc">    -70.38604577 </i>
    <i name="pawpsdc">    943.58062849 </i>
    <i name="pawaedc">   -791.96297023 </i>
    <i name="eentropy">      0.00000000 </i>
    <i name="bandstr">    -67.73741642 </i>
    <i name="atom">   1542.32414240 </i>
    <i name="e_fr_energy">    -43.61035439 </i>
    <i name="e_wo_entrp">    -43.61035439 </i>
    <i name="e_0_energy">    -43.61035439 </i>
   </energy>
  </scstep>
  <structure>
   <crystal>
    <varray name="basis" >
     <v>       3.19031573       0.00000000       0.00000000 </v>
     <v>      -1.59515786       2.76289447       0.00000000 </v>
     <v>       0.00000000       0.00000000      14.87900430 </v>
    </varray>
    <i name="volume">    131.15106795 </i>
    <varray name="rec_basis" >
     <v>       0.31344860       0.18096963       0.00000000 </v>
     <v>       0.00000000       0.36193927       0.00000000 </v>
     <v>       0.00000000       0.00000000       0.06720880 </v>
    </varray>
   </crystal>
   <varray name="positions" >
    <v>       0.33333300       0.66666700       0.25000000 </v>
    <v>       0.66666700       0.33333300       0.75000000 </v>
    <v>       0.33333300       0.66666700       0.85517400 </v>
    <v>       0.66666700       0.33333300       0.14482600 </v>
    <v>       0.66666600       0.33333300       0.35517400 </v>
    <v>       0.33333400       0.66666700       0.64482600 </v>
   </varray>
  </structure>
  <varray name="forces" >
   <v>       0.00000000      -0.00000000      -0.00000000 </v>
   <v>      -0.00000000       0.00000000      -0.00000000 </v>
   <v>       0.00000000       0.00000000      -0.08532229 </v>
   <v>      -0.00000000      -0.00000000       0.08532229 </v>
   <v>      -0.00000000      -0.00000000      -0.08532229 </v>
   <v>       0.00000000       0.00000000       0.08532229 </v>
  </varray>
  <varray name="stress" >
   <v>      -4.57573024       0.00000000      -0.00000000 </v>
   <v>       0.00000000      -4.57573024      -0.00000000 </v>
   <v>      -0.00000000      -0.00000000     -16.02418917 </v>
  </varray>
  <energy>
   <i name="e_fr_energy">    -44.94164141 </i>
   <i name="e_wo_entrp">    -44.94164141 </i>
   <i name="e_0_energy">      0.00000000 </i>
  </energy>
  <time name="totalsc">   19.55   19.71</time>
  <eigenvalues>
   <array>
    <dimension dim="1">band</dimension>
    <dimension dim="2">kpoint</dimension>
    <dimension dim="3">spin</dimension>
    <field>eigene</field>
    <field>occ</field>
    <set>
     <set comment="spin 1">
      <set comment="kpoint 1">
       <r>  -10.9295    1.0000 </r>
       <r>  -10.9105    1.0000 </r>
       <r>   -9.7290    1.0000 </r>
       <r>   -9.6951    1.0000 </r>
       <r>   -2.5236    1.0000 </r>
       <r>   -2.3622    1.0000 </r>
       <r>    0.5195    1.0000 </r>
       <r>    0.5195    1.0000 </r>
       <r>    0.5200    1.0000 </r>
       <r>    0.5201    1.0000 </r>
       <r>    1.1060    1.0000 </r>
       <r>    1.6244    1.0000 </r>
       <r>    1.6245    1.0000 </r>
       <r>    1.6264    1.0000 </r>
       <r>    1.6264    1.0000 </r>
       <r>    1.6744    1.0000 </r>
       <r>    2.9224    1.0000 </r>
       <r>    3.2981    1.0000 </r>
       <r>    5.8798    0.0000 </r>
       <r>    5.8912    0.0000 </r>
       <r>    5.9405    0.0000 </r>
       <r>    6.0716    0.0000 </r>
      </set>
      <set comment="kpoint 2">
       <r>  -10.7152    1.0000 </r>
       <r>  -10.6966    1.0000 </r>
       <r>   -9.6254    1.0000 </r>
       <r>   -9.5939    1.0000 </r>
       <r>   -2.2778    1.0000 </r>
       <r>   -2.1189    1.0000 </r>
       <r>    0.0550    1.0000 </r>
       <r>    0.0577    1.0000 </r>
       <r>    0.4564    1.0000 </r>
       <r>    0.6725    1.0000 </r>
       <r>    0.7536    1.0000 </r>
       <r>    0.7548    1.0000 </r>
       <r>    1.2884    1.0000 </r>
       <r>    1.2910    1.0000 </r>
       <r>    1.9305    1.0000 </r>
       <r>    2.2144    1.0000 </r>
       <r>    2.8432    1.0000 </r>
       <r>    3.0852    1.0000 </r>
       <r>    5.5197    0.0000 </r>
       <r>    5.6431    0.0000 </r>
       <r>    5.7248    0.0000 </r>
       <r>    5.8261    0.0000 </r>
      </set>
      <set comment="kpoint 3">
       <r>  -10.1455    1.0000 </r>
       <r>  -10.1288    1.0000 </r>
       <r>   -9.3530    1.0000 </r>
       <r>   -9.3286    1.0000 </r>
       <r>   -1.8879    1.0000 </r>
       <r>   -1.7770    1.0000 </r>
       <r>   -0.6916    1.0000 </r>
       <r>   -0.6481    1.0000 </r>
       <r>   -0.4614    1.0000 </r>
       <r>   -0.3599    1.0000 </r>
       <r>    0.6529    1.0000 </r>
       <r>    0.6564    1.0000 </r>
       <r>    1.3396    1.0000 </r>
       <r>    1.3431    1.0000 </r>
       <r>    1.7040    1.0000 </r>
       <r>    1.9127    1.0000 </r>
       <r>    2.3696    1.0000 </r>
       <r>    2.4181    1.0000 </r>
       <r>    5.1190    0.0000 </r>
       <r>    5.4379    0.0000 </r>
       <r>    5.4511    0.0000 </r>
       <r>    5.5140    0.0000 </r>
      </set>
      <set comment="kpoint 4">
       <r>   -9.4679    1.0000 </r>
       <r>   -9.4561    1.0000 </r>
       <r>   -9.0395    1.0000 </r>
       <r>   -9.0252    1.0000 </r>
       <r>   -2.2854    1.0000 </r>
       <r>   -2.2507    1.0000 </r>
       <r>   -1.2977    1.0000 </r>
       <r>   -1.2547    1.0000 </r>
       <r>   -0.8466    1.0000 </r>
       <r>   -0.7616    1.0000 </r>
       <r>    0.1554    1.0000 </r>
       <r>    0.1593    1.0000 </r>
       <r>    1.3419    1.0000 </r>
       <r>    1.4495    1.0000 </r>
       <r>    1.9277    1.0000 </r>
       <r>    1.9363    1.0000 </r>
       <r>    2.1733    1.0000 </r>
       <r>    2.2240    1.0000 </r>
       <r>    5.2594    0.0000 </r>
       <r>    5.2684    0.0000 </r>
       <r>    5.4544    0.0000 </r>
       <r>    5.6335    0.0000 </r>
      </set>
      <set comment="kpoint 5">
       <r>   -9.1370    1.0000 </r>
       <r>   -9.1305    1.0000 </r>
       <r>   -8.8923    1.0000 </r>
       <r>   -8.8858    1.0000 </r>
       <r>   -2.6138    1.0000 </r>
       <r>   -2.5868    1.0000 </r>
       <r>   -1.6529    1.0000 </r>
       <r>   -1.6284    1.0000 </r>
       <r>   -0.9684    1.0000 </r>
       <r>   -0.8925    1.0000 </r>
       <r>   -0.0253    1.0000 </r>
       <r>   -0.0212    1.0000 </r>
       <r>    1.2465    1.0000 </r>
       <r>    1.2660    1.0000 </r>
       <r>    2.1531    1.0000 </r>
       <r>    2.1652    1.0000 </r>
       <r>    2.4769    1.0000 </r>
       <r>    2.4807    1.0000 </r>
       <r>    5.2842    0.0000 </r>
       <r>    5.2880    0.0000 </r>
       <r>    5.7746    0.0000 </r>
       <r>    5.8311    0.0000 </r>
      </set>
      <set comment="kpoint 6">
       <r>  -10.3218    1.0000 </r>
       <r>  -10.3043    1.0000 </r>
       <r>   -9.4359    1.0000 </r>
       <r>   -9.4092    1.0000 </r>
       <r>   -1.9210    1.0000 </r>
       <r>   -1.7813    1.0000 </r>
       <r>   -0.5138    1.0000 </r>
       <r>   -0.5012    1.0000 </r>
       <r>   -0.0652    1.0000 </r>
       <r>    0.0768    1.0000 </r>
       <r>    0.4638    1.0000 </r>
       <r>    0.4899    1.0000 </r>
       <r>    1.0929    1.0000 </r>
       <r>    1.0946    1.0000 </r>
       <r>    2.0957    1.0000 </r>
       <r>    2.2980    1.0000 </r>
       <r>    2.5519    1.0000 </r>
       <r>    2.6275    1.0000 </r>
       <r>    5.0622    0.0000 </r>
       <r>    5.3234    0.0000 </r>
       <r>    5.5257    0.0000 </r>
       <r>    5.5690    0.0000 </r>
      </set>
      <set comment="kpoint 7">
       <r>   -9.6865    1.0000 </r>
       <r>   -9.6724    1.0000 </r>
       <r>   -9.1331    1.0000 </r>
       <r>   -9.1149    1.0000 </r>
       <r>   -1.9396    1.0000 </r>
       <r>   -1.8866    1.0000 </r>
       <r>   -0.9512    1.0000 </r>
       <r>   -0.9200    1.0000 </r>
       <r>   -0.7085    1.0000 </r>
       <r>   -0.6350    1.0000 </r>
       <r>   -0.0668    1.0000 </r>
       <r>    0.0079    1.0000 </r>
       <r>    1.1902    1.0000 </r>
       <r>    1.1961    1.0000 </r>
       <r>    1.7872    1.0000 </r>
       <r>    1.8735    1.0000 </r>
       <r>    2.3022    1.0000 </r>
       <r>    2.3120    1.0000 </r>
       <r>    4.9959    0.0000 </r>
       <r>    5.2121    0.0000 </r>
       <r>    5.5280    0.0000 </r>
       <r>    5.6260    0.0000 </r>
      </set>
      <set comment="kpoint 8">
       <r>   -9.1528    1.0000 </r>
       <r>   -9.1451    1.0000 </r>
       <r>   -8.8842    1.0000 </r>
       <r>   -8.8759    1.0000 </r>
       <r>   -2.3265    1.0000 </r>
       <r>   -2.2996    1.0000 </r>
       <r>   -1.7023    1.0000 </r>
       <r>   -1.6932    1.0000 </r>
       <r>   -0.8380    1.0000 </r>
       <r>   -0.7674    1.0000 </r>
       <r>   -0.0673    1.0000 </r>
       <r>   -0.0249    1.0000 </r>
       <r>    1.1999    1.0000 </r>
       <r>    1.2162    1.0000 </r>
       <r>    1.3283    1.0000 </r>
       <r>    1.3666    1.0000 </r>
       <r>    2.6245    1.0000 </r>
       <r>    2.6428    1.0000 </r>
       <r>    5.2706    0.0000 </r>
       <r>    5.3348    0.0000 </r>
       <r>    5.7837    0.0000 </r>
       <r>    5.8596    0.0000 </r>
      </set>
      <set comment="kpoint 9">
       <r>   -9.1683    1.0000 </r>
       <r>   -9.1596    1.0000 </r>
       <r>   -8.8760    1.0000 </r>
       <r>   -8.8661    1.0000 </r>
       <r>   -1.9672    1.0000 </r>
       <r>   -1.9387    1.0000 </r>
       <r>   -1.7537    1.0000 </r>
       <r>   -1.7426    1.0000 </r>
       <r>   -0.4881    1.0000 </r>
       <r>   -0.4637    1.0000 </r>
       <r>   -0.1393    1.0000 </r>
       <r>   -0.0510    1.0000 </r>
       <r>    0.2146    1.0000 </r>
       <r>    0.2372    1.0000 </r>
       <r>    1.4762    1.0000 </r>
       <r>    1.4869    1.0000 </r>
       <r>    2.6005    1.0000 </r>
       <r>    2.6103    1.0000 </r>
       <r>    5.1854    0.0000 </r>
       <r>    5.3134    0.0000 </r>
       <r>    5.8569    0.0000 </r>
       <r>    6.1519    0.0000 </r>
      </set>
      <set comment="kpoint 10">
       <r>   -8.9306    1.0000 </r>
       <r>   -8.9275    1.0000 </r>
       <r>   -8.7535    1.0000 </r>
       <r>   -8.7503    1.0000 </r>
       <r>   -2.1379    1.0000 </r>
       <r>   -2.1272    1.0000 </r>
       <r>   -1.7918    1.0000 </r>
       <r>   -1.7756    1.0000 </r>
       <r>   -0.7781    1.0000 </r>
       <r>   -0.7409    1.0000 </r>
       <r>   -0.1070    1.0000 </r>
       <r>   -0.0861    1.0000 </r>
       <r>    0.1069    1.0000 </r>
       <r>    0.1579    1.0000 </r>
       <r>    1.0756    1.0000 </r>
       <r>    1.1155    1.0000 </r>
       <r>    2.9621    1.0000 </r>
       <r>    2.9832    1.0000 </r>
       <r>    4.9235    0.0000 </r>
       <r>    4.9325    0.0000 </r>
       <r>    6.1664    0.0000 </r>
       <r>    6.3240    0.0000 </r>
      </set>
      <set comment="kpoint 11">
       <r>  -10.9201    1.0000 </r>
       <r>  -10.9201    1.0000 </r>
       <r>   -9.7119    1.0000 </r>
       <r>   -9.7119    1.0000 </r>
       <r>   -2.4457    1.0000 </r>
       <r>   -2.4456    1.0000 </r>
       <r>    0.5198    1.0000 </r>
       <r>    0.5198    1.0000 </r>
       <r>    0.5198    1.0000 </r>
       <r>    0.5198    1.0000 </r>
       <r>    1.3628    1.0000 </r>
       <r>    1.3628    1.0000 </r>
       <r>    1.6254    1.0000 </r>
       <r>    1.6254    1.0000 </r>
       <r>    1.6254    1.0000 </r>
       <r>    1.6254    1.0000 </r>
       <r>    3.1409    1.0000 </r>
       <r>    3.1409    1.0000 </r>
       <r>    5.8742    0.0000 </r>
       <r>    5.9004    0.0000 </r>
       <r>    5.9607    0.0000 </r>
       <r>    6.0933    0.0000 </r>
      </set>
      <set comment="kpoint 12">
       <r>  -10.7060    1.0000 </r>
       <r>  -10.7060    1.0000 </r>
       <r>   -9.6095    1.0000 </r>
       <r>   -9.6095    1.0000 </r>
       <r>   -2.2014    1.0000 </r>
       <r>   -2.2014    1.0000 </r>
       <r>    0.0561    1.0000 </r>
       <r>    0.0561    1.0000 </r>
       <r>    0.5711    1.0000 </r>
       <r>    0.5711    1.0000 </r>
       <r>    0.7542    1.0000 </r>
       <r>    0.7542    1.0000 </r>
       <r>    1.2897    1.0000 </r>
       <r>    1.2897    1.0000 </r>
       <r>    2.0427    1.0000 </r>
       <r>    2.0427    1.0000 </r>
       <r>    2.9902    1.0000 </r>
       <r>    2.9902    1.0000 </r>
       <r>    5.5804    0.0000 </r>
       <r>    5.6004    0.0000 </r>
       <r>    5.7299    0.0000 </r>
       <r>    5.7994    0.0000 </r>
      </set>
      <set comment="kpoint 13">
       <r>  -10.1372    1.0000 </r>
       <r>  -10.1372    1.0000 </r>
       <r>   -9.3407    1.0000 </r>
       <r>   -9.3407    1.0000 </r>
       <r>   -1.8343    1.0000 </r>
       <r>   -1.8343    1.0000 </r>
       <r>   -0.6755    1.0000 </r>
       <r>   -0.6755    1.0000 </r>
       <r>   -0.4027    1.0000 </r>
       <r>   -0.4027    1.0000 </r>
       <r>    0.6547    1.0000 </r>
       <r>    0.6547    1.0000 </r>
       <r>    1.3414    1.0000 </r>
       <r>    1.3414    1.0000 </r>
       <r>    1.8005    1.0000 </r>
       <r>    1.8005    1.0000 </r>
       <r>    2.3994    1.0000 </r>
       <r>    2.3994    1.0000 </r>
       <r>    5.2600    0.0000 </r>
       <r>    5.2602    0.0000 </r>
       <r>    5.4457    0.0000 </r>
       <r>    5.4475    0.0000 </r>
      </set>
      <set comment="kpoint 14">
       <r>   -9.4621    1.0000 </r>
       <r>   -9.4621    1.0000 </r>
       <r>   -9.0323    1.0000 </r>
       <r>   -9.0323    1.0000 </r>
       <r>   -2.2682    1.0000 </r>
       <r>   -2.2682    1.0000 </r>
       <r>   -1.2781    1.0000 </r>
       <r>   -1.2781    1.0000 </r>
       <r>   -0.8021    1.0000 </r>
       <r>   -0.8021    1.0000 </r>
       <r>    0.1573    1.0000 </r>
       <r>    0.1573    1.0000 </r>
       <r>    1.3936    1.0000 </r>
       <r>    1.3936    1.0000 </r>
       <r>    1.9320    1.0000 </r>
       <r>    1.9320    1.0000 </r>
       <r>    2.2006    1.0000 </r>
       <r>    2.2006    1.0000 </r>
       <r>    5.2638    0.0000 </r>
       <r>    5.2638    0.0000 </r>
       <r>    5.5374    0.0000 </r>
       <r>    5.5375    0.0000 </r>
      </set>
      <set comment="kpoint 15">
       <r>   -9.1338    1.0000 </r>
       <r>   -9.1338    1.0000 </r>
       <r>   -8.8890    1.0000 </r>
       <r>   -8.8890    1.0000 </r>
       <r>   -2.6004    1.0000 </r>
       <r>   -2.6004    1.0000 </r>
       <r>   -1.6415    1.0000 </r>
       <r>   -1.6415    1.0000 </r>
       <r>   -0.9295    1.0000 </r>
       <r>   -0.9295    1.0000 </r>
       <r>   -0.0232    1.0000 </r>
       <r>   -0.0232    1.0000 </r>
       <r>    1.2560    1.0000 </r>
       <r>    1.2561    1.0000 </r>
       <r>    2.1591    1.0000 </r>
       <r>    2.1591    1.0000 </r>
       <r>    2.4789    1.0000 </r>
       <r>    2.4789    1.0000 </r>
       <r>    5.2861    0.0000 </r>
       <r>    5.2861    0.0000 </r>
       <r>    5.8016    0.0000 </r>
       <r>    5.8019    0.0000 </r>
      </set>
      <set comment="kpoint 16">
       <r>  -10.3132    1.0000 </r>
       <r>  -10.3132    1.0000 </r>
       <r>   -9.4225    1.0000 </r>
       <r>   -9.4225    1.0000 </r>
       <r>   -1.8540    1.0000 </r>
       <r>   -1.8540    1.0000 </r>
       <r>   -0.5092    1.0000 </r>
       <r>   -0.5092    1.0000 </r>
       <r>    0.0126    1.0000 </r>
       <r>    0.0126    1.0000 </r>
       <r>    0.4758    1.0000 </r>
       <r>    0.4758    1.0000 </r>
       <r>    1.0937    1.0000 </r>
       <r>    1.0937    1.0000 </r>
       <r>    2.1816    1.0000 </r>
       <r>    2.1816    1.0000 </r>
       <r>    2.6014    1.0000 </r>
       <r>    2.6014    1.0000 </r>
       <r>    5.1820    0.0000 </r>
       <r>    5.1826    0.0000 </r>
       <r>    5.5430    0.0000 </r>
       <r>    5.6477    0.0000 </r>
      </set>
      <set comment="kpoint 17">
       <r>   -9.6796    1.0000 </r>
       <r>   -9.6796    1.0000 </r>
       <r>   -9.1239    1.0000 </r>
       <r>   -9.1239    1.0000 </r>
       <r>   -1.9135    1.0000 </r>
       <r>   -1.9135    1.0000 </r>
       <r>   -0.9374    1.0000 </r>
       <r>   -0.9374    1.0000 </r>
       <r>   -0.6717    1.0000 </r>
       <r>   -0.6717    1.0000 </r>
       <r>   -0.0268    1.0000 </r>
       <r>   -0.0267    1.0000 </r>
       <r>    1.1930    1.0000 </r>
       <r>    1.1930    1.0000 </r>
       <r>    1.8283    1.0000 </r>
       <r>    1.8283    1.0000 </r>
       <r>    2.3077    1.0000 </r>
       <r>    2.3077    1.0000 </r>
       <r>    5.1026    0.0000 </r>
       <r>    5.1027    0.0000 </r>
       <r>    5.5537    0.0000 </r>
       <r>    5.5666    0.0000 </r>
      </set>
      <set comment="kpoint 18">
       <r>   -9.1490    1.0000 </r>
       <r>   -9.1490    1.0000 </r>
       <r>   -8.8800    1.0000 </r>
       <r>   -8.8800    1.0000 </r>
       <r>   -2.3132    1.0000 </r>
       <r>   -2.3132    1.0000 </r>
       <r>   -1.6979    1.0000 </r>
       <r>   -1.6979    1.0000 </r>
       <r>   -0.8034    1.0000 </r>
       <r>   -0.8034    1.0000 </r>
       <r>   -0.0447    1.0000 </r>
       <r>   -0.0447    1.0000 </r>
       <r>    1.2073    1.0000 </r>
       <r>    1.2073    1.0000 </r>
       <r>    1.3474    1.0000 </r>
       <r>    1.3474    1.0000 </r>
       <r>    2.6339    1.0000 </r>
       <r>    2.6339    1.0000 </r>
       <r>    5.3030    0.0000 </r>
       <r>    5.3034    0.0000 </r>
       <r>    5.8119    0.0000 </r>
       <r>    6.6629    0.0000 </r>
      </set>
      <set comment="kpoint 19">
       <r>   -9.1640    1.0000 </r>
       <r>   -9.1640    1.0000 </r>
       <r>   -8.8710    1.0000 </r>
       <r>   -8.8710    1.0000 </r>
       <r>   -1.9532    1.0000 </r>
       <r>   -1.9532    1.0000 </r>
       <r>   -1.7480    1.0000 </r>
       <r>   -1.7480    1.0000 </r>
       <r>   -0.4797    1.0000 </r>
       <r>   -0.4797    1.0000 </r>
       <r>   -0.0909    1.0000 </r>
       <r>   -0.0909    1.0000 </r>
       <r>    0.2261    1.0000 </r>
       <r>    0.2261    1.0000 </r>
       <r>    1.4805    1.0000 </r>
       <r>    1.4805    1.0000 </r>
       <r>    2.6055    1.0000 </r>
       <r>    2.6055    1.0000 </r>
       <r>    5.2493    0.0000 </r>
       <r>    5.2495    0.0000 </r>
       <r>    5.8605    0.0000 </r>
       <r>    6.1419    0.0000 </r>
      </set>
      <set comment="kpoint 20">
       <r>   -8.9291    1.0000 </r>
       <r>   -8.9291    1.0000 </r>
       <r>   -8.7519    1.0000 </r>
       <r>   -8.7519    1.0000 </r>
       <r>   -2.1326    1.0000 </r>
       <r>   -2.1326    1.0000 </r>
       <r>   -1.7835    1.0000 </r>
       <r>   -1.7835    1.0000 </r>
       <r>   -0.7605    1.0000 </r>
       <r>   -0.7605    1.0000 </r>
       <r>   -0.0993    1.0000 </r>
       <r>   -0.0993    1.0000 </r>
       <r>    0.1372    1.0000 </r>
       <r>    0.1372    1.0000 </r>
       <r>    1.0941    1.0000 </r>
       <r>    1.0941    1.0000 </r>
       <r>    2.9726    1.0000 </r>
       <r>    2.9726    1.0000 </r>
       <r>    4.9281    0.0000 </r>
       <r>    4.9281    0.0000 </r>
       <r>    6.2305    0.0000 </r>
       <r>    6.2390    0.0000 </r>
      </set>
     </set>
    </set>
   </array>
  </eigenvalues>
  <separator name="orbital magnetization" >
   <v name="MAGDIPOLOUT">      0.00000000      0.00000000      0.00000000</v>
  </separator>
  <dos>
   <i name="efermi">      3.34128176 </i>
   <total>
    <array>
     <dimension dim="1">gridpoints</dimension>
     <dimension dim="2">spin</dimension>
     <field>energy</field>
     <field>total</field>
     <field>integrated</field>
     <set>
      <set comment="spin 1">
       <r>   -12.9295     0.0000     0.0000 </r>
       <r>   -12.8575     0.0000     0.0000 </r>
       <r>   -12.7856     0.0000     0.0000 </r>
       <r>   -12.7136     0.0000     0.0000 </r>
       <r>   -12.6416     0.0000     0.0000 </r>
       <r>   -12.5696     0.0000     0.0000 </r>
       <r>   -12.4977     0.0000     0.0000 </r>
       <r>   -12.4257     0.0000     0.0000 </r>
       <r>   -12.3537     0.0000     0.0000 </r>
       <r>   -12.2817     0.0000     0.0000 </r>
       <r>   -12.2098     0.0000     0.0000 </r>
       <r>   -12.1378     0.0000     0.0000 </r>
       <r>   -12.0658     0.0000     0.0000 </r>
       <r>   -11.9938     0.0000     0.0000 </r>
       <r>   -11.9219     0.0000     0.0000 </r>
       <r>   -11.8499     0.0000     0.0000 </r>
       <r>   -11.7779     0.0000     0.0000 </r>
       <r>   -11.7059     0.0000     0.0000 </r>
       <r>   -11.6340     0.0000     0.0000 </r>
       <r>   -11.5620     0.0000     0.0000 </r>
       <r>   -11.4900     0.0000     0.0000 </r>
       <r>   -11.4180     0.0000     0.0000 </r>
       <r>   -11.3461     0.0000     0.0000 </r>
       <r>   -11.2741     0.0000     0.0000 </r>
       <r>   -11.2021     0.0000     0.0000 </r>
       <r>   -11.1301     0.0000     0.0000 </r>
       <r>   -11.0582     0.0000     0.0000 </r>
       <r>   -10.9862     0.0000     0.0000 </r>
       <r>   -10.9142     0.0508     0.0003 </r>
       <r>   -10.8422     0.6364     0.0249 </r>
       <r>   -10.7703     1.2250     0.0919 </r>
       <r>   -10.6983     1.0338     0.1948 </r>
       <r>   -10.6263     1.0284     0.2664 </r>
       <r>   -10.5543     1.0951     0.3429 </r>
       <r>   -10.4824     1.1618     0.4241 </r>
       <r>   -10.4104     1.2285     0.5101 </r>
       <r>   -10.3384     1.2952     0.6009 </r>
       <r>   -10.2664     1.3265     0.6957 </r>
       <r>   -10.1945     1.3385     0.7916 </r>
       <r>   -10.1225     1.3594     0.8885 </r>
       <r>   -10.0505     1.4152     0.9883 </r>
       <r>    -9.9785     1.4710     1.0922 </r>
       <r>    -9.9066     1.5268     1.2001 </r>
       <r>    -9.8346     1.5826     1.3120 </r>
       <r>    -9.7626     1.6383     1.4279 </r>
       <r>    -9.6906     2.4526     1.5576 </r>
       <r>    -9.6187     4.9681     1.8394 </r>
       <r>    -9.5467     4.4680     2.1568 </r>
       <r>    -9.4747     4.9666     2.4963 </r>
       <r>    -9.4027     5.4805     2.8734 </r>
       <r>    -9.3308     5.8646     3.2808 </r>
       <r>    -9.2588     6.4366     3.7235 </r>
       <r>    -9.1868     7.0091     4.2074 </r>
       <r>    -9.1148     8.5054     4.9861 </r>
       <r>    -9.0429     8.3501     5.5927 </r>
       <r>    -8.9709     8.6341     6.2016 </r>
       <r>    -8.8989     7.8663     6.8575 </r>
       <r>    -8.8270     6.5679     7.5728 </r>
       <r>    -8.7550     3.2900     7.9275 </r>
       <r>    -8.6830     0.0000     8.0000 </r>
       <r>    -8.6110     0.0000     8.0000 </r>
       <r>    -8.5391     0.0000     8.0000 </r>
       <r>    -8.4671     0.0000     8.0000 </r>
       <r>    -8.3951     0.0000     8.0000 </r>
       <r>    -8.3231     0.0000     8.0000 </r>
       <r>    -8.2512     0.0000     8.0000 </r>
       <r>    -8.1792     0.0000     8.0000 </r>
       <r>    -8.1072     0.0000     8.0000 </r>
       <r>    -8.0352     0.0000     8.0000 </r>
       <r>    -7.9633     0.0000     8.0000 </r>
       <r>    -7.8913     0.0000     8.0000 </r>
       <r>    -7.8193     0.0000     8.0000 </r>
       <r>    -7.7473     0.0000     8.0000 </r>
       <r>    -7.6754     0.0000     8.0000 </r>
       <r>    -7.6034     0.0000     8.0000 </r>
       <r>    -7.5314     0.0000     8.0000 </r>
       <r>    -7.4594     0.0000     8.0000 </r>
       <r>    -7.3875     0.0000     8.0000 </r>
       <r>    -7.3155     0.0000     8.0000 </r>
       <r>    -7.2435     0.0000     8.0000 </r>
       <r>    -7.1715     0.0000     8.0000 </r>
       <r>    -7.0996     0.0000     8.0000 </r>
       <r>    -7.0276     0.0000     8.0000 </r>
       <r>    -6.9556     0.0000     8.0000 </r>
       <r>    -6.8836     0.0000     8.0000 </r>
       <r>    -6.8117     0.0000     8.0000 </r>
       <r>    -6.7397     0.0000     8.0000 </r>
       <r>    -6.6677     0.0000     8.0000 </r>
       <r>    -6.5957     0.0000     8.0000 </r>
       <r>    -6.5238     0.0000     8.0000 </r>
       <r>    -6.4518     0.0000     8.0000 </r>
       <r>    -6.3798     0.0000     8.0000 </r>
       <r>    -6.3078     0.0000     8.0000 </r>
       <r>    -6.2359     0.0000     8.0000 </r>
       <r>    -6.1639     0.0000     8.0000 </r>
       <r>    -6.0919     0.0000     8.0000 </r>
       <r>    -6.0199     0.0000     8.0000 </r>
       <r>    -5.9480     0.0000     8.0000 </r>
       <r>    -5.8760     0.0000     8.0000 </r>
       <r>    -5.8040     0.0000     8.0000 </r>
       <r>    -5.7320     0.0000     8.0000 </r>
       <r>    -5.6601     0.0000     8.0000 </r>
       <r>    -5.5881     0.0000     8.0000 </r>
       <r>    -5.5161     0.0000     8.0000 </r>
       <r>    -5.4441     0.0000     8.0000 </r>
       <r>    -5.3722     0.0000     8.0000 </r>
       <r>    -5.3002     0.0000     8.0000 </r>
       <r>    -5.2282     0.0000     8.0000 </r>
       <r>    -5.1562     0.0000     8.0000 </r>
       <r>    -5.0843     0.0000     8.0000 </r>
       <r>    -5.0123     0.0000     8.0000 </r>
       <r>    -4.9403     0.0000     8.0000 </r>
       <r>    -4.8683     0.0000     8.0000 </r>
       <r>    -4.7964     0.0000     8.0000 </r>
       <r>    -4.7244     0.0000     8.0000 </r>
       <r>    -4.6524     0.0000     8.0000 </r>
       <r>    -4.5804     0.0000     8.0000 </r>
       <r>    -4.5085     0.0000     8.0000 </r>
       <r>    -4.4365     0.0000     8.0000 </r>
       <r>    -4.3645     0.0000     8.0000 </r>
       <r>    -4.2925     0.0000     8.0000 </r>
       <r>    -4.2206     0.0000     8.0000 </r>
       <r>    -4.1486     0.0000     8.0000 </r>
       <r>    -4.0766     0.0000     8.0000 </r>
       <r>    -4.0046     0.0000     8.0000 </r>
       <r>    -3.9327     0.0000     8.0000 </r>
       <r>    -3.8607     0.0000     8.0000 </r>
       <r>    -3.7887     0.0000     8.0000 </r>
       <r>    -3.7167     0.0000     8.0000 </r>
       <r>    -3.6448     0.0000     8.0000 </r>
       <r>    -3.5728     0.0000     8.0000 </r>
       <r>    -3.5008     0.0000     8.0000 </r>
       <r>    -3.4288     0.0000     8.0000 </r>
       <r>    -3.3569     0.0000     8.0000 </r>
       <r>    -3.2849     0.0000     8.0000 </r>
       <r>    -3.2129     0.0000     8.0000 </r>
       <r>    -3.1409     0.0000     8.0000 </r>
       <r>    -3.0690     0.0000     8.0000 </r>
       <r>    -2.9970     0.0000     8.0000 </r>
       <r>    -2.9250     0.0000     8.0000 </r>
       <r>    -2.8530     0.0000     8.0000 </r>
       <r>    -2.7811     0.0000     8.0000 </r>
       <r>    -2.7091     0.0000     8.0000 </r>
       <r>    -2.6371     0.0000     8.0000 </r>
       <r>    -2.5651     0.4370     8.0081 </r>
       <r>    -2.4932     1.3484     8.0718 </r>
       <r>    -2.4212     2.4316     8.2066 </r>
       <r>    -2.3492     3.7101     8.4266 </r>
       <r>    -2.2772     5.2758     8.7589 </r>
       <r>    -2.2053     5.7134     9.1530 </r>
       <r>    -2.1333    12.9648     9.6096 </r>
       <r>    -2.0613     7.0724    10.1912 </r>
       <r>    -1.9893     5.9443    10.6596 </r>
       <r>    -1.9174    12.0351    11.2212 </r>
       <r>    -1.8454     4.8935    11.8382 </r>
       <r>    -1.7734    10.5680    12.1685 </r>
       <r>    -1.7014     6.0061    12.8160 </r>
       <r>    -1.6295     2.7964    13.1641 </r>
       <r>    -1.5575     2.5639    13.3570 </r>
       <r>    -1.4855     2.3330    13.5332 </r>
       <r>    -1.4136     2.1023    13.6928 </r>
       <r>    -1.3416     1.8719    13.8358 </r>
       <r>    -1.2696     1.6749    13.9626 </r>
       <r>    -1.1976     1.6748    14.0829 </r>
       <r>    -1.1257     1.6825    14.2037 </r>
       <r>    -1.0537     1.6901    14.3251 </r>
       <r>    -0.9817     1.6979    14.4470 </r>
       <r>    -0.9097     3.6651    14.6106 </r>
       <r>    -0.8378     8.5325    15.0458 </r>
       <r>    -0.7658    14.1341    15.8724 </r>
       <r>    -0.6938     9.7908    16.6618 </r>
       <r>    -0.6218     9.0797    17.3618 </r>
       <r>    -0.5499     5.8314    17.8985 </r>
       <r>    -0.4779     2.8358    18.2037 </r>
       <r>    -0.4059     2.4254    18.3888 </r>
       <r>    -0.3339     2.2358    18.5559 </r>
       <r>    -0.2620     2.0731    18.7110 </r>
       <r>    -0.1900     1.9108    18.8544 </r>
       <r>    -0.1180     5.1666    19.0103 </r>
       <r>    -0.0460    20.3149    20.2646 </r>
       <r>     0.0259     7.9279    21.2243 </r>
       <r>     0.0979     5.5039    21.7091 </r>
       <r>     0.1699     6.2161    22.1927 </r>
       <r>     0.2419     3.8018    22.5381 </r>
       <r>     0.3138     3.6129    22.8049 </r>
       <r>     0.3858     3.4239    23.0582 </r>
       <r>     0.4578     3.2866    23.2978 </r>
       <r>     0.5298     5.0088    23.5982 </r>
       <r>     0.6017     5.0340    23.9692 </r>
       <r>     0.6737     4.2321    24.3217 </r>
       <r>     0.7457     2.6878    24.5707 </r>
       <r>     0.8177     1.7915    24.7080 </r>
       <r>     0.8896     1.7479    24.8353 </r>
       <r>     0.9616     1.7112    24.9597 </r>
       <r>     1.0336     1.6814    25.0818 </r>
       <r>     1.1056     5.0950    25.2692 </r>
       <r>     1.1775    11.3854    25.8310 </r>
       <r>     1.2495    17.5883    26.9622 </r>
       <r>     1.3215    12.7109    28.0986 </r>
       <r>     1.3935     4.5142    28.6732 </r>
       <r>     1.4654     3.0905    28.9288 </r>
       <r>     1.5374     2.9390    29.1439 </r>
       <r>     1.6094     2.8599    29.3526 </r>
       <r>     1.6814     3.0828    29.5638 </r>
       <r>     1.7533     4.0020    29.8073 </r>
       <r>     1.8253     7.3215    30.2025 </r>
       <r>     1.8973     8.1926    30.7927 </r>
       <r>     1.9693     4.8479    31.2191 </r>
       <r>     2.0412     4.1449    31.5477 </r>
       <r>     2.1132     2.6309    31.7958 </r>
       <r>     2.1852     1.4359    31.9339 </r>
       <r>     2.2572     3.5081    32.0937 </r>
       <r>     2.3291     8.4723    32.5216 </r>
       <r>     2.4011     7.5463    33.0967 </r>
       <r>     2.4731     7.0265    33.6202 </r>
       <r>     2.5451     6.4333    34.1048 </r>
       <r>     2.6170     5.9582    34.5507 </r>
       <r>     2.6890     4.0938    34.8863 </r>
       <r>     2.7610     3.5615    35.1618 </r>
       <r>     2.8330     3.0286    35.3990 </r>
       <r>     2.9049     2.8216    35.6115 </r>
       <r>     2.9769     4.2949    35.8261 </r>
       <r>     3.0489     0.9265    35.9154 </r>
       <r>     3.1209     0.5054    35.9710 </r>
       <r>     3.1928     0.1723    35.9940 </r>
       <r>     3.2648     0.0173    35.9998 </r>
       <r>     3.3368     0.0000    36.0000 </r>
       <r>     3.4088     0.0000    36.0000 </r>
       <r>     3.4807     0.0000    36.0000 </r>
       <r>     3.5527     0.0000    36.0000 </r>
       <r>     3.6247     0.0000    36.0000 </r>
       <r>     3.6967     0.0000    36.0000 </r>
       <r>     3.7686     0.0000    36.0000 </r>
       <r>     3.8406     0.0000    36.0000 </r>
       <r>     3.9126     0.0000    36.0000 </r>
       <r>     3.9846     0.0000    36.0000 </r>
       <r>     4.0565     0.0000    36.0000 </r>
       <r>     4.1285     0.0000    36.0000 </r>
       <r>     4.2005     0.0000    36.0000 </r>
       <r>     4.2725     0.0000    36.0000 </r>
       <r>     4.3444     0.0000    36.0000 </r>
       <r>     4.4164     0.0000    36.0000 </r>
       <r>     4.4884     0.0000    36.0000 </r>
       <r>     4.5604     0.0000    36.0000 </r>
       <r>     4.6323     0.0000    36.0000 </r>
       <r>     4.7043     0.0000    36.0000 </r>
       <r>     4.7763     0.0000    36.0000 </r>
       <r>     4.8483     0.0000    36.0000 </r>
       <r>     4.9202     0.0000    36.0000 </r>
       <r>     4.9922     1.5217    36.1497 </r>
       <r>     5.0642     4.8366    36.3673 </r>
       <r>     5.1362     8.5373    36.8481 </r>
       <r>     5.2081    12.7967    37.6165 </r>
       <r>     5.2801    26.8620    38.7290 </r>
       <r>     5.3521     2.2370    39.4571 </r>
       <r>     5.4241     1.6171    39.5925 </r>
       <r>     5.4960     8.4369    39.8914 </r>
       <r>     5.5680    10.5840    40.7078 </r>
       <r>     5.6400     6.9747    41.4006 </r>
       <r>     5.7120     6.4845    41.8784 </r>
       <r>     5.7839     9.2004    42.3367 </r>
       <r>     5.8559     3.7419    42.7591 </r>
       <r>     5.9279     2.8502    42.9895 </r>
       <r>     5.9998     2.4229    43.1771 </r>
       <r>     6.0718     2.0987    43.3398 </r>
       <r>     6.1438     1.9530    43.4846 </r>
       <r>     6.2158     2.6015    43.6606 </r>
       <r>     6.2877     1.8243    43.8223 </r>
       <r>     6.3597     0.7224    43.9056 </r>
       <r>     6.4317     0.4966    43.9493 </r>
       <r>     6.5037     0.3046    43.9779 </r>
       <r>     6.5756     0.1464    43.9940 </r>
       <r>     6.6476     0.0221    43.9998 </r>
       <r>     6.7196     0.0000    44.0000 </r>
       <r>     6.7916     0.0000    44.0000 </r>
       <r>     6.8635     0.0000    44.0000 </r>
       <r>     6.9355     0.0000    44.0000 </r>
       <r>     7.0075     0.0000    44.0000 </r>
       <r>     7.0795     0.0000    44.0000 </r>
       <r>     7.1514     0.0000    44.0000 </r>
       <r>     7.2234     0.0000    44.0000 </r>
       <r>     7.2954     0.0000    44.0000 </r>
       <r>     7.3674     0.0000    44.0000 </r>
       <r>     7.4393     0.0000    44.0000 </r>
       <r>     7.5113     0.0000    44.0000 </r>
       <r>     7.5833     0.0000    44.0000 </r>
       <r>     7.6553     0.0000    44.0000 </r>
       <r>     7.7272     0.0000    44.0000 </r>
       <r>     7.7992     0.0000    44.0000 </r>
       <r>     7.8712     0.0000    44.0000 </r>
       <r>     7.9432     0.0000    44.0000 </r>
       <r>     8.0151     0.0000    44.0000 </r>
       <r>     8.0871     0.0000    44.0000 </r>
       <r>     8.1591     0.0000    44.0000 </r>
       <r>     8.2311     0.0000    44.0000 </r>
       <r>     8.3030     0.0000    44.0000 </r>
       <r>     8.3750     0.0000    44.0000 </r>
       <r>     8.4470     0.0000    44.0000 </r>
       <r>     8.5190     0.0000    44.0000 </r>
       <r>     8.5909     0.0000    44.0000 </r>
       <r>     8.6629     0.0000    44.0000 </r>
      </set>
     </set>
    </array>
   </total>
  </dos>
 </calculation>
 <structure name="finalpos" >
  <crystal>
   <varray name="basis" >
    <v>       3.19031573       0.00000000       0.00000000 </v>
    <v>      -1.59515786       2.76289447       0.00000000 </v>
    <v>       0.00000000       0.00000000      14.87900430 </v>
   </varray>
   <i name="volume">    131.15106795 </i>
   <varray name="rec_basis" >
    <v>       0.31344860       0.18096963       0.00000000 </v>
    <v>       0.00000000       0.36193927       0.00000000 </v>
    <v>       0.00000000       0.00000000       0.06720880 </v>
   </varray>
  </crystal>
  <varray name="positions" >
   <v>       0.33333300       0.66666700       0.25000000 </v>
   <v>       0.66666700       0.33333300       0.75000000 </v>
   <v>       0.33333300       0.66666700       0.85517400 </v>
   <v>       0.66666700       0.33333300       0.14482600 </v>
   <v>       0.66666600       0.33333300       0.35517400 </v>
   <v>       0.33333400       0.66666700       0.64482600 </v>
  </varray>
 </structure>
</modeling>
