    6    6    1    1
  0.1953567E+02  0.3192274E-09  0.3192274E-09  0.1328155E-08  0.5000000E-15
  1.000000000000000E-004
  CAR 
 unknown system                          
     36    140     22
 
  0.0000000E+00  0.0000000E+00  0.0000000E+00  0.7142857E-02
    1       -9.910350   1.000000
    2       -9.811027   1.000000
    3       -8.722657   1.000000
    4       -8.554648   1.000000
    5       -1.649958   1.000000
    6       -1.126816   1.000000
    7        1.561457   1.000000
    8        1.561462   1.000000
    9        1.565494   1.000000
   10        1.565499   1.000000
   11        1.833200   1.000000
   12        2.672930   1.000000
   13        2.672962   1.000000
   14        2.687168   1.000000
   15        2.687200   1.000000
   16        3.220868   1.000000
   17        3.862699   1.000000
   18        4.623163   0.999983
   19        6.949478   0.000000
   20        6.962266   0.000000
   21        7.030061   0.000000
   22        7.160483   0.000000
 
  0.2631579E-01  0.0000000E+00  0.0000000E+00  0.7142857E-02
    1       -9.900604   1.000000
    2       -9.801339   1.000000
    3       -8.717776   1.000000
    4       -8.550278   1.000000
    5       -1.638247   1.000000
    6       -1.115242   1.000000
    7        1.537888   1.000000
    8        1.542156   1.000000
    9        1.572140   1.000000
   10        1.576373   1.000000
   11        1.799637   1.000000
   12        2.603985   1.000000
   13        2.655775   1.000000
   14        2.670209   1.000000
   15        2.708641   1.000000
   16        3.271619   1.000000
   17        3.862454   1.000000
   18        4.609822   0.999989
   19        6.936749   0.000000
   20        6.950513   0.000000
   21        7.001546   0.000000
   22        7.030343   0.000000
 
  0.5263158E-01  0.0000000E+00  0.0000000E+00  0.7142857E-02
    1       -9.871434   1.000000
    2       -9.772423   1.000000
    3       -8.703233   1.000000
    4       -8.537233   1.000000
    5       -1.603532   1.000000
    6       -1.081019   1.000000
    7        1.469016   1.000000
    8        1.474052   1.000000
    9        1.603966   1.000000
   10        1.608781   1.000000
   11        1.709646   1.000000
   12        2.445521   1.000000
   13        2.605690   1.000000
   14        2.620686   1.000000
   15        2.761116   1.000000
   16        3.373434   1.000000
   17        3.860858   1.000000
   18        4.569111   0.999997
   19        6.896323   0.000000
   20        6.962363   0.000000
   21        7.053723   0.000000
   22        7.085331   0.000000
 
  0.7894737E-01  0.0000000E+00  0.0000000E+00  0.7142857E-02
    1       -9.823297   1.000000
    2       -9.724710   1.000000
    3       -8.679222   1.000000
    4       -8.515740   1.000000
    5       -1.547077   1.000000
    6       -1.025674   1.000000
    7        1.360086   1.000000
    8        1.366606   1.000000
    9        1.583112   1.000000
   10        1.656312   1.000000
   11        1.662047   1.000000
   12        2.250018   1.000000
   13        2.526649   1.000000
   14        2.542493   1.000000
   15        2.821492   1.000000
   16        3.468524   1.000000
   17        3.855369   1.000000
   18        4.499421   1.000000
   19        6.826563   0.000000
   20        6.865199   0.000000
   21        6.957079   0.000000
   22        7.048803   0.000000
 
  0.1052632E+00  0.0000000E+00  0.0000000E+00  0.7142857E-02
    1       -9.756867   1.000000
    2       -9.658892   1.000000
    3       -8.646111   1.000000
    4       -8.486143   1.000000
    5       -1.471163   1.000000
    6       -0.952041   1.000000
    7        1.218833   1.000000
    8        1.228042   1.000000
    9        1.435158   1.000000
   10        1.728089   1.000000
   11        1.735087   1.000000
   12        2.037944   1.000000
   13        2.424227   1.000000
   14        2.441084   1.000000
   15        2.870254   1.000000
   16        3.529940   1.000000
   17        3.841771   1.000000
   18        4.399274   1.000000
   19        6.744498   0.000000
   20        6.798202   0.000000
   21        6.828649   0.000000
   22        6.929045   0.000000
 
  0.1315789E+00  0.0000000E+00  0.0000000E+00  0.7142857E-02
    1       -9.673099   1.000000
    2       -9.576001   1.000000
    3       -8.604414   1.000000
    4       -8.448946   1.000000
    5       -1.379342   1.000000
    6       -0.864736   1.000000
    7        1.054495   1.000000
    8        1.068595   1.000000
    9        1.274505   1.000000
   10        1.817236   1.000000
   11        1.817752   1.000000
   12        1.826336   1.000000
   13        2.304595   1.000000
   14        2.322560   1.000000
   15        2.894689   1.000000
   16        3.545340   1.000000
   17        3.814483   1.000000
   18        4.268948   1.000000
   19        6.561825   0.000000
   20        6.700009   0.000000
   21        6.831000   0.000000
   22        6.904078   0.000000
 
  0.1578947E+00  0.0000000E+00  0.0000000E+00  0.7142857E-02
    1       -9.573271   1.000000
    2       -9.477355   1.000000
    3       -8.554820   1.000000
    4       -8.404815   1.000000
    5       -1.276908   1.000000
    6       -0.771055   1.000000
    7        0.877217   1.000000
    8        0.900155   1.000000
    9        1.105870   1.000000
   10        1.591655   1.000000
   11        1.923234   1.000000
   12        1.933807   1.000000
   13        2.173779   1.000000
   14        2.192864   1.000000
   15        2.888617   1.000000
   16        3.512532   1.000000
   17        3.767544   1.000000
   18        4.112071   1.000000
   19        6.387490   0.000000
   20        6.692760   0.000000
   21        6.797679   0.000000
   22        6.843293   0.000000
 
  0.1842105E+00  0.0000000E+00  0.0000000E+00  0.7142857E-02
    1       -9.458976   1.000000
    2       -9.364649   1.000000
    3       -8.498193   1.000000
    4       -8.354573   1.000000
    5       -1.171635   1.000000
    6       -0.682435   1.000000
    7        0.697838   1.000000
    8        0.736869   1.000000
    9        0.931846   1.000000
   10        1.363449   1.000000
   11        2.037174   1.000000
   12        2.041928   1.000000
   13        2.054974   1.000000
   14        2.057342   1.000000
   15        2.852098   1.000000
   16        3.437829   1.000000
   17        3.696678   1.000000
   18        3.936548   1.000000
   19        6.249115   0.000000
   20        6.696633   0.000000
   21        6.746821   0.000000
   22        6.831391   0.000000
 
  0.2105263E+00  0.0000000E+00  0.0000000E+00  0.7142857E-02
    1       -9.332164   1.000000
    2       -9.239881   1.000000
    3       -8.435585   1.000000
    4       -8.299205   1.000000
    5       -1.074636   1.000000
    6       -0.616092   1.000000
    7        0.528256   1.000000
    8        0.596136   1.000000
    9        0.754179   1.000000
   10        1.134544   1.000000
   11        1.899402   1.000000
   12        1.920594   1.000000
   13        2.170721   1.000000
   14        2.186807   1.000000
   15        2.790492   1.000000
   16        3.332964   1.000000
   17        3.601812   1.000000
   18        3.754823   1.000000
   19        6.159073   0.000000
   20        6.669304   0.000000
   21        6.709796   0.000000
   22        6.726850   0.000000
 
  0.2368421E+00  0.0000000E+00  0.0000000E+00  0.7142857E-02
    1       -9.195155   1.000000
    2       -9.105467   1.000000
    3       -8.368240   1.000000
    4       -8.239951   1.000000
    5       -1.000969   1.000000
    6       -0.593598   1.000000
    7        0.381616   1.000000
    8        0.496842   1.000000
    9        0.574472   1.000000
   10        0.906995   1.000000
   11        1.764304   1.000000
   12        1.786426   1.000000
   13        2.305993   1.000000
   14        2.325764   1.000000
   15        2.712508   1.000000
   16        3.210856   1.000000
   17        3.487781   1.000000
   18        3.584234   1.000000
   19        6.118889   0.000000
   20        6.524403   0.000000
   21        6.604089   0.000000
   22        6.773419   0.000000
 
  0.2631579E+00  0.0000000E+00  0.0000000E+00  0.7142857E-02
    1       -9.050722   1.000000
    2       -8.964266   1.000000
    3       -8.297623   1.000000
    4       -8.178226   1.000000
    5       -0.967458   1.000000
    6       -0.629982   1.000000
    7        0.270429   1.000000
    8        0.394746   1.000000
    9        0.448717   1.000000
   10        0.683438   1.000000
   11        1.635002   1.000000
   12        1.657963   1.000000
   13        2.443661   1.000000
   14        2.467841   1.000000
   15        2.627577   1.000000
   16        3.082715   1.000000
   17        3.364214   1.000000
   18        3.445190   1.000000
   19        6.120899   0.000000
   20        6.470933   0.000000
   21        6.528751   0.000000
   22        6.718079   0.000000
 
  0.2894737E+00  0.0000000E+00  0.0000000E+00  0.7142857E-02
    1       -8.902114   1.000000
    2       -8.819617   1.000000
    3       -8.225408   1.000000
    4       -8.115617   1.000000
    5       -0.985147   1.000000
    6       -0.719756   1.000000
    7        0.199754   1.000000
    8        0.217797   1.000000
    9        0.439564   1.000000
   10        0.467063   1.000000
   11        1.514039   1.000000
   12        1.537732   1.000000
   13        2.544078   1.000000
   14        2.579328   1.000000
   15        2.608697   1.000000
   16        2.956838   1.000000
   17        3.253574   1.000000
   18        3.347833   1.000000
   19        6.159599   0.000000
   20        6.391154   0.000000
   21        6.463798   0.000000
   22        6.720854   0.000000
 
  0.3157895E+00  0.0000000E+00  0.0000000E+00  0.7142857E-02
    1       -8.753060   1.000000
    2       -8.675366   1.000000
    3       -8.153499   1.000000
    4       -8.053937   1.000000
    5       -1.050487   1.000000
    6       -0.842267   1.000000
    7        0.047149   1.000000
    8        0.160409   1.000000
    9        0.261656   1.000000
   10        0.443233   1.000000
   11        1.403433   1.000000
   12        1.427767   1.000000
   13        2.468279   1.000000
   14        2.708569   1.000000
   15        2.743832   1.000000
   16        2.838682   1.000000
   17        3.180833   1.000000
   18        3.294700   1.000000
   19        6.228752   0.000000
   20        6.349465   0.000000
   21        6.414173   0.000000
   22        6.756349   0.000000
 
  0.3421053E+00  0.0000000E+00  0.0000000E+00  0.7142857E-02
    1       -8.607847   1.000000
    2       -8.535788   1.000000
    3       -8.083959   1.000000
    4       -7.995167   1.000000
    5       -1.147427   1.000000
    6       -0.977240   1.000000
    7       -0.113072   1.000000
    8        0.071387   1.000000
    9        0.134219   1.000000
   10        0.438686   1.000000
   11        1.304810   1.000000
   12        1.329687   1.000000
   13        2.404196   1.000000
   14        2.731438   1.000000
   15        2.827158   1.000000
   16        2.868850   1.000000
   17        3.157501   1.000000
   18        3.288334   1.000000
   19        6.318224   0.000000
   20        6.322915   0.000000
   21        6.379826   0.000000
   22        6.775141   0.000000
 
  0.3684211E+00  0.0000000E+00  0.0000000E+00  0.7142857E-02
    1       -8.471269   1.000000
    2       -8.405648   1.000000
    3       -8.019002   1.000000
    4       -7.941350   1.000000
    5       -1.257558   1.000000
    6       -1.110270   1.000000
    7       -0.258422   1.000000
    8       -0.099403   1.000000
    9        0.106678   1.000000
   10        0.417847   1.000000
   11        1.219461   1.000000
   12        1.244788   1.000000
   13        2.353867   1.000000
   14        2.636747   1.000000
   15        2.931486   1.000000
   16        2.979868   1.000000
   17        3.183063   1.000000
   18        3.324028   1.000000
   19        6.311211   0.000000
   20        6.359851   0.000000
   21        6.420355   0.000000
   22        6.808748   0.000000
 
  0.3947368E+00  0.0000000E+00  0.0000000E+00  0.7142857E-02
    1       -8.348526   1.000000
    2       -8.290007   1.000000
    3       -7.960957   1.000000
    4       -7.894487   1.000000
    5       -1.365898   1.000000
    6       -1.231489   1.000000
    7       -0.384483   1.000000
    8       -0.246424   1.000000
    9        0.073280   1.000000
   10        0.383397   1.000000
   11        1.148392   1.000000
   12        1.174089   1.000000
   13        2.317855   1.000000
   14        2.555340   1.000000
   15        3.018850   1.000000
   16        3.073687   1.000000
   17        3.247472   1.000000
   18        3.387856   1.000000
   19        6.311341   0.000000
   20        6.350646   0.000000
   21        6.526085   0.000000
   22        6.844489   0.000000
 
  0.4210526E+00  0.0000000E+00  0.0000000E+00  0.7142857E-02
    1       -8.245014   1.000000
    2       -8.193868   1.000000
    3       -7.912111   1.000000
    4       -7.856465   1.000000
    5       -1.461320   1.000000
    6       -1.333642   1.000000
    7       -0.487144   1.000000
    8       -0.365669   1.000000
    9        0.037311   1.000000
   10        0.343588   1.000000
   11        1.092371   1.000000
   12        1.118346   1.000000
   13        2.295583   1.000000
   14        2.487680   1.000000
   15        3.087514   1.000000
   16        3.148088   1.000000
   17        3.333930   1.000000
   18        3.460386   1.000000
   19        6.318932   0.000000
   20        6.350131   0.000000
   21        6.627669   0.000000
   22        6.878067   0.000000
 
  0.4473684E+00  0.0000000E+00  0.0000000E+00  0.7142857E-02
    1       -8.166047   1.000000
    2       -8.121769   1.000000
    3       -7.874715   1.000000
    4       -7.828770   1.000000
    5       -1.535532   1.000000
    6       -1.411040   1.000000
    7       -0.563048   1.000000
    8       -0.453640   1.000000
    9        0.005262   1.000000
   10        0.307616   1.000000
   11        1.051961   1.000000
   12        1.078152   1.000000
   13        2.285362   1.000000
   14        2.434636   1.000000
   15        3.136659   1.000000
   16        3.201752   1.000000
   17        3.422507   1.000000
   18        3.521875   1.000000
   19        6.329261   0.000000
   20        6.353852   0.000000
   21        6.714263   0.000000
   22        6.907042   0.000000
 
  0.4736842E+00  0.0000000E+00  0.0000000E+00  0.7142857E-02
    1       -8.116298   1.000000
    2       -8.077186   1.000000
    3       -7.850966   1.000000
    4       -7.812196   1.000000
    5       -1.582536   1.000000
    6       -1.459351   1.000000
    7       -0.609611   1.000000
    8       -0.507623   1.000000
    9       -0.016701   1.000000
   10        0.282929   1.000000
   11        1.027570   1.000000
   12        1.053871   1.000000
   13        2.283799   1.000000
   14        2.398712   1.000000
   15        3.166076   1.000000
   16        3.234075   1.000000
   17        3.493041   1.000000
   18        3.557466   1.000000
   19        6.337689   0.000000
   20        6.357996   0.000000
   21        6.773313   0.000000
   22        6.927355   0.000000
 
  0.5000000E+00  0.0000000E+00  0.0000000E+00  0.7142857E-02
    1       -8.099273   1.000000
    2       -8.062128   1.000000
    3       -7.842765   1.000000
    4       -7.806727   1.000000
    5       -1.598647   1.000000
    6       -1.475773   1.000000
    7       -0.625290   1.000000
    8       -0.525821   1.000000
    9       -0.024487   1.000000
   10        0.274180   1.000000
   11        1.019434   1.000000
   12        1.045749   1.000000
   13        2.284732   1.000000
   14        2.385372   1.000000
   15        3.175843   1.000000
   16        3.244852   1.000000
   17        3.523089   1.000000
   18        3.565644   1.000000
   19        6.340873   0.000000
   20        6.359717   0.000000
   21        6.794551   0.000000
   22        6.933989   0.000000
 
  0.5000000E+00  0.0000000E+00  0.0000000E+00  0.7142857E-02
    1       -8.099273   1.000000
    2       -8.062128   1.000000
    3       -7.842765   1.000000
    4       -7.806727   1.000000
    5       -1.598647   1.000000
    6       -1.475773   1.000000
    7       -0.625290   1.000000
    8       -0.525821   1.000000
    9       -0.024487   1.000000
   10        0.274180   1.000000
   11        1.019434   1.000000
   12        1.045749   1.000000
   13        2.284732   1.000000
   14        2.385372   1.000000
   15        3.175843   1.000000
   16        3.244852   1.000000
   17        3.523089   1.000000
   18        3.565644   1.000000
   19        6.340879   0.000000
   20        6.359714   0.000000
   21        6.794559   0.000000
   22        6.934045   0.000000
 
  0.4912263E+00  0.1754211E-01  0.0000000E+00  0.7142857E-02
    1       -8.097803   1.000000
    2       -8.060748   1.000000
    3       -7.841747   1.000000
    4       -7.805793   1.000000
    5       -1.594109   1.000000
    6       -1.471345   1.000000
    7       -0.627725   1.000000
    8       -0.530355   1.000000
    9       -0.022743   1.000000
   10        0.275538   1.000000
   11        1.020518   1.000000
   12        1.042669   1.000000
   13        2.284779   1.000000
   14        2.387547   1.000000
   15        3.141860   1.000000
   16        3.210001   1.000000
   17        3.540664   1.000000
   18        3.585727   1.000000
   19        6.344806   0.000000
   20        6.359767   0.000000
   21        6.795053   0.000000
   22        6.937927   0.000000
 
  0.4824526E+00  0.3508421E-01  0.0000000E+00  0.7142857E-02
    1       -8.093432   1.000000
    2       -8.056635   1.000000
    3       -7.838712   1.000000
    4       -7.802986   1.000000
    5       -1.580535   1.000000
    6       -1.458108   1.000000
    7       -0.635030   1.000000
    8       -0.543847   1.000000
    9       -0.017538   1.000000
   10        0.279568   1.000000
   11        1.023895   1.000000
   12        1.033905   1.000000
   13        2.284791   1.000000
   14        2.393703   1.000000
   15        3.054534   1.000000
   16        3.122544   1.000000
   17        3.579484   1.000000
   18        3.629438   1.000000
   19        6.355696   0.000000
   20        6.359557   0.000000
   21        6.797032   0.000000
   22        6.943044   0.000000
 
  0.4736789E+00  0.5262632E-01  0.0000000E+00  0.7142857E-02
    1       -8.086233   1.000000
    2       -8.049869   1.000000
    3       -7.833717   1.000000
    4       -7.798372   1.000000
    5       -1.558005   1.000000
    6       -1.436157   1.000000
    7       -0.647312   1.000000
    8       -0.565940   1.000000
    9       -0.008969   1.000000
   10        0.286125   1.000000
   11        1.020760   1.000000
   12        1.029752   1.000000
   13        2.284402   1.000000
   14        2.402751   1.000000
   15        2.933803   1.000000
   16        3.003981   1.000000
   17        3.621843   1.000000
   18        3.677044   1.000000
   19        6.358031   0.000000
   20        6.370755   0.000000
   21        6.802570   0.000000
   22        6.954246   0.000000
 
  0.4649053E+00  0.7016842E-01  0.0000000E+00  0.7142857E-02
    1       -8.076329   1.000000
    2       -8.040582   1.000000
    3       -7.826854   1.000000
    4       -7.792053   1.000000
    5       -1.526620   1.000000
    6       -1.405640   1.000000
    7       -0.664693   1.000000
    8       -0.596054   1.000000
    9        0.002808   1.000000
   10        0.294982   1.000000
   11        1.005173   1.000000
   12        1.038362   1.000000
   13        2.283074   1.000000
   14        2.413127   1.000000
   15        2.790235   1.000000
   16        2.864495   1.000000
   17        3.660598   1.000000
   18        3.721074   1.000000
   19        6.353702   0.000000
   20        6.385416   0.000000
   21        6.814395   0.000000
   22        6.971679   0.000000
 
  0.4561316E+00  0.8771053E-01  0.0000000E+00  0.7142857E-02
    1       -8.063894   1.000000
    2       -8.028942   1.000000
    3       -7.818249   1.000000
    4       -7.784167   1.000000
    5       -1.486556   1.000000
    6       -1.366761   1.000000
    7       -0.687230   1.000000
    8       -0.633355   1.000000
    9        0.017581   1.000000
   10        0.305822   1.000000
   11        0.989368   1.000000
   12        1.050012   1.000000
   13        2.280128   1.000000
   14        2.423046   1.000000
   15        2.629433   1.000000
   16        2.709055   1.000000
   17        3.694448   1.000000
   18        3.760027   1.000000
   19        6.344888   0.000000
   20        6.394024   0.000000
   21        6.837004   0.000000
   22        6.995288   0.000000
 
  0.4473579E+00  0.1052526E+00  0.0000000E+00  0.7142857E-02
    1       -8.049137   1.000000
    2       -8.015175   1.000000
    3       -7.808060   1.000000
    4       -7.774874   1.000000
    5       -1.438003   1.000000
    6       -1.319783   1.000000
    7       -0.714850   1.000000
    8       -0.676825   1.000000
    9        0.035091   1.000000
   10        0.318266   1.000000
   11        0.975542   1.000000
   12        1.064940   1.000000
   13        2.274861   1.000000
   14        2.430726   1.000000
   15        2.455193   1.000000
   16        2.540996   1.000000
   17        3.724297   1.000000
   18        3.794554   1.000000
   19        6.330243   0.000000
   20        6.391628   0.000000
   21        6.873611   0.000000
   22        7.026770   0.000000
 
  0.4385842E+00  0.1227947E+00  0.0000000E+00  0.7142857E-02
    1       -8.032347   1.000000
    2       -7.999575   1.000000
    3       -7.796513   1.000000
    4       -7.764400   1.000000
    5       -1.381237   1.000000
    6       -1.265069   1.000000
    7       -0.747285   1.000000
    8       -0.725284   1.000000
    9        0.054988   1.000000
   10        0.331779   1.000000
   11        0.965599   1.000000
   12        1.083249   1.000000
   13        2.266575   1.000000
   14        2.270701   1.000000
   15        2.363075   1.000000
   16        2.434542   1.000000
   17        3.751789   1.000000
   18        3.826039   1.000000
   19        6.308238   0.000000
   20        6.375398   0.000000
   21        6.924709   0.000000
   22        7.064043   0.000000
 
  0.4298105E+00  0.1403368E+00  0.0000000E+00  0.7142857E-02
    1       -8.013844   1.000000
    2       -7.982464   1.000000
    3       -7.783819   1.000000
    4       -7.752985   1.000000
    5       -1.316570   1.000000
    6       -1.203032   1.000000
    7       -0.784003   1.000000
    8       -0.777390   1.000000
    9        0.076901   1.000000
   10        0.345823   1.000000
   11        0.961116   1.000000
   12        1.104894   1.000000
   13        2.078904   1.000000
   14        2.177886   1.000000
   15        2.254721   1.000000
   16        2.433184   1.000000
   17        3.778726   1.000000
   18        3.856064   1.000000
   19        6.278847   0.000000
   20        6.345858   0.000000
   21        6.989473   0.000000
   22        7.120308   0.000000
 
  0.4210368E+00  0.1578789E+00  0.0000000E+00  0.7142857E-02
    1       -7.993992   1.000000
    2       -7.964207   1.000000
    3       -7.770252   1.000000
    4       -7.740912   1.000000
    5       -1.244355   1.000000
    6       -1.134120   1.000000
    7       -0.831732   1.000000
    8       -0.824202   1.000000
    9        0.100391   1.000000
   10        0.359721   1.000000
   11        0.963123   1.000000
   12        1.129628   1.000000
   13        1.882664   1.000000
   14        1.987986   1.000000
   15        2.238932   1.000000
   16        2.425684   1.000000
   17        3.806720   1.000000
   18        3.886114   1.000000
   19        6.241961   0.000000
   20        6.304704   0.000000
   21        7.064091   0.000000
   22        7.173297   0.000000
 
  0.4122632E+00  0.1754211E+00  0.0000000E+00  0.7142857E-02
    1       -7.973190   1.000000
    2       -7.945227   1.000000
    3       -7.756113   1.000000
    4       -7.728486   1.000000
    5       -1.164989   1.000000
    6       -1.058920   1.000000
    7       -0.886859   1.000000
    8       -0.866799   1.000000
    9        0.124943   1.000000
   10        0.372637   1.000000
   11        0.972174   1.000000
   12        1.156978   1.000000
   13        1.684805   1.000000
   14        1.795928   1.000000
   15        2.219156   1.000000
   16        2.411468   1.000000
   17        3.837033   1.000000
   18        3.917422   1.000000
   19        6.198187   0.000000
   20        6.254205   0.000000
   21        7.146803   0.000000
   22        7.214026   0.000000
 
  0.4034895E+00  0.1929632E+00  0.0000000E+00  0.7142857E-02
    1       -7.951900   1.000000
    2       -7.925997   1.000000
    3       -7.741715   1.000000
    4       -7.716042   1.000000
    5       -1.078974   1.000000
    6       -0.978111   1.000000
    7       -0.941307   1.000000
    8       -0.910539   1.000000
    9        0.149959   1.000000
   10        0.383493   1.000000
   11        0.988385   1.000000
   12        1.186226   1.000000
   13        1.488330   1.000000
   14        1.604333   1.000000
   15        2.195680   1.000000
   16        2.390346   1.000000
   17        3.870464   1.000000
   18        3.950842   1.000000
   19        6.148563   0.000000
   20        6.196799   0.000000
   21        7.228653   0.000000
   22        7.273697   0.000000
 
  0.3947158E+00  0.2105053E+00  0.0000000E+00  0.7142857E-02
    1       -7.930629   1.000000
    2       -7.907042   1.000000
    3       -7.727418   1.000000
    4       -7.703943   1.000000
    5       -0.993685   1.000000
    6       -0.986909   1.000000
    7       -0.954034   1.000000
    8       -0.892547   1.000000
    9        0.174642   1.000000
   10        0.390663   1.000000
   11        1.011483   1.000000
   12        1.216268   1.000000
   13        1.296677   1.000000
   14        1.416004   1.000000
   15        2.169287   1.000000
   16        2.362517   1.000000
   17        3.907235   1.000000
   18        3.986750   1.000000
   19        6.094358   0.000000
   20        6.134322   0.000000
   21        7.227273   0.000000
   22        7.322682   0.000000
 
  0.3859421E+00  0.2280474E+00  0.0000000E+00  0.7142857E-02
    1       -7.909922   1.000000
    2       -7.888898   1.000000
    3       -7.713563   1.000000
    4       -7.692553   1.000000
    5       -1.042594   1.000000
    6       -0.995829   1.000000
    7       -0.889533   1.000000
    8       -0.803301   1.000000
    9        0.197907   1.000000
   10        0.391464   1.000000
   11        1.040871   1.000000
   12        1.114464   1.000000
   13        1.234160   1.000000
   14        1.245647   1.000000
   15        2.141337   1.000000
   16        2.328615   1.000000
   17        3.946931   1.000000
   18        4.024948   1.000000
   19        6.037516   0.000000
   20        6.069594   0.000000
   21        7.152005   0.000000
   22        7.391122   0.000000
 
  0.3771684E+00  0.2455895E+00  0.0000000E+00  0.7142857E-02
    1       -7.890354   1.000000
    2       -7.872150   1.000000
    3       -7.700535   1.000000
    4       -7.682273   1.000000
    5       -1.086765   1.000000
    6       -1.034503   1.000000
    7       -0.787861   1.000000
    8       -0.711813   1.000000
    9        0.218026   1.000000
   10        0.380887   1.000000
   11        0.948752   1.000000
   12        1.062958   1.000000
   13        1.075652   1.000000
   14        1.272336   1.000000
   15        2.113888   1.000000
   16        2.289665   1.000000
   17        3.988389   1.000000
   18        4.064560   1.000000
   19        5.980312   0.000000
   20        6.005167   0.000000
   21        7.096302   0.000000
   22        7.523566   0.000000
 
  0.3683947E+00  0.2631316E+00  0.0000000E+00  0.7142857E-02
    1       -7.872525   1.000000
    2       -7.857412   1.000000
    3       -7.688699   1.000000
    4       -7.673475   1.000000
    5       -1.125018   1.000000
    6       -1.068669   1.000000
    7       -0.683420   1.000000
    8       -0.620213   1.000000
    9        0.232169   1.000000
   10        0.350076   1.000000
   11        0.810925   1.000000
   12        0.908268   1.000000
   13        1.114618   1.000000
   14        1.293779   1.000000
   15        2.089738   1.000000
   16        2.247128   1.000000
   17        4.029641   1.000000
   18        4.103933   1.000000
   19        5.925572   0.000000
   20        5.944084   0.000000
   21        7.044794   0.000000
   22        7.530412   0.000000
 
  0.3596211E+00  0.2806737E+00  0.0000000E+00  0.7142857E-02
    1       -7.857066   1.000000
    2       -7.845313   1.000000
    3       -7.678428   1.000000
    4       -7.666554   1.000000
    5       -1.156287   1.000000
    6       -1.097067   1.000000
    7       -0.578933   1.000000
    8       -0.531918   1.000000
    9        0.235815   1.000000
   10        0.289407   1.000000
   11        0.714219   1.000000
   12        0.778814   1.000000
   13        1.156195   1.000000
   14        1.306957   1.000000
   15        2.072271   1.000000
   16        2.202949   1.000000
   17        4.067886   1.000000
   18        4.140576   1.000000
   19        5.876723   0.000001
   20        5.889827   0.000001
   21        7.007180   0.000000
   22        7.556047   0.000000
 
  0.3508474E+00  0.2982158E+00  0.0000000E+00  0.7142857E-02
    1       -7.844617   1.000000
    2       -7.836501   1.000000
    3       -7.670075   1.000000
    4       -7.661843   1.000000
    5       -1.179589   1.000000
    6       -1.118523   1.000000
    7       -0.480053   1.000000
    8       -0.452848   1.000000
    9        0.203741   1.000000
   10        0.224389   1.000000
   11        0.660234   1.000000
   12        0.685842   1.000000
   13        1.198368   1.000000
   14        1.308986   1.000000
   15        2.064930   1.000000
   16        2.159672   1.000000