unknown system                          
   1.00000000000000     
     3.192274    0.000000    0.000000
    -1.596137    2.764590    0.000000
     0.000000    0.000000   13.281549
   Mo   S 
     2     4
Direct
  0.333333  0.666667  0.250000
  0.666667  0.333333  0.750000
  0.333333  0.666667  0.867436
  0.666667  0.333333  0.132564
  0.666666  0.333333  0.367436
  0.333334  0.666667  0.632564
 
   24   24   96
 0.89353E-02 0.92563E-02 0.10157E-01 0.11453E-01 0.12910E-01 0.14380E-01 0.15841E-01 0.17302E-01 0.18713E-01 0.19961E-01
 0.20929E-01 0.21535E-01 0.21739E-01 0.21535E-01 0.20930E-01 0.19961E-01 0.18712E-01 0.17301E-01 0.15839E-01 0.14378E-01
 0.12909E-01 0.11452E-01 0.10156E-01 0.92561E-02 0.92561E-02 0.92562E-02 0.98709E-02 0.10997E-01 0.12450E-01 0.14056E-01
 0.15737E-01 0.17474E-01 0.19215E-01 0.20838E-01 0.22195E-01 0.23160E-01 0.23656E-01 0.23657E-01 0.23161E-01 0.22196E-01
 0.20838E-01 0.19213E-01 0.17473E-01 0.15736E-01 0.14054E-01 0.12449E-01 0.10996E-01 0.98705E-02 0.10156E-01 0.98706E-02
 0.10156E-01 0.10997E-01 0.12342E-01 0.14124E-01 0.16290E-01 0.18780E-01 0.21477E-01 0.24179E-01 0.26623E-01 0.28557E-01
 0.29790E-01 0.30213E-01 0.29792E-01 0.28559E-01 0.26624E-01 0.24179E-01 0.21476E-01 0.18778E-01 0.16288E-01 0.14122E-01
 0.12340E-01 0.10996E-01 0.11452E-01 0.10996E-01 0.10996E-01 0.11453E-01 0.12450E-01 0.14124E-01 0.16612E-01 0.19979E-01
 0.24137E-01 0.28794E-01 0.33477E-01 0.37629E-01 0.40734E-01 0.42395E-01 0.42397E-01 0.40738E-01 0.37632E-01 0.33477E-01
 0.28793E-01 0.24135E-01 0.19977E-01 0.16610E-01 0.14122E-01 0.12449E-01 0.12909E-01 0.12449E-01 0.12341E-01 0.12449E-01
 0.12910E-01 0.14056E-01 0.16289E-01 0.19979E-01 0.25344E-01 0.32297E-01 0.40306E-01 0.48414E-01 0.55436E-01 0.60226E-01
 0.61932E-01 0.60232E-01 0.55443E-01 0.48417E-01 0.40305E-01 0.32295E-01 0.25342E-01 0.19977E-01 0.16288E-01 0.14054E-01
 0.14378E-01 0.14054E-01 0.14123E-01 0.14123E-01 0.14055E-01 0.14379E-01 0.15737E-01 0.18779E-01 0.24137E-01 0.32298E-01
 0.43263E-01 0.56155E-01 0.69130E-01 0.79773E-01 0.85801E-01 0.85806E-01 0.79784E-01 0.69137E-01 0.56155E-01 0.43260E-01
 0.32295E-01 0.24135E-01 0.18778E-01 0.15736E-01 0.15839E-01 0.15736E-01 0.16288E-01 0.16610E-01 0.16288E-01 0.15736E-01
 0.15840E-01 0.17474E-01 0.21477E-01 0.28795E-01 0.40308E-01 0.56158E-01 0.74850E-01 0.92997E-01 0.10629     0.11117    
 0.10629     0.93006E-01 0.74853E-01 0.56155E-01 0.40305E-01 0.28793E-01 0.21476E-01 0.17473E-01 0.17301E-01 0.17473E-01
 0.18778E-01 0.19977E-01 0.19977E-01 0.18778E-01 0.17473E-01 0.17301E-01 0.19214E-01 0.24179E-01 0.33479E-01 0.48420E-01
 0.69140E-01 0.93006E-01 0.11442     0.12710     0.12710     0.11442     0.93006E-01 0.69137E-01 0.48417E-01 0.33477E-01
 0.24179E-01 0.19213E-01 0.18712E-01 0.19213E-01 0.21476E-01 0.24135E-01 0.25341E-01 0.24135E-01 0.21476E-01 0.19214E-01
 0.18712E-01 0.20838E-01 0.26624E-01 0.37633E-01 0.55446E-01 0.79790E-01 0.10630     0.12711     0.13497     0.12710    
 0.10629     0.79784E-01 0.55443E-01 0.37632E-01 0.26624E-01 0.20838E-01 0.19961E-01 0.20838E-01 0.24178E-01 0.28793E-01
 0.32294E-01 0.32293E-01 0.28792E-01 0.24178E-01 0.20838E-01 0.19961E-01 0.22195E-01 0.28558E-01 0.40739E-01 0.60237E-01
 0.85819E-01 0.11119     0.12711     0.12710     0.11117     0.85806E-01 0.60232E-01 0.40738E-01 0.28559E-01 0.22196E-01
 0.20930E-01 0.22196E-01 0.26624E-01 0.33477E-01 0.40305E-01 0.43258E-01 0.40302E-01 0.33475E-01 0.26623E-01 0.22196E-01
 0.20929E-01 0.23160E-01 0.29791E-01 0.42399E-01 0.61941E-01 0.85819E-01 0.10630     0.11442     0.10629     0.85801E-01
 0.61932E-01 0.42397E-01 0.29792E-01 0.23161E-01 0.21535E-01 0.23161E-01 0.28559E-01 0.37633E-01 0.48418E-01 0.56153E-01
 0.56150E-01 0.48412E-01 0.37630E-01 0.28558E-01 0.23161E-01 0.21535E-01 0.23656E-01 0.30213E-01 0.42399E-01 0.60237E-01
 0.79790E-01 0.93006E-01 0.92997E-01 0.79773E-01 0.60226E-01 0.42395E-01 0.30213E-01 0.23657E-01 0.21739E-01 0.23657E-01
 0.29792E-01 0.40740E-01 0.55446E-01 0.69137E-01 0.74846E-01 0.69127E-01 0.55436E-01 0.40735E-01 0.29792E-01 0.23657E-01
 0.21739E-01 0.23656E-01 0.29791E-01 0.40739E-01 0.55446E-01 0.69140E-01 0.74850E-01 0.69130E-01 0.55436E-01 0.40734E-01
 0.29790E-01 0.23656E-01 0.21535E-01 0.23657E-01 0.30214E-01 0.42400E-01 0.60237E-01 0.79788E-01 0.93003E-01 0.92994E-01
 0.79771E-01 0.60226E-01 0.42396E-01 0.30214E-01 0.23657E-01 0.21535E-01 0.23160E-01 0.28558E-01 0.37633E-01 0.48420E-01
 0.56158E-01 0.56155E-01 0.48414E-01 0.37629E-01 0.28557E-01 0.23160E-01 0.20929E-01 0.23160E-01 0.29791E-01 0.42398E-01
 0.61939E-01 0.85815E-01 0.10630     0.11441     0.10628     0.85796E-01 0.61929E-01 0.42396E-01 0.29792E-01 0.23161E-01
 0.20929E-01 0.22195E-01 0.26624E-01 0.33479E-01 0.40308E-01 0.43263E-01 0.40306E-01 0.33477E-01 0.26623E-01 0.22195E-01
 0.19961E-01 0.22195E-01 0.28558E-01 0.40736E-01 0.60231E-01 0.85810E-01 0.11118     0.12710     0.12709     0.11116    
 0.85796E-01 0.60226E-01 0.40735E-01 0.28558E-01 0.22196E-01 0.19961E-01 0.20838E-01 0.24179E-01 0.28795E-01 0.32298E-01
 0.32297E-01 0.28794E-01 0.24179E-01 0.20838E-01 0.18713E-01 0.20838E-01 0.26623E-01 0.37630E-01 0.55439E-01 0.79778E-01
 0.10629     0.12710     0.13496     0.12709     0.10628     0.79771E-01 0.55436E-01 0.37630E-01 0.26623E-01 0.20838E-01
 0.18712E-01 0.19214E-01 0.21477E-01 0.24137E-01 0.25344E-01 0.24137E-01 0.21477E-01 0.19215E-01 0.17302E-01 0.19215E-01
 0.24179E-01 0.33477E-01 0.48414E-01 0.69130E-01 0.92994E-01 0.11441     0.12710     0.12710     0.11441     0.92994E-01
 0.69127E-01 0.48412E-01 0.33475E-01 0.24178E-01 0.19214E-01 0.17301E-01 0.17474E-01 0.18779E-01 0.19979E-01 0.19979E-01
 0.18780E-01 0.17474E-01 0.15841E-01 0.17474E-01 0.21477E-01 0.28794E-01 0.40305E-01 0.56152E-01 0.74844E-01 0.92994E-01
 0.10629     0.11118     0.10630     0.93003E-01 0.74846E-01 0.56150E-01 0.40302E-01 0.28792E-01 0.21476E-01 0.17473E-01
 0.15840E-01 0.15737E-01 0.16289E-01 0.16612E-01 0.16290E-01 0.15737E-01 0.14380E-01 0.15737E-01 0.18779E-01 0.24137E-01
 0.32296E-01 0.43260E-01 0.56152E-01 0.69130E-01 0.79778E-01 0.85810E-01 0.85815E-01 0.79788E-01 0.69137E-01 0.56153E-01
 0.43258E-01 0.32293E-01 0.24135E-01 0.18778E-01 0.15736E-01 0.14379E-01 0.14056E-01 0.14124E-01 0.14124E-01 0.14056E-01
 0.12910E-01 0.14056E-01 0.16290E-01 0.19979E-01 0.25344E-01 0.32296E-01 0.40305E-01 0.48414E-01 0.55439E-01 0.60231E-01
 0.61939E-01 0.60237E-01 0.55446E-01 0.48418E-01 0.40305E-01 0.32294E-01 0.25341E-01 0.19977E-01 0.16288E-01 0.14055E-01
 0.12910E-01 0.12450E-01 0.12342E-01 0.12450E-01 0.11453E-01 0.12450E-01 0.14125E-01 0.16612E-01 0.19979E-01 0.24137E-01
 0.28794E-01 0.33477E-01 0.37630E-01 0.40736E-01 0.42398E-01 0.42400E-01 0.40740E-01 0.37633E-01 0.33477E-01 0.28793E-01
 0.24135E-01 0.19977E-01 0.16610E-01 0.14123E-01 0.12449E-01 0.11453E-01 0.10997E-01 0.10997E-01 0.10157E-01 0.10997E-01
 0.12342E-01 0.14125E-01 0.16290E-01 0.18779E-01 0.21477E-01 0.24179E-01 0.26623E-01 0.28558E-01 0.29791E-01 0.30214E-01
 0.29792E-01 0.28559E-01 0.26624E-01 0.24178E-01 0.21476E-01 0.18778E-01 0.16288E-01 0.14123E-01 0.12341E-01 0.10996E-01
 0.10156E-01 0.98709E-02 0.92563E-02 0.98710E-02 0.10997E-01 0.12450E-01 0.14056E-01 0.15738E-01 0.17474E-01 0.19215E-01
 0.20838E-01 0.22195E-01 0.23160E-01 0.23657E-01 0.23657E-01 0.23161E-01 0.22196E-01 0.20838E-01 0.19213E-01 0.17473E-01
 0.15736E-01 0.14054E-01 0.12449E-01 0.10996E-01 0.98706E-02 0.92562E-02 0.98267E-02 0.10171E-01 0.11193E-01 0.12840E-01
 0.15002E-01 0.17561E-01 0.20405E-01 0.23380E-01 0.26259E-01 0.28785E-01 0.30736E-01 0.31962E-01 0.32380E-01 0.31963E-01
 0.30737E-01 0.28785E-01 0.26258E-01 0.23378E-01 0.20403E-01 0.17559E-01 0.15000E-01 0.12838E-01 0.11192E-01 0.10171E-01
 0.10171E-01 0.10171E-01 0.10990E-01 0.12724E-01 0.15472E-01 0.19256E-01 0.23982E-01 0.29395E-01 0.35040E-01 0.40344E-01
 0.44776E-01 0.47946E-01 0.49600E-01 0.49601E-01 0.47949E-01 0.44778E-01 0.40345E-01 0.35039E-01 0.29393E-01 0.23979E-01
 0.19253E-01 0.15470E-01 0.12723E-01 0.10990E-01 0.11192E-01 0.10728E-01 0.11193E-01 0.12724E-01 0.15665E-01 0.20402E-01
 0.27191E-01 0.35975E-01 0.46213E-01 0.56885E-01 0.66753E-01 0.74696E-01 0.79853E-01 0.81647E-01 0.79859E-01 0.74703E-01
 0.66758E-01 0.56886E-01 0.46212E-01 0.35972E-01 0.27188E-01 0.20400E-01 0.15663E-01 0.12723E-01 0.12838E-01 0.11745E-01
 0.11745E-01 0.12839E-01 0.15472E-01 0.20402E-01 0.28495E-01 0.40402E-01 0.56126E-01 0.74631E-01 0.93889E-01 0.11139    
 0.12473     0.13197     0.13198     0.12475     0.11141     0.93896E-01 0.74632E-01 0.56124E-01 0.40399E-01 0.28492E-01
 0.20400E-01 0.15470E-01 0.15000E-01 0.13062E-01 0.12526E-01 0.13062E-01 0.15001E-01 0.19255E-01 0.27191E-01 0.40403E-01
 0.60142E-01 0.86435E-01 0.11734     0.14902     0.17661     0.19546     0.20218     0.19548     0.17664     0.14903    
 0.11735     0.86432E-01 0.60139E-01 0.40399E-01 0.27188E-01 0.19253E-01 0.17559E-01 0.14539E-01 0.13430E-01 0.13430E-01
 0.14540E-01 0.17560E-01 0.23981E-01 0.35975E-01 0.56127E-01 0.86437E-01 0.12668     0.17307     0.21856     0.25481    
 0.27488     0.27490     0.25484     0.21858     0.17308     0.12668     0.86432E-01 0.56124E-01 0.35972E-01 0.23979E-01
 0.20403E-01 0.16115E-01 0.14420E-01 0.14016E-01 0.14420E-01 0.16115E-01 0.20404E-01 0.29394E-01 0.46214E-01 0.74636E-01
 0.11735     0.17309     0.23458     0.29013     0.32837     0.34193     0.32839     0.29016     0.23459     0.17308    
 0.11735     0.74632E-01 0.46212E-01 0.29393E-01 0.23378E-01 0.17768E-01 0.15503E-01 0.14870E-01 0.14870E-01 0.15504E-01
 0.17768E-01 0.23379E-01 0.35039E-01 0.56887E-01 0.93900E-01 0.14904     0.21859     0.29016     0.34773     0.37926    
 0.37927     0.34774     0.29016     0.21858     0.14903     0.93896E-01 0.56886E-01 0.35039E-01 0.26258E-01 0.19443E-01
 0.16679E-01 0.15982E-01 0.15952E-01 0.15982E-01 0.16680E-01 0.19443E-01 0.26258E-01 0.40344E-01 0.66757E-01 0.11141    
 0.17665     0.25486     0.32841     0.37928     0.39718     0.37927     0.32839     0.25484     0.17664     0.11141    
 0.66758E-01 0.40345E-01 0.28785E-01 0.21020E-01 0.17887E-01 0.17269E-01 0.17568E-01 0.17568E-01 0.17269E-01 0.17887E-01
 0.21020E-01 0.28784E-01 0.44777E-01 0.74701E-01 0.12475     0.19550     0.27494     0.34198     0.37928     0.37926    
 0.34193     0.27490     0.19548     0.12475     0.74703E-01 0.44778E-01 0.30737E-01 0.22350E-01 0.19006E-01 0.18576E-01
 0.19479E-01 0.20067E-01 0.19478E-01 0.18576E-01 0.19006E-01 0.22350E-01 0.30736E-01 0.47946E-01 0.79858E-01 0.13199    
 0.20221     0.27494     0.32841     0.34773     0.32837     0.27488     0.20218     0.13198     0.79859E-01 0.47949E-01
 0.31963E-01 0.23301E-01 0.19900E-01 0.19722E-01 0.21359E-01 0.23052E-01 0.23051E-01 0.21357E-01 0.19720E-01 0.19899E-01
 0.23301E-01 0.31962E-01 0.49599E-01 0.81648E-01 0.13199     0.19550     0.25486     0.29016     0.29013     0.25481    
 0.19546     0.13197     0.81647E-01 0.49601E-01 0.32380E-01 0.23792E-01 0.20467E-01 0.20552E-01 0.22893E-01 0.25926E-01
 0.27359E-01 0.25922E-01 0.22890E-01 0.20550E-01 0.20467E-01 0.23792E-01 0.32379E-01 0.49599E-01 0.79858E-01 0.12475    
 0.17665     0.21859     0.23458     0.21856     0.17661     0.12473     0.79853E-01 0.49600E-01 0.31962E-01 0.23792E-01
 0.20659E-01 0.20980E-01 0.23873E-01 0.28127E-01 0.31430E-01 0.31427E-01 0.28121E-01 0.23869E-01 0.20979E-01 0.20659E-01
 0.23792E-01 0.31962E-01 0.47946E-01 0.74701E-01 0.11141     0.14904     0.17309     0.17307     0.14902     0.11139    
 0.74696E-01 0.47946E-01 0.30736E-01 0.23301E-01 0.20466E-01 0.20979E-01 0.24205E-01 0.29298E-01 0.34288E-01 0.36414E-01
 0.34282E-01 0.29292E-01 0.24202E-01 0.20979E-01 0.20467E-01 0.23301E-01 0.30736E-01 0.44777E-01 0.66757E-01 0.93900E-01
 0.11735     0.12668     0.11734     0.93889E-01 0.66753E-01 0.44776E-01 0.28785E-01 0.22350E-01 0.19899E-01 0.20550E-01
 0.23871E-01 0.29296E-01 0.35305E-01 0.39360E-01 0.39357E-01 0.35299E-01 0.29292E-01 0.23869E-01 0.20550E-01 0.19899E-01
 0.22350E-01 0.28784E-01 0.40344E-01 0.56887E-01 0.74636E-01 0.86437E-01 0.86435E-01 0.74631E-01 0.56885E-01 0.40344E-01
 0.26259E-01 0.21021E-01 0.19006E-01 0.19721E-01 0.22891E-01 0.28124E-01 0.34285E-01 0.39359E-01 0.41328E-01 0.39357E-01
 0.34282E-01 0.28121E-01 0.22890E-01 0.19720E-01 0.19006E-01 0.21020E-01 0.26258E-01 0.35039E-01 0.46214E-01 0.56127E-01
 0.60142E-01 0.56126E-01 0.46213E-01 0.35040E-01 0.23380E-01 0.19444E-01 0.17888E-01 0.18577E-01 0.21358E-01 0.25924E-01
 0.31428E-01 0.36414E-01 0.39359E-01 0.39360E-01 0.36414E-01 0.31427E-01 0.25922E-01 0.21357E-01 0.18576E-01 0.17887E-01
 0.19443E-01 0.23379E-01 0.29394E-01 0.35975E-01 0.40403E-01 0.40402E-01 0.35975E-01 0.29395E-01 0.20405E-01 0.17769E-01
 0.16681E-01 0.17270E-01 0.19480E-01 0.23052E-01 0.27359E-01 0.31428E-01 0.34285E-01 0.35305E-01 0.34288E-01 0.31430E-01
 0.27359E-01 0.23051E-01 0.19478E-01 0.17269E-01 0.16680E-01 0.17768E-01 0.20404E-01 0.23981E-01 0.27191E-01 0.28495E-01
 0.27191E-01 0.23982E-01 0.17561E-01 0.16117E-01 0.15505E-01 0.15984E-01 0.17570E-01 0.20069E-01 0.23052E-01 0.25924E-01
 0.28124E-01 0.29296E-01 0.29298E-01 0.28127E-01 0.25926E-01 0.23052E-01 0.20067E-01 0.17568E-01 0.15982E-01 0.15504E-01
 0.16115E-01 0.17560E-01 0.19255E-01 0.20402E-01 0.20402E-01 0.19256E-01 0.15002E-01 0.14541E-01 0.14422E-01 0.14872E-01
 0.15954E-01 0.17570E-01 0.19480E-01 0.21358E-01 0.22891E-01 0.23871E-01 0.24205E-01 0.23873E-01 0.22893E-01 0.21359E-01
 0.19479E-01 0.17568E-01 0.15952E-01 0.14870E-01 0.14420E-01 0.14540E-01 0.15001E-01 0.15472E-01 0.15665E-01 0.15472E-01
 0.12840E-01 0.13064E-01 0.13432E-01 0.14018E-01 0.14872E-01 0.15984E-01 0.17270E-01 0.18577E-01 0.19721E-01 0.20550E-01
 0.20979E-01 0.20980E-01 0.20552E-01 0.19722E-01 0.18576E-01 0.17269E-01 0.15982E-01 0.14870E-01 0.14016E-01 0.13430E-01
 0.13062E-01 0.12839E-01 0.12724E-01 0.12724E-01 0.11193E-01 0.11746E-01 0.12528E-01 0.13432E-01 0.14422E-01 0.15505E-01
 0.16681E-01 0.17888E-01 0.19006E-01 0.19899E-01 0.20466E-01 0.20659E-01 0.20467E-01 0.19900E-01 0.19006E-01 0.17887E-01
 0.16679E-01 0.15503E-01 0.14420E-01 0.13430E-01 0.12526E-01 0.11745E-01 0.11193E-01 0.10990E-01 0.10171E-01 0.10729E-01
 0.11746E-01 0.13064E-01 0.14541E-01 0.16117E-01 0.17769E-01 0.19444E-01 0.21021E-01 0.22350E-01 0.23301E-01 0.23792E-01
 0.23792E-01 0.23301E-01 0.22350E-01 0.21020E-01 0.19443E-01 0.17768E-01 0.16115E-01 0.14539E-01 0.13062E-01 0.11745E-01
 0.10728E-01 0.10171E-01 0.12320E-01 0.12785E-01 0.14331E-01 0.17328E-01 0.22174E-01 0.29098E-01 0.37991E-01 0.48293E-01
 0.59016E-01 0.68980E-01 0.77072E-01 0.82372E-01 0.84224E-01 0.82376E-01 0.77078E-01 0.68985E-01 0.59017E-01 0.48292E-01
 0.37989E-01 0.29095E-01 0.22172E-01 0.17327E-01 0.14330E-01 0.12784E-01 0.12784E-01 0.12784E-01 0.14269E-01 0.17786E-01
 0.24246E-01 0.34563E-01 0.49176E-01 0.67633E-01 0.88399E-01 0.10914     0.12737     0.14094     0.14821     0.14821    
 0.14095     0.12738     0.10915     0.88402E-01 0.67632E-01 0.49173E-01 0.34559E-01 0.24244E-01 0.17784E-01 0.14268E-01
 0.14330E-01 0.13335E-01 0.14330E-01 0.17786E-01 0.25057E-01 0.38108E-01 0.58723E-01 0.87371E-01 0.12237     0.15993    
 0.19525     0.22394     0.24264     0.24915     0.24266     0.22397     0.19528     0.15995     0.12238     0.87369E-01
 0.58719E-01 0.38104E-01 0.25054E-01 0.17784E-01 0.17327E-01 0.14560E-01 0.14560E-01 0.17328E-01 0.24246E-01 0.38108E-01
 0.62541E-01 0.10018     0.15039     0.20829     0.26606     0.31592     0.35210     0.37106     0.37107     0.35214    
 0.31596     0.26609     0.20830     0.15039     0.10018     0.62536E-01 0.38104E-01 0.24244E-01 0.22172E-01 0.16631E-01
 0.15080E-01 0.16631E-01 0.22173E-01 0.34562E-01 0.58724E-01 0.10018     0.16129     0.23770     0.31874     0.39211    
 0.44872     0.48386     0.49573     0.48390     0.44877     0.39215     0.31876     0.23771     0.16129     0.10018    
 0.58719E-01 0.34559E-01 0.29095E-01 0.19674E-01 0.16040E-01 0.16040E-01 0.19675E-01 0.29097E-01 0.49176E-01 0.87374E-01
 0.15040     0.23771     0.33798     0.43395     0.51150     0.56392     0.58993     0.58994     0.56396     0.51154    
 0.43397     0.33798     0.23771     0.15039     0.87369E-01 0.49173E-01 0.37989E-01 0.23688E-01 0.17533E-01 0.15841E-01
 0.17534E-01 0.23689E-01 0.37991E-01 0.67634E-01 0.12238     0.20830     0.31877     0.43397     0.53281     0.60376    
 0.64495     0.65832     0.64498     0.60379     0.53283     0.43397     0.31876     0.20830     0.12238     0.67632E-01
 0.48292E-01 0.28483E-01 0.19538E-01 0.16158E-01 0.16158E-01 0.19538E-01 0.28483E-01 0.48293E-01 0.88402E-01 0.15995    
 0.26610     0.39216     0.51155     0.60379     0.66269     0.69060     0.69060     0.66270     0.60379     0.51154    
 0.39215     0.26609     0.15995     0.88402E-01 0.59017E-01 0.33664E-01 0.21900E-01 0.16946E-01 0.15604E-01 0.16946E-01
 0.21900E-01 0.33664E-01 0.59016E-01 0.10914     0.19527     0.31597     0.44879     0.56399     0.64500     0.69061    
 0.70509     0.69060     0.64498     0.56396     0.44877     0.31596     0.19528     0.10915     0.68985E-01 0.38705E-01
 0.24362E-01 0.18041E-01 0.15716E-01 0.15716E-01 0.18041E-01 0.24362E-01 0.38704E-01 0.68981E-01 0.12737     0.22396    
 0.35215     0.48393     0.58999     0.65836     0.69061     0.69060     0.65832     0.58994     0.48390     0.35214    
 0.22397     0.12738     0.77078E-01 0.43062E-01 0.26627E-01 0.19208E-01 0.16229E-01 0.15472E-01 0.16229E-01 0.19208E-01
 0.26626E-01 0.43060E-01 0.77072E-01 0.14094     0.24266     0.37110     0.49579     0.58999     0.64500     0.66269    
 0.64495     0.58993     0.49573     0.37107     0.24266     0.14095     0.82376E-01 0.46267E-01 0.28426E-01 0.20222E-01
 0.16848E-01 0.15787E-01 0.15786E-01 0.16846E-01 0.20221E-01 0.28424E-01 0.46264E-01 0.82371E-01 0.14821     0.24916    
 0.37110     0.48393     0.56399     0.60379     0.60376     0.56392     0.48386     0.37106     0.24915     0.14821    
 0.84224E-01 0.47968E-01 0.29571E-01 0.20931E-01 0.17345E-01 0.16258E-01 0.16105E-01 0.16256E-01 0.17343E-01 0.20930E-01
 0.29569E-01 0.47965E-01 0.84220E-01 0.14821     0.24266     0.35215     0.44879     0.51155     0.53281     0.51150    
 0.44872     0.35210     0.24264     0.14821     0.82372E-01 0.47967E-01 0.29962E-01 0.21284E-01 0.17631E-01 0.16621E-01
 0.16661E-01 0.16660E-01 0.16618E-01 0.17628E-01 0.21283E-01 0.29961E-01 0.47965E-01 0.82371E-01 0.14094     0.22396    
 0.31597     0.39216     0.43397     0.43395     0.39211     0.31592     0.22394     0.14094     0.77072E-01 0.46264E-01
 0.29570E-01 0.21284E-01 0.17718E-01 0.16794E-01 0.17095E-01 0.17389E-01 0.17092E-01 0.16790E-01 0.17716E-01 0.21283E-01
 0.29569E-01 0.46264E-01 0.77072E-01 0.12737     0.19527     0.26610     0.31877     0.33798     0.31874     0.26606    
 0.19525     0.12737     0.68980E-01 0.43060E-01 0.28425E-01 0.20930E-01 0.17630E-01 0.16793E-01 0.17250E-01 0.17903E-01
 0.17901E-01 0.17247E-01 0.16790E-01 0.17628E-01 0.20930E-01 0.28424E-01 0.43060E-01 0.68981E-01 0.10914     0.15995    
 0.20830     0.23771     0.23770     0.20829     0.15993     0.10914     0.59016E-01 0.38705E-01 0.26627E-01 0.20221E-01
 0.17344E-01 0.16619E-01 0.17094E-01 0.17903E-01 0.18280E-01 0.17901E-01 0.17092E-01 0.16618E-01 0.17343E-01 0.20221E-01
 0.26626E-01 0.38704E-01 0.59016E-01 0.88402E-01 0.12238     0.15040     0.16129     0.15039     0.12237     0.88399E-01
 0.48293E-01 0.33665E-01 0.24364E-01 0.19209E-01 0.16848E-01 0.16257E-01 0.16660E-01 0.17389E-01 0.17903E-01 0.17903E-01
 0.17389E-01 0.16660E-01 0.16256E-01 0.16846E-01 0.19208E-01 0.24362E-01 0.33664E-01 0.48293E-01 0.67634E-01 0.87374E-01
 0.10018     0.10018     0.87371E-01 0.67633E-01 0.37991E-01 0.28485E-01 0.21901E-01 0.18042E-01 0.16231E-01 0.15788E-01
 0.16105E-01 0.16660E-01 0.17094E-01 0.17250E-01 0.17095E-01 0.16661E-01 0.16105E-01 0.15786E-01 0.16229E-01 0.18041E-01
 0.21900E-01 0.28483E-01 0.37991E-01 0.49176E-01 0.58724E-01 0.62541E-01 0.58723E-01 0.49176E-01 0.29098E-01 0.23690E-01
 0.19540E-01 0.16948E-01 0.15718E-01 0.15474E-01 0.15788E-01 0.16257E-01 0.16619E-01 0.16793E-01 0.16794E-01 0.16621E-01
 0.16258E-01 0.15787E-01 0.15472E-01 0.15716E-01 0.16946E-01 0.19538E-01 0.23689E-01 0.29097E-01 0.34562E-01 0.38108E-01
 0.38108E-01 0.34563E-01 0.22174E-01 0.19676E-01 0.17536E-01 0.16160E-01 0.15606E-01 0.15718E-01 0.16231E-01 0.16848E-01
 0.17344E-01 0.17630E-01 0.17718E-01 0.17631E-01 0.17345E-01 0.16848E-01 0.16229E-01 0.15716E-01 0.15604E-01 0.16158E-01
 0.17534E-01 0.19675E-01 0.22173E-01 0.24246E-01 0.25057E-01 0.24246E-01 0.17328E-01 0.16633E-01 0.16042E-01 0.15844E-01
 0.16160E-01 0.16948E-01 0.18042E-01 0.19209E-01 0.20221E-01 0.20930E-01 0.21284E-01 0.21284E-01 0.20931E-01 0.20222E-01
 0.19208E-01 0.18041E-01 0.16946E-01 0.16158E-01 0.15841E-01 0.16040E-01 0.16631E-01 0.17328E-01 0.17786E-01 0.17786E-01
 0.14331E-01 0.14561E-01 0.15081E-01 0.16042E-01 0.17536E-01 0.19540E-01 0.21901E-01 0.24364E-01 0.26627E-01 0.28425E-01
 0.29570E-01 0.29962E-01 0.29571E-01 0.28426E-01 0.26627E-01 0.24362E-01 0.21900E-01 0.19538E-01 0.17533E-01 0.16040E-01
 0.15080E-01 0.14560E-01 0.14330E-01 0.14269E-01 0.12785E-01 0.13335E-01 0.14561E-01 0.16633E-01 0.19676E-01 0.23690E-01
 0.28485E-01 0.33665E-01 0.38705E-01 0.43060E-01 0.46264E-01 0.47967E-01 0.47968E-01 0.46267E-01 0.43062E-01 0.38705E-01
 0.33664E-01 0.28483E-01 0.23688E-01 0.19674E-01 0.16631E-01 0.14560E-01 0.13335E-01 0.12784E-01 0.15570E-01 0.16363E-01
 0.19162E-01 0.25128E-01 0.35900E-01 0.53071E-01 0.77367E-01 0.10791     0.14199     0.17550     0.20387     0.22291    
 0.22964     0.22292     0.20389     0.17552     0.14200     0.10791     0.77365E-01 0.53068E-01 0.35896E-01 0.25126E-01
 0.19161E-01 0.16362E-01 0.16362E-01 0.16362E-01 0.19347E-01 0.26732E-01 0.41288E-01 0.66409E-01 0.10424     0.15378    
 0.21041     0.26708     0.31645     0.35264     0.37172     0.37174     0.35267     0.31648     0.26710     0.21043    
 0.15378     0.10424     0.66405E-01 0.41284E-01 0.26729E-01 0.19346E-01 0.19161E-01 0.17032E-01 0.19162E-01 0.26731E-01
 0.43449E-01 0.75133E-01 0.12677     0.19776     0.28015     0.36202     0.43265     0.48554     0.51787     0.52872    
 0.51790     0.48558     0.43269     0.36205     0.28017     0.19776     0.12677     0.75128E-01 0.43445E-01 0.26729E-01
 0.25126E-01 0.18918E-01 0.18918E-01 0.25127E-01 0.41288E-01 0.75134E-01 0.13569     0.22507     0.33201     0.43753    
 0.52643     0.59220     0.63456     0.65514     0.65515     0.63460     0.59225     0.52647     0.43756     0.33202    
 0.22507     0.13569     0.75128E-01 0.41284E-01 0.35896E-01 0.22838E-01 0.19307E-01 0.22839E-01 0.35899E-01 0.66410E-01
 0.12677     0.22508     0.35107     0.47829     0.58429     0.66128     0.71138     0.73920     0.74809     0.73922    
 0.71142     0.66132     0.58431     0.47830     0.35106     0.22507     0.12677     0.66405E-01 0.53068E-01 0.29645E-01
 0.21000E-01 0.21001E-01 0.29646E-01 0.53071E-01 0.10424     0.19777     0.33203     0.47830     0.60352     0.69419    
 0.75309     0.78754     0.80332     0.80333     0.78756     0.75312     0.69421     0.60353     0.47830     0.33202    
 0.19776     0.10424     0.77365E-01 0.39990E-01 0.24470E-01 0.20350E-01 0.24470E-01 0.39992E-01 0.77368E-01 0.15379    
 0.28018     0.43757     0.58432     0.69421     0.76616     0.80919     0.83170     0.83868     0.83171     0.80920    
 0.76617     0.69421     0.58431     0.43755     0.28017     0.15378     0.10791     0.53971E-01 0.29924E-01 0.21147E-01
 0.21147E-01 0.29925E-01 0.53972E-01 0.10791     0.21043     0.36206     0.52648     0.66133     0.75312     0.80920    
 0.84039     0.85421     0.85421     0.84039     0.80920     0.75312     0.66132     0.52646     0.36205     0.21043    
 0.14200     0.70799E-01 0.37184E-01 0.23327E-01 0.19631E-01 0.23327E-01 0.37184E-01 0.70799E-01 0.14199     0.26710    
 0.43269     0.59226     0.71144     0.78757     0.83172     0.85422     0.86108     0.85421     0.83171     0.78756    
 0.71142     0.59225     0.43269     0.26710     0.17552     0.88748E-01 0.45562E-01 0.26562E-01 0.19547E-01 0.19547E-01
 0.26562E-01 0.45561E-01 0.88744E-01 0.17551     0.31647     0.48558     0.63461     0.73925     0.80336     0.83870    
 0.85422     0.85421     0.83868     0.80333     0.73922     0.63460     0.48558     0.31648     0.20389     0.10546    
 0.53934E-01 0.30263E-01 0.20406E-01 0.17729E-01 0.20406E-01 0.30262E-01 0.53932E-01 0.10546     0.20387     0.35266    
 0.51791     0.65518     0.74813     0.80336     0.83172     0.84039     0.83170     0.80332     0.74809     0.65515    
 0.51790     0.35267     0.22292     0.11846     0.61040E-01 0.33709E-01 0.21661E-01 0.17128E-01 0.17127E-01 0.21660E-01
 0.33707E-01 0.61036E-01 0.11845     0.22291     0.37173     0.52875     0.65518     0.73925     0.78757     0.80920    
 0.80919     0.78754     0.73920     0.65514     0.52872     0.37174     0.22964     0.12560     0.65789E-01 0.36285E-01
 0.22813E-01 0.17133E-01 0.15578E-01 0.17132E-01 0.22810E-01 0.36282E-01 0.65784E-01 0.12559     0.22963     0.37173    
 0.51791     0.63461     0.71144     0.75312     0.76616     0.75309     0.71138     0.63456     0.51787     0.37172    
 0.22291     0.12560     0.67456E-01 0.37636E-01 0.23559E-01 0.17310E-01 0.14975E-01 0.14974E-01 0.17307E-01 0.23556E-01
 0.37633E-01 0.67453E-01 0.12559     0.22291     0.35266     0.48558     0.59226     0.66133     0.69421     0.69419    
 0.66128     0.59220     0.48554     0.35264     0.20387     0.11845     0.65786E-01 0.37635E-01 0.23809E-01 0.17432E-01
 0.14806E-01 0.14120E-01 0.14803E-01 0.17429E-01 0.23806E-01 0.37633E-01 0.65784E-01 0.11845     0.20387     0.31647    
 0.43269     0.52648     0.58432     0.60352     0.58429     0.52643     0.43265     0.31645     0.17550     0.10546    
 0.61036E-01 0.36283E-01 0.23557E-01 0.17432E-01 0.14780E-01 0.13881E-01 0.13879E-01 0.14777E-01 0.17429E-01 0.23556E-01
 0.36282E-01 0.61036E-01 0.10546     0.17551     0.26710     0.36206     0.43757     0.47830     0.47829     0.43753    
 0.36202     0.26708     0.14199     0.88743E-01 0.53933E-01 0.33708E-01 0.22811E-01 0.17309E-01 0.14805E-01 0.13881E-01
 0.13678E-01 0.13879E-01 0.14803E-01 0.17307E-01 0.22810E-01 0.33707E-01 0.53932E-01 0.88744E-01 0.14199     0.21043    
 0.28018     0.33203     0.35107     0.33201     0.28016     0.21041     0.10791     0.70799E-01 0.45562E-01 0.30264E-01
 0.21662E-01 0.17133E-01 0.14975E-01 0.14120E-01 0.13881E-01 0.13881E-01 0.14120E-01 0.14974E-01 0.17132E-01 0.21660E-01
 0.30262E-01 0.45561E-01 0.70799E-01 0.10791     0.15379     0.19777     0.22508     0.22507     0.19776     0.15378    
 0.77367E-01 0.53973E-01 0.37186E-01 0.26564E-01 0.20408E-01 0.17129E-01 0.15578E-01 0.14975E-01 0.14805E-01 0.14780E-01
 0.14806E-01 0.14975E-01 0.15578E-01 0.17127E-01 0.20406E-01 0.26562E-01 0.37184E-01 0.53972E-01 0.77368E-01 0.10424    
 0.12677     0.13569     0.12677     0.10424     0.53072E-01 0.39993E-01 0.29927E-01 0.23329E-01 0.19549E-01 0.17731E-01
 0.17129E-01 0.17133E-01 0.17309E-01 0.17432E-01 0.17432E-01 0.17310E-01 0.17133E-01 0.17128E-01 0.17729E-01 0.19547E-01
 0.23327E-01 0.29925E-01 0.39992E-01 0.53071E-01 0.66410E-01 0.75134E-01 0.75133E-01 0.66409E-01 0.35900E-01 0.29648E-01
 0.24473E-01 0.21149E-01 0.19633E-01 0.19549E-01 0.20408E-01 0.21662E-01 0.22811E-01 0.23557E-01 0.23809E-01 0.23559E-01
 0.22813E-01 0.21661E-01 0.20406E-01 0.19547E-01 0.19631E-01 0.21147E-01 0.24470E-01 0.29646E-01 0.35899E-01 0.41288E-01
 0.43449E-01 0.41288E-01 0.25128E-01 0.22840E-01 0.21003E-01 0.20352E-01 0.21149E-01 0.23329E-01 0.26564E-01 0.30264E-01
 0.33708E-01 0.36283E-01 0.37635E-01 0.37636E-01 0.36285E-01 0.33709E-01 0.30263E-01 0.26562E-01 0.23327E-01 0.21147E-01
 0.20350E-01 0.21001E-01 0.22839E-01 0.25127E-01 0.26731E-01 0.26732E-01 0.19162E-01 0.18919E-01 0.19309E-01 0.21003E-01
 0.24473E-01 0.29927E-01 0.37186E-01 0.45562E-01 0.53933E-01 0.61036E-01 0.65786E-01 0.67456E-01 0.65789E-01 0.61040E-01
 0.53934E-01 0.45562E-01 0.37184E-01 0.29924E-01 0.24470E-01 0.21000E-01 0.19307E-01 0.18918E-01 0.19162E-01 0.19347E-01
 0.16363E-01 0.17033E-01 0.18919E-01 0.22840E-01 0.29648E-01 0.39993E-01 0.53973E-01 0.70799E-01 0.88743E-01 0.10546    
 0.11845     0.12560     0.12560     0.11846     0.10546     0.88748E-01 0.70799E-01 0.53971E-01 0.39990E-01 0.29645E-01
 0.22838E-01 0.18918E-01 0.17032E-01 0.16362E-01 0.18345E-01 0.19683E-01 0.24437E-01 0.34884E-01 0.54878E-01 0.89010E-01
 0.14002     0.20576     0.27843     0.34720     0.40230     0.43736     0.44934     0.43738     0.40233     0.34723    
 0.27845     0.20577     0.14002     0.89007E-01 0.54874E-01 0.34881E-01 0.24436E-01 0.19682E-01 0.19682E-01 0.19683E-01
 0.24902E-01 0.38115E-01 0.65196E-01 0.11379     0.18794     0.28195     0.38135     0.47080     0.54055     0.58699    
 0.60994     0.60995     0.58702     0.54059     0.47084     0.38137     0.28196     0.18794     0.11378     0.65191E-01
 0.38113E-01 0.24901E-01 0.24436E-01 0.20695E-01 0.24437E-01 0.38115E-01 0.69391E-01 0.12965     0.22543     0.34640    
 0.46844     0.57129     0.64736     0.69774     0.72607     0.73518     0.72609     0.69778     0.64740     0.57133    
 0.46846     0.34640     0.22543     0.12964     0.69386E-01 0.38113E-01 0.34881E-01 0.23747E-01 0.23747E-01 0.34883E-01
 0.65196E-01 0.12965     0.23961     0.38279     0.52447     0.63774     0.71715     0.76849     0.79879     0.81283    
 0.81284     0.79881     0.76852     0.71718     0.63776     0.52448     0.38279     0.23960     0.12964     0.65191E-01
 0.54874E-01 0.30522E-01 0.24265E-01 0.30523E-01 0.54877E-01 0.11379     0.22544     0.38280     0.54354     0.66992    
 0.75521     0.80882     0.84085     0.85787     0.86322     0.85789     0.84087     0.80884     0.75522     0.66993    
 0.54353     0.38279     0.22543     0.11378     0.89007E-01 0.43242E-01 0.27300E-01 0.27300E-01 0.43244E-01 0.89011E-01
 0.18795     0.34641     0.52449     0.66994     0.76720     0.82694     0.86246     0.88242     0.89144     0.89145    