       N       E                     dE             d eps       ncg     rms          rms(c)
DAV:   1     0.190417678163E+03    0.19042E+03   -0.14936E+04  6160   0.127E+03
DAV:   2    -0.242924354810E+02   -0.21471E+03   -0.20755E+03  8070   0.270E+02
DAV:   3    -0.409419928749E+02   -0.16650E+02   -0.16424E+02  8378   0.710E+01
DAV:   4    -0.414239302765E+02   -0.48194E+00   -0.48103E+00  8468   0.127E+01
DAV:   5    -0.414394036243E+02   -0.15473E-01   -0.15463E-01  8840   0.202E+00
RMM:   6    -0.414397449096E+02   -0.34129E-03   -0.34129E-03  6374   0.311E-01
RMM:   7    -0.414398275751E+02   -0.82665E-04   -0.83285E-04  8930   0.689E-02
RMM:   8    -0.414398312564E+02   -0.36813E-05   -0.53411E-05  6051   0.105E-02
RMM:   9    -0.414398315209E+02   -0.26454E-06   -0.37199E-06  4495   0.394E-03
   1 F= -.41439832E+02 E0= -.41439830E+02  d E =-.313647E-05
