 vasp.5.4.4.18Apr17-6-g9f103f2a35 (build Jun 30 2017 11:15:00) complex          
  
 executed on    STALLO_VASP_5.4.4 date 2019.11.08  15:27:22
 running on    4 total cores
 distrk:  each k-point on    4 cores,    1 groups
 distr:  one band on NCORES_PER_BAND=   2 cores,    2 groups


--------------------------------------------------------------------------------------------------------


 INCAR:
 POTCAR:   PAW_PBE Mo 08Apr2002                   
 POTCAR:    PAW_PBE S 17Jan2003                   
 POTCAR:   PAW_PBE Mo 08Apr2002                   
   VRHFIN =Mo: 4p5s4d                                                           
   LEXCH  = PE                                                                  
   EATOM  =   217.5180 eV,   15.9871 Ry                                         
                                                                                
   TITEL  = PAW_PBE Mo 08Apr2002                                                
   LULTRA =        F    use ultrasoft PP ?                                      
   IUNSCR =        1    unscreen: 0-lin 1-nonlin 2-no                           
   RPACOR =    2.200    partial core radius                                     
   POMASS =   95.940; ZVAL   =    6.000    mass and valenz                      
   RCORE  =    2.750    outmost cutoff radius                                   
   RWIGS  =    2.750; RWIGS  =    1.455    wigner-seitz radius (au A)           
   ENMAX  =  224.584; ENMIN  =  168.438 eV                                      
   RCLOC  =    2.111    cutoff for local pot                                    
   LCOR   =        T    correct aug charges                                     
   LPAW   =        T    paw PP                                                  
   EAUG   =  345.278                                                            
   DEXC   =    -.088                                                            
   RMAX   =    3.077    core radius for proj-oper                               
   RAUG   =    1.300    factor for augmentation sphere                          
   RDEP   =    2.815    radius for radial grids                                 
   QCUT   =   -4.063; QGAM   =    8.126    optimization parameters              
                                                                                
   Description                                                                  
     l     E      TYP  RCUT    TYP  RCUT                                        
     2   .000     23  2.500                                                     
     2   .000     23  2.500                                                     
     0   .000     23  2.600                                                     
     0  1.000     23  2.600                                                     
     1   .400     23  2.750                                                     
     1  2.000     23  2.750                                                     
     3   .000      7   .000                                                     
  local pseudopotential read in
  partial core-charges read in
  atomic valenz-charges read in
  non local Contribution for L=           2  read in
    real space projection operators read in
  non local Contribution for L=           2  read in
    real space projection operators read in
  non local Contribution for L=           0  read in
    real space projection operators read in
  non local Contribution for L=           0  read in
    real space projection operators read in
  non local Contribution for L=           1  read in
    real space projection operators read in
  non local Contribution for L=           1  read in
    real space projection operators read in
    PAW grid and wavefunctions read in
 
   number of l-projection  operators is LMAX  =           6
   number of lm-projection operators is LMMAX =          18
 
 POTCAR:    PAW_PBE S 17Jan2003                   
   VRHFIN =S : s2p4                                                             
   LEXCH  = PE                                                                  
   EATOM  =   276.8230 eV,   20.3459 Ry                                         
                                                                                
   TITEL  = PAW_PBE S 17Jan2003                                                 
   LULTRA =        F    use ultrasoft PP ?                                      
   IUNSCR =        1    unscreen: 0-lin 1-nonlin 2-no                           
   RPACOR =    1.500    partial core radius                                     
   POMASS =   32.066; ZVAL   =    6.000    mass and valenz                      
   RCORE  =    1.900    outmost cutoff radius                                   
   RWIGS  =    2.200; RWIGS  =    1.164    wigner-seitz radius (au A)           
   ENMAX  =  280.000; ENMIN  =  194.016 eV                                      
   ICORE  =        2    local potential                                         
   LCOR   =        T    correct aug charges                                     
   LPAW   =        T    paw PP                                                  
   EAUG   =  335.092                                                            
   DEXC   =     .000                                                            
   RMAX   =    2.867    core radius for proj-oper                               
   RAUG   =    1.300    factor for augmentation sphere                          
   RDEP   =    1.954    radius for radial grids                                 
   QCUT   =   -4.360; QGAM   =    8.721    optimization parameters              
                                                                                
   Description                                                                  
     l     E      TYP  RCUT    TYP  RCUT                                        
     0   .000     23  1.900                                                     
     0   .000     23  1.900                                                     
     1   .000     23  1.900                                                     
     1   .000     23  1.900                                                     
     2   .000     23  1.900                                                     
  local pseudopotential read in
  partial core-charges read in
  atomic valenz-charges read in
  non local Contribution for L=           0  read in
    real space projection operators read in
  non local Contribution for L=           0  read in
    real space projection operators read in
  non local Contribution for L=           1  read in
    real space projection operators read in
  non local Contribution for L=           1  read in
    real space projection operators read in
    PAW grid and wavefunctions read in
 
   number of l-projection  operators is LMAX  =           4
   number of lm-projection operators is LMMAX =           8
 
 PAW_PBE Mo 08Apr2002                   :
 energy of atom  1       EATOM= -217.5180
 kinetic energy error for atom=    0.0023 (will be added to EATOM!!)
  PAW_PBE S 17Jan2003                   :
 energy of atom  2       EATOM= -276.8230
 kinetic energy error for atom=    0.0033 (will be added to EATOM!!)
 
 
 POSCAR: unknown system                          
  positions in direct lattice
  velocities in cartesian coordinates
 exchange correlation table for  LEXCH =        8
   RHO(1)=    0.500       N(1)  =     2000
   RHO(2)=  100.500       N(2)  =     4000
 


--------------------------------------------------------------------------------------------------------


 ion  position               nearest neighbor table
   1  0.333  0.667  0.250-   4 2.41   5 2.41   4 2.41   5 2.41   5 2.41   4 2.41
   2  0.667  0.333  0.750-   3 2.41   6 2.41   3 2.41   6 2.41   6 2.41   3 2.41
   3  0.333  0.667  0.867-   2 2.41   2 2.41   2 2.41
   4  0.667  0.333  0.133-   1 2.41   1 2.41   1 2.41
   5  0.667  0.333  0.367-   1 2.41   1 2.41   1 2.41
   6  0.333  0.667  0.633-   2 2.41   2 2.41   2 2.41
 
  LATTYP: Found a hexagonal cell.
 ALAT       =     3.1922739082
 C/A-ratio  =     4.1605291851
  
  Lattice vectors:
  
 A1 = (   3.1922737479,   0.0000000000,   0.0000000000)
 A2 = (  -1.5961368740,   2.7645903466,   0.0000000000)
 A3 = (   0.0000000000,   0.0000000000,  13.2815487621)


Analysis of symmetry for initial positions (statically):
=====================================================================
 Subroutine PRICEL returns:
 Original cell was already a primitive cell.
 

 Routine SETGRP: Setting up the symmetry group for a 
 hexagonal supercell.


 Subroutine GETGRP returns: Found 24 space group operations
 (whereof 12 operations were pure point group operations)
 out of a pool of 24 trial point group operations.


The static configuration has the point symmetry D_3d.
 The point group associated with its full space group is D_6h.


Analysis of symmetry for dynamics (positions and initial velocities):
=====================================================================
 Subroutine PRICEL returns:
 Original cell was already a primitive cell.
 

 Routine SETGRP: Setting up the symmetry group for a 
 hexagonal supercell.


 Subroutine GETGRP returns: Found 24 space group operations
 (whereof 12 operations were pure point group operations)
 out of a pool of 24 trial point group operations.


The dynamic configuration has the point symmetry D_3d.
 The point group associated with its full space group is D_6h.


 Subroutine INISYM returns: Found 24 space group operations
 (whereof 12 operations are pure point group operations),
 and found     1 'primitive' translations

 
 
 KPOINTS: HEX (hexagonal) G-M-K-G-A-L-H-A L-M K-H 
  interpolating k-points between supplied coordinates
  k-points in reciprocal lattice
Space group operators:
 irot       det(A)        alpha          n_x          n_y          n_z        tau_x        tau_y        tau_z
    1     1.000000     0.000000     1.000000     0.000000     0.000000     0.000000     0.000000     0.000000
    2    -1.000000     0.000000     1.000000     0.000000     0.000000     0.000000     0.000000     0.000000
    3     1.000000   120.000000     0.000000     0.000000    -1.000000     0.000000     0.000000     0.000000
    4    -1.000000   120.000000     0.000000     0.000000    -1.000000     0.000000     0.000000     0.000000
    5     1.000000   120.000000     0.000000     0.000000     1.000000     0.000000     0.000000     0.000000
    6    -1.000000   120.000000     0.000000     0.000000     1.000000     0.000000     0.000000     0.000000
    7     1.000000   180.000000     1.000000    -0.000000     0.000000     0.000000     0.000000     0.000000
    8    -1.000000   180.000000     1.000000    -0.000000     0.000000     0.000000     0.000000     0.000000
    9     1.000000   179.999999     0.500000    -0.866025     0.000000     0.000000     0.000000     0.000000
   10    -1.000000   179.999999     0.500000    -0.866025     0.000000     0.000000     0.000000     0.000000
   11     1.000000   180.000000    -0.500000    -0.866025     0.000000     0.000000     0.000000     0.000000
   12    -1.000000   180.000000    -0.500000    -0.866025     0.000000     0.000000     0.000000     0.000000
   13     1.000000    60.000000     0.000000     0.000000    -1.000000     0.000001     0.000000     0.500000
   14    -1.000000    60.000000     0.000000     0.000000    -1.000000     0.000001     0.000000     0.500000
   15     1.000000   180.000000     0.000000     0.000000     1.000000     0.000000     0.000000     0.500000
   16    -1.000000   180.000000     0.000000     0.000000     1.000000     0.000000     0.000000     0.500000
   17     1.000000    60.000000     0.000000     0.000000     1.000000     0.000000     0.000000     0.500000
   18    -1.000000    60.000000     0.000000     0.000000     1.000000     0.000000     0.000000     0.500000
   19     1.000000   180.000000     0.866025    -0.500000     0.000000     0.000000     0.000000     0.500000
   20    -1.000000   180.000000     0.866025    -0.500000     0.000000     0.000000     0.000000     0.500000
   21     1.000000   180.000000     0.000000    -1.000000     0.000000     0.000001     0.000000     0.500000
   22    -1.000000   180.000000     0.000000    -1.000000     0.000000     0.000001     0.000000     0.500000
   23     1.000000   180.000000     0.866025     0.500000     0.000000     0.000000     0.000000     0.500000
   24    -1.000000   180.000000     0.866025     0.500000     0.000000     0.000000     0.000000     0.500000


--------------------------------------------------------------------------------------------------------




 Dimension of arrays:
   k-points           NKPTS =    140   k-points in BZ     NKDIM =    140   number of bands    NBANDS=     22
   number of dos      NEDOS =   2401   number of ions     NIONS =      6
   non local maximal  LDIM  =      6   non local SUM 2l+1 LMDIM =     18
   total plane-waves  NPLWV =  55296
   max r-space proj   IRMAX =      1   max aug-charges    IRDMAX=  30485
   dimension x,y,z NGX =    24 NGY =   24 NGZ =   96
   dimension x,y,z NGXF=    48 NGYF=   48 NGZF=  192
   support grid    NGXF=    48 NGYF=   48 NGZF=  192
   ions per type =               2   4
   NGX,Y,Z   is equivalent  to a cutoff of  12.50, 12.50, 12.02 a.u.
   NGXF,Y,Z  is equivalent  to a cutoff of  25.00, 25.00, 24.03 a.u.

 SYSTEM =  unknown system                          
 POSCAR =  unknown system                          

 Startparameter for this run:
   NWRITE =      2    write-flag & timer
   PREC   = accura    normal or accurate (medium, high low for compatibility)
   ISTART =      0    job   : 0-new  1-cont  2-samecut
   ICHARG =     11    charge: 1-file 2-atom 10-const
   ISPIN  =      1    spin polarized calculation?
   LNONCOLLINEAR =      F non collinear calculations
   LSORBIT =      F    spin-orbit coupling
   INIWAV =      1    electr: 0-lowe 1-rand  2-diag
   LASPH  =      F    aspherical Exc in radial PAW
   METAGGA=      F    non-selfconsistent MetaGGA calc.

 Electronic Relaxation 1
   ENCUT  =  450.0 eV  33.07 Ry    5.75 a.u.   5.52  5.52 22.97*2*pi/ulx,y,z
   ENINI  =  450.0     initial cutoff
   ENAUG  =  345.3 eV  augmentation charge cutoff
   NELM   =     60;   NELMIN=  4; NELMDL=  0     # of ELM steps 
   EDIFF  = 0.1E-05   stopping-criterion for ELM
   LREAL  =      F    real-space projection
   NLSPLINE    = F    spline interpolate recip. space projectors
   LCOMPAT=      F    compatible to vasp.4.4
   GGA_COMPAT  = T    GGA compatible to vasp.4.4-vasp.4.6
   LMAXPAW     = -100 max onsite density
   LMAXMIX     =    2 max onsite mixed and CHGCAR
   VOSKOWN=      0    Vosko Wilk Nusair interpolation
   ROPT   =    0.00000   0.00000
 Ionic relaxation
   EDIFFG = 0.1E-04   stopping-criterion for IOM
   NSW    =      0    number of steps for IOM
   NBLOCK =      1;   KBLOCK =      1    inner block; outer block 
   IBRION =     -1    ionic relax: 0-MD 1-quasi-New 2-CG
   NFREE  =      0    steps in history (QN), initial steepest desc. (CG)
   ISIF   =      2    stress and relaxation
   IWAVPR =     10    prediction:  0-non 1-charg 2-wave 3-comb
   ISYM   =      2    0-nonsym 1-usesym 2-fastsym
   LCORR  =      T    Harris-Foulkes like correction to forces

   POTIM  = 0.5000    time-step for ionic-motion
   TEIN   =    0.0    initial temperature
   TEBEG  =    0.0;   TEEND  =   0.0 temperature during run
   SMASS  =  -3.00    Nose mass-parameter (am)
   estimated Nose-frequenzy (Omega)   =  0.10E-29 period in steps =****** mass=  -0.233E-27a.u.
   SCALEE = 1.0000    scale energy and forces
   NPACO  =    256;   APACO  = 16.0  distance and # of slots for P.C.
   PSTRESS=    0.0 pullay stress

  Mass of Ions in am
   POMASS =  95.94 32.07
  Ionic Valenz
   ZVAL   =   6.00  6.00
  Atomic Wigner-Seitz radii
   RWIGS  =  -1.00 -1.00
  virtual crystal weights 
   VCA    =   1.00  1.00
   NELECT =      36.0000    total number of electrons
   NUPDOWN=      -1.0000    fix difference up-down

 DOS related values:
   EMIN   = -12.00;   EMAX   = 12.00  energy-range for DOS
   EFERMI =   0.00
   ISMEAR =     0;   SIGMA  =   0.20  broadening in eV -4-tet -1-fermi 0-gaus

 Electronic relaxation 2 (details)
   IALGO  =     68    algorithm
   LDIAG  =      T    sub-space diagonalisation (order eigenvalues)
   LSUBROT=      F    optimize rotation matrix (better conditioning)
   TURBO    =      0    0=normal 1=particle mesh
   IRESTART =      0    0=no restart 2=restart with 2 vectors
   NREBOOT  =      0    no. of reboots
   NMIN     =      0    reboot dimension
   EREF     =   0.00    reference energy to select bands
   IMIX   =      4    mixing-type and parameters
     AMIX     =   0.40;   BMIX     =  1.00
     AMIX_MAG =   1.60;   BMIX_MAG =  1.00
     AMIN     =   0.10
     WC   =   100.;   INIMIX=   1;  MIXPRE=   1;  MAXMIX= -45

 Intra band minimization:
   WEIMIN = 0.0000     energy-eigenvalue tresh-hold
   EBREAK =  0.11E-07  absolut break condition
   DEPER  =   0.30     relativ break condition  

   TIME   =   0.40     timestep for ELM

  volume/ion in A,a.u.               =      19.54       131.83
  Fermi-wavevector in a.u.,A,eV,Ry     =   1.104543  2.087283 16.599302  1.220014
  Thomas-Fermi vector in A             =   2.241017
 
 Write flags
   LWAVE        =      F    write WAVECAR
   LDOWNSAMPLE  =      F    k-point downsampling of WAVECAR
   LCHARG       =      T    write CHGCAR
   LVTOT        =      F    write LOCPOT, total local potential
   LVHAR        =      F    write LOCPOT, Hartree potential only
   LELF         =      T    write electronic localiz. function (ELF)
   LORBIT       =     11    0 simple, 1 ext, 2 COOP (PROOUT), +10 PAW based schemes


 Dipole corrections
   LMONO  =      F    monopole corrections only (constant potential shift)
   LDIPOL =      F    correct potential (dipole corrections)
   IDIPOL =      0    1-x, 2-y, 3-z, 4-all directions 
   EPSILON=  1.0000000 bulk dielectric constant

 Exchange correlation treatment:
   GGA     =    --    GGA type
   LEXCH   =     8    internal setting for exchange type
   VOSKOWN=      0    Vosko Wilk Nusair interpolation
   LHFCALC =     F    Hartree Fock is set to
   LHFONE  =     F    Hartree Fock one center treatment
   AEXX    =    0.0000 exact exchange contribution

 Linear response parameters
   LEPSILON=     F    determine dielectric tensor
   LRPA    =     F    only Hartree local field effects (RPA)
   LNABLA  =     F    use nabla operator in PAW spheres
   LVEL    =     F    velocity operator in full k-point grid
   LINTERFAST=   F  fast interpolation
   KINTER  =     0    interpolate to denser k-point grid
   CSHIFT  =0.1000    complex shift for real part using Kramers Kronig
   OMEGAMAX=  -1.0    maximum frequency
   DEG_THRESHOLD= 0.2000000E-02 threshold for treating states as degnerate
   RTIME   =   -0.100 relaxation time in fs
  (WPLASMAI=    0.000 imaginary part of plasma frequency in eV, 0.658/RTIME)
   DFIELD  = 0.0000000 0.0000000 0.0000000 field for delta impulse in time
 
 Orbital magnetization related:
   ORBITALMAG=     F  switch on orbital magnetization
   LCHIMAG   =     F  perturbation theory with respect to B field
   DQ        =  0.001000  dq finite difference perturbation B field
   LLRAUG    =     F  two centre corrections for induced B field



--------------------------------------------------------------------------------------------------------


 Static calculation
 charge density and potential remain constant during run
 non-spin polarized calculation
 RMM-DIIS sequential band-by-band and
  variant of blocked Davidson during initial phase
 perform sub-space diagonalisation
    before iterative eigenvector-optimisation
 no mixing
 using additional bands            4
 reciprocal scheme for non local part
 use partial core corrections
 calculate Harris-corrections to forces 
   (improved forces if not selfconsistent)
 use gradient corrections 
 WARNING: stress and forces are not correct
  (second derivative of E(xc) not defined)
 use of overlap-Matrix (Vanderbilt PP)
 Gauss-broadening in eV      SIGMA  =   0.20


--------------------------------------------------------------------------------------------------------


  energy-cutoff  :      450.00
  volume of cell :      117.21
      direct lattice vectors                 reciprocal lattice vectors
     3.192273748  0.000000000  0.000000000     0.313256343  0.180858622  0.000000000
    -1.596136874  2.764590347  0.000000000    -0.000000000  0.361717244  0.000000000
     0.000000000  0.000000000 13.281548762     0.000000000  0.000000000  0.075292424

  length of vectors
     3.192273748  3.192273908 13.281548762     0.361717262  0.361717244  0.075292424


 
 k-points in units of 2pi/SCALE and weight: HEX (hexagonal) G-M-K-G-A-L-H-A L-M K-H 
   0.00000000  0.00000000  0.00000000       0.007
   0.00824359  0.00475944  0.00000000       0.007
   0.01648718  0.00951887  0.00000000       0.007
   0.02473076  0.01427831  0.00000000       0.007
   0.03297435  0.01903775  0.00000000       0.007
   0.04121794  0.02379719  0.00000000       0.007
   0.04946153  0.02855662  0.00000000       0.007
   0.05770512  0.03331606  0.00000000       0.007
   0.06594870  0.03807550  0.00000000       0.007
   0.07419229  0.04283494  0.00000000       0.007
   0.08243588  0.04759437  0.00000000       0.007
   0.09067947  0.05235381  0.00000000       0.007
   0.09892306  0.05711325  0.00000000       0.007
   0.10716664  0.06187269  0.00000000       0.007
   0.11541023  0.06663212  0.00000000       0.007
   0.12365382  0.07139156  0.00000000       0.007
   0.13189741  0.07615100  0.00000000       0.007
   0.14014100  0.08091044  0.00000000       0.007
   0.14838458  0.08566987  0.00000000       0.007
   0.15662817  0.09042931  0.00000000       0.007
   0.15662817  0.09042931  0.00000000       0.007
   0.15387976  0.09518780  0.00000000       0.007
   0.15113135  0.09994628  0.00000000       0.007
   0.14838293  0.10470477  0.00000000       0.007
   0.14563452  0.10946325  0.00000000       0.007
   0.14288611  0.11422174  0.00000000       0.007
   0.14013770  0.11898022  0.00000000       0.007
   0.13738929  0.12373871  0.00000000       0.007
   0.13464087  0.12849720  0.00000000       0.007
   0.13189246  0.13325568  0.00000000       0.007
   0.12914405  0.13801417  0.00000000       0.007
   0.12639564  0.14277265  0.00000000       0.007
   0.12364722  0.14753114  0.00000000       0.007
   0.12089881  0.15228962  0.00000000       0.007
   0.11815040  0.15704811  0.00000000       0.007
   0.11540199  0.16180659  0.00000000       0.007
   0.11265358  0.16656508  0.00000000       0.007
   0.10990516  0.17132356  0.00000000       0.007
   0.10715675  0.17608205  0.00000000       0.007
   0.10440834  0.18084054  0.00000000       0.007
   0.10440834  0.18084054  0.00000000       0.007
   0.09891316  0.17132261  0.00000000       0.007
   0.09341799  0.16180469  0.00000000       0.007
   0.08792281  0.15228677  0.00000000       0.007
   0.08242764  0.14276884  0.00000000       0.007
   0.07693246  0.13325092  0.00000000       0.007
   0.07143728  0.12373300  0.00000000       0.007
   0.06594211  0.11421508  0.00000000       0.007
   0.06044693  0.10469715  0.00000000       0.007
   0.05495176  0.09517923  0.00000000       0.007
   0.04945658  0.08566131  0.00000000       0.007
   0.04396141  0.07614338  0.00000000       0.007
   0.03846623  0.06662546  0.00000000       0.007
   0.03297105  0.05710754  0.00000000       0.007
   0.02747588  0.04758961  0.00000000       0.007
   0.02198070  0.03807169  0.00000000       0.007
   0.01648553  0.02855377  0.00000000       0.007
   0.01099035  0.01903585  0.00000000       0.007
   0.00549518  0.00951792  0.00000000       0.007
   0.00000000  0.00000000  0.00000000       0.007
   0.00000000  0.00000000  0.00000000       0.007
   0.00000000  0.00000000  0.00198138       0.007
   0.00000000  0.00000000  0.00396276       0.007
   0.00000000  0.00000000  0.00594414       0.007
   0.00000000  0.00000000  0.00792552       0.007
   0.00000000  0.00000000  0.00990690       0.007
   0.00000000  0.00000000  0.01188828       0.007
   0.00000000  0.00000000  0.01386966       0.007
   0.00000000  0.00000000  0.01585104       0.007
   0.00000000  0.00000000  0.01783242       0.007
   0.00000000  0.00000000  0.01981380       0.007
   0.00000000  0.00000000  0.02179518       0.007
   0.00000000  0.00000000  0.02377655       0.007
   0.00000000  0.00000000  0.02575793       0.007
   0.00000000  0.00000000  0.02773931       0.007
   0.00000000  0.00000000  0.02972069       0.007
   0.00000000  0.00000000  0.03170207       0.007
   0.00000000  0.00000000  0.03368345       0.007
   0.00000000  0.00000000  0.03566483       0.007
   0.00000000  0.00000000  0.03764621       0.007
   0.00000000  0.00000000  0.03764621       0.007
   0.00824359  0.00475944  0.03764621       0.007
   0.01648718  0.00951887  0.03764621       0.007
   0.02473076  0.01427831  0.03764621       0.007
   0.03297435  0.01903775  0.03764621       0.007
   0.04121794  0.02379719  0.03764621       0.007
   0.04946153  0.02855662  0.03764621       0.007
   0.05770512  0.03331606  0.03764621       0.007
   0.06594870  0.03807550  0.03764621       0.007
   0.07419229  0.04283494  0.03764621       0.007
   0.08243588  0.04759437  0.03764621       0.007
   0.09067947  0.05235381  0.03764621       0.007
   0.09892306  0.05711325  0.03764621       0.007
   0.10716664  0.06187269  0.03764621       0.007
   0.11541023  0.06663212  0.03764621       0.007
   0.12365382  0.07139156  0.03764621       0.007
   0.13189741  0.07615100  0.03764621       0.007
   0.14014100  0.08091044  0.03764621       0.007
   0.14838458  0.08566987  0.03764621       0.007
   0.15662817  0.09042931  0.03764621       0.007
   0.15662817  0.09042931  0.03764621       0.007
   0.15387976  0.09518780  0.03764621       0.007
   0.15113135  0.09994628  0.03764621       0.007
   0.14838293  0.10470477  0.03764621       0.007
   0.14563452  0.10946325  0.03764621       0.007
   0.14288611  0.11422174  0.03764621       0.007
   0.14013770  0.11898022  0.03764621       0.007
   0.13738929  0.12373871  0.03764621       0.007
   0.13464087  0.12849720  0.03764621       0.007
   0.13189246  0.13325568  0.03764621       0.007
   0.12914405  0.13801417  0.03764621       0.007
   0.12639564  0.14277265  0.03764621       0.007
   0.12364722  0.14753114  0.03764621       0.007
   0.12089881  0.15228962  0.03764621       0.007
   0.11815040  0.15704811  0.03764621       0.007
   0.11540199  0.16180659  0.03764621       0.007
   0.11265358  0.16656508  0.03764621       0.007
   0.10990516  0.17132356  0.03764621       0.007
   0.10715675  0.17608205  0.03764621       0.007
   0.10440834  0.18084054  0.03764621       0.007
   0.10440834  0.18084054  0.03764621       0.007
   0.09891316  0.17132261  0.03764621       0.007
   0.09341799  0.16180469  0.03764621       0.007
   0.08792281  0.15228677  0.03764621       0.007
   0.08242764  0.14276884  0.03764621       0.007
   0.07693246  0.13325092  0.03764621       0.007
   0.07143728  0.12373300  0.03764621       0.007
   0.06594211  0.11421508  0.03764621       0.007
   0.06044693  0.10469715  0.03764621       0.007
   0.05495176  0.09517923  0.03764621       0.007
   0.04945658  0.08566131  0.03764621       0.007
   0.04396141  0.07614338  0.03764621       0.007
   0.03846623  0.06662546  0.03764621       0.007
   0.03297105  0.05710754  0.03764621       0.007
   0.02747588  0.04758961  0.03764621       0.007
   0.02198070  0.03807169  0.03764621       0.007
   0.01648553  0.02855377  0.03764621       0.007
   0.01099035  0.01903585  0.03764621       0.007
   0.00549518  0.00951792  0.03764621       0.007
   0.00000000  0.00000000  0.03764621       0.007
 
 k-points in reciprocal lattice and weights: HEX (hexagonal) G-M-K-G-A-L-H-A L-M K-H 
   0.00000000  0.00000000  0.00000000       0.007
   0.02631579  0.00000000  0.00000000       0.007
   0.05263158  0.00000000  0.00000000       0.007
   0.07894737  0.00000000  0.00000000       0.007
   0.10526316  0.00000000  0.00000000       0.007
   0.13157895  0.00000000  0.00000000       0.007
   0.15789474  0.00000000  0.00000000       0.007
   0.18421053  0.00000000  0.00000000       0.007
   0.21052632  0.00000000  0.00000000       0.007
   0.23684211  0.00000000  0.00000000       0.007
   0.26315789  0.00000000  0.00000000       0.007
   0.28947368  0.00000000  0.00000000       0.007
   0.31578947  0.00000000  0.00000000       0.007
   0.34210526  0.00000000  0.00000000       0.007
   0.36842105  0.00000000  0.00000000       0.007
   0.39473684  0.00000000  0.00000000       0.007
   0.42105263  0.00000000  0.00000000       0.007
   0.44736842  0.00000000  0.00000000       0.007
   0.47368421  0.00000000  0.00000000       0.007
   0.50000000  0.00000000  0.00000000       0.007
   0.50000000  0.00000000  0.00000000       0.007
   0.49122632  0.01754211  0.00000000       0.007
   0.48245263  0.03508421  0.00000000       0.007
   0.47367895  0.05262632  0.00000000       0.007
   0.46490526  0.07016842  0.00000000       0.007
   0.45613158  0.08771053  0.00000000       0.007
   0.44735789  0.10525263  0.00000000       0.007
   0.43858421  0.12279474  0.00000000       0.007
   0.42981053  0.14033684  0.00000000       0.007
   0.42103684  0.15787895  0.00000000       0.007
   0.41226316  0.17542105  0.00000000       0.007
   0.40348947  0.19296316  0.00000000       0.007
   0.39471579  0.21050526  0.00000000       0.007
   0.38594211  0.22804737  0.00000000       0.007
   0.37716842  0.24558947  0.00000000       0.007
   0.36839474  0.26313158  0.00000000       0.007
   0.35962105  0.28067368  0.00000000       0.007
   0.35084737  0.29821579  0.00000000       0.007
   0.34207368  0.31575789  0.00000000       0.007
   0.33330000  0.33330000  0.00000000       0.007
   0.33330000  0.33330000  0.00000000       0.007
   0.31575789  0.31575789  0.00000000       0.007
   0.29821579  0.29821579  0.00000000       0.007
   0.28067368  0.28067368  0.00000000       0.007
   0.26313158  0.26313158  0.00000000       0.007
   0.24558947  0.24558947  0.00000000       0.007
   0.22804737  0.22804737  0.00000000       0.007
   0.21050526  0.21050526  0.00000000       0.007
   0.19296316  0.19296316  0.00000000       0.007
   0.17542105  0.17542105  0.00000000       0.007
   0.15787895  0.15787895  0.00000000       0.007
   0.14033684  0.14033684  0.00000000       0.007
   0.12279474  0.12279474  0.00000000       0.007
   0.10525263  0.10525263  0.00000000       0.007
   0.08771053  0.08771053  0.00000000       0.007
   0.07016842  0.07016842  0.00000000       0.007
   0.05262632  0.05262632  0.00000000       0.007
   0.03508421  0.03508421  0.00000000       0.007
   0.01754211  0.01754211  0.00000000       0.007
   0.00000000  0.00000000  0.00000000       0.007
   0.00000000  0.00000000  0.00000000       0.007
   0.00000000  0.00000000  0.02631579       0.007
   0.00000000  0.00000000  0.05263158       0.007
   0.00000000  0.00000000  0.07894737       0.007
   0.00000000  0.00000000  0.10526316       0.007
   0.00000000  0.00000000  0.13157895       0.007
   0.00000000  0.00000000  0.15789474       0.007
   0.00000000  0.00000000  0.18421053       0.007
   0.00000000  0.00000000  0.21052632       0.007
   0.00000000  0.00000000  0.23684211       0.007
   0.00000000  0.00000000  0.26315789       0.007
   0.00000000  0.00000000  0.28947368       0.007
   0.00000000  0.00000000  0.31578947       0.007
   0.00000000  0.00000000  0.34210526       0.007
   0.00000000  0.00000000  0.36842105       0.007
   0.00000000  0.00000000  0.39473684       0.007
   0.00000000  0.00000000  0.42105263       0.007
   0.00000000  0.00000000  0.44736842       0.007
   0.00000000  0.00000000  0.47368421       0.007
   0.00000000  0.00000000  0.50000000       0.007
   0.00000000  0.00000000  0.50000000       0.007
   0.02631579  0.00000000  0.50000000       0.007
   0.05263158  0.00000000  0.50000000       0.007
   0.07894737  0.00000000  0.50000000       0.007
   0.10526316  0.00000000  0.50000000       0.007
   0.13157895  0.00000000  0.50000000       0.007
   0.15789474  0.00000000  0.50000000       0.007
   0.18421053  0.00000000  0.50000000       0.007
   0.21052632  0.00000000  0.50000000       0.007
   0.23684211  0.00000000  0.50000000       0.007
   0.26315789  0.00000000  0.50000000       0.007
   0.28947368  0.00000000  0.50000000       0.007
   0.31578947  0.00000000  0.50000000       0.007
   0.34210526  0.00000000  0.50000000       0.007
   0.36842105  0.00000000  0.50000000       0.007
   0.39473684  0.00000000  0.50000000       0.007
   0.42105263  0.00000000  0.50000000       0.007
   0.44736842  0.00000000  0.50000000       0.007
   0.47368421  0.00000000  0.50000000       0.007
   0.50000000  0.00000000  0.50000000       0.007
   0.50000000  0.00000000  0.50000000       0.007
   0.49122632  0.01754211  0.50000000       0.007
   0.48245263  0.03508421  0.50000000       0.007
   0.47367895  0.05262632  0.50000000       0.007
   0.46490526  0.07016842  0.50000000       0.007
   0.45613158  0.08771053  0.50000000       0.007
   0.44735789  0.10525263  0.50000000       0.007
   0.43858421  0.12279474  0.50000000       0.007
   0.42981053  0.14033684  0.50000000       0.007
   0.42103684  0.15787895  0.50000000       0.007
   0.41226316  0.17542105  0.50000000       0.007
   0.40348947  0.19296316  0.50000000       0.007
   0.39471579  0.21050526  0.50000000       0.007
   0.38594211  0.22804737  0.50000000       0.007
   0.37716842  0.24558947  0.50000000       0.007
   0.36839474  0.26313158  0.50000000       0.007
   0.35962105  0.28067368  0.50000000       0.007
   0.35084737  0.29821579  0.50000000       0.007
   0.34207368  0.31575789  0.50000000       0.007
   0.33330000  0.33330000  0.50000000       0.007
   0.33330000  0.33330000  0.50000000       0.007
   0.31575789  0.31575789  0.50000000       0.007
   0.29821579  0.29821579  0.50000000       0.007
   0.28067368  0.28067368  0.50000000       0.007
   0.26313158  0.26313158  0.50000000       0.007
   0.24558947  0.24558947  0.50000000       0.007
   0.22804737  0.22804737  0.50000000       0.007
   0.21050526  0.21050526  0.50000000       0.007
   0.19296316  0.19296316  0.50000000       0.007
   0.17542105  0.17542105  0.50000000       0.007
   0.15787895  0.15787895  0.50000000       0.007
   0.14033684  0.14033684  0.50000000       0.007
   0.12279474  0.12279474  0.50000000       0.007
   0.10525263  0.10525263  0.50000000       0.007
   0.08771053  0.08771053  0.50000000       0.007
   0.07016842  0.07016842  0.50000000       0.007
   0.05262632  0.05262632  0.50000000       0.007
   0.03508421  0.03508421  0.50000000       0.007
   0.01754211  0.01754211  0.50000000       0.007
   0.00000000  0.00000000  0.50000000       0.007
 
 position of ions in fractional coordinates (direct lattice) 
   0.33333300  0.66666700  0.25000000
   0.66666700  0.33333300  0.75000000
   0.33333300  0.66666700  0.86743573
   0.66666700  0.33333300  0.13256427
   0.66666600  0.33333300  0.36743573
   0.33333400  0.66666700  0.63256427
 
 position of ions in cartesian coordinates  (Angst):
  -0.00000160  1.84306115  3.32038719
   1.59613847  0.92152919  9.96116157
  -0.00000160  1.84306115 11.52088992
   1.59613847  0.92152919  1.76065884
   1.59613528  0.92152919  4.88011554
   0.00000160  1.84306115  8.40143322
 


--------------------------------------------------------------------------------------------------------


 k-point  1 :   0.0000 0.0000 0.0000  plane waves:    2589
 k-point  2 :   0.0263 0.0000 0.0000  plane waves:    2581
 k-point  3 :   0.0526 0.0000 0.0000  plane waves:    2575
 k-point  4 :   0.0789 0.0000 0.0000  plane waves:    2581
 k-point  5 :   0.1053 0.0000 0.0000  plane waves:    2581
 k-point  6 :   0.1316 0.0000 0.0000  plane waves:    2581
 k-point  7 :   0.1579 0.0000 0.0000  plane waves:    2573
 k-point  8 :   0.1842 0.0000 0.0000  plane waves:    2573
 k-point  9 :   0.2105 0.0000 0.0000  plane waves:    2559
 k-point 10 :   0.2368 0.0000 0.0000  plane waves:    2550
 k-point 11 :   0.2632 0.0000 0.0000  plane waves:    2544
 k-point 12 :   0.2895 0.0000 0.0000  plane waves:    2540
 k-point 13 :   0.3158 0.0000 0.0000  plane waves:    2544
 k-point 14 :   0.3421 0.0000 0.0000  plane waves:    2546
 k-point 15 :   0.3684 0.0000 0.0000  plane waves:    2536
 k-point 16 :   0.3947 0.0000 0.0000  plane waves:    2526
 k-point 17 :   0.4211 0.0000 0.0000  plane waves:    2520
 k-point 18 :   0.4474 0.0000 0.0000  plane waves:    2516
 k-point 19 :   0.4737 0.0000 0.0000  plane waves:    2512
 k-point 20 :   0.5000 0.0000 0.0000  plane waves:    2508
 k-point 21 :   0.5000 0.0000 0.0000  plane waves:    2508
 k-point 22 :   0.4912 0.0175 0.0000  plane waves:    2506
 k-point 23 :   0.4825 0.0351 0.0000  plane waves:    2502
 k-point 24 :   0.4737 0.0526 0.0000  plane waves:    2502
 k-point 25 :   0.4649 0.0702 0.0000  plane waves:    2510
 k-point 26 :   0.4561 0.0877 0.0000  plane waves:    2520
 k-point 27 :   0.4474 0.1053 0.0000  plane waves:    2510
 k-point 28 :   0.4386 0.1228 0.0000  plane waves:    2518
 k-point 29 :   0.4298 0.1403 0.0000  plane waves:    2524
 k-point 30 :   0.4210 0.1579 0.0000  plane waves:    2530
 k-point 31 :   0.4123 0.1754 0.0000  plane waves:    2530
 k-point 32 :   0.4035 0.1930 0.0000  plane waves:    2520
 k-point 33 :   0.3947 0.2105 0.0000  plane waves:    2524
 k-point 34 :   0.3859 0.2280 0.0000  plane waves:    2524
 k-point 35 :   0.3772 0.2456 0.0000  plane waves:    2526
 k-point 36 :   0.3684 0.2631 0.0000  plane waves:    2524
 k-point 37 :   0.3596 0.2807 0.0000  plane waves:    2536
 k-point 38 :   0.3508 0.2982 0.0000  plane waves:    2540
 k-point 39 :   0.3421 0.3158 0.0000  plane waves:    2540
 k-point 40 :   0.3333 0.3333 0.0000  plane waves:    2550
 k-point 41 :   0.3333 0.3333 0.0000  plane waves:    2550
 k-point 42 :   0.3158 0.3158 0.0000  plane waves:    2546
 k-point 43 :   0.2982 0.2982 0.0000  plane waves:    2526
 k-point 44 :   0.2807 0.2807 0.0000  plane waves:    2526
 k-point 45 :   0.2631 0.2631 0.0000  plane waves:    2528
 k-point 46 :   0.2456 0.2456 0.0000  plane waves:    2530
 k-point 47 :   0.2280 0.2280 0.0000  plane waves:    2535
 k-point 48 :   0.2105 0.2105 0.0000  plane waves:    2531
 k-point 49 :   0.1930 0.1930 0.0000  plane waves:    2541
 k-point 50 :   0.1754 0.1754 0.0000  plane waves:    2555
 k-point 51 :   0.1579 0.1579 0.0000  plane waves:    2539
 k-point 52 :   0.1403 0.1403 0.0000  plane waves:    2537
 k-point 53 :   0.1228 0.1228 0.0000  plane waves:    2545
 k-point 54 :   0.1053 0.1053 0.0000  plane waves:    2569
 k-point 55 :   0.0877 0.0877 0.0000  plane waves:    2571
 k-point 56 :   0.0702 0.0702 0.0000  plane waves:    2571
 k-point 57 :   0.0526 0.0526 0.0000  plane waves:    2575
 k-point 58 :   0.0351 0.0351 0.0000  plane waves:    2583
 k-point 59 :   0.0175 0.0175 0.0000  plane waves:    2585
 k-point 60 :   0.0000 0.0000 0.0000  plane waves:    2589
 k-point 61 :   0.0000 0.0000 0.0000  plane waves:    2589
 k-point 62 :   0.0000 0.0000 0.0263  plane waves:    2589
 k-point 63 :   0.0000 0.0000 0.0526  plane waves:    2590
 k-point 64 :   0.0000 0.0000 0.0789  plane waves:    2590
 k-point 65 :   0.0000 0.0000 0.1053  plane waves:    2578
 k-point 66 :   0.0000 0.0000 0.1316  plane waves:    2584
 k-point 67 :   0.0000 0.0000 0.1579  plane waves:    2578
 k-point 68 :   0.0000 0.0000 0.1842  plane waves:    2584
 k-point 69 :   0.0000 0.0000 0.2105  plane waves:    2584
 k-point 70 :   0.0000 0.0000 0.2368  plane waves:    2584
 k-point 71 :   0.0000 0.0000 0.2632  plane waves:    2584
 k-point 72 :   0.0000 0.0000 0.2895  plane waves:    2584
 k-point 73 :   0.0000 0.0000 0.3158  plane waves:    2584
 k-point 74 :   0.0000 0.0000 0.3421  plane waves:    2584
 k-point 75 :   0.0000 0.0000 0.3684  plane waves:    2584
 k-point 76 :   0.0000 0.0000 0.3947  plane waves:    2584
 k-point 77 :   0.0000 0.0000 0.4211  plane waves:    2584
 k-point 78 :   0.0000 0.0000 0.4474  plane waves:    2584
 k-point 79 :   0.0000 0.0000 0.4737  plane waves:    2578
 k-point 80 :   0.0000 0.0000 0.5000  plane waves:    2578
 k-point 81 :   0.0000 0.0000 0.5000  plane waves:    2578
 k-point 82 :   0.0263 0.0000 0.5000  plane waves:    2568
 k-point 83 :   0.0526 0.0000 0.5000  plane waves:    2574
 k-point 84 :   0.0789 0.0000 0.5000  plane waves:    2582
 k-point 85 :   0.1053 0.0000 0.5000  plane waves:    2572
 k-point 86 :   0.1316 0.0000 0.5000  plane waves:    2578
 k-point 87 :   0.1579 0.0000 0.5000  plane waves:    2576
 k-point 88 :   0.1842 0.0000 0.5000  plane waves:    2568
 k-point 89 :   0.2105 0.0000 0.5000  plane waves:    2552
 k-point 90 :   0.2368 0.0000 0.5000  plane waves:    2560
 k-point 91 :   0.2632 0.0000 0.5000  plane waves:    2552
 k-point 92 :   0.2895 0.0000 0.5000  plane waves:    2542
 k-point 93 :   0.3158 0.0000 0.5000  plane waves:    2536
 k-point 94 :   0.3421 0.0000 0.5000  plane waves:    2538
 k-point 95 :   0.3684 0.0000 0.5000  plane waves:    2534
 k-point 96 :   0.3947 0.0000 0.5000  plane waves:    2534
 k-point 97 :   0.4211 0.0000 0.5000  plane waves:    2524
 k-point 98 :   0.4474 0.0000 0.5000  plane waves:    2526
 k-point 99 :   0.4737 0.0000 0.5000  plane waves:    2514
 k-point ** :   0.5000 0.0000 0.5000  plane waves:    2516
 k-point ** :   0.5000 0.0000 0.5000  plane waves:    2516
 k-point ** :   0.4912 0.0175 0.5000  plane waves:    2508
 k-point ** :   0.4825 0.0351 0.5000  plane waves:    2510
 k-point ** :   0.4737 0.0526 0.5000  plane waves:    2510
 k-point ** :   0.4649 0.0702 0.5000  plane waves:    2514
 k-point ** :   0.4561 0.0877 0.5000  plane waves:    2512
 k-point ** :   0.4474 0.1053 0.5000  plane waves:    2522
 k-point ** :   0.4386 0.1228 0.5000  plane waves:    2516
 k-point ** :   0.4298 0.1403 0.5000  plane waves:    2518
 k-point ** :   0.4210 0.1579 0.5000  plane waves:    2522
 k-point ** :   0.4123 0.1754 0.5000  plane waves:    2530
 k-point ** :   0.4035 0.1930 0.5000  plane waves:    2538
 k-point ** :   0.3947 0.2105 0.5000  plane waves:    2546
 k-point ** :   0.3859 0.2280 0.5000  plane waves:    2550
 k-point ** :   0.3772 0.2456 0.5000  plane waves:    2546
 k-point ** :   0.3684 0.2631 0.5000  plane waves:    2550
 k-point ** :   0.3596 0.2807 0.5000  plane waves:    2552
 k-point ** :   0.3508 0.2982 0.5000  plane waves:    2542
 k-point ** :   0.3421 0.3158 0.5000  plane waves:    2546
 k-point ** :   0.3333 0.3333 0.5000  plane waves:    2562
 k-point ** :   0.3333 0.3333 0.5000  plane waves:    2562
 k-point ** :   0.3158 0.3158 0.5000  plane waves:    2546
 k-point ** :   0.2982 0.2982 0.5000  plane waves:    2542
 k-point ** :   0.2807 0.2807 0.5000  plane waves:    2536
 k-point ** :   0.2631 0.2631 0.5000  plane waves:    2534
 k-point ** :   0.2456 0.2456 0.5000  plane waves:    2538
 k-point ** :   0.2280 0.2280 0.5000  plane waves:    2544
 k-point ** :   0.2105 0.2105 0.5000  plane waves:    2550
 k-point ** :   0.1930 0.1930 0.5000  plane waves:    2542
 k-point ** :   0.1754 0.1754 0.5000  plane waves:    2542
 k-point ** :   0.1579 0.1579 0.5000  plane waves:    2546
 k-point ** :   0.1403 0.1403 0.5000  plane waves:    2552
 k-point ** :   0.1228 0.1228 0.5000  plane waves:    2552
 k-point ** :   0.1053 0.1053 0.5000  plane waves:    2560
 k-point ** :   0.0877 0.0877 0.5000  plane waves:    2568
 k-point ** :   0.0702 0.0702 0.5000  plane waves:    2582
 k-point ** :   0.0526 0.0526 0.5000  plane waves:    2578
 k-point ** :   0.0351 0.0351 0.5000  plane waves:    2580
 k-point ** :   0.0175 0.0175 0.5000  plane waves:    2574
 k-point ** :   0.0000 0.0000 0.5000  plane waves:    2578

 maximum and minimum number of plane-waves per node :      1296     1247

 maximum number of plane-waves:      2590
 maximum index in each direction: 
   IXMAX=    5   IYMAX=    5   IZMAX=   22
   IXMIN=   -6   IYMIN=   -5   IZMIN=  -23


 parallel 3D FFT for wavefunctions:
    minimum data exchange during FFTs selected (reduces bandwidth)
 parallel 3D FFT for charge:
    minimum data exchange during FFTs selected (reduces bandwidth)


 total amount of memory used by VASP MPI-rank0   126974. kBytes
=======================================================================

   base      :      30000. kBytes
   nonl-proj :      52298. kBytes
   fftplans  :       4560. kBytes
   grid      :       7349. kBytes
   one-center:         46. kBytes
   wavefun   :      32721. kBytes
 
     INWAV:  cpu time    0.0000: real time    0.0000
 initial charge density was supplied:
 number of electron      36.0000004 magnetization 
 keeping initial charge density in first step


--------------------------------------------------------------------------------------------------------


 Maximum index for augmentation-charges         7393 (set IRDMAX)


--------------------------------------------------------------------------------------------------------


 First call to EWALD:  gamma=   0.362
 Maximum number of real-space cells 4x 4x 1
 Maximum number of reciprocal cells 2x 2x 7

    FEWALD:  cpu time    0.0010: real time    0.0015


--------------------------------------- Iteration      1(   1)  ---------------------------------------


    POTLOK:  cpu time    0.0690: real time    0.5081
    SETDIJ:  cpu time    0.0080: real time    0.0084
     EDDAV:  cpu time    5.0282: real time    5.0325
       DOS:  cpu time    0.0550: real time    0.0547
    --------------------------------------------
      LOOP:  cpu time    5.1602: real time    5.6037

 eigenvalue-minimisations  :  6160
 total energy-change (2. order) : 0.1904177E+03  (-0.1493629E+04)
 number of electron      36.0000004 magnetization 
 augmentation part       36.0000004 magnetization 

 Free energy of the ion-electron system (eV)
  ---------------------------------------------------
  alpha Z        PSCENC =       101.17761570
  Ewald energy   TEWEN  =     -1410.01026994
  -Hartree energ DENC   =      -328.89389823
  -exchange      EXHF   =         0.00000000
  -V(xc)+E(xc)   XCENC  =       -70.28905689
  PAW double counting   =       945.70495410     -794.10023629
  entropy T*S    EENTRO =        -0.03551251
  eigenvalues    EBANDS =       204.55385424
  atomic energy  EATOM  =      1542.31022798
  Solvation  Ediel_sol  =         0.00000000
  ---------------------------------------------------
  free energy    TOTEN  =       190.41767816 eV

  energy without entropy =      190.45319067  energy(sigma->0) =      190.43543442


--------------------------------------------------------------------------------------------------------




--------------------------------------- Iteration      1(   2)  ---------------------------------------


     EDDAV:  cpu time    6.0881: real time    6.0914
       DOS:  cpu time    0.0370: real time    0.0372
    --------------------------------------------
      LOOP:  cpu time    6.1251: real time    6.1286

 eigenvalue-minimisations  :  8070
 total energy-change (2. order) :-0.2147101E+03  (-0.2075473E+03)
 number of electron      36.0000004 magnetization 
 augmentation part       36.0000004 magnetization 

 Free energy of the ion-electron system (eV)
  ---------------------------------------------------
  alpha Z        PSCENC =       101.17761570
  Ewald energy   TEWEN  =     -1410.01026994
  -Hartree energ DENC   =      -328.89389823
  -exchange      EXHF   =         0.00000000
  -V(xc)+E(xc)   XCENC  =       -70.28905689
  PAW double counting   =       945.70495410     -794.10023629
  entropy T*S    EENTRO =        -0.01312211
  eigenvalues    EBANDS =       -10.17864980
  atomic energy  EATOM  =      1542.31022798
  Solvation  Ediel_sol  =         0.00000000
  ---------------------------------------------------
  free energy    TOTEN  =       -24.29243548 eV

  energy without entropy =      -24.27931337  energy(sigma->0) =      -24.28587442


--------------------------------------------------------------------------------------------------------




--------------------------------------- Iteration      1(   3)  ---------------------------------------


     EDDAV:  cpu time    6.2141: real time    6.2158
       DOS:  cpu time    0.0390: real time    0.0391
    --------------------------------------------
      LOOP:  cpu time    6.2530: real time    6.2550

 eigenvalue-minimisations  :  8378
 total energy-change (2. order) :-0.1664956E+02  (-0.1642395E+02)
 number of electron      36.0000004 magnetization 
 augmentation part       36.0000004 magnetization 

 Free energy of the ion-electron system (eV)
  ---------------------------------------------------
  alpha Z        PSCENC =       101.17761570
  Ewald energy   TEWEN  =     -1410.01026994
  -Hartree energ DENC   =      -328.89389823
  -exchange      EXHF   =         0.00000000
  -V(xc)+E(xc)   XCENC  =       -70.28905689
  PAW double counting   =       945.70495410     -794.10023629
  entropy T*S    EENTRO =        -0.00000939
  eigenvalues    EBANDS =       -26.84131992
  atomic energy  EATOM  =      1542.31022798
  Solvation  Ediel_sol  =         0.00000000
  ---------------------------------------------------
  free energy    TOTEN  =       -40.94199287 eV

  energy without entropy =      -40.94198349  energy(sigma->0) =      -40.94198818


--------------------------------------------------------------------------------------------------------




--------------------------------------- Iteration      1(   4)  ---------------------------------------


     EDDAV:  cpu time    6.3060: real time    6.3070
       DOS:  cpu time    0.0390: real time    0.0387
    --------------------------------------------
      LOOP:  cpu time    6.3450: real time    6.3457

 eigenvalue-minimisations  :  8468
 total energy-change (2. order) :-0.4819374E+00  (-0.4810268E+00)
 number of electron      36.0000004 magnetization 
 augmentation part       36.0000004 magnetization 

 Free energy of the ion-electron system (eV)
  ---------------------------------------------------
  alpha Z        PSCENC =       101.17761570
  Ewald energy   TEWEN  =     -1410.01026994
  -Hartree energ DENC   =      -328.89389823
  -exchange      EXHF   =         0.00000000
  -V(xc)+E(xc)   XCENC  =       -70.28905689
  PAW double counting   =       945.70495410     -794.10023629
  entropy T*S    EENTRO =        -0.00000306
  eigenvalues    EBANDS =       -27.32326365
  atomic energy  EATOM  =      1542.31022798
  Solvation  Ediel_sol  =         0.00000000
  ---------------------------------------------------
  free energy    TOTEN  =       -41.42393028 eV

  energy without entropy =      -41.42392722  energy(sigma->0) =      -41.42392875


--------------------------------------------------------------------------------------------------------




--------------------------------------- Iteration      1(   5)  ---------------------------------------


     EDDAV:  cpu time    6.5460: real time    6.5470
       DOS:  cpu time    0.0380: real time    0.0387
    --------------------------------------------
      LOOP:  cpu time    6.5840: real time    6.5856

 eigenvalue-minimisations  :  8840
 total energy-change (2. order) :-0.1547335E-01  (-0.1546303E-01)
 number of electron      36.0000004 magnetization 
 augmentation part       36.0000004 magnetization 

 Free energy of the ion-electron system (eV)
  ---------------------------------------------------
  alpha Z        PSCENC =       101.17761570
  Ewald energy   TEWEN  =     -1410.01026994
  -Hartree energ DENC   =      -328.89389823
  -exchange      EXHF   =         0.00000000
  -V(xc)+E(xc)   XCENC  =       -70.28905689
  PAW double counting   =       945.70495410     -794.10023629
  entropy T*S    EENTRO =        -0.00000313
  eigenvalues    EBANDS =       -27.33873693
  atomic energy  EATOM  =      1542.31022798
  Solvation  Ediel_sol  =         0.00000000
  ---------------------------------------------------
  free energy    TOTEN  =       -41.43940362 eV

  energy without entropy =      -41.43940050  energy(sigma->0) =      -41.43940206


--------------------------------------------------------------------------------------------------------




--------------------------------------- Iteration      1(   6)  ---------------------------------------


    EDDIAG:  cpu time    1.0488: real time    1.0513
  RMM-DIIS:  cpu time    4.3123: real time    4.3111
    ORTHCH:  cpu time    0.0670: real time    0.0667
       DOS:  cpu time    0.0380: real time    0.0386
    --------------------------------------------
      LOOP:  cpu time    5.4662: real time    5.4676

 eigenvalue-minimisations  :  6374
 total energy-change (2. order) :-0.3412853E-03  (-0.3412850E-03)
 number of electron      36.0000004 magnetization 
 augmentation part       36.0000004 magnetization 

 Free energy of the ion-electron system (eV)
  ---------------------------------------------------
  alpha Z        PSCENC =       101.17761570
  Ewald energy   TEWEN  =     -1410.01026994
  -Hartree energ DENC   =      -328.89389823
  -exchange      EXHF   =         0.00000000
  -V(xc)+E(xc)   XCENC  =       -70.28905689
  PAW double counting   =       945.70495410     -794.10023629
  entropy T*S    EENTRO =        -0.00000313
  eigenvalues    EBANDS =       -27.33907821
  atomic energy  EATOM  =      1542.31022798
  Solvation  Ediel_sol  =         0.00000000
  ---------------------------------------------------
  free energy    TOTEN  =       -41.43974491 eV

  energy without entropy =      -41.43974178  energy(sigma->0) =      -41.43974334


--------------------------------------------------------------------------------------------------------




--------------------------------------- Iteration      1(   7)  ---------------------------------------


    EDDIAG:  cpu time    1.0488: real time    1.0515
  RMM-DIIS:  cpu time    5.9231: real time    5.9210
    ORTHCH:  cpu time    0.0660: real time    0.0669
       DOS:  cpu time    0.0390: real time    0.0387
    --------------------------------------------
      LOOP:  cpu time    7.0769: real time    7.0780

 eigenvalue-minimisations  :  8930
 total energy-change (2. order) :-0.8266547E-04  (-0.8328474E-04)
 number of electron      36.0000004 magnetization 
 augmentation part       36.0000004 magnetization 

 Free energy of the ion-electron system (eV)
  ---------------------------------------------------
  alpha Z        PSCENC =       101.17761570
  Ewald energy   TEWEN  =     -1410.01026994
  -Hartree energ DENC   =      -328.89389823
  -exchange      EXHF   =         0.00000000
  -V(xc)+E(xc)   XCENC  =       -70.28905689
  PAW double counting   =       945.70495410     -794.10023629
  entropy T*S    EENTRO =        -0.00000314
  eigenvalues    EBANDS =       -27.33916087
  atomic energy  EATOM  =      1542.31022798
  Solvation  Ediel_sol  =         0.00000000
  ---------------------------------------------------
  free energy    TOTEN  =       -41.43982758 eV

  energy without entropy =      -41.43982444  energy(sigma->0) =      -41.43982601


--------------------------------------------------------------------------------------------------------




--------------------------------------- Iteration      1(   8)  ---------------------------------------


    EDDIAG:  cpu time    1.0498: real time    1.0513
  RMM-DIIS:  cpu time    4.1534: real time    4.1520
    ORTHCH:  cpu time    0.0660: real time    0.0665
       DOS:  cpu time    0.0380: real time    0.0386
    --------------------------------------------
      LOOP:  cpu time    5.3072: real time    5.3084

 eigenvalue-minimisations  :  6051
 total energy-change (2. order) :-0.3681295E-05  (-0.5341099E-05)
 number of electron      36.0000004 magnetization 
 augmentation part       36.0000004 magnetization 

 Free energy of the ion-electron system (eV)
  ---------------------------------------------------
  alpha Z        PSCENC =       101.17761570
  Ewald energy   TEWEN  =     -1410.01026994
  -Hartree energ DENC   =      -328.89389823
  -exchange      EXHF   =         0.00000000
  -V(xc)+E(xc)   XCENC  =       -70.28905689
  PAW double counting   =       945.70495410     -794.10023629
  entropy T*S    EENTRO =        -0.00000314
  eigenvalues    EBANDS =       -27.33916455
  atomic energy  EATOM  =      1542.31022798
  Solvation  Ediel_sol  =         0.00000000
  ---------------------------------------------------
  free energy    TOTEN  =       -41.43983126 eV

  energy without entropy =      -41.43982812  energy(sigma->0) =      -41.43982969


--------------------------------------------------------------------------------------------------------




--------------------------------------- Iteration      1(   9)  ---------------------------------------


    EDDIAG:  cpu time    1.0478: real time    1.0488
  RMM-DIIS:  cpu time    3.3325: real time    3.3316
    ORTHCH:  cpu time    0.0660: real time    0.0665
       DOS:  cpu time    0.0390: real time    0.0385
    --------------------------------------------
      LOOP:  cpu time    4.4853: real time    4.4855

 eigenvalue-minimisations  :  4495
 total energy-change (2. order) :-0.2645447E-06  (-0.3719902E-06)
 number of electron      36.0000004 magnetization 
 augmentation part       36.0000004 magnetization 

 Free energy of the ion-electron system (eV)
  ---------------------------------------------------
  alpha Z        PSCENC =       101.17761570
  Ewald energy   TEWEN  =     -1410.01026994
  -Hartree energ DENC   =      -328.89389823
  -exchange      EXHF   =         0.00000000
  -V(xc)+E(xc)   XCENC  =       -70.28905689
  PAW double counting   =       945.70495410     -794.10023629
  entropy T*S    EENTRO =        -0.00000314
  eigenvalues    EBANDS =       -27.33916481
  atomic energy  EATOM  =      1542.31022798
  Solvation  Ediel_sol  =         0.00000000
  ---------------------------------------------------
  free energy    TOTEN  =       -41.43983152 eV

  energy without entropy =      -41.43982838  energy(sigma->0) =      -41.43982995


--------------------------------------------------------------------------------------------------------




 average (electrostatic) potential at core
  the test charge radii are     1.2296  0.9698
  (the norm of the test charge is              1.0000)
       1 -39.2525       2 -39.2525       3 -87.0995       4 -87.0995       5 -87.0995
       6 -87.0995
 
 
 
 E-fermi :   5.2091     XC(G=0): -10.1212     alpha+bet :-10.7826


 k-point     1 :       0.0000    0.0000    0.0000
  band No.  band energies     occupation 
      1      -9.9103      2.00000
      2      -9.8110      2.00000
      3      -8.7227      2.00000
      4      -8.5546      2.00000
      5      -1.6500      2.00000
      6      -1.1268      2.00000
      7       1.5615      2.00000
      8       1.5615      2.00000
      9       1.5655      2.00000
     10       1.5655      2.00000
     11       1.8332      2.00000
     12       2.6729      2.00000
     13       2.6730      2.00000
     14       2.6872      2.00000
     15       2.6872      2.00000
     16       3.2209      2.00000
     17       3.8627      2.00000
     18       4.6232      1.99997
     19       6.9495      0.00000
     20       6.9623      0.00000
     21       7.0301      0.00000
     22       7.1605      0.00000

 k-point     2 :       0.0263    0.0000    0.0000
  band No.  band energies     occupation 
      1      -9.9006      2.00000
      2      -9.8013      2.00000
      3      -8.7178      2.00000
      4      -8.5503      2.00000
      5      -1.6382      2.00000
      6      -1.1152      2.00000
      7       1.5379      2.00000
      8       1.5422      2.00000
      9       1.5721      2.00000
     10       1.5764      2.00000
     11       1.7996      2.00000
     12       2.6040      2.00000
     13       2.6558      2.00000
     14       2.6702      2.00000
     15       2.7086      2.00000
     16       3.2716      2.00000
     17       3.8625      2.00000
     18       4.6098      1.99998
     19       6.9367      0.00000
     20       6.9505      0.00000
     21       7.0015      0.00000
     22       7.0303      0.00000

 k-point     3 :       0.0526    0.0000    0.0000
  band No.  band energies     occupation 
      1      -9.8714      2.00000
      2      -9.7724      2.00000
      3      -8.7032      2.00000
      4      -8.5372      2.00000
      5      -1.6035      2.00000
      6      -1.0810      2.00000
      7       1.4690      2.00000
      8       1.4741      2.00000
      9       1.6040      2.00000
     10       1.6088      2.00000
     11       1.7096      2.00000
     12       2.4455      2.00000
     13       2.6057      2.00000
     14       2.6207      2.00000
     15       2.7611      2.00000
     16       3.3734      2.00000
     17       3.8609      2.00000
     18       4.5691      1.99999
     19       6.8963      0.00000
     20       6.9624      0.00000
     21       7.0537      0.00000
     22       7.0853      0.00000

 k-point     4 :       0.0789    0.0000    0.0000
  band No.  band energies     occupation 
      1      -9.8233      2.00000
      2      -9.7247      2.00000
      3      -8.6792      2.00000
      4      -8.5157      2.00000
      5      -1.5471      2.00000
      6      -1.0257      2.00000
      7       1.3601      2.00000
      8       1.3666      2.00000
      9       1.5831      2.00000
     10       1.6563      2.00000
     11       1.6620      2.00000
     12       2.2500      2.00000
     13       2.5266      2.00000
     14       2.5425      2.00000
     15       2.8215      2.00000
     16       3.4685      2.00000
     17       3.8554      2.00000
     18       4.4994      2.00000
     19       6.8266      0.00000
     20       6.8652      0.00000
     21       6.9571      0.00000
     22       7.0488      0.00000

 k-point     5 :       0.1053    0.0000    0.0000
  band No.  band energies     occupation 
      1      -9.7569      2.00000
      2      -9.6589      2.00000
      3      -8.6461      2.00000
      4      -8.4861      2.00000
      5      -1.4712      2.00000
      6      -0.9520      2.00000
      7       1.2188      2.00000
      8       1.2280      2.00000
      9       1.4352      2.00000
     10       1.7281      2.00000
     11       1.7351      2.00000
     12       2.0379      2.00000
     13       2.4242      2.00000
     14       2.4411      2.00000
     15       2.8703      2.00000
     16       3.5299      2.00000
     17       3.8418      2.00000
     18       4.3993      2.00000
     19       6.7445      0.00000
     20       6.7982      0.00000
     21       6.8286      0.00000
     22       6.9290      0.00000

 k-point     6 :       0.1316    0.0000    0.0000
  band No.  band energies     occupation 
      1      -9.6731      2.00000
      2      -9.5760      2.00000
      3      -8.6044      2.00000
      4      -8.4489      2.00000
      5      -1.3793      2.00000
      6      -0.8647      2.00000
      7       1.0545      2.00000
      8       1.0686      2.00000
      9       1.2745      2.00000
     10       1.8172      2.00000
     11       1.8178      2.00000
     12       1.8263      2.00000
     13       2.3046      2.00000
     14       2.3226      2.00000
     15       2.8947      2.00000
     16       3.5453      2.00000
     17       3.8145      2.00000
     18       4.2689      2.00000
     19       6.5618      0.00000
     20       6.7000      0.00000
     21       6.8310      0.00000
     22       6.9041      0.00000

 k-point     7 :       0.1579    0.0000    0.0000
  band No.  band energies     occupation 
      1      -9.5733      2.00000
      2      -9.4774      2.00000
      3      -8.5548      2.00000
      4      -8.4048      2.00000
      5      -1.2769      2.00000
      6      -0.7711      2.00000
      7       0.8772      2.00000
      8       0.9002      2.00000
      9       1.1059      2.00000
     10       1.5917      2.00000
     11       1.9232      2.00000
     12       1.9338      2.00000
     13       2.1738      2.00000
     14       2.1929      2.00000
     15       2.8886      2.00000
     16       3.5125      2.00000
     17       3.7675      2.00000
     18       4.1121      2.00000
     19       6.3875      0.00000
     20       6.6928      0.00000
     21       6.7977      0.00000
     22       6.8433      0.00000

 k-point     8 :       0.1842    0.0000    0.0000
  band No.  band energies     occupation 
      1      -9.4590      2.00000
      2      -9.3646      2.00000
      3      -8.4982      2.00000
      4      -8.3546      2.00000
      5      -1.1716      2.00000
      6      -0.6824      2.00000
      7       0.6978      2.00000
      8       0.7369      2.00000
      9       0.9318      2.00000
     10       1.3634      2.00000
     11       2.0372      2.00000
     12       2.0419      2.00000
     13       2.0550      2.00000
     14       2.0573      2.00000
     15       2.8521      2.00000
     16       3.4378      2.00000
     17       3.6967      2.00000
     18       3.9365      2.00000
     19       6.2491      0.00000
     20       6.6966      0.00000
     21       6.7468      0.00000
     22       6.8314      0.00000

 k-point     9 :       0.2105    0.0000    0.0000
  band No.  band energies     occupation 
      1      -9.3322      2.00000
      2      -9.2399      2.00000
      3      -8.4356      2.00000
      4      -8.2992      2.00000
      5      -1.0746      2.00000
      6      -0.6161      2.00000
      7       0.5283      2.00000
      8       0.5961      2.00000
      9       0.7542      2.00000
     10       1.1345      2.00000
     11       1.8994      2.00000
     12       1.9206      2.00000
     13       2.1707      2.00000
     14       2.1868      2.00000
     15       2.7905      2.00000
     16       3.3330      2.00000
     17       3.6018      2.00000
     18       3.7548      2.00000
     19       6.1591      0.00000
     20       6.6693      0.00000
     21       6.7098      0.00000
     22       6.7269      0.00000

 k-point    10 :       0.2368    0.0000    0.0000
  band No.  band energies     occupation 
      1      -9.1952      2.00000
      2      -9.1055      2.00000
      3      -8.3682      2.00000
      4      -8.2400      2.00000
      5      -1.0010      2.00000
      6      -0.5936      2.00000
      7       0.3816      2.00000
      8       0.4968      2.00000
      9       0.5745      2.00000
     10       0.9070      2.00000
     11       1.7643      2.00000
     12       1.7864      2.00000
     13       2.3060      2.00000
     14       2.3258      2.00000
     15       2.7125      2.00000
     16       3.2109      2.00000
     17       3.4878      2.00000
     18       3.5842      2.00000
     19       6.1189      0.00000
     20       6.5244      0.00000
     21       6.6041      0.00000
     22       6.7734      0.00000

 k-point    11 :       0.2632    0.0000    0.0000
  band No.  band energies     occupation 
      1      -9.0507      2.00000
      2      -8.9643      2.00000
      3      -8.2976      2.00000
      4      -8.1782      2.00000
      5      -0.9675      2.00000
      6      -0.6300      2.00000
      7       0.2704      2.00000
      8       0.3947      2.00000
      9       0.4487      2.00000
     10       0.6834      2.00000
     11       1.6350      2.00000
     12       1.6580      2.00000
     13       2.4437      2.00000
     14       2.4678      2.00000
     15       2.6276      2.00000
     16       3.0827      2.00000
     17       3.3642      2.00000
     18       3.4452      2.00000
     19       6.1209      0.00000
     20       6.4709      0.00000
     21       6.5288      0.00000
     22       6.7181      0.00000

 k-point    12 :       0.2895    0.0000    0.0000
  band No.  band energies     occupation 
      1      -8.9021      2.00000
      2      -8.8196      2.00000
      3      -8.2254      2.00000
      4      -8.1156      2.00000
      5      -0.9851      2.00000
      6      -0.7198      2.00000
      7       0.1998      2.00000
      8       0.2178      2.00000
      9       0.4396      2.00000
     10       0.4671      2.00000
     11       1.5140      2.00000
     12       1.5377      2.00000
     13       2.5441      2.00000
     14       2.5793      2.00000
     15       2.6087      2.00000
     16       2.9568      2.00000
     17       3.2536      2.00000
     18       3.3478      2.00000
     19       6.1596      0.00000
     20       6.3912      0.00000
     21       6.4638      0.00000
     22       6.7209      0.00000

 k-point    13 :       0.3158    0.0000    0.0000
  band No.  band energies     occupation 
      1      -8.7531      2.00000
      2      -8.6754      2.00000
      3      -8.1535      2.00000
      4      -8.0539      2.00000
      5      -1.0505      2.00000
      6      -0.8423      2.00000
      7       0.0471      2.00000
      8       0.1604      2.00000
      9       0.2617      2.00000
     10       0.4432      2.00000
     11       1.4034      2.00000
     12       1.4278      2.00000
     13       2.4683      2.00000
     14       2.7086      2.00000
     15       2.7438      2.00000
     16       2.8387      2.00000
     17       3.1808      2.00000
     18       3.2947      2.00000
     19       6.2288      0.00000
     20       6.3495      0.00000
     21       6.4142      0.00000
     22       6.7563      0.00000

 k-point    14 :       0.3421    0.0000    0.0000
  band No.  band energies     occupation 
      1      -8.6078      2.00000
      2      -8.5358      2.00000
      3      -8.0840      2.00000
      4      -7.9952      2.00000
      5      -1.1474      2.00000
      6      -0.9772      2.00000
      7      -0.1131      2.00000
      8       0.0714      2.00000
      9       0.1342      2.00000
     10       0.4387      2.00000
     11       1.3048      2.00000
     12       1.3297      2.00000
     13       2.4042      2.00000
     14       2.7314      2.00000
     15       2.8272      2.00000
     16       2.8688      2.00000
     17       3.1575      2.00000
     18       3.2883      2.00000
     19       6.3182      0.00000
     20       6.3229      0.00000
     21       6.3798      0.00000
     22       6.7751      0.00000

 k-point    15 :       0.3684    0.0000    0.0000
  band No.  band energies     occupation 
      1      -8.4713      2.00000
      2      -8.4056      2.00000
      3      -8.0190      2.00000
      4      -7.9413      2.00000
      5      -1.2576      2.00000
      6      -1.1103      2.00000
      7      -0.2584      2.00000
      8      -0.0994      2.00000
      9       0.1067      2.00000
     10       0.4178      2.00000
     11       1.2195      2.00000
     12       1.2448      2.00000
     13       2.3539      2.00000
     14       2.6367      2.00000
     15       2.9315      2.00000
     16       2.9799      2.00000
     17       3.1831      2.00000
     18       3.3240      2.00000
     19       6.3112      0.00000
     20       6.3599      0.00000
     21       6.4204      0.00000
     22       6.8087      0.00000

 k-point    16 :       0.3947    0.0000    0.0000
  band No.  band energies     occupation 
      1      -8.3485      2.00000
      2      -8.2900      2.00000
      3      -7.9610      2.00000
      4      -7.8945      2.00000
      5      -1.3659      2.00000
      6      -1.2315      2.00000
      7      -0.3845      2.00000
      8      -0.2464      2.00000
      9       0.0733      2.00000
     10       0.3834      2.00000
     11       1.1484      2.00000
     12       1.1741      2.00000
     13       2.3179      2.00000
     14       2.5553      2.00000
     15       3.0189      2.00000
     16       3.0737      2.00000
     17       3.2475      2.00000
     18       3.3879      2.00000
     19       6.3113      0.00000
     20       6.3506      0.00000
     21       6.5261      0.00000
     22       6.8445      0.00000

 k-point    17 :       0.4211    0.0000    0.0000
  band No.  band energies     occupation 
      1      -8.2450      2.00000
      2      -8.1939      2.00000
      3      -7.9121      2.00000
      4      -7.8565      2.00000
      5      -1.4613      2.00000
      6      -1.3336      2.00000
      7      -0.4871      2.00000
      8      -0.3657      2.00000
      9       0.0373      2.00000
     10       0.3436      2.00000
     11       1.0924      2.00000
     12       1.1183      2.00000
     13       2.2956      2.00000
     14       2.4877      2.00000
     15       3.0875      2.00000
     16       3.1481      2.00000
     17       3.3339      2.00000
     18       3.4604      2.00000
     19       6.3189      0.00000
     20       6.3501      0.00000
     21       6.6277      0.00000
     22       6.8781      0.00000

 k-point    18 :       0.4474    0.0000    0.0000
  band No.  band energies     occupation 
      1      -8.1660      2.00000
      2      -8.1218      2.00000
      3      -7.8747      2.00000
      4      -7.8288      2.00000
      5      -1.5355      2.00000
      6      -1.4110      2.00000
      7      -0.5630      2.00000
      8      -0.4536      2.00000
      9       0.0053      2.00000
     10       0.3076      2.00000
     11       1.0520      2.00000
     12       1.0782      2.00000
     13       2.2854      2.00000
     14       2.4346      2.00000
     15       3.1367      2.00000
     16       3.2018      2.00000
     17       3.4225      2.00000
     18       3.5219      2.00000
     19       6.3293      0.00000
     20       6.3539      0.00000
     21       6.7143      0.00000
     22       6.9070      0.00000

 k-point    19 :       0.4737    0.0000    0.0000
  band No.  band energies     occupation 
      1      -8.1163      2.00000
      2      -8.0772      2.00000
      3      -7.8510      2.00000
      4      -7.8122      2.00000
      5      -1.5825      2.00000
      6      -1.4594      2.00000
      7      -0.6096      2.00000
      8      -0.5076      2.00000
      9      -0.0167      2.00000
     10       0.2829      2.00000
     11       1.0276      2.00000
     12       1.0539      2.00000
     13       2.2838      2.00000
     14       2.3987      2.00000
     15       3.1661      2.00000
     16       3.2341      2.00000
     17       3.4930      2.00000
     18       3.5575      2.00000
     19       6.3377      0.00000
     20       6.3580      0.00000
     21       6.7733      0.00000
     22       6.9274      0.00000

 k-point    20 :       0.5000    0.0000    0.0000
  band No.  band energies     occupation 
      1      -8.0993      2.00000
      2      -8.0621      2.00000
      3      -7.8428      2.00000
      4      -7.8067      2.00000
      5      -1.5986      2.00000
      6      -1.4758      2.00000
      7      -0.6253      2.00000
      8      -0.5258      2.00000
      9      -0.0245      2.00000
     10       0.2742      2.00000
     11       1.0194      2.00000
     12       1.0457      2.00000
     13       2.2847      2.00000
     14       2.3854      2.00000
     15       3.1758      2.00000
     16       3.2449      2.00000
     17       3.5231      2.00000
     18       3.5656      2.00000
     19       6.3409      0.00000
     20       6.3597      0.00000
     21       6.7946      0.00000
     22       6.9340      0.00000

 k-point    21 :       0.5000    0.0000    0.0000
  band No.  band energies     occupation 
      1      -8.0993      2.00000
      2      -8.0621      2.00000
      3      -7.8428      2.00000
      4      -7.8067      2.00000
      5      -1.5986      2.00000
      6      -1.4758      2.00000
      7      -0.6253      2.00000
      8      -0.5258      2.00000
      9      -0.0245      2.00000
     10       0.2742      2.00000
     11       1.0194      2.00000
     12       1.0457      2.00000
     13       2.2847      2.00000
     14       2.3854      2.00000
     15       3.1758      2.00000
     16       3.2449      2.00000
     17       3.5231      2.00000
     18       3.5656      2.00000
     19       6.3409      0.00000
     20       6.3597      0.00000
     21       6.7946      0.00000
     22       6.9340      0.00000

 k-point    22 :       0.4912    0.0175    0.0000
  band No.  band energies     occupation 
      1      -8.0978      2.00000
      2      -8.0607      2.00000
      3      -7.8417      2.00000
      4      -7.8058      2.00000
      5      -1.5941      2.00000
      6      -1.4713      2.00000
      7      -0.6277      2.00000
      8      -0.5304      2.00000
      9      -0.0227      2.00000
     10       0.2755      2.00000
     11       1.0205      2.00000
     12       1.0427      2.00000
     13       2.2848      2.00000
     14       2.3875      2.00000
     15       3.1419      2.00000
     16       3.2100      2.00000
     17       3.5407      2.00000
     18       3.5857      2.00000
     19       6.3448      0.00000
     20       6.3598      0.00000
     21       6.7951      0.00000
     22       6.9379      0.00000

 k-point    23 :       0.4825    0.0351    0.0000
  band No.  band energies     occupation 
      1      -8.0934      2.00000
      2      -8.0566      2.00000
      3      -7.8387      2.00000
      4      -7.8030      2.00000
      5      -1.5805      2.00000
      6      -1.4581      2.00000
      7      -0.6350      2.00000
      8      -0.5438      2.00000
      9      -0.0175      2.00000
     10       0.2796      2.00000
     11       1.0239      2.00000
     12       1.0339      2.00000
     13       2.2848      2.00000
     14       2.3937      2.00000
     15       3.0545      2.00000
     16       3.1225      2.00000
     17       3.5795      2.00000
     18       3.6294      2.00000
     19       6.3557      0.00000
     20       6.3596      0.00000
     21       6.7970      0.00000
     22       6.9430      0.00000

 k-point    24 :       0.4737    0.0526    0.0000
  band No.  band energies     occupation 
      1      -8.0862      2.00000
      2      -8.0499      2.00000
      3      -7.8337      2.00000
      4      -7.7984      2.00000
      5      -1.5580      2.00000
      6      -1.4362      2.00000
      7      -0.6473      2.00000
      8      -0.5659      2.00000
      9      -0.0090      2.00000
     10       0.2861      2.00000
     11       1.0208      2.00000
     12       1.0298      2.00000
     13       2.2844      2.00000
     14       2.4028      2.00000
     15       2.9338      2.00000
     16       3.0040      2.00000
     17       3.6218      2.00000
     18       3.6770      2.00000
     19       6.3580      0.00000
     20       6.3708      0.00000
     21       6.8026      0.00000
     22       6.9542      0.00000

 k-point    25 :       0.4649    0.0702    0.0000
  band No.  band energies     occupation 
      1      -8.0763      2.00000
      2      -8.0406      2.00000
      3      -7.8269      2.00000
      4      -7.7921      2.00000
      5      -1.5266      2.00000
      6      -1.4056      2.00000
      7      -0.6647      2.00000
      8      -0.5961      2.00000
      9       0.0028      2.00000
     10       0.2950      2.00000
     11       1.0052      2.00000
     12       1.0384      2.00000
     13       2.2831      2.00000
     14       2.4131      2.00000
     15       2.7902      2.00000
     16       2.8645      2.00000
     17       3.6606      2.00000
     18       3.7211      2.00000
     19       6.3537      0.00000
     20       6.3854      0.00000
     21       6.8144      0.00000
     22       6.9717      0.00000

 k-point    26 :       0.4561    0.0877    0.0000
  band No.  band energies     occupation 
      1      -8.0639      2.00000
      2      -8.0289      2.00000
      3      -7.8182      2.00000
      4      -7.7842      2.00000
      5      -1.4866      2.00000
      6      -1.3668      2.00000
      7      -0.6872      2.00000
[...]
      6      -0.7618      2.00000
      7       0.3102      2.00000
      8       0.3102      2.00000
      9       0.4739      2.00000
     10       0.4740      2.00000
     11       1.0146      2.00000
     12       1.0146      2.00000
     13       2.1718      2.00000
     14       2.1718      2.00000
     15       3.0999      2.00000
     16       3.0999      2.00000
     17       3.3821      2.00000
     18       3.3821      2.00000
     19       6.0956      0.00000
     20       6.0965      0.00000
     21       6.6188      0.00000
     22       6.6574      0.00000

 k-point   131 :       0.1579    0.1579    0.5000
  band No.  band energies     occupation 
      1      -8.9497      2.00000
      2      -8.9497      2.00000
      3      -8.2038      2.00000
      4      -8.2038      2.00000
      5      -0.7364      2.00000
      6      -0.7364      2.00000
      7       0.3436      2.00000
      8       0.3436      2.00000
      9       0.7184      2.00000
     10       0.7184      2.00000
     11       1.1242      2.00000
     12       1.1243      2.00000
     13       2.2347      2.00000
     14       2.2347      2.00000
     15       3.1750      2.00000
     16       3.1750      2.00000
     17       3.4389      2.00000
     18       3.4389      2.00000
     19       6.1139      0.00000
     20       6.1161      0.00000
     21       6.5913      0.00000
     22       6.6366      0.00000

 k-point   132 :       0.1403    0.1403    0.5000
  band No.  band energies     occupation 
      1      -9.1183      2.00000
      2      -9.1183      2.00000
      3      -8.2832      2.00000
      4      -8.2832      2.00000
      5      -0.7650      2.00000
      6      -0.7649      2.00000
      7       0.4183      2.00000
      8       0.4183      2.00000
      9       0.9411      2.00000
     10       0.9411      2.00000
     11       1.3158      2.00000
     12       1.3158      2.00000
     13       2.2109      2.00000
     14       2.2109      2.00000
     15       3.2193      2.00000
     16       3.2193      2.00000
     17       3.5652      2.00000
     18       3.5652      2.00000
     19       6.1794      0.00000
     20       6.1798      0.00000
     21       6.5926      0.00000
     22       6.6848      0.00000

 k-point   133 :       0.1228    0.1228    0.5000
  band No.  band energies     occupation 
      1      -9.2775      2.00000
      2      -9.2775      2.00000
      3      -8.3583      2.00000
      4      -8.3583      2.00000
      5      -0.8445      2.00000
      6      -0.8445      2.00000
      7       0.5544      2.00000
      8       0.5545      2.00000
      9       1.1257      2.00000
     10       1.1257      2.00000
     11       1.5707      2.00000
     12       1.5707      2.00000
     13       2.1261      2.00000
     14       2.1261      2.00000
     15       3.2356      2.00000
     16       3.2356      2.00000
     17       3.7318      2.00000
     18       3.7318      2.00000
     19       6.2761      0.00000
     20       6.2855      0.00000
     21       6.6357      0.00000
     22       6.8166      0.00000

 k-point   134 :       0.1053    0.1053    0.5000
  band No.  band energies     occupation 
      1      -9.4233      2.00000
      2      -9.4233      2.00000
      3      -8.4271      2.00000
      4      -8.4271      2.00000
      5      -0.9539      2.00000
      6      -0.9539      2.00000
      7       0.7329      2.00000
      8       0.7329      2.00000
      9       1.3045      2.00000
     10       1.3045      2.00000
     11       1.8387      2.00000
     12       1.8387      2.00000
     13       2.0128      2.00000
     14       2.0128      2.00000
     15       3.2244      2.00000
     16       3.2244      2.00000
     17       3.9056      2.00000
     18       3.9057      2.00000
     19       6.3902      0.00000
     20       6.4115      0.00000
     21       6.7070      0.00000
     22       6.7852      0.00000

 k-point   135 :       0.0877    0.0877    0.5000
  band No.  band energies     occupation 
      1      -9.5522      2.00000
      2      -9.5522      2.00000
      3      -8.4881      2.00000
      4      -8.4881      2.00000
      5      -1.0721      2.00000
      6      -1.0721      2.00000
      7       0.9303      2.00000
      8       0.9303      2.00000
      9       1.4935      2.00000
     10       1.4935      2.00000
     11       1.8920      2.00000
     12       1.8921      2.00000
     13       2.0892      2.00000
     14       2.0892      2.00000
     15       3.1856      2.00000
     16       3.1856      2.00000
     17       4.0631      2.00000
     18       4.0631      2.00000
     19       6.5209      0.00000
     20       6.5407      0.00000
     21       6.7810      0.00000
     22       6.8177      0.00000

 k-point   136 :       0.0702    0.0702    0.5000
  band No.  band energies     occupation 
      1      -9.6614      2.00000
      2      -9.6614      2.00000
      3      -8.5399      2.00000
      4      -8.5399      2.00000
      5      -1.1841      2.00000
      6      -1.1841      2.00000
      7       1.1260      2.00000
      8       1.1260      2.00000
      9       1.6943      2.00000
     10       1.6943      2.00000
     11       1.7822      2.00000
     12       1.7822      2.00000
     13       2.3017      2.00000
     14       2.3017      2.00000
     15       3.1190      2.00000
     16       3.1190      2.00000
     17       4.1904      2.00000
     18       4.1904      2.00000
     19       6.6594      0.00000
     20       6.6767      0.00000
     21       6.8273      0.00000
     22       6.8369      0.00000

 k-point   137 :       0.0526    0.0526    0.5000
  band No.  band energies     occupation 
      1      -9.7486      2.00000
      2      -9.7486      2.00000
      3      -8.5813      2.00000
      4      -8.5813      2.00000
      5      -1.2797      2.00000
      6      -1.2796      2.00000
      7       1.3019      2.00000
      8       1.3019      2.00000
      9       1.6893      2.00000
     10       1.6893      2.00000
     11       1.9037      2.00000
     12       1.9037      2.00000
     13       2.4689      2.00000
     14       2.4689      2.00000
     15       3.0248      2.00000
     16       3.0248      2.00000
     17       4.2823      2.00000
     18       4.2823      2.00000
     19       6.7881      0.00000
     20       6.8035      0.00000
     21       6.9248      0.00000
     22       7.0381      0.00000

 k-point   138 :       0.0351    0.0351    0.5000
  band No.  band energies     occupation 
      1      -9.8122      2.00000
      2      -9.8121      2.00000
      3      -8.6115      2.00000
      4      -8.6115      2.00000
      5      -1.3521      2.00000
      6      -1.3521      2.00000
      7       1.4419      2.00000
      8       1.4419      2.00000
      9       1.6203      2.00000
     10       1.6203      2.00000
     11       2.1122      2.00000
     12       2.1122      2.00000
     13       2.5872      2.00000
     14       2.5872      2.00000
     15       2.9049      2.00000
     16       2.9049      2.00000
     17       4.3409      2.00000
     18       4.3409      2.00000
     19       6.8702      0.00000
     20       6.9019      0.00000
     21       7.0458      0.00000
     22       7.0671      0.00000

 k-point   139 :       0.0175    0.0175    0.5000
  band No.  band energies     occupation 
      1      -9.8508      2.00000
      2      -9.8508      2.00000
      3      -8.6299      2.00000
      4      -8.6299      2.00000
      5      -1.3972      2.00000
      6      -1.3972      2.00000
      7       1.5322      2.00000
      8       1.5322      2.00000
      9       1.5778      2.00000
     10       1.5778      2.00000
     11       2.3046      2.00000
     12       2.3046      2.00000
     13       2.6571      2.00000
     14       2.6571      2.00000
     15       2.7688      2.00000
     16       2.7688      2.00000
     17       4.3720      2.00000
     18       4.3720      2.00000
     19       6.9265      0.00000
     20       6.9442      0.00000
     21       6.9735      0.00000
     22       7.0247      0.00000

 k-point   140 :       0.0000    0.0000    0.5000
  band No.  band energies     occupation 
      1      -9.8637      2.00000
      2      -9.8637      2.00000
      3      -8.6361      2.00000
      4      -8.6361      2.00000
      5      -1.4125      2.00000
      6      -1.4125      2.00000
      7       1.5635      2.00000
      8       1.5635      2.00000
      9       1.5635      2.00000
     10       1.5635      2.00000
     11       2.4127      2.00000
     12       2.4127      2.00000
     13       2.6801      2.00000
     14       2.6801      2.00000
     15       2.6801      2.00000
     16       2.6801      2.00000
     17       4.3816      2.00000
     18       4.3816      2.00000
     19       6.9458      0.00000
     20       6.9553      0.00000
     21       6.9888      0.00000
     22       7.0868      0.00000


--------------------------------------------------------------------------------------------------------


 soft charge-density along one line, spin component           1
         0         1         2         3         4         5         6         7         8         9
 total charge-density along one line
 
 pseudopotential strength for first ion, spin component:           1
 -7.951  -0.000  -0.000   0.000  -0.000  -0.103   0.000   0.000
 -0.000  -7.944   0.000  -0.000  -0.000   0.000  -0.103  -0.000
 -0.000   0.000  -7.937  -0.000  -0.000   0.000  -0.000  -0.104
  0.000  -0.000  -0.000  -7.944  -0.000  -0.000   0.000   0.000
 -0.000  -0.000  -0.000  -0.000  -7.951   0.000   0.000   0.000
 -0.103   0.000   0.000  -0.000   0.000   0.114  -0.000   0.000
  0.000  -0.103  -0.000   0.000   0.000  -0.000   0.114   0.000
  0.000  -0.000  -0.104   0.000   0.000   0.000   0.000   0.114
 -0.000   0.000   0.000  -0.103   0.000   0.000  -0.000  -0.000
  0.000   0.000   0.000   0.000  -0.103  -0.000  -0.000  -0.000
  0.000  -0.000  -0.005   0.000  -0.000  -0.000   0.000   0.000
 -0.000   0.000   0.001  -0.000   0.000   0.000  -0.000  -0.000
 -0.000   0.000  -0.000  -0.000  -0.004   0.000  -0.000   0.000
 -0.000   0.000   0.000  -0.000  -0.000  -0.000  -0.000  -0.000
 -0.004  -0.000   0.000   0.000  -0.000  -0.000  -0.000  -0.000
  0.000  -0.000   0.000   0.000   0.002  -0.000   0.000  -0.000
  0.000  -0.000  -0.000   0.000   0.000  -0.000   0.000   0.000
  0.002   0.000  -0.000  -0.000   0.000  -0.000  -0.000   0.000
 total augmentation occupancy for first ion, spin component:           1
  1.000   0.000   0.000   0.000   0.000   0.000   0.000   0.000   0.000   0.000   0.000   0.000   0.000   0.000   0.000   0.000
  0.000   1.000   0.000   0.000   0.000   0.000   0.000   0.000   0.000   0.000   0.000   0.000   0.000   0.000   0.000   0.000
  0.000   0.000   1.000   0.000   0.000   0.000   0.000   0.000   0.000   0.000   0.000   0.000   0.000   0.000   0.000   0.000
  0.000   0.000   0.000   1.000   0.000   0.000   0.000   0.000   0.000   0.000   0.000   0.000   0.000   0.000   0.000   0.000
  0.000   0.000   0.000   0.000   1.000   0.000   0.000   0.000   0.000   0.000   0.000   0.000   0.000   0.000   0.000   0.000
  0.000   0.000   0.000   0.000   0.000   0.000   0.000   0.000   0.000   0.000   0.000   0.000   0.000   0.000   0.000   0.000
  0.000   0.000   0.000   0.000   0.000   0.000   0.000   0.000   0.000   0.000   0.000   0.000   0.000   0.000   0.000   0.000
  0.000   0.000   0.000   0.000   0.000   0.000   0.000   0.000   0.000   0.000   0.000   0.000   0.000   0.000   0.000   0.000
  0.000   0.000   0.000   0.000   0.000   0.000   0.000   0.000   0.000   0.000   0.000   0.000   0.000   0.000   0.000   0.000
  0.000   0.000   0.000   0.000   0.000   0.000   0.000   0.000   0.000   0.000   0.000   0.000   0.000   0.000   0.000   0.000
  0.000   0.000   0.000   0.000   0.000   0.000   0.000   0.000   0.000   0.000   1.000   0.000   0.000   0.000   0.000   0.000
  0.000   0.000   0.000   0.000   0.000   0.000   0.000   0.000   0.000   0.000   0.000   0.000   0.000   0.000   0.000   0.000
  0.000   0.000   0.000   0.000   0.000   0.000   0.000   0.000   0.000   0.000   0.000   0.000   0.000   0.000   0.000   0.000
  0.000   0.000   0.000   0.000   0.000   0.000   0.000   0.000   0.000   0.000   0.000   0.000   0.000   0.000   0.000   0.000
  0.000   0.000   0.000   0.000   0.000   0.000   0.000   0.000   0.000   0.000   0.000   0.000   0.000   0.000   0.000   0.000
  0.000   0.000   0.000   0.000   0.000   0.000   0.000   0.000   0.000   0.000   0.000   0.000   0.000   0.000   0.000   0.000
  0.000   0.000   0.000   0.000   0.000   0.000   0.000   0.000   0.000   0.000   0.000   0.000   0.000   0.000   0.000   0.000
  0.000   0.000   0.000   0.000   0.000   0.000   0.000   0.000   0.000   0.000   0.000   0.000   0.000   0.000   0.000   0.000


------------------------ aborting loop because EDIFF is reached ----------------------------------------


 


 total charge     
 
# of ion       s       p       d       tot
------------------------------------------
    1        0.430   0.533   4.756   5.718
    2        0.430   0.533   4.756   5.718
    3        1.338   2.256   0.000   3.595
    4        1.338   2.256   0.000   3.595
    5        1.338   2.256   0.000   3.595
    6        1.338   2.256   0.000   3.595
--------------------------------------------------
tot          6.214  10.090   9.511  25.815
 
    CHARGE:  cpu time    0.4669: real time    0.4671
    FORLOC:  cpu time    0.0060: real time    0.0064
    FORNL :  cpu time    0.7219: real time    0.7215
    STRESS:  cpu time    1.9987: real time    1.9982
    FORCOR:  cpu time    0.0700: real time    0.0702
    FORHAR:  cpu time    0.0160: real time    0.0158
    OFIELD:  cpu time    0.0000: real time    0.0003

  FORCE on cell =-STRESS in cart. coord.  units (eV):
  Direction    XX          YY          ZZ          XY          YZ          ZX
  --------------------------------------------------------------------------------------
  Alpha Z   101.17762   101.17762   101.17762
  Ewald    -274.78654  -274.78567  -860.43961     0.00038     0.00000     0.00024
  Hartree   267.29988   267.29990  -190.01580     0.00004     0.00000    -0.00001
  E(xc)    -140.45539  -140.45540  -141.72790    -0.00001     0.00000    -0.00000
  Local    -615.94387  -615.94449   403.85957    -0.00033     0.00000    -0.00010
  n-local   236.36160   235.71756   247.95541    -0.08658    -0.00001    -0.00003
  augment   -47.01739   -47.01737   -50.08003     0.00003     0.00000    -0.00001
  Kinetic   471.20882   478.90445   493.18408   -10.60218     0.00014     0.00015
  Fock        0.00000     0.00000     0.00000     0.00000     0.00000     0.00000
  -------------------------------------------------------------------------------------
  Total       1.37067     1.37067     3.91334     0.00000     0.00000     0.00000
  in kB      18.73542    18.73542    53.49076     0.00000     0.00000     0.00000
  external pressure =       30.32 kB  Pullay stress =        0.00 kB


 VOLUME and BASIS-vectors are now :
 -----------------------------------------------------------------------------
  energy-cutoff  :      450.00
  volume of cell :      117.21
      direct lattice vectors                 reciprocal lattice vectors
     3.192273748  0.000000000  0.000000000     0.313256343  0.180858622  0.000000000
    -1.596136874  2.764590347  0.000000000    -0.000000000  0.361717244  0.000000000
     0.000000000  0.000000000 13.281548762     0.000000000  0.000000000  0.075292424

  length of vectors
     3.192273748  3.192273908 13.281548762     0.361717262  0.361717244  0.075292424


 FORCES acting on ions
    electron-ion (+dipol)            ewald-force                    non-local-force                 convergence-correction
 -----------------------------------------------------------------------------------------------
   0.593E-04 -.466E-04 -.558E-05   0.938E-04 -.100E-03 0.292E-09   0.104E-16 -.104E-16 -.397E-22   -.226E-05 0.127E-05 -.154E-05
   0.523E-04 -.179E-04 -.558E-05   -.938E-04 0.100E-03 -.292E-09   -.104E-16 0.104E-16 0.106E-21   0.673E-05 -.384E-05 -.154E-05
   0.520E-03 -.304E-03 -.199E+03   0.884E-04 -.508E-04 0.192E+03   0.173E-17 0.104E-16 -.210E+01   0.227E-05 -.115E-05 0.826E+01
   -.115E-02 0.665E-03 0.199E+03   -.884E-04 0.508E-04 -.192E+03   0.607E-17 0.694E-17 0.210E+01   -.108E-04 0.606E-05 -.826E+01
   0.530E-03 0.670E-03 -.199E+03   -.552E-05 0.508E-04 0.192E+03   0.694E-17 -.104E-16 -.210E+01   0.393E-05 0.410E-05 0.826E+01
   -.117E-02 -.298E-03 0.199E+03   0.552E-05 -.508E-04 -.192E+03   -.867E-17 -.347E-17 0.210E+01   -.565E-05 -.311E-05 -.826E+01
 -----------------------------------------------------------------------------------------------
   -.116E-02 0.669E-03 -.477E-05   0.126E-13 0.229E-13 0.284E-13   0.607E-17 0.347E-17 0.000E+00   -.577E-05 0.333E-05 -.255E-05
 
 
 POSITION                                       TOTAL-FORCE (eV/Angst)
 -----------------------------------------------------------------------------------
     -0.00000      1.84306      3.32039        -0.000000      0.000000     -0.000000
      1.59614      0.92153      9.96116         0.000000     -0.000000     -0.000000
     -0.00000      1.84306     11.52089        -0.000000      0.000000     -0.556091
      1.59614      0.92153      1.76066         0.000000     -0.000000      0.556091
      1.59614      0.92153      4.88012         0.000000     -0.000000     -0.556091
      0.00000      1.84306      8.40143        -0.000000     -0.000000      0.556091
 -----------------------------------------------------------------------------------
    total drift:                               -0.001164      0.000672     -0.000007


--------------------------------------------------------------------------------------------------------



  FREE ENERGIE OF THE ION-ELECTRON SYSTEM (eV)
  ---------------------------------------------------
  free  energy   TOTEN  =       -41.43983152 eV

  energy  without entropy=      -41.43982838  energy(sigma->0) =      -41.43982995
 


--------------------------------------------------------------------------------------------------------


    POTLOK:  cpu time    0.0710: real time    0.0703


--------------------------------------------------------------------------------------------------------


     LOOP+:  cpu time   56.6394: real time   57.1727
    4ORBIT:  cpu time    0.0000: real time    0.0000
 


 total charge     
 
# of ion       s       p       d       tot
------------------------------------------
    1        0.430   0.533   4.756   5.718
    2        0.430   0.533   4.756   5.718
    3        1.338   2.256   0.000   3.595
    4        1.338   2.256   0.000   3.595
    5        1.338   2.256   0.000   3.595
    6        1.338   2.256   0.000   3.595
--------------------------------------------------
tot          6.214  10.090   9.511  25.815
 

 total amount of memory used by VASP MPI-rank0   126974. kBytes
=======================================================================

   base      :      30000. kBytes
   nonl-proj :      52298. kBytes
   fftplans  :       4560. kBytes
   grid      :       7349. kBytes
   one-center:         46. kBytes
   wavefun   :      32721. kBytes
 
  
  
 General timing and accounting informations for this job:
 ========================================================
  
                  Total CPU time used (sec):       60.915
                            User time (sec):       60.463
                          System time (sec):        0.452
                         Elapsed time (sec):       61.782
  
                   Maximum memory used (kb):      115584.
                   Average memory used (kb):           0.
  
                          Minor page faults:        30199
                          Major page faults:          184
                 Voluntary context switches:         3738
