PROCAR lm decomposed
# of k-points:  140         # of bands:   22         # of ions:    6

 k-point     1 :    0.00000000 0.00000000 0.00000000     weight = 0.00714286

band     1 # energy   -9.91035000 # occ.  2.00000000
 
ion      s     py     pz     px    dxy    dyz    dz2    dxz  x2-y2    tot
    1  0.064  0.000  0.000  0.000  0.000  0.000  0.000  0.000  0.000  0.064
    2  0.064  0.000  0.000  0.000  0.000  0.000  0.000  0.000  0.000  0.064
    3  0.137  0.000  0.002  0.000  0.000  0.000  0.000  0.000  0.000  0.140
    4  0.137  0.000  0.002  0.000  0.000  0.000  0.000  0.000  0.000  0.140
    5  0.137  0.000  0.002  0.000  0.000  0.000  0.000  0.000  0.000  0.140
    6  0.137  0.000  0.002  0.000  0.000  0.000  0.000  0.000  0.000  0.140
tot    0.678  0.000  0.009  0.000  0.000  0.000  0.000  0.000  0.000  0.687
 
band     2 # energy   -9.81102712 # occ.  2.00000000
 
ion      s     py     pz     px    dxy    dyz    dz2    dxz  x2-y2    tot
    1  0.067  0.000  0.000  0.000  0.000  0.000  0.000  0.000  0.000  0.067
    2  0.067  0.000  0.000  0.000  0.000  0.000  0.000  0.000  0.000  0.067
    3  0.138  0.000  0.003  0.000  0.000  0.000  0.000  0.000  0.000  0.141
    4  0.138  0.000  0.003  0.000  0.000  0.000  0.000  0.000  0.000  0.141
    5  0.138  0.000  0.003  0.000  0.000  0.000  0.000  0.000  0.000  0.141
    6  0.138  0.000  0.003  0.000  0.000  0.000  0.000  0.000  0.000  0.141
tot    0.686  0.000  0.011  0.000  0.000  0.000  0.000  0.000  0.000  0.698
 
band     3 # energy   -8.72265656 # occ.  2.00000000
 
ion      s     py     pz     px    dxy    dyz    dz2    dxz  x2-y2    tot
    1  0.000  0.000  0.029  0.000  0.000  0.000  0.000  0.000  0.000  0.029
    2  0.000  0.000  0.029  0.000  0.000  0.000  0.000  0.000  0.000  0.029
    3  0.156  0.000  0.000  0.000  0.000  0.000  0.000  0.000  0.000  0.156
    4  0.156  0.000  0.000  0.000  0.000  0.000  0.000  0.000  0.000  0.156
    5  0.156  0.000  0.000  0.000  0.000  0.000  0.000  0.000  0.000  0.156
    6  0.156  0.000  0.000  0.000  0.000  0.000  0.000  0.000  0.000  0.156
tot    0.624  0.000  0.058  0.000  0.000  0.000  0.000  0.000  0.000  0.681
 
band     4 # energy   -8.55464816 # occ.  2.00000000
 
ion      s     py     pz     px    dxy    dyz    dz2    dxz  x2-y2    tot
    1  0.000  0.000  0.030  0.000  0.000  0.000  0.000  0.000  0.000  0.030
    2  0.000  0.000  0.030  0.000  0.000  0.000  0.000  0.000  0.000  0.030
    3  0.159  0.000  0.000  0.000  0.000  0.000  0.000  0.000  0.000  0.160
    4  0.159  0.000  0.000  0.000  0.000  0.000  0.000  0.000  0.000  0.160
    5  0.159  0.000  0.000  0.000  0.000  0.000  0.000  0.000  0.000  0.160
    6  0.159  0.000  0.000  0.000  0.000  0.000  0.000  0.000  0.000  0.160
tot    0.638  0.000  0.062  0.000  0.000  0.000  0.000  0.000  0.000  0.700
 
band     5 # energy   -1.64995824 # occ.  2.00000000
 
ion      s     py     pz     px    dxy    dyz    dz2    dxz  x2-y2    tot
    1  0.065  0.000  0.000  0.000  0.000  0.000  0.088  0.000  0.000  0.153
    2  0.065  0.000  0.000  0.000  0.000  0.000  0.088  0.000  0.000  0.153
    3  0.007  0.000  0.065  0.000  0.000  0.000  0.000  0.000  0.000  0.071
    4  0.007  0.000  0.065  0.000  0.000  0.000  0.000  0.000  0.000  0.071
    5  0.007  0.000  0.065  0.000  0.000  0.000  0.000  0.000  0.000  0.071
    6  0.007  0.000  0.065  0.000  0.000  0.000  0.000  0.000  0.000  0.071
tot    0.158  0.000  0.258  0.000  0.000  0.000  0.175  0.000  0.000  0.591
 
band     6 # energy   -1.12681565 # occ.  2.00000000
 
ion      s     py     pz     px    dxy    dyz    dz2    dxz  x2-y2    tot
    1  0.063  0.000  0.000  0.000  0.000  0.000  0.119  0.000  0.000  0.182
    2  0.063  0.000  0.000  0.000  0.000  0.000  0.119  0.000  0.000  0.182
    3  0.011  0.000  0.061  0.000  0.000  0.000  0.000  0.000  0.000  0.072
    4  0.011  0.000  0.061  0.000  0.000  0.000  0.000  0.000  0.000  0.072
    5  0.011  0.000  0.061  0.000  0.000  0.000  0.000  0.000  0.000  0.072
    6  0.011  0.000  0.061  0.000  0.000  0.000  0.000  0.000  0.000  0.072
tot    0.171  0.000  0.242  0.000  0.000  0.000  0.237  0.000  0.000  0.650
 
band     7 # energy    1.56145660 # occ.  2.00000000
 
ion      s     py     pz     px    dxy    dyz    dz2    dxz  x2-y2    tot
    1  0.000  0.000  0.000  0.003  0.287  0.000  0.000  0.000  0.011  0.301
    2  0.000  0.000  0.000  0.003  0.286  0.000  0.000  0.000  0.011  0.301
    3  0.000  0.002  0.000  0.055  0.000  0.000  0.000  0.000  0.000  0.057
    4  0.000  0.002  0.000  0.055  0.000  0.000  0.000  0.000  0.000  0.057
    5  0.000  0.002  0.000  0.055  0.000  0.000  0.000  0.000  0.000  0.057
    6  0.000  0.002  0.000  0.055  0.000  0.000  0.000  0.000  0.000  0.057
tot    0.000  0.009  0.000  0.226  0.573  0.000  0.000  0.000  0.023  0.830
 
band     8 # energy    1.56146165 # occ.  2.00000000
 
ion      s     py     pz     px    dxy    dyz    dz2    dxz  x2-y2    tot
    1  0.000  0.003  0.000  0.000  0.011  0.000  0.000  0.000  0.287  0.301
    2  0.000  0.003  0.000  0.000  0.011  0.000  0.000  0.000  0.286  0.301
    3  0.000  0.055  0.000  0.002  0.000  0.000  0.000  0.000  0.000  0.057
    4  0.000  0.055  0.000  0.002  0.000  0.000  0.000  0.000  0.000  0.057
    5  0.000  0.055  0.000  0.002  0.000  0.000  0.000  0.000  0.000  0.057
    6  0.000  0.055  0.000  0.002  0.000  0.000  0.000  0.000  0.000  0.057
tot    0.000  0.226  0.000  0.009  0.023  0.000  0.000  0.000  0.573  0.830
 
band     9 # energy    1.56549381 # occ.  2.00000000
 
ion      s     py     pz     px    dxy    dyz    dz2    dxz  x2-y2    tot
    1  0.000  0.000  0.000  0.003  0.287  0.000  0.000  0.000  0.011  0.302
    2  0.000  0.000  0.000  0.003  0.288  0.000  0.000  0.000  0.011  0.302
    3  0.000  0.002  0.000  0.055  0.000  0.000  0.000  0.000  0.000  0.057
    4  0.000  0.002  0.000  0.055  0.000  0.000  0.000  0.000  0.000  0.057
    5  0.000  0.002  0.000  0.055  0.000  0.000  0.000  0.000  0.000  0.057
    6  0.000  0.002  0.000  0.055  0.000  0.000  0.000  0.000  0.000  0.057
tot    0.000  0.009  0.000  0.225  0.575  0.000  0.000  0.000  0.022  0.831
 
band    10 # energy    1.56549894 # occ.  2.00000000
 
ion      s     py     pz     px    dxy    dyz    dz2    dxz  x2-y2    tot
    1  0.000  0.003  0.000  0.000  0.011  0.000  0.000  0.000  0.287  0.302
    2  0.000  0.003  0.000  0.000  0.011  0.000  0.000  0.000  0.288  0.302
    3  0.000  0.055  0.000  0.002  0.000  0.000  0.000  0.000  0.000  0.057
    4  0.000  0.055  0.000  0.002  0.000  0.000  0.000  0.000  0.000  0.057
    5  0.000  0.055  0.000  0.002  0.000  0.000  0.000  0.000  0.000  0.057
    6  0.000  0.055  0.000  0.002  0.000  0.000  0.000  0.000  0.000  0.057
tot    0.000  0.225  0.000  0.009  0.022  0.000  0.000  0.000  0.575  0.831
 
band    11 # energy    1.83319994 # occ.  2.00000000
 
ion      s     py     pz     px    dxy    dyz    dz2    dxz  x2-y2    tot
    1  0.000  0.000  0.027  0.000  0.000  0.000  0.000  0.000  0.000  0.027
    2  0.000  0.000  0.027  0.000  0.000  0.000  0.000  0.000  0.000  0.027
    3  0.001  0.000  0.112  0.000  0.000  0.000  0.000  0.000  0.000  0.113
    4  0.001  0.000  0.112  0.000  0.000  0.000  0.000  0.000  0.000  0.113
    5  0.001  0.000  0.112  0.000  0.000  0.000  0.000  0.000  0.000  0.113
    6  0.001  0.000  0.112  0.000  0.000  0.000  0.000  0.000  0.000  0.113
tot    0.004  0.000  0.503  0.000  0.000  0.000  0.000  0.000  0.000  0.507
 
band    12 # energy    2.67293014 # occ.  2.00000000
 
ion      s     py     pz     px    dxy    dyz    dz2    dxz  x2-y2    tot
    1  0.000  0.000  0.000  0.000  0.000  0.251  0.000  0.020  0.000  0.271
    2  0.000  0.000  0.000  0.000  0.000  0.251  0.000  0.020  0.000  0.271
    3  0.000  0.070  0.000  0.006  0.000  0.000  0.000  0.000  0.000  0.076
    4  0.000  0.070  0.000  0.006  0.000  0.000  0.000  0.000  0.000  0.076
    5  0.000  0.070  0.000  0.006  0.000  0.000  0.000  0.000  0.000  0.076
    6  0.000  0.070  0.000  0.006  0.000  0.000  0.000  0.000  0.000  0.076
tot    0.000  0.281  0.000  0.023  0.000  0.501  0.000  0.041  0.000  0.846
 
band    13 # energy    2.67296212 # occ.  2.00000000
 
ion      s     py     pz     px    dxy    dyz    dz2    dxz  x2-y2    tot
    1  0.000  0.000  0.000  0.000  0.000  0.020  0.000  0.251  0.000  0.271
    2  0.000  0.000  0.000  0.000  0.000  0.020  0.000  0.251  0.000  0.271
    3  0.000  0.006  0.000  0.070  0.000  0.000  0.000  0.000  0.000  0.076
    4  0.000  0.006  0.000  0.070  0.000  0.000  0.000  0.000  0.000  0.076
    5  0.000  0.006  0.000  0.070  0.000  0.000  0.000  0.000  0.000  0.076
    6  0.000  0.006  0.000  0.070  0.000  0.000  0.000  0.000  0.000  0.076
tot    0.000  0.023  0.000  0.281  0.000  0.041  0.000  0.501  0.000  0.846
 
band    14 # energy    2.68716797 # occ.  2.00000000
 
ion      s     py     pz     px    dxy    dyz    dz2    dxz  x2-y2    tot
    1  0.000  0.000  0.000  0.000  0.000  0.252  0.000  0.021  0.000  0.273
    2  0.000  0.000  0.000  0.000  0.000  0.253  0.000  0.021  0.000  0.273
    3  0.000  0.070  0.000  0.006  0.000  0.000  0.000  0.000  0.000  0.076
    4  0.000  0.070  0.000  0.006  0.000  0.000  0.000  0.000  0.000  0.075
    5  0.000  0.070  0.000  0.006  0.000  0.000  0.000  0.000  0.000  0.075
    6  0.000  0.070  0.000  0.006  0.000  0.000  0.000  0.000  0.000  0.076
tot    0.000  0.279  0.000  0.023  0.000  0.505  0.000  0.041  0.000  0.848
 
band    15 # energy    2.68719998 # occ.  2.00000000
 
ion      s     py     pz     px    dxy    dyz    dz2    dxz  x2-y2    tot
    1  0.000  0.000  0.000  0.000  0.000  0.021  0.000  0.253  0.000  0.273
    2  0.000  0.000  0.000  0.000  0.000  0.021  0.000  0.253  0.000  0.273
    3  0.000  0.006  0.000  0.070  0.000  0.000  0.000  0.000  0.000  0.076
    4  0.000  0.006  0.000  0.070  0.000  0.000  0.000  0.000  0.000  0.076
    5  0.000  0.006  0.000  0.070  0.000  0.000  0.000  0.000  0.000  0.076
    6  0.000  0.006  0.000  0.070  0.000  0.000  0.000  0.000  0.000  0.076
tot    0.000  0.023  0.000  0.279  0.000  0.041  0.000  0.505  0.000  0.848
 
band    16 # energy    3.22086775 # occ.  2.00000000
 
ion      s     py     pz     px    dxy    dyz    dz2    dxz  x2-y2    tot
    1  0.000  0.000  0.029  0.000  0.000  0.000  0.000  0.000  0.000  0.029
    2  0.000  0.000  0.029  0.000  0.000  0.000  0.000  0.000  0.000  0.029
    3  0.000  0.000  0.143  0.000  0.000  0.000  0.000  0.000  0.000  0.143
    4  0.000  0.000  0.143  0.000  0.000  0.000  0.000  0.000  0.000  0.143
    5  0.000  0.000  0.143  0.000  0.000  0.000  0.000  0.000  0.000  0.143
    6  0.000  0.000  0.143  0.000  0.000  0.000  0.000  0.000  0.000  0.143
tot    0.000  0.000  0.629  0.000  0.000  0.000  0.000  0.000  0.000  0.630
 
band    17 # energy    3.86269889 # occ.  2.00000000
 
ion      s     py     pz     px    dxy    dyz    dz2    dxz  x2-y2    tot
    1  0.004  0.000  0.000  0.000  0.000  0.000  0.308  0.000  0.000  0.312
    2  0.004  0.000  0.000  0.000  0.000  0.000  0.308  0.000  0.000  0.312
    3  0.000  0.000  0.027  0.000  0.000  0.000  0.000  0.000  0.000  0.027
    4  0.000  0.000  0.027  0.000  0.000  0.000  0.000  0.000  0.000  0.027
    5  0.000  0.000  0.027  0.000  0.000  0.000  0.000  0.000  0.000  0.027
    6  0.000  0.000  0.027  0.000  0.000  0.000  0.000  0.000  0.000  0.027
tot    0.009  0.000  0.107  0.000  0.000  0.000  0.616  0.000  0.000  0.732
 
band    18 # energy    4.62316256 # occ.  1.99996573
 
ion      s     py     pz     px    dxy    dyz    dz2    dxz  x2-y2    tot
    1  0.014  0.000  0.000  0.000  0.000  0.000  0.300  0.000  0.000  0.314
    2  0.014  0.000  0.000  0.000  0.000  0.000  0.300  0.000  0.000  0.314
    3  0.004  0.000  0.046  0.000  0.000  0.000  0.000  0.000  0.000  0.050
    4  0.004  0.000  0.046  0.000  0.000  0.000  0.000  0.000  0.000  0.050
    5  0.004  0.000  0.046  0.000  0.000  0.000  0.000  0.000  0.000  0.050
    6  0.004  0.000  0.046  0.000  0.000  0.000  0.000  0.000  0.000  0.050
tot    0.045  0.000  0.185  0.000  0.000  0.000  0.599  0.000  0.000  0.829
 
band    19 # energy    6.94947816 # occ.  0.00000000
 
ion      s     py     pz     px    dxy    dyz    dz2    dxz  x2-y2    tot
    1  0.000  0.000  0.000  0.000  0.001  0.058  0.000  0.125  0.001  0.186
    2  0.000  0.000  0.000  0.000  0.000  0.040  0.000  0.128  0.001  0.170
    3  0.000  0.032  0.000  0.063  0.000  0.000  0.000  0.000  0.000  0.095
    4  0.000  0.040  0.000  0.066  0.000  0.000  0.000  0.000  0.000  0.106
    5  0.000  0.023  0.000  0.065  0.000  0.000  0.000  0.000  0.000  0.089
    6  0.000  0.013  0.000  0.070  0.000  0.000  0.000  0.000  0.000  0.083
tot    0.000  0.108  0.000  0.265  0.001  0.098  0.000  0.254  0.003  0.729
 
band    20 # energy    6.96226645 # occ.  0.00000000
 
ion      s     py     pz     px    dxy    dyz    dz2    dxz  x2-y2    tot
    1  0.000  0.000  0.000  0.001  0.018  0.053  0.000  0.055  0.001  0.127
    2  0.000  0.000  0.000  0.000  0.003  0.173  0.000  0.050  0.000  0.226
    3  0.000  0.083  0.000  0.033  0.000  0.000  0.000  0.000  0.000  0.116
    4  0.000  0.021  0.000  0.009  0.000  0.000  0.000  0.000  0.000  0.030
    5  0.000  0.035  0.000  0.075  0.000  0.000  0.000  0.000  0.000  0.110
    6  0.000  0.098  0.000  0.023  0.000  0.000  0.000  0.000  0.000  0.122
tot    0.000  0.238  0.000  0.142  0.021  0.225  0.000  0.105  0.001  0.732
 
band    21 # energy    7.03006134 # occ.  0.00000000
 
ion      s     py     pz     px    dxy    dyz    dz2    dxz  x2-y2    tot
    1  0.000  0.003  0.000  0.000  0.002  0.078  0.000  0.060  0.048  0.191
    2  0.000  0.003  0.000  0.002  0.024  0.069  0.000  0.008  0.046  0.152
    3  0.000  0.021  0.000  0.007  0.000  0.000  0.000  0.000  0.000  0.028
    4  0.000  0.000  0.000  0.037  0.000  0.000  0.000  0.000  0.000  0.037
    5  0.000  0.153  0.000  0.028  0.000  0.000  0.000  0.000  0.000  0.181
    6  0.000  0.120  0.000  0.039  0.000  0.000  0.000  0.000  0.000  0.159
tot    0.000  0.300  0.000  0.113  0.026  0.146  0.000  0.068  0.094  0.747
 
band    22 # energy    7.16048315 # occ.  0.00000000
 
ion      s     py     pz     px    dxy    dyz    dz2    dxz  x2-y2    tot
    1  0.000  0.005  0.000  0.002  0.029  0.009  0.000  0.011  0.076  0.131
    2  0.000  0.001  0.000  0.009  0.143  0.002  0.000  0.018  0.019  0.192
    3  0.000  0.022  0.000  0.060  0.000  0.000  0.000  0.000  0.000  0.081
    4  0.000  0.032  0.000  0.007  0.000  0.000  0.000  0.000  0.000  0.039
    5  0.000  0.092  0.000  0.049  0.000  0.000  0.000  0.000  0.000  0.142
    6  0.000  0.010  0.000  0.177  0.000  0.000  0.000  0.000  0.000  0.187
tot    0.000  0.162  0.000  0.304  0.172  0.011  0.000  0.028  0.095  0.773
 

 k-point     2 :    0.02631579 0.00000000 0.00000000     weight = 0.00714286

band     1 # energy   -9.90060406 # occ.  2.00000000
 
ion      s     py     pz     px    dxy    dyz    dz2    dxz  x2-y2    tot
    1  0.064  0.000  0.000  0.000  0.000  0.000  0.000  0.000  0.000  0.064
    2  0.064  0.000  0.000  0.000  0.000  0.000  0.000  0.000  0.000  0.064
    3  0.137  0.000  0.002  0.000  0.000  0.000  0.000  0.000  0.000  0.140
    4  0.137  0.000  0.002  0.000  0.000  0.000  0.000  0.000  0.000  0.140
    5  0.137  0.000  0.002  0.000  0.000  0.000  0.000  0.000  0.000  0.140
    6  0.137  0.000  0.002  0.000  0.000  0.000  0.000  0.000  0.000  0.140
tot    0.678  0.000  0.009  0.000  0.000  0.000  0.000  0.000  0.000  0.687
 
band     2 # energy   -9.80133938 # occ.  2.00000000
 
ion      s     py     pz     px    dxy    dyz    dz2    dxz  x2-y2    tot
    1  0.067  0.000  0.000  0.000  0.000  0.000  0.000  0.000  0.000  0.067
    2  0.067  0.000  0.000  0.000  0.000  0.000  0.000  0.000  0.000  0.067
    3  0.138  0.000  0.003  0.000  0.000  0.000  0.000  0.000  0.000  0.141
    4  0.138  0.000  0.003  0.000  0.000  0.000  0.000  0.000  0.000  0.141
    5  0.138  0.000  0.003  0.000  0.000  0.000  0.000  0.000  0.000  0.141
    6  0.138  0.000  0.003  0.000  0.000  0.000  0.000  0.000  0.000  0.141
tot    0.686  0.000  0.011  0.000  0.000  0.000  0.000  0.000  0.000  0.698
 
band     3 # energy   -8.71777584 # occ.  2.00000000
 
ion      s     py     pz     px    dxy    dyz    dz2    dxz  x2-y2    tot
    1  0.000  0.000  0.029  0.000  0.000  0.000  0.000  0.000  0.000  0.029
    2  0.000  0.000  0.029  0.000  0.000  0.000  0.000  0.000  0.000  0.029
    3  0.156  0.000  0.000  0.000  0.000  0.000  0.000  0.000  0.000  0.156
    4  0.156  0.000  0.000  0.000  0.000  0.000  0.000  0.000  0.000  0.156
    5  0.156  0.000  0.000  0.000  0.000  0.000  0.000  0.000  0.000  0.156
    6  0.156  0.000  0.000  0.000  0.000  0.000  0.000  0.000  0.000  0.156
tot    0.624  0.000  0.058  0.000  0.000  0.000  0.000  0.000  0.000  0.682
 
band     4 # energy   -8.55027779 # occ.  2.00000000
 
ion      s     py     pz     px    dxy    dyz    dz2    dxz  x2-y2    tot
    1  0.000  0.000  0.030  0.000  0.000  0.000  0.000  0.000  0.000  0.031
    2  0.000  0.000  0.030  0.000  0.000  0.000  0.000  0.000  0.000  0.031
    3  0.159  0.000  0.000  0.000  0.000  0.000  0.000  0.000  0.000  0.160
    4  0.159  0.000  0.000  0.000  0.000  0.000  0.000  0.000  0.000  0.160
    5  0.159  0.000  0.000  0.000  0.000  0.000  0.000  0.000  0.000  0.160
    6  0.159  0.000  0.000  0.000  0.000  0.000  0.000  0.000  0.000  0.160
tot    0.638  0.000  0.062  0.000  0.000  0.000  0.000  0.000  0.000  0.700
 
band     5 # energy   -1.63824725 # occ.  2.00000000
 
ion      s     py     pz     px    dxy    dyz    dz2    dxz  x2-y2    tot
    1  0.065  0.000  0.000  0.000  0.000  0.000  0.087  0.000  0.000  0.153
    2  0.065  0.000  0.000  0.000  0.000  0.000  0.087  0.000  0.000  0.153
    3  0.007  0.000  0.065  0.000  0.000  0.000  0.000  0.000  0.000  0.072
    4  0.007  0.000  0.065  0.000  0.000  0.000  0.000  0.000  0.000  0.072
    5  0.007  0.000  0.065  0.000  0.000  0.000  0.000  0.000  0.000  0.072
    6  0.007  0.000  0.065  0.000  0.000  0.000  0.000  0.000  0.000  0.072
tot    0.157  0.000  0.259  0.000  0.000  0.000  0.175  0.000  0.000  0.591
 
band     6 # energy   -1.11524173 # occ.  2.00000000
 
ion      s     py     pz     px    dxy    dyz    dz2    dxz  x2-y2    tot
    1  0.063  0.000  0.000  0.000  0.000  0.000  0.118  0.000  0.000  0.182
    2  0.063  0.000  0.000  0.000  0.000  0.000  0.118  0.000  0.000  0.182
    3  0.011  0.000  0.061  0.000  0.000  0.000  0.000  0.000  0.000  0.072
    4  0.011  0.000  0.061  0.000  0.000  0.000  0.000  0.000  0.000  0.072
    5  0.011  0.000  0.061  0.000  0.000  0.000  0.000  0.000  0.000  0.072
    6  0.011  0.000  0.061  0.000  0.000  0.000  0.000  0.000  0.000  0.072
tot    0.169  0.000  0.243  0.001  0.000  0.000  0.237  0.000  0.000  0.650
 
band     7 # energy    1.53788830 # occ.  2.00000000
 
ion      s     py     pz     px    dxy    dyz    dz2    dxz  x2-y2    tot
    1  0.001  0.001  0.000  0.003  0.221  0.000  0.000  0.000  0.074  0.299
    2  0.001  0.001  0.000  0.003  0.221  0.000  0.000  0.000  0.074  0.299
    3  0.000  0.014  0.000  0.043  0.000  0.000  0.000  0.000  0.000  0.057
    4  0.000  0.014  0.000  0.043  0.000  0.000  0.000  0.000  0.000  0.057
    5  0.000  0.014  0.000  0.043  0.000  0.000  0.000  0.000  0.000  0.057
    6  0.000  0.014  0.000  0.043  0.000  0.000  0.000  0.000  0.000  0.057
tot    0.002  0.059  0.000  0.176  0.443  0.000  0.000  0.000  0.148  0.828
 
band     8 # energy    1.54215583 # occ.  2.00000000
 
ion      s     py     pz     px    dxy    dyz    dz2    dxz  x2-y2    tot
    1  0.001  0.001  0.000  0.003  0.222  0.000  0.000  0.000  0.074  0.300
    2  0.001  0.001  0.000  0.003  0.222  0.000  0.000  0.000  0.074  0.300
    3  0.000  0.014  0.000  0.043  0.000  0.000  0.000  0.000  0.000  0.057
    4  0.000  0.014  0.000  0.043  0.000  0.000  0.000  0.000  0.000  0.057
    5  0.000  0.014  0.000  0.043  0.000  0.000  0.000  0.000  0.000  0.057
    6  0.000  0.014  0.000  0.043  0.000  0.000  0.000  0.000  0.000  0.057
tot    0.002  0.058  0.000  0.175  0.444  0.000  0.000  0.000  0.148  0.828
 
band     9 # energy    1.57214012 # occ.  2.00000000
 
ion      s     py     pz     px    dxy    dyz    dz2    dxz  x2-y2    tot
    1  0.000  0.003  0.000  0.001  0.074  0.000  0.000  0.000  0.223  0.301
    2  0.000  0.003  0.000  0.001  0.074  0.000  0.000  0.000  0.223  0.300
    3  0.000  0.043  0.000  0.014  0.000  0.000  0.000  0.000  0.000  0.057
    4  0.000  0.043  0.000  0.014  0.000  0.000  0.000  0.000  0.000  0.057
    5  0.000  0.043  0.000  0.014  0.000  0.000  0.000  0.000  0.000  0.057
    6  0.000  0.043  0.000  0.014  0.000  0.000  0.000  0.000  0.000  0.057
tot    0.000  0.177  0.000  0.059  0.148  0.000  0.000  0.000  0.445  0.830
 
band    10 # energy    1.57637325 # occ.  2.00000000
 
ion      s     py     pz     px    dxy    dyz    dz2    dxz  x2-y2    tot
    1  0.000  0.003  0.000  0.001  0.074  0.000  0.000  0.000  0.223  0.301
    2  0.000  0.003  0.000  0.001  0.074  0.000  0.000  0.000  0.223  0.301
    3  0.000  0.043  0.000  0.014  0.000  0.000  0.000  0.000  0.000  0.057
    4  0.000  0.043  0.000  0.014  0.000  0.000  0.000  0.000  0.000  0.057
    5  0.000  0.043  0.000  0.014  0.000  0.000  0.000  0.000  0.000  0.057
    6  0.000  0.043  0.000  0.014  0.000  0.000  0.000  0.000  0.000  0.057
tot    0.000  0.176  0.000  0.059  0.149  0.000  0.000  0.000  0.447  0.830
 
band    11 # energy    1.79963667 # occ.  2.00000000
 
ion      s     py     pz     px    dxy    dyz    dz2    dxz  x2-y2    tot
    1  0.000  0.000  0.025  0.000  0.000  0.004  0.000  0.011  0.000  0.040
    2  0.000  0.000  0.025  0.000  0.000  0.004  0.000  0.011  0.000  0.040
    3  0.001  0.001  0.107  0.002  0.000  0.000  0.000  0.000  0.000  0.111
    4  0.001  0.001  0.107  0.002  0.000  0.000  0.000  0.000  0.000  0.111
    5  0.001  0.001  0.107  0.002  0.000  0.000  0.000  0.000  0.000  0.111
    6  0.001  0.001  0.107  0.002  0.000  0.000  0.000  0.000  0.000  0.111
tot    0.004  0.002  0.479  0.007  0.000  0.007  0.000  0.022  0.000  0.522
 
band    12 # energy    2.60398521 # occ.  2.00000000
 
ion      s     py     pz     px    dxy    dyz    dz2    dxz  x2-y2    tot
    1  0.000  0.000  0.001  0.000  0.000  0.063  0.000  0.190  0.000  0.254
    2  0.000  0.000  0.001  0.000  0.000  0.063  0.000  0.190  0.000  0.254
    3  0.000  0.017  0.011  0.052  0.000  0.000  0.000  0.000  0.000  0.080
    4  0.000  0.017  0.011  0.052  0.000  0.000  0.000  0.000  0.000  0.080
    5  0.000  0.017  0.011  0.052  0.000  0.000  0.000  0.000  0.000  0.080
    6  0.000  0.017  0.011  0.052  0.000  0.000  0.000  0.000  0.000  0.080
tot    0.000  0.069  0.045  0.208  0.000  0.127  0.000  0.380  0.000  0.828
 
band    13 # energy    2.65577520 # occ.  2.00000000
 
ion      s     py     pz     px    dxy    dyz    dz2    dxz  x2-y2    tot
    1  0.000  0.000  0.000  0.000  0.000  0.203  0.000  0.068  0.000  0.271
    2  0.000  0.000  0.000  0.000  0.000  0.203  0.000  0.068  0.000  0.270
    3  0.000  0.057  0.000  0.019  0.000  0.000  0.000  0.000  0.000  0.076
    4  0.000  0.057  0.000  0.019  0.000  0.000  0.000  0.000  0.000  0.076
    5  0.000  0.057  0.000  0.019  0.000  0.000  0.000  0.000  0.000  0.076
    6  0.000  0.057  0.000  0.019  0.000  0.000  0.000  0.000  0.000  0.076
tot    0.000  0.228  0.000  0.076  0.000  0.406  0.000  0.135  0.000  0.845
 
band    14 # energy    2.67020928 # occ.  2.00000000
 
ion      s     py     pz     px    dxy    dyz    dz2    dxz  x2-y2    tot
    1  0.000  0.000  0.000  0.000  0.000  0.204  0.000  0.068  0.000  0.273
    2  0.000  0.000  0.000  0.000  0.000  0.205  0.000  0.068  0.000  0.273
    3  0.000  0.057  0.000  0.019  0.000  0.000  0.000  0.000  0.000  0.076
    4  0.000  0.057  0.000  0.019  0.000  0.000  0.000  0.000  0.000  0.076
    5  0.000  0.057  0.000  0.019  0.000  0.000  0.000  0.000  0.000  0.076
    6  0.000  0.057  0.000  0.019  0.000  0.000  0.000  0.000  0.000  0.076
tot    0.000  0.227  0.000  0.076  0.000  0.409  0.000  0.136  0.000  0.848
 
band    15 # energy    2.70864091 # occ.  2.00000000
 
ion      s     py     pz     px    dxy    dyz    dz2    dxz  x2-y2    tot
    1  0.000  0.000  0.003  0.000  0.000  0.064  0.000  0.192  0.000  0.258
    2  0.000  0.000  0.003  0.000  0.000  0.064  0.000  0.192  0.000  0.258
    3  0.000  0.018  0.005  0.055  0.000  0.000  0.000  0.000  0.000  0.079
    4  0.000  0.018  0.005  0.055  0.000  0.000  0.000  0.000  0.000  0.079
    5  0.000  0.018  0.005  0.055  0.000  0.000  0.000  0.000  0.000  0.079
    6  0.000  0.018  0.005  0.055  0.000  0.000  0.000  0.000  0.000  0.079
tot    0.000  0.074  0.025  0.222  0.000  0.127  0.000  0.383  0.000  0.831
 
band    16 # energy    3.27161895 # occ.  2.00000000
 
ion      s     py     pz     px    dxy    dyz    dz2    dxz  x2-y2    tot
    1  0.000  0.000  0.029  0.000  0.000  0.004  0.000  0.011  0.000  0.043
    2  0.000  0.000  0.029  0.000  0.000  0.004  0.000  0.011  0.000  0.043
    3  0.000  0.002  0.132  0.006  0.000  0.000  0.000  0.000  0.000  0.140
    4  0.000  0.002  0.132  0.006  0.000  0.000  0.000  0.000  0.000  0.140
    5  0.000  0.002  0.132  0.006  0.000  0.000  0.000  0.000  0.000  0.140
    6  0.000  0.002  0.132  0.006  0.000  0.000  0.000  0.000  0.000  0.140
tot    0.001  0.008  0.585  0.023  0.000  0.007  0.000  0.022  0.000  0.646
 
band    17 # energy    3.86245437 # occ.  2.00000000
 
ion      s     py     pz     px    dxy    dyz    dz2    dxz  x2-y2    tot
    1  0.004  0.000  0.000  0.000  0.000  0.000  0.308  0.000  0.000  0.313
    2  0.004  0.000  0.000  0.000  0.000  0.000  0.308  0.000  0.000  0.313
    3  0.000  0.000  0.027  0.000  0.000  0.000  0.000  0.000  0.000  0.027
    4  0.000  0.000  0.027  0.000  0.000  0.000  0.000  0.000  0.000  0.027
    5  0.000  0.000  0.027  0.000  0.000  0.000  0.000  0.000  0.000  0.027
    6  0.000  0.000  0.027  0.000  0.000  0.000  0.000  0.000  0.000  0.027
tot    0.009  0.000  0.107  0.001  0.001  0.000  0.616  0.000  0.000  0.733
 
band    18 # energy    4.60982206 # occ.  1.99997739
 
ion      s     py     pz     px    dxy    dyz    dz2    dxz  x2-y2    tot
    1  0.014  0.000  0.000  0.000  0.001  0.000  0.298  0.000  0.000  0.313
    2  0.014  0.000  0.000  0.000  0.001  0.000  0.298  0.000  0.000  0.313
    3  0.004  0.000  0.046  0.000  0.000  0.000  0.000  0.000  0.000  0.051
    4  0.004  0.000  0.046  0.000  0.000  0.000  0.000  0.000  0.000  0.051
    5  0.004  0.000  0.046  0.000  0.000  0.000  0.000  0.000  0.000  0.051
    6  0.004  0.000  0.046  0.000  0.000  0.000  0.000  0.000  0.000  0.051
tot    0.045  0.001  0.183  0.002  0.002  0.000  0.596  0.000  0.001  0.829
 
band    19 # energy    6.93674868 # occ.  0.00000000
 
ion      s     py     pz     px    dxy    dyz    dz2    dxz  x2-y2    tot
    1  0.000  0.000  0.000  0.000  0.002  0.063  0.000  0.156  0.000  0.222
    2  0.000  0.000  0.000  0.000  0.001  0.023  0.000  0.111  0.001  0.136
    3  0.000  0.011  0.000  0.044  0.000  0.000  0.000  0.000  0.000  0.055
    4  0.001  0.028  0.000  0.070  0.000  0.000  0.000  0.000  0.000  0.099
    5  0.001  0.028  0.000  0.100  0.000  0.000  0.000  0.000  0.000  0.129
    6  0.001  0.011  0.000  0.075  0.000  0.000  0.000  0.000  0.000  0.086
tot    0.002  0.078  0.000  0.289  0.004  0.086  0.000  0.267  0.001  0.727
 
band    20 # energy    6.95051335 # occ.  0.00000000
 
ion      s     py     pz     px    dxy    dyz    dz2    dxz  x2-y2    tot
    1  0.000  0.000  0.000  0.000  0.002  0.042  0.000  0.078  0.000  0.122
    2  0.000  0.000  0.000  0.000  0.005  0.087  0.000  0.143  0.003  0.239
    3  0.001  0.045  0.000  0.123  0.000  0.000  0.000  0.000  0.000  0.168
    4  0.000  0.014  0.000  0.050  0.000  0.000  0.000  0.000  0.000  0.064
    5  0.000  0.016  0.000  0.044  0.000  0.000  0.000  0.000  0.000  0.060
    6  0.000  0.023  0.000  0.054  0.000  0.000  0.000  0.000  0.000  0.078
tot    0.001  0.098  0.001  0.271  0.007  0.129  0.000  0.221  0.003  0.731
 
band    21 # energy    7.00154635 # occ.  0.00000000
 
ion      s     py     pz     px    dxy    dyz    dz2    dxz  x2-y2    tot
    1  0.000  0.002  0.000  0.000  0.003  0.086  0.000  0.011  0.039  0.142
    2  0.000  0.001  0.000  0.000  0.003  0.161  0.000  0.031  0.015  0.212
    3  0.000  0.139  0.000  0.003  0.000  0.000  0.000  0.000  0.000  0.143
    4  0.000  0.067  0.000  0.010  0.000  0.000  0.000  0.000  0.000  0.077
    5  0.000  0.077  0.000  0.008  0.000  0.000  0.000  0.000  0.000  0.085
    6  0.000  0.061  0.000  0.021  0.000  0.000  0.000  0.000  0.000  0.082
tot    0.000  0.348  0.000  0.042  0.006  0.247  0.000  0.043  0.054  0.740
 
band    22 # energy    7.03034297 # occ.  0.00000000
 
ion      s     py     pz     px    dxy    dyz    dz2    dxz  x2-y2    tot
    1  0.000  0.002  0.000  0.000  0.007  0.089  0.000  0.059  0.034  0.193
    2  0.000  0.004  0.000  0.001  0.013  0.035  0.001  0.033  0.065  0.151
    3  0.000  0.089  0.000  0.043  0.000  0.000  0.000  0.000  0.000  0.132
    4  0.000  0.119  0.000  0.040  0.000  0.000  0.000  0.000  0.000  0.159
    5  0.000  0.038  0.000  0.019  0.000  0.000  0.000  0.000  0.000  0.057
    6  0.000  0.052  0.000  0.002  0.000  0.000  0.000  0.000  0.000  0.055
tot    0.000  0.304  0.001  0.104  0.020  0.124  0.001  0.092  0.099  0.746
 

 k-point     3 :    0.05263158 0.00000000 0.00000000     weight = 0.00714286

band     1 # energy   -9.87143369 # occ.  2.00000000
 
ion      s     py     pz     px    dxy    dyz    dz2    dxz  x2-y2    tot
    1  0.063  0.000  0.000  0.000  0.000  0.000  0.000  0.000  0.000  0.064
    2  0.063  0.000  0.000  0.000  0.000  0.000  0.000  0.000  0.000  0.064
    3  0.138  0.000  0.002  0.000  0.000  0.000  0.000  0.000  0.000  0.140
    4  0.138  0.000  0.002  0.000  0.000  0.000  0.000  0.000  0.000  0.140