<?xml version="1.0" encoding="ISO-8859-1"?>
<modeling>
 <generator>
  <i name="program" type="string">vasp </i>
  <i name="version" type="string">5.4.4.18Apr17-6-g9f103f2a35  </i>
  <i name="subversion" type="string">(build Jun 30 2017 11:15:00) complex            parallel </i>
  <i name="platform" type="string">STALLO_VASP_5.4.4 </i>
  <i name="date" type="string">2019 11 08 </i>
  <i name="time" type="string">15:27:22 </i>
 </generator>
 <incar>
  <i type="string" name="PREC">accurate  ! low/normal/accurate</i>
  <i type="string" name="ALGO"> Fast      ! Algorithm for electronic re</i>
  <i type="int" name="ISPIN">     1</i>
  <i type="int" name="ICHARG">    11</i>
  <i type="int" name="NELMIN">     4</i>
  <i name="EDIFF">      0.00000100</i>
  <i type="int" name="NSW">     0</i>
  <i name="ENCUT">    450.00000000</i>
  <i type="int" name="NEDOS">  2401</i>
  <i type="logical" name="LREAL"> F  </i>
  <i name="EMIN">    -12.00000000</i>
  <i name="EMAX">     12.00000000</i>
  <i type="int" name="ISMEAR">     0</i>
  <i name="SIGMA">      0.20000000</i>
  <i type="logical" name="LWAVE"> F  </i>
  <i type="int" name="LORBIT">    11</i>
  <i type="logical" name="LELF"> T  </i>
  <v type="int" name="KPOINT_BSE">    -1     0     0     0</v>
 </incar>
 <structure name="primitive_cell" >
  <crystal>
   <varray name="basis" >
    <v>       3.19227375       0.00000000       0.00000000 </v>
    <v>      -1.59613687       2.76459035       0.00000000 </v>
    <v>       0.00000000       0.00000000      13.28154876 </v>
   </varray>
   <i name="volume">    117.21403994 </i>
   <varray name="rec_basis" >
    <v>       0.31325634       0.18085862       0.00000000 </v>
    <v>      -0.00000000       0.36171724       0.00000000 </v>
    <v>       0.00000000       0.00000000       0.07529242 </v>
   </varray>
  </crystal>
  <varray name="positions" >
   <v>       0.33333300      -0.33333300       0.25000000 </v>
   <v>      -0.33333300       0.33333300       0.13256427 </v>
   <v>      -0.33333400       0.33333300       0.36743573 </v>
   <v>       0.33333300      -0.33333300      -0.13256427 </v>
   <v>       0.33333400      -0.33333300      -0.36743573 </v>
   <v>      -0.33333300       0.33333300      -0.25000000 </v>
  </varray>
 </structure>
 <varray name="primitive_index" >
  <v type="int" >        1 </v>
  <v type="int" >        4 </v>
  <v type="int" >        5 </v>
  <v type="int" >        3 </v>
  <v type="int" >        6 </v>
  <v type="int" >        2 </v>
 </varray>
 <kpoints>
  <generation param="listgenerated">
   <i name="divisions" type="int">      20 </i>
   <v>       0.00000000       0.00000000       0.00000000 </v>
   <v>       0.50000000       0.00000000       0.00000000 </v>
   <v>       0.33330000       0.33330000       0.00000000 </v>
   <v>       0.00000000       0.00000000       0.00000000 </v>
   <v>       0.00000000       0.00000000       0.50000000 </v>
   <v>       0.50000000       0.00000000       0.50000000 </v>
   <v>       0.33330000       0.33330000       0.50000000 </v>
   <v>       0.00000000       0.00000000       0.50000000 </v>
  </generation>
  <varray name="kpointlist" >
   <v>       0.00000000       0.00000000       0.00000000 </v>
   <v>       0.02631579       0.00000000       0.00000000 </v>
   <v>       0.05263158       0.00000000       0.00000000 </v>
   <v>       0.07894737       0.00000000       0.00000000 </v>
   <v>       0.10526316       0.00000000       0.00000000 </v>
   <v>       0.13157895       0.00000000       0.00000000 </v>
   <v>       0.15789474       0.00000000       0.00000000 </v>
   <v>       0.18421053       0.00000000       0.00000000 </v>
   <v>       0.21052632       0.00000000       0.00000000 </v>
   <v>       0.23684211       0.00000000       0.00000000 </v>
   <v>       0.26315789       0.00000000       0.00000000 </v>
   <v>       0.28947368       0.00000000       0.00000000 </v>
   <v>       0.31578947       0.00000000       0.00000000 </v>
   <v>       0.34210526       0.00000000       0.00000000 </v>
   <v>       0.36842105       0.00000000       0.00000000 </v>
   <v>       0.39473684       0.00000000       0.00000000 </v>
   <v>       0.42105263       0.00000000       0.00000000 </v>
   <v>       0.44736842       0.00000000       0.00000000 </v>
   <v>       0.47368421       0.00000000       0.00000000 </v>
   <v>       0.50000000       0.00000000       0.00000000 </v>
   <v>       0.50000000       0.00000000       0.00000000 </v>
   <v>       0.49122632       0.01754211       0.00000000 </v>
   <v>       0.48245263       0.03508421       0.00000000 </v>
   <v>       0.47367895       0.05262632       0.00000000 </v>
   <v>       0.46490526       0.07016842       0.00000000 </v>
   <v>       0.45613158       0.08771053       0.00000000 </v>
   <v>       0.44735789       0.10525263       0.00000000 </v>
   <v>       0.43858421       0.12279474       0.00000000 </v>
   <v>       0.42981053       0.14033684       0.00000000 </v>
   <v>       0.42103684       0.15787895       0.00000000 </v>
   <v>       0.41226316       0.17542105       0.00000000 </v>
   <v>       0.40348947       0.19296316       0.00000000 </v>
   <v>       0.39471579       0.21050526       0.00000000 </v>
   <v>       0.38594211       0.22804737       0.00000000 </v>
   <v>       0.37716842       0.24558947       0.00000000 </v>
   <v>       0.36839474       0.26313158       0.00000000 </v>
   <v>       0.35962105       0.28067368       0.00000000 </v>
   <v>       0.35084737       0.29821579       0.00000000 </v>
   <v>       0.34207368       0.31575789       0.00000000 </v>
   <v>       0.33330000       0.33330000       0.00000000 </v>
   <v>       0.33330000       0.33330000       0.00000000 </v>
   <v>       0.31575789       0.31575789       0.00000000 </v>
   <v>       0.29821579       0.29821579       0.00000000 </v>
   <v>       0.28067368       0.28067368       0.00000000 </v>
   <v>       0.26313158       0.26313158       0.00000000 </v>
   <v>       0.24558947       0.24558947       0.00000000 </v>
   <v>       0.22804737       0.22804737       0.00000000 </v>
   <v>       0.21050526       0.21050526       0.00000000 </v>
   <v>       0.19296316       0.19296316       0.00000000 </v>
   <v>       0.17542105       0.17542105       0.00000000 </v>
   <v>       0.15787895       0.15787895       0.00000000 </v>
   <v>       0.14033684       0.14033684       0.00000000 </v>
   <v>       0.12279474       0.12279474       0.00000000 </v>
   <v>       0.10525263       0.10525263       0.00000000 </v>
   <v>       0.08771053       0.08771053       0.00000000 </v>
   <v>       0.07016842       0.07016842       0.00000000 </v>
   <v>       0.05262632       0.05262632       0.00000000 </v>
   <v>       0.03508421       0.03508421       0.00000000 </v>
   <v>       0.01754211       0.01754211       0.00000000 </v>
   <v>       0.00000000       0.00000000       0.00000000 </v>
   <v>       0.00000000       0.00000000       0.00000000 </v>
   <v>       0.00000000       0.00000000       0.02631579 </v>
   <v>       0.00000000       0.00000000       0.05263158 </v>
   <v>       0.00000000       0.00000000       0.07894737 </v>
   <v>       0.00000000       0.00000000       0.10526316 </v>
   <v>       0.00000000       0.00000000       0.13157895 </v>
   <v>       0.00000000       0.00000000       0.15789474 </v>
   <v>       0.00000000       0.00000000       0.18421053 </v>
   <v>       0.00000000       0.00000000       0.21052632 </v>
   <v>       0.00000000       0.00000000       0.23684211 </v>
   <v>       0.00000000       0.00000000       0.26315789 </v>
   <v>       0.00000000       0.00000000       0.28947368 </v>
   <v>       0.00000000       0.00000000       0.31578947 </v>
   <v>       0.00000000       0.00000000       0.34210526 </v>
   <v>       0.00000000       0.00000000       0.36842105 </v>
   <v>       0.00000000       0.00000000       0.39473684 </v>
   <v>       0.00000000       0.00000000       0.42105263 </v>
   <v>       0.00000000       0.00000000       0.44736842 </v>
   <v>       0.00000000       0.00000000       0.47368421 </v>
   <v>       0.00000000       0.00000000       0.50000000 </v>
   <v>       0.00000000       0.00000000       0.50000000 </v>
   <v>       0.02631579       0.00000000       0.50000000 </v>
   <v>       0.05263158       0.00000000       0.50000000 </v>
   <v>       0.07894737       0.00000000       0.50000000 </v>
   <v>       0.10526316       0.00000000       0.50000000 </v>
   <v>       0.13157895       0.00000000       0.50000000 </v>
   <v>       0.15789474       0.00000000       0.50000000 </v>
   <v>       0.18421053       0.00000000       0.50000000 </v>
   <v>       0.21052632       0.00000000       0.50000000 </v>
   <v>       0.23684211       0.00000000       0.50000000 </v>
   <v>       0.26315789       0.00000000       0.50000000 </v>
   <v>       0.28947368       0.00000000       0.50000000 </v>
   <v>       0.31578947       0.00000000       0.50000000 </v>
   <v>       0.34210526       0.00000000       0.50000000 </v>
   <v>       0.36842105       0.00000000       0.50000000 </v>
   <v>       0.39473684       0.00000000       0.50000000 </v>
   <v>       0.42105263       0.00000000       0.50000000 </v>
   <v>       0.44736842       0.00000000       0.50000000 </v>
   <v>       0.47368421       0.00000000       0.50000000 </v>
   <v>       0.50000000       0.00000000       0.50000000 </v>
   <v>       0.50000000       0.00000000       0.50000000 </v>
   <v>       0.49122632       0.01754211       0.50000000 </v>
   <v>       0.48245263       0.03508421       0.50000000 </v>
   <v>       0.47367895       0.05262632       0.50000000 </v>
   <v>       0.46490526       0.07016842       0.50000000 </v>
   <v>       0.45613158       0.08771053       0.50000000 </v>
   <v>       0.44735789       0.10525263       0.50000000 </v>
   <v>       0.43858421       0.12279474       0.50000000 </v>
   <v>       0.42981053       0.14033684       0.50000000 </v>
   <v>       0.42103684       0.15787895       0.50000000 </v>
   <v>       0.41226316       0.17542105       0.50000000 </v>
   <v>       0.40348947       0.19296316       0.50000000 </v>
   <v>       0.39471579       0.21050526       0.50000000 </v>
   <v>       0.38594211       0.22804737       0.50000000 </v>
   <v>       0.37716842       0.24558947       0.50000000 </v>
   <v>       0.36839474       0.26313158       0.50000000 </v>
   <v>       0.35962105       0.28067368       0.50000000 </v>
   <v>       0.35084737       0.29821579       0.50000000 </v>
   <v>       0.34207368       0.31575789       0.50000000 </v>
   <v>       0.33330000       0.33330000       0.50000000 </v>
   <v>       0.33330000       0.33330000       0.50000000 </v>
   <v>       0.31575789       0.31575789       0.50000000 </v>
   <v>       0.29821579       0.29821579       0.50000000 </v>
   <v>       0.28067368       0.28067368       0.50000000 </v>
   <v>       0.26313158       0.26313158       0.50000000 </v>
   <v>       0.24558947       0.24558947       0.50000000 </v>
   <v>       0.22804737       0.22804737       0.50000000 </v>
   <v>       0.21050526       0.21050526       0.50000000 </v>
   <v>       0.19296316       0.19296316       0.50000000 </v>
   <v>       0.17542105       0.17542105       0.50000000 </v>
   <v>       0.15787895       0.15787895       0.50000000 </v>
   <v>       0.14033684       0.14033684       0.50000000 </v>
   <v>       0.12279474       0.12279474       0.50000000 </v>
   <v>       0.10525263       0.10525263       0.50000000 </v>
   <v>       0.08771053       0.08771053       0.50000000 </v>
   <v>       0.07016842       0.07016842       0.50000000 </v>
   <v>       0.05262632       0.05262632       0.50000000 </v>
   <v>       0.03508421       0.03508421       0.50000000 </v>
   <v>       0.01754211       0.01754211       0.50000000 </v>
   <v>       0.00000000       0.00000000       0.50000000 </v>
  </varray>
  <varray name="weights" >
   <v>       0.00714286 </v>
   <v>       0.00714286 </v>
   <v>       0.00714286 </v>
   <v>       0.00714286 </v>
   <v>       0.00714286 </v>
   <v>       0.00714286 </v>
   <v>       0.00714286 </v>
   <v>       0.00714286 </v>
   <v>       0.00714286 </v>
   <v>       0.00714286 </v>
   <v>       0.00714286 </v>
   <v>       0.00714286 </v>
   <v>       0.00714286 </v>
   <v>       0.00714286 </v>
   <v>       0.00714286 </v>
   <v>       0.00714286 </v>
   <v>       0.00714286 </v>
   <v>       0.00714286 </v>
   <v>       0.00714286 </v>
   <v>       0.00714286 </v>
   <v>       0.00714286 </v>
   <v>       0.00714286 </v>
   <v>       0.00714286 </v>
   <v>       0.00714286 </v>
   <v>       0.00714286 </v>
   <v>       0.00714286 </v>
   <v>       0.00714286 </v>
   <v>       0.00714286 </v>
   <v>       0.00714286 </v>
   <v>       0.00714286 </v>
   <v>       0.00714286 </v>
   <v>       0.00714286 </v>
   <v>       0.00714286 </v>
   <v>       0.00714286 </v>
   <v>       0.00714286 </v>
   <v>       0.00714286 </v>
   <v>       0.00714286 </v>
   <v>       0.00714286 </v>
   <v>       0.00714286 </v>
   <v>       0.00714286 </v>
   <v>       0.00714286 </v>
   <v>       0.00714286 </v>
   <v>       0.00714286 </v>
   <v>       0.00714286 </v>
   <v>       0.00714286 </v>
   <v>       0.00714286 </v>
   <v>       0.00714286 </v>
   <v>       0.00714286 </v>
   <v>       0.00714286 </v>
   <v>       0.00714286 </v>
   <v>       0.00714286 </v>
   <v>       0.00714286 </v>
   <v>       0.00714286 </v>
   <v>       0.00714286 </v>
   <v>       0.00714286 </v>
   <v>       0.00714286 </v>
   <v>       0.00714286 </v>
   <v>       0.00714286 </v>
   <v>       0.00714286 </v>
   <v>       0.00714286 </v>
   <v>       0.00714286 </v>
   <v>       0.00714286 </v>
   <v>       0.00714286 </v>
   <v>       0.00714286 </v>
   <v>       0.00714286 </v>
   <v>       0.00714286 </v>
   <v>       0.00714286 </v>
   <v>       0.00714286 </v>
   <v>       0.00714286 </v>
   <v>       0.00714286 </v>
   <v>       0.00714286 </v>
   <v>       0.00714286 </v>
   <v>       0.00714286 </v>
   <v>       0.00714286 </v>
   <v>       0.00714286 </v>
   <v>       0.00714286 </v>
   <v>       0.00714286 </v>
   <v>       0.00714286 </v>
   <v>       0.00714286 </v>
   <v>       0.00714286 </v>
   <v>       0.00714286 </v>
   <v>       0.00714286 </v>
   <v>       0.00714286 </v>
   <v>       0.00714286 </v>
   <v>       0.00714286 </v>
   <v>       0.00714286 </v>
   <v>       0.00714286 </v>
   <v>       0.00714286 </v>
   <v>       0.00714286 </v>
   <v>       0.00714286 </v>
   <v>       0.00714286 </v>
   <v>       0.00714286 </v>
   <v>       0.00714286 </v>
   <v>       0.00714286 </v>
   <v>       0.00714286 </v>
   <v>       0.00714286 </v>
   <v>       0.00714286 </v>
   <v>       0.00714286 </v>
   <v>       0.00714286 </v>
   <v>       0.00714286 </v>
   <v>       0.00714286 </v>
   <v>       0.00714286 </v>
   <v>       0.00714286 </v>
   <v>       0.00714286 </v>
   <v>       0.00714286 </v>
   <v>       0.00714286 </v>
   <v>       0.00714286 </v>
   <v>       0.00714286 </v>
   <v>       0.00714286 </v>
   <v>       0.00714286 </v>
   <v>       0.00714286 </v>
   <v>       0.00714286 </v>
   <v>       0.00714286 </v>
   <v>       0.00714286 </v>
   <v>       0.00714286 </v>
   <v>       0.00714286 </v>
   <v>       0.00714286 </v>
   <v>       0.00714286 </v>
   <v>       0.00714286 </v>
   <v>       0.00714286 </v>
   <v>       0.00714286 </v>
   <v>       0.00714286 </v>
   <v>       0.00714286 </v>
   <v>       0.00714286 </v>
   <v>       0.00714286 </v>
   <v>       0.00714286 </v>
   <v>       0.00714286 </v>
   <v>       0.00714286 </v>
   <v>       0.00714286 </v>
   <v>       0.00714286 </v>
   <v>       0.00714286 </v>
   <v>       0.00714286 </v>
   <v>       0.00714286 </v>
   <v>       0.00714286 </v>
   <v>       0.00714286 </v>
   <v>       0.00714286 </v>
   <v>       0.00714286 </v>
   <v>       0.00714286 </v>
   <v>       0.00714286 </v>
   <v>       0.00714286 </v>
  </varray>
 </kpoints>
 <parameters>
  <separator name="general" >
   <i type="string" name="SYSTEM">unknown system</i>
   <i type="logical" name="LCOMPAT"> F  </i>
  </separator>
  <separator name="electronic" >
   <i type="string" name="PREC">accura</i>
   <i name="ENMAX">    450.00000000</i>
   <i name="ENAUG">    345.27800000</i>
   <i name="EDIFF">      0.00000100</i>
   <i type="int" name="IALGO">    68</i>
   <i type="int" name="IWAVPR">    10</i>
   <i type="int" name="NBANDS">    22</i>
   <i name="NELECT">     36.00000000</i>
   <i type="int" name="TURBO">     0</i>
   <i type="int" name="IRESTART">     0</i>
   <i type="int" name="NREBOOT">     0</i>
   <i type="int" name="NMIN">     0</i>
   <i name="EREF">      0.00000000</i>
   <separator name="electronic smearing" >
    <i type="int" name="ISMEAR">     0</i>
    <i name="SIGMA">      0.20000000</i>
    <i name="KSPACING">      0.50000000</i>
    <i type="logical" name="KGAMMA"> T  </i>
   </separator>
   <separator name="electronic projectors" >
    <i type="logical" name="LREAL"> F  </i>
    <v name="ROPT">      0.00000000      0.00000000</v>
    <i type="int" name="LMAXPAW">  -100</i>
    <i type="int" name="LMAXMIX">     2</i>
    <i type="logical" name="NLSPLINE"> F  </i>
   </separator>
   <separator name="electronic startup" >
    <i type="int" name="ISTART">     0</i>
    <i type="int" name="ICHARG">    11</i>
    <i type="int" name="INIWAV">     1</i>
   </separator>
   <separator name="electronic spin" >
    <i type="int" name="ISPIN">     1</i>
    <i type="logical" name="LNONCOLLINEAR"> F  </i>
    <v name="MAGMOM">      1.00000000      1.00000000      1.00000000      1.00000000      1.00000000      1.00000000</v>
    <i name="NUPDOWN">     -1.00000000</i>
    <i type="logical" name="LSORBIT"> F  </i>
    <v name="SAXIS">      0.00000000      0.00000000      1.00000000</v>
    <i type="logical" name="LSPIRAL"> F  </i>
    <v name="QSPIRAL">      0.00000000      0.00000000      0.00000000</v>
    <i type="logical" name="LZEROZ"> F  </i>
   </separator>
   <separator name="electronic exchange-correlation" >
    <i type="logical" name="LASPH"> F  </i>
    <i type="logical" name="LMETAGGA"> F  </i>
   </separator>
   <separator name="electronic convergence" >
    <i type="int" name="NELM">    60</i>
    <i type="int" name="NELMDL">     0</i>
    <i type="int" name="NELMIN">     4</i>
    <i name="ENINI">    450.00000000</i>
    <separator name="electronic convergence detail" >
     <i type="logical" name="LDIAG"> T  </i>
     <i type="logical" name="LSUBROT"> F  </i>
     <i name="WEIMIN">      0.00000000</i>
     <i name="EBREAK">      0.00000001</i>
     <i name="DEPER">      0.30000000</i>
     <i type="int" name="NRMM">     4</i>
     <i name="TIME">      0.40000000</i>
    </separator>
   </separator>
   <separator name="electronic mixer" >
    <i name="AMIX">      0.40000000</i>
    <i name="BMIX">      1.00000000</i>
    <i name="AMIN">      0.10000000</i>
    <i name="AMIX_MAG">      1.60000000</i>
    <i name="BMIX_MAG">      1.00000000</i>
    <separator name="electronic mixer details" >
     <i type="int" name="IMIX">     4</i>
     <i type="logical" name="MIXFIRST"> F  </i>
     <i type="int" name="MAXMIX">   -45</i>
     <i name="WC">    100.00000000</i>
     <i type="int" name="INIMIX">     1</i>
     <i type="int" name="MIXPRE">     1</i>
     <i type="int" name="MREMOVE">     5</i>
    </separator>
   </separator>
   <separator name="electronic dipolcorrection" >
    <i type="logical" name="LDIPOL"> F  </i>
    <i type="logical" name="LMONO"> F  </i>
    <i type="int" name="IDIPOL">     0</i>
    <i name="EPSILON">      1.00000000</i>
    <v name="DIPOL">   -100.00000000   -100.00000000   -100.00000000</v>
    <i name="EFIELD">      0.00000000</i>
   </separator>
  </separator>
  <separator name="grids" >
   <i type="int" name="NGX">    24</i>
   <i type="int" name="NGY">    24</i>
   <i type="int" name="NGZ">    96</i>
   <i type="int" name="NGXF">    48</i>
   <i type="int" name="NGYF">    48</i>
   <i type="int" name="NGZF">   192</i>
   <i type="logical" name="ADDGRID"> F  </i>
  </separator>
  <separator name="ionic" >
   <i type="int" name="NSW">     0</i>
   <i type="int" name="IBRION">    -1</i>
   <i type="int" name="MDALGO">     0</i>
   <i type="int" name="ISIF">     2</i>
   <i name="PSTRESS">      0.00000000</i>
   <i name="EDIFFG">      0.00001000</i>
   <i type="int" name="NFREE">     0</i>
   <i name="POTIM">      0.50000000</i>
   <i name="SMASS">     -3.00000000</i>
   <i name="SCALEE">      1.00000000</i>
  </separator>
  <separator name="ionic md" >
   <i name="TEBEG">      0.00010000</i>
   <i name="TEEND">      0.00010000</i>
   <i type="int" name="NBLOCK">     1</i>
   <i type="int" name="KBLOCK">     1</i>
   <i type="int" name="NPACO">   256</i>
   <i name="APACO">     16.00000000</i>
  </separator>
  <separator name="symmetry" >
   <i type="int" name="ISYM">     2</i>
   <i name="SYMPREC">      0.00001000</i>
  </separator>
  <separator name="dos" >
   <i type="int" name="LORBIT">    11</i>
   <v name="RWIGS">     -1.00000000     -1.00000000</v>
   <i type="int" name="NEDOS">  2401</i>
   <i name="EMIN">    -12.00000000</i>
   <i name="EMAX">     12.00000000</i>
   <i name="EFERMI">      0.00000000</i>
  </separator>
  <separator name="writing" >
   <i type="int" name="NWRITE">     2</i>
   <i type="logical" name="LWAVE"> F  </i>
   <i type="logical" name="LDOWNSAMPLE"> F  </i>
   <i type="logical" name="LCHARG"> T  </i>
   <i type="logical" name="LPARD"> F  </i>
   <i type="logical" name="LVTOT"> F  </i>
   <i type="logical" name="LVHAR"> F  </i>
   <i type="logical" name="LELF"> T  </i>
   <i type="logical" name="LOPTICS"> F  </i>
   <v name="STM">      0.00000000      0.00000000      0.00000000      0.00000000      0.00000000      0.00000000      0.00000000</v>
  </separator>
  <separator name="performance" >
   <i type="int" name="NPAR">     2</i>
   <i type="int" name="NSIM">     4</i>
   <i type="int" name="NBLK">    -1</i>
   <i type="logical" name="LPLANE"> T  </i>
   <i type="logical" name="LSCALAPACK"> T  </i>
   <i type="logical" name="LSCAAWARE"> F  </i>
   <i type="logical" name="LSCALU"> F  </i>
   <i type="logical" name="LASYNC"> F  </i>
   <i type="logical" name="LORBITALREAL"> F  </i>
  </separator>
  <separator name="miscellaneous" >
   <i type="int" name="IDIOT">     3</i>
   <i type="int" name="ISPECIAL">     0</i>
   <i type="logical" name="LMUSIC"> F  </i>
   <v name="POMASS">     95.94000000     32.06600000</v>
   <v name="DARWINR">      0.00000000      0.00000000</v>
   <v name="DARWINV">      1.00000000      1.00000000</v>
   <i type="logical" name="LCORR"> T  </i>
  </separator>
  <i type="logical" name="GGA_COMPAT"> T  </i>
  <i type="logical" name="LBERRY"> F  </i>
  <i type="int" name="ICORELEVEL">     0</i>
  <i type="logical" name="LDAU"> F  </i>
  <i type="int" name="I_CONSTRAINED_M">     0</i>
  <separator name="electronic exchange-correlation" >
   <i type="string" name="GGA">--</i>
   <i type="int" name="VOSKOWN">     0</i>
   <i type="logical" name="LHFCALC"> F  </i>
   <i type="string" name="PRECFOCK"></i>
   <i type="logical" name="LSYMGRAD"> F  </i>
   <i type="logical" name="LHFONE"> F  </i>
   <i type="logical" name="LRHFCALC"> F  </i>
   <i type="logical" name="LTHOMAS"> F  </i>
   <i type="logical" name="LMODELHF"> F  </i>
   <i name="ENCUT4O">     -1.00000000</i>
   <i type="int" name="EXXOEP">     0</i>
   <i type="int" name="FOURORBIT">     0</i>
   <i name="AEXX">      0.00000000</i>
   <i name="HFALPHA">      0.00000000</i>
   <i name="MCALPHA">      0.00000000</i>
   <i name="ALDAX">      1.00000000</i>
   <i name="AGGAX">      1.00000000</i>
   <i name="ALDAC">      1.00000000</i>
   <i name="AGGAC">      1.00000000</i>
   <i type="int" name="NKREDX">     1</i>
   <i type="int" name="NKREDY">     1</i>
   <i type="int" name="NKREDZ">     1</i>
   <i type="logical" name="SHIFTRED"> F  </i>
   <i type="logical" name="ODDONLY"> F  </i>
   <i type="logical" name="EVENONLY"> F  </i>
   <i type="int" name="LMAXFOCK">     0</i>
   <i type="int" name="NMAXFOCKAE">     0</i>
   <i type="logical" name="LFOCKAEDFT"> F  </i>
   <i name="HFSCREEN">      0.00000000</i>
   <i name="HFSCREENC">      0.00000000</i>
   <i type="int" name="NBANDSGWLOW">     0</i>
  </separator>
  <separator name="vdW DFT" >
   <i type="logical" name="LUSE_VDW"> F  </i>
   <i name="Zab_VDW">     -0.84910000</i>
   <i name="PARAM1">      0.12340000</i>
   <i name="PARAM2">      1.00000000</i>
   <i name="PARAM3">      0.00000000</i>
  </separator>
  <separator name="model GW" >
   <i type="int" name="MODEL_GW">     0</i>
   <i name="MODEL_EPS0">     11.72140399</i>
   <i name="MODEL_ALPHA">      1.00000000</i>
  </separator>
  <separator name="linear response parameters" >
   <i type="logical" name="LEPSILON"> F  </i>
   <i type="logical" name="LRPA"> F  </i>
   <i type="logical" name="LNABLA"> F  </i>
   <i type="logical" name="LVEL"> F  </i>
   <i type="int" name="KINTER">     0</i>
   <i name="CSHIFT">      0.10000000</i>
   <i name="OMEGAMAX">     -1.00000000</i>
   <i name="DEG_THRESHOLD">      0.00200000</i>
   <i name="RTIME">     -0.10000000</i>
   <i name="WPLASMAI">      0.00000000</i>
   <v name="DFIELD">      0.00000000      0.00000000      0.00000000</v>
   <v name="WPLASMA">      0.00000000      0.00000000      0.00000000      0.00000000      0.00000000      0.00000000      0.00000000      0.00000000      0.00000000</v>
  </separator>
  <separator name="orbital magnetization" >
   <i type="logical" name="NUCIND"> F  </i>
   <v name="MAGPOS">      0.00000000      0.00000000      0.00000000</v>
   <i type="logical" name="LNICSALL"> T  </i>
   <i type="logical" name="ORBITALMAG"> F  </i>
   <i type="logical" name="LMAGBLOCH"> F  </i>
   <i type="logical" name="LCHIMAG"> F  </i>
   <i type="logical" name="LGAUGE"> T  </i>
   <i type="int" name="MAGATOM">     0</i>
   <v name="MAGDIPOL">      0.00000000      0.00000000      0.00000000</v>
   <v name="AVECCONST">      0.00000000      0.00000000      0.00000000</v>
  </separator>
  <separator name="response functions" >
   <i type="logical" name="LADDER"> F  </i>
   <i type="logical" name="LRPAFORCE"> F  </i>
   <i type="logical" name="LFXC"> F  </i>
   <i type="logical" name="LHARTREE"> T  </i>
   <i type="int" name="IBSE">     0</i>
   <v type="int" name="KPOINT">    -1     0     0     0</v>
   <i type="logical" name="LTCTE"> F  </i>
   <i type="logical" name="LTETE"> F  </i>
   <i type="logical" name="LTRIPLET"> F  </i>
   <i type="logical" name="LFXCEPS"> F  </i>
   <i type="logical" name="LFXHEG"> F  </i>
   <i type="int" name="NATURALO">     2</i>
   <i type="logical" name="L2ORDER"> F  </i>
   <i type="logical" name="LMP2LT"> F  </i>
   <i type="logical" name="LUSEW"> F  </i>
   <i name="ENCUTGW">     -2.00000000</i>
   <i name="ENCUTGWSOFT">     -2.00000000</i>
   <i name="ENCUTLF">     -1.00000000</i>
   <i type="int" name="LMAXMP2">    -1</i>
   <i name="SCISSOR">      0.00000000</i>
   <i type="int" name="NOMEGA">     0</i>
   <i type="int" name="NOMEGAR">     0</i>
   <i type="int" name="NBANDSGW">    -1</i>
   <i type="int" name="NBANDSO">    -1</i>
   <i type="int" name="NBANDSV">    -1</i>
   <i type="int" name="NELM">     1</i>
   <i type="int" name="NELMHF">     1</i>
   <i type="int" name="DIM">     3</i>
   <i type="int" name="ANTIRES">     0</i>
   <i name="OMEGAMAX">    -30.00000000</i>
   <i name="OMEGAMIN">    -30.00000000</i>
   <i name="OMEGATL">   -200.00000000</i>
   <i type="int" name="OMEGAGRID">   140</i>
   <i name="CSHIFT">     -0.10000000</i>
   <i type="logical" name="SELFENERGY"> F  </i>
   <i type="logical" name="LSPECTRAL"> F  </i>
   <i type="logical" name="LSPECTRALGW"> F  </i>
   <i type="logical" name="LSINGLES"> F  </i>
   <i type="logical" name="LFERMIGW"> F  </i>
   <i type="logical" name="ODDONLYGW"> F  </i>
   <i type="logical" name="EVENONLYGW"> F  </i>
   <i type="int" name="NKREDLFX">     1</i>
   <i type="int" name="NKREDLFY">     1</i>
   <i type="int" name="NKREDLFZ">     1</i>
   <i type="int" name="MAXMEM">  2800</i>
   <i type="int" name="TELESCOPE">     0</i>
   <i type="int" name="TAUPAR">     1</i>
   <i type="int" name="OMEGAPAR">    -1</i>
   <i name="LAMBDA">      1.00000000</i>
  </separator>
  <separator name="External order field" >
   <i name="OFIELD_KAPPA">      0.00000000</i>
   <v name="OFIELD_K">      0.00000000      0.00000000      0.00000000</v>
   <i name="OFIELD_Q6_NEAR">      0.00000000</i>
   <i name="OFIELD_Q6_FAR">      0.00000000</i>
   <i name="OFIELD_A">      0.00000000</i>
  </separator>
 </parameters>
 <atominfo>
  <atoms>       6 </atoms>
  <types>       2 </types>
  <array name="atoms" >
   <dimension dim="1">ion</dimension>
   <field type="string">element</field>
   <field type="int">atomtype</field>
   <set>
    <rc><c>Mo</c><c>   1</c></rc>
    <rc><c>Mo</c><c>   1</c></rc>
    <rc><c>S </c><c>   2</c></rc>
    <rc><c>S </c><c>   2</c></rc>
    <rc><c>S </c><c>   2</c></rc>
    <rc><c>S </c><c>   2</c></rc>
   </set>
  </array>
  <array name="atomtypes" >
   <dimension dim="1">type</dimension>
   <field type="int">atomspertype</field>
   <field type="string">element</field>
   <field>mass</field>
   <field>valence</field>
   <field type="string">pseudopotential</field>
   <set>
    <rc><c>   2</c><c>Mo</c><c>     95.94000000</c><c>      6.00000000</c><c> PAW_PBE Mo 08Apr2002                   </c></rc>
    <rc><c>   4</c><c>S </c><c>     32.06600000</c><c>      6.00000000</c><c>  PAW_PBE S 17Jan2003                   </c></rc>
   </set>
  </array>
 </atominfo>
 <structure name="initialpos" >
  <crystal>
   <varray name="basis" >
    <v>       3.19227375       0.00000000       0.00000000 </v>
    <v>      -1.59613687       2.76459035       0.00000000 </v>
    <v>       0.00000000       0.00000000      13.28154876 </v>
   </varray>
   <i name="volume">    117.21403994 </i>
   <varray name="rec_basis" >
    <v>       0.31325634       0.18085862       0.00000000 </v>
    <v>      -0.00000000       0.36171724       0.00000000 </v>
    <v>       0.00000000       0.00000000       0.07529242 </v>
   </varray>
  </crystal>
  <varray name="positions" >
   <v>       0.33333300       0.66666700       0.25000000 </v>
   <v>       0.66666700       0.33333300       0.75000000 </v>
   <v>       0.33333300       0.66666700       0.86743573 </v>
   <v>       0.66666700       0.33333300       0.13256427 </v>
   <v>       0.66666600       0.33333300       0.36743573 </v>
   <v>       0.33333400       0.66666700       0.63256427 </v>
  </varray>
 </structure>
 <calculation>
  <scstep>
   <time name="dav">    5.03    5.03</time>
   <time name="total">    5.16    5.60</time>
   <energy>
    <i name="alphaZ">    101.17761570 </i>
    <i name="ewald">  -1410.01026994 </i>
    <i name="hartreedc">   -328.89389823 </i>
    <i name="XCdc">    -70.28905689 </i>
    <i name="pawpsdc">    945.70495410 </i>
    <i name="pawaedc">   -794.10023629 </i>
    <i name="eentropy">     -0.03551251 </i>
    <i name="bandstr">    204.55385424 </i>
    <i name="atom">   1542.31022798 </i>
    <i name="e_fr_energy">    190.41767816 </i>
    <i name="e_wo_entrp">    190.45319067 </i>
    <i name="e_0_energy">    190.43543442 </i>
   </energy>
  </scstep>
  <scstep>
   <time name="dav">    6.09    6.09</time>
   <time name="total">    6.13    6.13</time>
   <energy>
    <i name="e_fr_energy">    -24.29243548 </i>
    <i name="e_wo_entrp">    -24.27931337 </i>
    <i name="e_0_energy">    -24.28587442 </i>
   </energy>
  </scstep>
  <scstep>
   <time name="dav">    6.21    6.22</time>
   <time name="total">    6.25    6.25</time>
   <energy>
    <i name="e_fr_energy">    -40.94199287 </i>
    <i name="e_wo_entrp">    -40.94198349 </i>
    <i name="e_0_energy">    -40.94198818 </i>
   </energy>
  </scstep>
  <scstep>
   <time name="dav">    6.31    6.31</time>
   <time name="total">    6.35    6.35</time>
   <energy>
    <i name="e_fr_energy">    -41.42393028 </i>
    <i name="e_wo_entrp">    -41.42392722 </i>
    <i name="e_0_energy">    -41.42392875 </i>
   </energy>
  </scstep>
  <scstep>
   <time name="dav">    6.55    6.55</time>
   <time name="total">    6.58    6.59</time>
   <energy>
    <i name="e_fr_energy">    -41.43940362 </i>
    <i name="e_wo_entrp">    -41.43940050 </i>
    <i name="e_0_energy">    -41.43940206 </i>
   </energy>
  </scstep>
  <scstep>
   <time name="diag">    1.05    1.05</time>
   <time name="diis">    4.31    4.31</time>
   <time name="orth">    0.07    0.07</time>
   <time name="total">    5.47    5.47</time>
   <energy>
    <i name="e_fr_energy">    -41.43974491 </i>
    <i name="e_wo_entrp">    -41.43974178 </i>
    <i name="e_0_energy">    -41.43974334 </i>
   </energy>
  </scstep>
  <scstep>
   <time name="diag">    1.05    1.05</time>
   <time name="diis">    5.92    5.92</time>
   <time name="orth">    0.07    0.07</time>
   <time name="total">    7.08    7.08</time>
   <energy>
    <i name="e_fr_energy">    -41.43982758 </i>
    <i name="e_wo_entrp">    -41.43982444 </i>
    <i name="e_0_energy">    -41.43982601 </i>
   </energy>
  </scstep>
  <scstep>
   <time name="diag">    1.05    1.05</time>
   <time name="diis">    4.15    4.15</time>
   <time name="orth">    0.07    0.07</time>
   <time name="total">    5.31    5.31</time>
   <energy>
    <i name="e_fr_energy">    -41.43983126 </i>
    <i name="e_wo_entrp">    -41.43982812 </i>
    <i name="e_0_energy">    -41.43982969 </i>
   </energy>
  </scstep>
  <scstep>
   <time name="diag">    1.05    1.05</time>
   <time name="diis">    3.33    3.33</time>
   <time name="orth">    0.07    0.07</time>
   <time name="total">    4.49    4.49</time>
   <energy>
    <i name="alphaZ">    101.17761570 </i>
    <i name="ewald">  -1410.01026994 </i>
    <i name="hartreedc">   -328.89389823 </i>
    <i name="XCdc">    -70.28905689 </i>
    <i name="pawpsdc">    945.70495410 </i>
    <i name="pawaedc">   -794.10023629 </i>
    <i name="eentropy">     -0.00000314 </i>
    <i name="bandstr">    -27.33916481 </i>
    <i name="atom">   1542.31022798 </i>
    <i name="e_fr_energy">    -41.43983152 </i>
    <i name="e_wo_entrp">    -41.43982838 </i>
    <i name="e_0_energy">    -41.43982995 </i>
   </energy>
  </scstep>
  <structure>
   <crystal>
    <varray name="basis" >
     <v>       3.19227375       0.00000000       0.00000000 </v>
     <v>      -1.59613687       2.76459035       0.00000000 </v>
     <v>       0.00000000       0.00000000      13.28154876 </v>
    </varray>
    <i name="volume">    117.21403994 </i>
    <varray name="rec_basis" >
     <v>       0.31325634       0.18085862       0.00000000 </v>
     <v>      -0.00000000       0.36171724       0.00000000 </v>
     <v>       0.00000000       0.00000000       0.07529242 </v>
    </varray>
   </crystal>
   <varray name="positions" >
    <v>       0.33333300       0.66666700       0.25000000 </v>
    <v>       0.66666700       0.33333300       0.75000000 </v>
    <v>       0.33333300       0.66666700       0.86743573 </v>
    <v>       0.66666700       0.33333300       0.13256427 </v>
    <v>       0.66666600       0.33333300       0.36743573 </v>
    <v>       0.33333400       0.66666700       0.63256427 </v>
   </varray>
  </structure>
  <varray name="forces" >
   <v>      -0.00000000       0.00000000      -0.00000000 </v>
   <v>       0.00000000      -0.00000000      -0.00000000 </v>
   <v>      -0.00000000       0.00000000      -0.55609128 </v>
   <v>       0.00000000      -0.00000000       0.55609128 </v>
   <v>       0.00000000      -0.00000000      -0.55609128 </v>
   <v>      -0.00000000      -0.00000000       0.55609128 </v>
  </varray>
  <varray name="stress" >
   <v>      18.73541855       0.00000000       0.00000000 </v>
   <v>       0.00000000      18.73542106       0.00000000 </v>
   <v>       0.00000000       0.00000000      53.49076452 </v>
  </varray>
  <energy>
   <i name="e_fr_energy">    -41.43983152 </i>
   <i name="e_wo_entrp">    -41.43982995 </i>
   <i name="e_0_energy">     -0.00000314 </i>
  </energy>
  <time name="totalsc">   56.64   57.17</time>
  <eigenvalues>
   <array>
    <dimension dim="1">band</dimension>
    <dimension dim="2">kpoint</dimension>
    <dimension dim="3">spin</dimension>
    <field>eigene</field>
    <field>occ</field>
    <set>
     <set comment="spin 1">
      <set comment="kpoint 1">
       <r>   -9.9103    1.0000 </r>
       <r>   -9.8110    1.0000 </r>
       <r>   -8.7227    1.0000 </r>
       <r>   -8.5546    1.0000 </r>
       <r>   -1.6500    1.0000 </r>
       <r>   -1.1268    1.0000 </r>
       <r>    1.5615    1.0000 </r>
       <r>    1.5615    1.0000 </r>
       <r>    1.5655    1.0000 </r>
       <r>    1.5655    1.0000 </r>
       <r>    1.8332    1.0000 </r>
       <r>    2.6729    1.0000 </r>
       <r>    2.6730    1.0000 </r>
       <r>    2.6872    1.0000 </r>
       <r>    2.6872    1.0000 </r>
       <r>    3.2209    1.0000 </r>
       <r>    3.8627    1.0000 </r>
       <r>    4.6232    1.0000 </r>
       <r>    6.9495    0.0000 </r>
       <r>    6.9623    0.0000 </r>
       <r>    7.0301    0.0000 </r>
       <r>    7.1605    0.0000 </r>
      </set>
      <set comment="kpoint 2">
       <r>   -9.9006    1.0000 </r>
       <r>   -9.8013    1.0000 </r>
       <r>   -8.7178    1.0000 </r>
       <r>   -8.5503    1.0000 </r>
       <r>   -1.6382    1.0000 </r>
       <r>   -1.1152    1.0000 </r>
       <r>    1.5379    1.0000 </r>
       <r>    1.5422    1.0000 </r>
       <r>    1.5721    1.0000 </r>
       <r>    1.5764    1.0000 </r>
       <r>    1.7996    1.0000 </r>
       <r>    2.6040    1.0000 </r>
       <r>    2.6558    1.0000 </r>
       <r>    2.6702    1.0000 </r>
       <r>    2.7086    1.0000 </r>
       <r>    3.2716    1.0000 </r>
       <r>    3.8625    1.0000 </r>
       <r>    4.6098    1.0000 </r>
       <r>    6.9367    0.0000 </r>
       <r>    6.9505    0.0000 </r>
       <r>    7.0015    0.0000 </r>
       <r>    7.0303    0.0000 </r>
      </set>
      <set comment="kpoint 3">
       <r>   -9.8714    1.0000 </r>
       <r>   -9.7724    1.0000 </r>
       <r>   -8.7032    1.0000 </r>
       <r>   -8.5372    1.0000 </r>
       <r>   -1.6035    1.0000 </r>
       <r>   -1.0810    1.0000 </r>
       <r>    1.4690    1.0000 </r>
       <r>    1.4741    1.0000 </r>
       <r>    1.6040    1.0000 </r>
       <r>    1.6088    1.0000 </r>
       <r>    1.7096    1.0000 </r>
       <r>    2.4455    1.0000 </r>
       <r>    2.6057    1.0000 </r>
       <r>    2.6207    1.0000 </r>
       <r>    2.7611    1.0000 </r>
       <r>    3.3734    1.0000 </r>
       <r>    3.8609    1.0000 </r>
       <r>    4.5691    1.0000 </r>
       <r>    6.8963    0.0000 </r>
       <r>    6.9624    0.0000 </r>
       <r>    7.0537    0.0000 </r>
       <r>    7.0853    0.0000 </r>
      </set>
      <set comment="kpoint 4">
       <r>   -9.8233    1.0000 </r>
       <r>   -9.7247    1.0000 </r>
       <r>   -8.6792    1.0000 </r>
       <r>   -8.5157    1.0000 </r>
       <r>   -1.5471    1.0000 </r>
       <r>   -1.0257    1.0000 </r>
       <r>    1.3601    1.0000 </r>
       <r>    1.3666    1.0000 </r>
       <r>    1.5831    1.0000 </r>
       <r>    1.6563    1.0000 </r>
       <r>    1.6620    1.0000 </r>
       <r>    2.2500    1.0000 </r>
       <r>    2.5266    1.0000 </r>
       <r>    2.5425    1.0000 </r>
       <r>    2.8215    1.0000 </r>
       <r>    3.4685    1.0000 </r>
       <r>    3.8554    1.0000 </r>
       <r>    4.4994    1.0000 </r>
       <r>    6.8266    0.0000 </r>
       <r>    6.8652    0.0000 </r>
       <r>    6.9571    0.0000 </r>
       <r>    7.0488    0.0000 </r>
      </set>
      <set comment="kpoint 5">
       <r>   -9.7569    1.0000 </r>
       <r>   -9.6589    1.0000 </r>
       <r>   -8.6461    1.0000 </r>
       <r>   -8.4861    1.0000 </r>
       <r>   -1.4712    1.0000 </r>
       <r>   -0.9520    1.0000 </r>
       <r>    1.2188    1.0000 </r>
       <r>    1.2280    1.0000 </r>
       <r>    1.4352    1.0000 </r>
       <r>    1.7281    1.0000 </r>
       <r>    1.7351    1.0000 </r>
       <r>    2.0379    1.0000 </r>
       <r>    2.4242    1.0000 </r>
       <r>    2.4411    1.0000 </r>
       <r>    2.8703    1.0000 </r>
       <r>    3.5299    1.0000 </r>
       <r>    3.8418    1.0000 </r>
       <r>    4.3993    1.0000 </r>
       <r>    6.7445    0.0000 </r>
       <r>    6.7982    0.0000 </r>
       <r>    6.8286    0.0000 </r>
       <r>    6.9290    0.0000 </r>
      </set>
      <set comment="kpoint 6">
       <r>   -9.6731    1.0000 </r>
       <r>   -9.5760    1.0000 </r>
       <r>   -8.6044    1.0000 </r>
       <r>   -8.4489    1.0000 </r>
       <r>   -1.3793    1.0000 </r>
       <r>   -0.8647    1.0000 </r>
       <r>    1.0545    1.0000 </r>
       <r>    1.0686    1.0000 </r>
       <r>    1.2745    1.0000 </r>
       <r>    1.8172    1.0000 </r>
       <r>    1.8178    1.0000 </r>
       <r>    1.8263    1.0000 </r>
       <r>    2.3046    1.0000 </r>
       <r>    2.3226    1.0000 </r>
       <r>    2.8947    1.0000 </r>
       <r>    3.5453    1.0000 </r>
       <r>    3.8145    1.0000 </r>
       <r>    4.2689    1.0000 </r>
       <r>    6.5618    0.0000 </r>
       <r>    6.7000    0.0000 </r>
       <r>    6.8310    0.0000 </r>
       <r>    6.9041    0.0000 </r>
      </set>
      <set comment="kpoint 7">
       <r>   -9.5733    1.0000 </r>
       <r>   -9.4774    1.0000 </r>
       <r>   -8.5548    1.0000 </r>
       <r>   -8.4048    1.0000 </r>
       <r>   -1.2769    1.0000 </r>
       <r>   -0.7711    1.0000 </r>
       <r>    0.8772    1.0000 </r>
       <r>    0.9002    1.0000 </r>
       <r>    1.1059    1.0000 </r>
       <r>    1.5917    1.0000 </r>
       <r>    1.9232    1.0000 </r>
       <r>    1.9338    1.0000 </r>
       <r>    2.1738    1.0000 </r>
       <r>    2.1929    1.0000 </r>
       <r>    2.8886    1.0000 </r>
       <r>    3.5125    1.0000 </r>
       <r>    3.7675    1.0000 </r>
       <r>    4.1121    1.0000 </r>
       <r>    6.3875    0.0000 </r>
       <r>    6.6928    0.0000 </r>
       <r>    6.7977    0.0000 </r>
       <r>    6.8433    0.0000 </r>
      </set>
      <set comment="kpoint 8">
       <r>   -9.4590    1.0000 </r>
       <r>   -9.3646    1.0000 </r>
       <r>   -8.4982    1.0000 </r>
       <r>   -8.3546    1.0000 </r>
       <r>   -1.1716    1.0000 </r>
       <r>   -0.6824    1.0000 </r>
       <r>    0.6978    1.0000 </r>
       <r>    0.7369    1.0000 </r>
       <r>    0.9318    1.0000 </r>
       <r>    1.3634    1.0000 </r>
       <r>    2.0372    1.0000 </r>
       <r>    2.0419    1.0000 </r>
       <r>    2.0550    1.0000 </r>
       <r>    2.0573    1.0000 </r>
       <r>    2.8521    1.0000 </r>
       <r>    3.4378    1.0000 </r>
       <r>    3.6967    1.0000 </r>
       <r>    3.9365    1.0000 </r>
       <r>    6.2491    0.0000 </r>
       <r>    6.6966    0.0000 </r>
       <r>    6.7468    0.0000 </r>
       <r>    6.8314    0.0000 </r>
      </set>
      <set comment="kpoint 9">
       <r>   -9.3322    1.0000 </r>
       <r>   -9.2399    1.0000 </r>
       <r>   -8.4356    1.0000 </r>
       <r>   -8.2992    1.0000 </r>
       <r>   -1.0746    1.0000 </r>
       <r>   -0.6161    1.0000 </r>
       <r>    0.5283    1.0000 </r>
       <r>    0.5961    1.0000 </r>
       <r>    0.7542    1.0000 </r>
       <r>    1.1345    1.0000 </r>
       <r>    1.8994    1.0000 </r>
       <r>    1.9206    1.0000 </r>
       <r>    2.1707    1.0000 </r>
       <r>    2.1868    1.0000 </r>
       <r>    2.7905    1.0000 </r>
       <r>    3.3330    1.0000 </r>
       <r>    3.6018    1.0000 </r>
       <r>    3.7548    1.0000 </r>
       <r>    6.1591    0.0000 </r>
       <r>    6.6693    0.0000 </r>
       <r>    6.7098    0.0000 </r>
       <r>    6.7269    0.0000 </r>
      </set>
      <set comment="kpoint 10">
       <r>   -9.1952    1.0000 </r>
       <r>   -9.1055    1.0000 </r>
       <r>   -8.3682    1.0000 </r>
       <r>   -8.2400    1.0000 </r>
       <r>   -1.0010    1.0000 </r>
       <r>   -0.5936    1.0000 </r>
       <r>    0.3816    1.0000 </r>
       <r>    0.4968    1.0000 </r>
       <r>    0.5745    1.0000 </r>
       <r>    0.9070    1.0000 </r>
       <r>    1.7643    1.0000 </r>
       <r>    1.7864    1.0000 </r>
       <r>    2.3060    1.0000 </r>
       <r>    2.3258    1.0000 </r>
       <r>    2.7125    1.0000 </r>
       <r>    3.2109    1.0000 </r>
       <r>    3.4878    1.0000 </r>
       <r>    3.5842    1.0000 </r>
       <r>    6.1189    0.0000 </r>
       <r>    6.5244    0.0000 </r>
       <r>    6.6041    0.0000 </r>
       <r>    6.7734    0.0000 </r>
      </set>
      <set comment="kpoint 11">
       <r>   -9.0507    1.0000 </r>
       <r>   -8.9643    1.0000 </r>
       <r>   -8.2976    1.0000 </r>
       <r>   -8.1782    1.0000 </r>
       <r>   -0.9675    1.0000 </r>
       <r>   -0.6300    1.0000 </r>
       <r>    0.2704    1.0000 </r>
       <r>    0.3947    1.0000 </r>
       <r>    0.4487    1.0000 </r>
       <r>    0.6834    1.0000 </r>
       <r>    1.6350    1.0000 </r>
       <r>    1.6580    1.0000 </r>
       <r>    2.4437    1.0000 </r>
       <r>    2.4678    1.0000 </r>
       <r>    2.6276    1.0000 </r>
       <r>    3.0827    1.0000 </r>
       <r>    3.3642    1.0000 </r>
       <r>    3.4452    1.0000 </r>
       <r>    6.1209    0.0000 </r>
       <r>    6.4709    0.0000 </r>
       <r>    6.5288    0.0000 </r>
       <r>    6.7181    0.0000 </r>
      </set>
      <set comment="kpoint 12">
       <r>   -8.9021    1.0000 </r>
       <r>   -8.8196    1.0000 </r>
       <r>   -8.2254    1.0000 </r>
       <r>   -8.1156    1.0000 </r>
       <r>   -0.9851    1.0000 </r>
       <r>   -0.7198    1.0000 </r>
       <r>    0.1998    1.0000 </r>
       <r>    0.2178    1.0000 </r>
       <r>    0.4396    1.0000 </r>
       <r>    0.4671    1.0000 </r>
       <r>    1.5140    1.0000 </r>
       <r>    1.5377    1.0000 </r>
       <r>    2.5441    1.0000 </r>
       <r>    2.5793    1.0000 </r>
       <r>    2.6087    1.0000 </r>
       <r>    2.9568    1.0000 </r>
       <r>    3.2536    1.0000 </r>
       <r>    3.3478    1.0000 </r>
       <r>    6.1596    0.0000 </r>
       <r>    6.3912    0.0000 </r>
       <r>    6.4638    0.0000 </r>
       <r>    6.7209    0.0000 </r>
      </set>
      <set comment="kpoint 13">
       <r>   -8.7531    1.0000 </r>
       <r>   -8.6754    1.0000 </r>
       <r>   -8.1535    1.0000 </r>
       <r>   -8.0539    1.0000 </r>
       <r>   -1.0505    1.0000 </r>
       <r>   -0.8423    1.0000 </r>
       <r>    0.0471    1.0000 </r>
       <r>    0.1604    1.0000 </r>
       <r>    0.2617    1.0000 </r>
       <r>    0.4432    1.0000 </r>
       <r>    1.4034    1.0000 </r>
       <r>    1.4278    1.0000 </r>
       <r>    2.4683    1.0000 </r>
       <r>    2.7086    1.0000 </r>
       <r>    2.7438    1.0000 </r>
       <r>    2.8387    1.0000 </r>
       <r>    3.1808    1.0000 </r>
       <r>    3.2947    1.0000 </r>
       <r>    6.2288    0.0000 </r>
       <r>    6.3495    0.0000 </r>
       <r>    6.4142    0.0000 </r>
       <r>    6.7563    0.0000 </r>
      </set>
      <set comment="kpoint 14">
       <r>   -8.6078    1.0000 </r>
       <r>   -8.5358    1.0000 </r>
       <r>   -8.0840    1.0000 </r>
       <r>   -7.9952    1.0000 </r>
       <r>   -1.1474    1.0000 </r>
       <r>   -0.9772    1.0000 </r>
       <r>   -0.1131    1.0000 </r>
       <r>    0.0714    1.0000 </r>
       <r>    0.1342    1.0000 </r>
       <r>    0.4387    1.0000 </r>
       <r>    1.3048    1.0000 </r>
       <r>    1.3297    1.0000 </r>
       <r>    2.4042    1.0000 </r>
       <r>    2.7314    1.0000 </r>
       <r>    2.8272    1.0000 </r>
       <r>    2.8688    1.0000 </r>
       <r>    3.1575    1.0000 </r>
       <r>    3.2883    1.0000 </r>
       <r>    6.3182    0.0000 </r>
       <r>    6.3229    0.0000 </r>
       <r>    6.3798    0.0000 </r>
       <r>    6.7751    0.0000 </r>
      </set>
      <set comment="kpoint 15">
       <r>   -8.4713    1.0000 </r>
       <r>   -8.4056    1.0000 </r>
       <r>   -8.0190    1.0000 </r>
       <r>   -7.9413    1.0000 </r>
       <r>   -1.2576    1.0000 </r>
       <r>   -1.1103    1.0000 </r>
       <r>   -0.2584    1.0000 </r>
       <r>   -0.0994    1.0000 </r>
       <r>    0.1067    1.0000 </r>
       <r>    0.4178    1.0000 </r>
       <r>    1.2195    1.0000 </r>
       <r>    1.2448    1.0000 </r>
       <r>    2.3539    1.0000 </r>
       <r>    2.6367    1.0000 </r>
       <r>    2.9315    1.0000 </r>
       <r>    2.9799    1.0000 </r>
       <r>    3.1831    1.0000 </r>
       <r>    3.3240    1.0000 </r>
       <r>    6.3112    0.0000 </r>
       <r>    6.3599    0.0000 </r>
       <r>    6.4204    0.0000 </r>
       <r>    6.8087    0.0000 </r>
      </set>
      <set comment="kpoint 16">
       <r>   -8.3485    1.0000 </r>
       <r>   -8.2900    1.0000 </r>
       <r>   -7.9610    1.0000 </r>
       <r>   -7.8945    1.0000 </r>
       <r>   -1.3659    1.0000 </r>
       <r>   -1.2315    1.0000 </r>
       <r>   -0.3845    1.0000 </r>
       <r>   -0.2464    1.0000 </r>
       <r>    0.0733    1.0000 </r>
       <r>    0.3834    1.0000 </r>
       <r>    1.1484    1.0000 </r>
       <r>    1.1741    1.0000 </r>
       <r>    2.3179    1.0000 </r>
       <r>    2.5553    1.0000 </r>
       <r>    3.0189    1.0000 </r>
       <r>    3.0737    1.0000 </r>
       <r>    3.2475    1.0000 </r>
       <r>    3.3879    1.0000 </r>
       <r>    6.3113    0.0000 </r>
       <r>    6.3506    0.0000 </r>
       <r>    6.5261    0.0000 </r>
       <r>    6.8445    0.0000 </r>
      </set>
      <set comment="kpoint 17">
       <r>   -8.2450    1.0000 </r>
       <r>   -8.1939    1.0000 </r>
       <r>   -7.9121    1.0000 </r>
       <r>   -7.8565    1.0000 </r>
       <r>   -1.4613    1.0000 </r>
       <r>   -1.3336    1.0000 </r>
       <r>   -0.4871    1.0000 </r>
       <r>   -0.3657    1.0000 </r>
       <r>    0.0373    1.0000 </r>
       <r>    0.3436    1.0000 </r>
       <r>    1.0924    1.0000 </r>
       <r>    1.1183    1.0000 </r>
       <r>    2.2956    1.0000 </r>
       <r>    2.4877    1.0000 </r>
       <r>    3.0875    1.0000 </r>
       <r>    3.1481    1.0000 </r>
       <r>    3.3339    1.0000 </r>
       <r>    3.4604    1.0000 </r>
       <r>    6.3189    0.0000 </r>
       <r>    6.3501    0.0000 </r>
       <r>    6.6277    0.0000 </r>
       <r>    6.8781    0.0000 </r>
      </set>
      <set comment="kpoint 18">
       <r>   -8.1660    1.0000 </r>
       <r>   -8.1218    1.0000 </r>
       <r>   -7.8747    1.0000 </r>
       <r>   -7.8288    1.0000 </r>
       <r>   -1.5355    1.0000 </r>
       <r>   -1.4110    1.0000 </r>
       <r>   -0.5630    1.0000 </r>
       <r>   -0.4536    1.0000 </r>
       <r>    0.0053    1.0000 </r>
       <r>    0.3076    1.0000 </r>
       <r>    1.0520    1.0000 </r>
       <r>    1.0782    1.0000 </r>
       <r>    2.2854    1.0000 </r>
       <r>    2.4346    1.0000 </r>
       <r>    3.1367    1.0000 </r>
       <r>    3.2018    1.0000 </r>
       <r>    3.4225    1.0000 </r>
       <r>    3.5219    1.0000 </r>
       <r>    6.3293    0.0000 </r>
       <r>    6.3539    0.0000 </r>
       <r>    6.7143    0.0000 </r>
       <r>    6.9070    0.0000 </r>
      </set>
      <set comment="kpoint 19">
       <r>   -8.1163    1.0000 </r>
       <r>   -8.0772    1.0000 </r>
       <r>   -7.8510    1.0000 </r>
       <r>   -7.8122    1.0000 </r>
       <r>   -1.5825    1.0000 </r>
       <r>   -1.4594    1.0000 </r>
       <r>   -0.6096    1.0000 </r>
       <r>   -0.5076    1.0000 </r>
       <r>   -0.0167    1.0000 </r>
       <r>    0.2829    1.0000 </r>
       <r>    1.0276    1.0000 </r>
       <r>    1.0539    1.0000 </r>
       <r>    2.2838    1.0000 </r>
       <r>    2.3987    1.0000 </r>
       <r>    3.1661    1.0000 </r>
       <r>    3.2341    1.0000 </r>
       <r>    3.4930    1.0000 </r>
       <r>    3.5575    1.0000 </r>
       <r>    6.3377    0.0000 </r>
       <r>    6.3580    0.0000 </r>
       <r>    6.7733    0.0000 </r>
       <r>    6.9274    0.0000 </r>
      </set>
      <set comment="kpoint 20">
       <r>   -8.0993    1.0000 </r>
       <r>   -8.0621    1.0000 </r>
       <r>   -7.8428    1.0000 </r>
       <r>   -7.8067    1.0000 </r>
       <r>   -1.5986    1.0000 </r>
       <r>   -1.4758    1.0000 </r>
       <r>   -0.6253    1.0000 </r>
       <r>   -0.5258    1.0000 </r>
       <r>   -0.0245    1.0000 </r>
       <r>    0.2742    1.0000 </r>
       <r>    1.0194    1.0000 </r>
       <r>    1.0457    1.0000 </r>
       <r>    2.2847    1.0000 </r>
       <r>    2.3854    1.0000 </r>
       <r>    3.1758    1.0000 </r>
       <r>    3.2449    1.0000 </r>
       <r>    3.5231    1.0000 </r>
       <r>    3.5656    1.0000 </r>
       <r>    6.3409    0.0000 </r>
       <r>    6.3597    0.0000 </r>
       <r>    6.7946    0.0000 </r>
       <r>    6.9340    0.0000 </r>
      </set>
      <set comment="kpoint 21">
       <r>   -8.0993    1.0000 </r>
       <r>   -8.0621    1.0000 </r>
       <r>   -7.8428    1.0000 </r>
       <r>   -7.8067    1.0000 </r>
       <r>   -1.5986    1.0000 </r>
       <r>   -1.4758    1.0000 </r>
       <r>   -0.6253    1.0000 </r>
       <r>   -0.5258    1.0000 </r>
       <r>   -0.0245    1.0000 </r>
       <r>    0.2742    1.0000 </r>
       <r>    1.0194    1.0000 </r>
       <r>    1.0457    1.0000 </r>
       <r>    2.2847    1.0000 </r>
       <r>    2.3854    1.0000 </r>
       <r>    3.1758    1.0000 </r>
       <r>    3.2449    1.0000 </r>
       <r>    3.5231    1.0000 </r>
       <r>    3.5656    1.0000 </r>
       <r>    6.3409    0.0000 </r>
       <r>    6.3597    0.0000 </r>
       <r>    6.7946    0.0000 </r>
       <r>    6.9340    0.0000 </r>
      </set>
      <set comment="kpoint 22">
       <r>   -8.0978    1.0000 </r>
       <r>   -8.0607    1.0000 </r>
       <r>   -7.8417    1.0000 </r>
       <r>   -7.8058    1.0000 </r>
       <r>   -1.5941    1.0000 </r>
       <r>   -1.4713    1.0000 </r>
       <r>   -0.6277    1.0000 </r>
       <r>   -0.5304    1.0000 </r>
       <r>   -0.0227    1.0000 </r>
       <r>    0.2755    1.0000 </r>
       <r>    1.0205    1.0000 </r>
       <r>    1.0427    1.0000 </r>
       <r>    2.2848    1.0000 </r>
       <r>    2.3875    1.0000 </r>
       <r>    3.1419    1.0000 </r>
       <r>    3.2100    1.0000 </r>
       <r>    3.5407    1.0000 </r>
       <r>    3.5857    1.0000 </r>
       <r>    6.3448    0.0000 </r>
       <r>    6.3598    0.0000 </r>
       <r>    6.7951    0.0000 </r>
       <r>    6.9379    0.0000 </r>
      </set>
      <set comment="kpoint 23">
       <r>   -8.0934    1.0000 </r>
       <r>   -8.0566    1.0000 </r>
       <r>   -7.8387    1.0000 </r>
       <r>   -7.8030    1.0000 </r>
       <r>   -1.5805    1.0000 </r>
       <r>   -1.4581    1.0000 </r>
       <r>   -0.6350    1.0000 </r>
       <r>   -0.5438    1.0000 </r>
       <r>   -0.0175    1.0000 </r>
       <r>    0.2796    1.0000 </r>
       <r>    1.0239    1.0000 </r>
       <r>    1.0339    1.0000 </r>
       <r>    2.2848    1.0000 </r>
       <r>    2.3937    1.0000 </r>
       <r>    3.0545    1.0000 </r>
       <r>    3.1225    1.0000 </r>
       <r>    3.5795    1.0000 </r>
       <r>    3.6294    1.0000 </r>
       <r>    6.3557    0.0000 </r>
       <r>    6.3596    0.0000 </r>
       <r>    6.7970    0.0000 </r>
       <r>    6.9430    0.0000 </r>
      </set>
      <set comment="kpoint 24">
       <r>   -8.0862    1.0000 </r>
       <r>   -8.0499    1.0000 </r>
       <r>   -7.8337    1.0000 </r>
       <r>   -7.7984    1.0000 </r>
       <r>   -1.5580    1.0000 </r>
       <r>   -1.4362    1.0000 </r>
       <r>   -0.6473    1.0000 </r>
       <r>   -0.5659    1.0000 </r>
       <r>   -0.0090    1.0000 </r>
       <r>    0.2861    1.0000 </r>
       <r>    1.0208    1.0000 </r>
       <r>    1.0298    1.0000 </r>
       <r>    2.2844    1.0000 </r>
       <r>    2.4028    1.0000 </r>
       <r>    2.9338    1.0000 </r>
       <r>    3.0040    1.0000 </r>
       <r>    3.6218    1.0000 </r>
       <r>    3.6770    1.0000 </r>
       <r>    6.3580    0.0000 </r>
       <r>    6.3708    0.0000 </r>
       <r>    6.8026    0.0000 </r>
       <r>    6.9542    0.0000 </r>
      </set>
      <set comment="kpoint 25">
       <r>   -8.0763    1.0000 </r>
       <r>   -8.0406    1.0000 </r>
       <r>   -7.8269    1.0000 </r>
       <r>   -7.7921    1.0000 </r>
       <r>   -1.5266    1.0000 </r>
       <r>   -1.4056    1.0000 </r>
       <r>   -0.6647    1.0000 </r>
       <r>   -0.5961    1.0000 </r>
       <r>    0.0028    1.0000 </r>
       <r>    0.2950    1.0000 </r>
       <r>    1.0052    1.0000 </r>
       <r>    1.0384    1.0000 </r>
       <r>    2.2831    1.0000 </r>
       <r>    2.4131    1.0000 </r>
       <r>    2.7902    1.0000 </r>
       <r>    2.8645    1.0000 </r>
       <r>    3.6606    1.0000 </r>
       <r>    3.7211    1.0000 </r>
       <r>    6.3537    0.0000 </r>
       <r>    6.3854    0.0000 </r>
       <r>    6.8144    0.0000 </r>
       <r>    6.9717    0.0000 </r>
      </set>
      <set comment="kpoint 26">
       <r>   -8.0639    1.0000 </r>
       <r>   -8.0289    1.0000 </r>
       <r>   -7.8182    1.0000 </r>
       <r>   -7.7842    1.0000 </r>
       <r>   -1.4866    1.0000 </r>
       <r>   -1.3668    1.0000 </r>
       <r>   -0.6872    1.0000 </r>
       <r>   -0.6334    1.0000 </r>
       <r>    0.0176    1.0000 </r>
       <r>    0.3058    1.0000 </r>
       <r>    0.9894    1.0000 </r>
       <r>    1.0500    1.0000 </r>
       <r>    2.2801    1.0000 </r>
       <r>    2.4230    1.0000 </r>
       <r>    2.6294    1.0000 </r>
       <r>    2.7091    1.0000 </r>
       <r>    3.6944    1.0000 </r>
       <r>    3.7600    1.0000 </r>
       <r>    6.3449    0.0000 </r>
       <r>    6.3940    0.0000 </r>
       <r>    6.8370    0.0000 </r>
       <r>    6.9953    0.0000 </r>
      </set>
      <set comment="kpoint 27">
       <r>   -8.0491    1.0000 </r>
       <r>   -8.0152    1.0000 </r>
       <r>   -7.8081    1.0000 </r>
       <r>   -7.7749    1.0000 </r>
       <r>   -1.4380    1.0000 </r>
       <r>   -1.3198    1.0000 </r>
       <r>   -0.7148    1.0000 </r>
       <r>   -0.6768    1.0000 </r>
       <r>    0.0351    1.0000 </r>
       <r>    0.3183    1.0000 </r>
       <r>    0.9755    1.0000 </r>
       <r>    1.0649    1.0000 </r>
       <r>    2.2749    1.0000 </r>
       <r>    2.4307    1.0000 </r>
       <r>    2.4552    1.0000 </r>
       <r>    2.5410    1.0000 </r>
       <r>    3.7243    1.0000 </r>
       <r>    3.7946    1.0000 </r>
       <r>    6.3302    0.0000 </r>
       <r>    6.3916    0.0000 </r>
       <r>    6.8736    0.0000 </r>
       <r>    7.0268    0.0000 </r>
      </set>
      <set comment="kpoint 28">
       <r>   -8.0323    1.0000 </r>
       <r>   -7.9996    1.0000 </r>
       <r>   -7.7965    1.0000 </r>
       <r>   -7.7644    1.0000 </r>
       <r>   -1.3812    1.0000 </r>
       <r>   -1.2651    1.0000 </r>
       <r>   -0.7473    1.0000 </r>
       <r>   -0.7253    1.0000 </r>
       <r>    0.0550    1.0000 </r>
       <r>    0.3318    1.0000 </r>
       <r>    0.9656    1.0000 </r>
       <r>    1.0832    1.0000 </r>
       <r>    2.2666    1.0000 </r>
       <r>    2.2707    1.0000 </r>
       <r>    2.3631    1.0000 </r>
       <r>    2.4345    1.0000 </r>
       <r>    3.7518    1.0000 </r>
       <r>    3.8260    1.0000 </r>
       <r>    6.3082    0.0000 </r>
       <r>    6.3754    0.0000 </r>
       <r>    6.9247    0.0000 </r>
       <r>    7.0640    0.0000 </r>
      </set>
      <set comment="kpoint 29">
       <r>   -8.0138    1.0000 </r>
       <r>   -7.9825    1.0000 </r>
       <r>   -7.7838    1.0000 </r>
       <r>   -7.7530    1.0000 </r>
       <r>   -1.3166    1.0000 </r>
       <r>   -1.2030    1.0000 </r>
       <r>   -0.7840    1.0000 </r>
       <r>   -0.7774    1.0000 </r>
       <r>    0.0769    1.0000 </r>
       <r>    0.3458    1.0000 </r>
       <r>    0.9611    1.0000 </r>
       <r>    1.1049    1.0000 </r>
       <r>    2.0789    1.0000 </r>
       <r>    2.1779    1.0000 </r>
       <r>    2.2547    1.0000 </r>
       <r>    2.4332    1.0000 </r>
       <r>    3.7787    1.0000 </r>
       <r>    3.8561    1.0000 </r>
       <r>    6.2788    0.0000 </r>
       <r>    6.3459    0.0000 </r>
       <r>    6.9895    0.0000 </r>
       <r>    7.1203    0.0000 </r>
      </set>
      <set comment="kpoint 30">
       <r>   -7.9940    1.0000 </r>
       <r>   -7.9642    1.0000 </r>
       <r>   -7.7703    1.0000 </r>
       <r>   -7.7409    1.0000 </r>
       <r>   -1.2444    1.0000 </r>
       <r>   -1.1341    1.0000 </r>
       <r>   -0.8317    1.0000 </r>
       <r>   -0.8242    1.0000 </r>
       <r>    0.1004    1.0000 </r>
       <r>    0.3597    1.0000 </r>
       <r>    0.9631    1.0000 </r>
       <r>    1.1296    1.0000 </r>
       <r>    1.8827    1.0000 </r>
       <r>    1.9880    1.0000 </r>
       <r>    2.2389    1.0000 </r>
       <r>    2.4257    1.0000 </r>
       <r>    3.8067    1.0000 </r>
       <r>    3.8861    1.0000 </r>
       <r>    6.2420    0.0000 </r>
       <r>    6.3047    0.0000 </r>
       <r>    7.0641    0.0000 </r>
       <r>    7.1733    0.0000 </r>
      </set>
      <set comment="kpoint 31">
       <r>   -7.9732    1.0000 </r>
       <r>   -7.9452    1.0000 </r>
       <r>   -7.7561    1.0000 </r>
       <r>   -7.7285    1.0000 </r>
       <r>   -1.1650    1.0000 </r>
       <r>   -1.0589    1.0000 </r>
       <r>   -0.8869    1.0000 </r>
       <r>   -0.8668    1.0000 </r>
       <r>    0.1249    1.0000 </r>
       <r>    0.3726    1.0000 </r>
       <r>    0.9722    1.0000 </r>
       <r>    1.1570    1.0000 </r>
       <r>    1.6848    1.0000 </r>
       <r>    1.7959    1.0000 </r>
       <r>    2.2192    1.0000 </r>
       <r>    2.4115    1.0000 </r>
       <r>    3.8370    1.0000 </r>
       <r>    3.9174    1.0000 </r>
       <r>    6.1982    0.0000 </r>
       <r>    6.2542    0.0000 </r>
       <r>    7.1468    0.0000 </r>
       <r>    7.2140    0.0000 </r>
      </set>
      <set comment="kpoint 32">
       <r>   -7.9519    1.0000 </r>
       <r>   -7.9260    1.0000 </r>
       <r>   -7.7417    1.0000 </r>
       <r>   -7.7160    1.0000 </r>
       <r>   -1.0790    1.0000 </r>
       <r>   -0.9781    1.0000 </r>
       <r>   -0.9413    1.0000 </r>
       <r>   -0.9105    1.0000 </r>
       <r>    0.1500    1.0000 </r>
       <r>    0.3835    1.0000 </r>
       <r>    0.9884    1.0000 </r>
       <r>    1.1862    1.0000 </r>
       <r>    1.4883    1.0000 </r>
       <r>    1.6043    1.0000 </r>
       <r>    2.1957    1.0000 </r>
       <r>    2.3903    1.0000 </r>
       <r>    3.8705    1.0000 </r>
       <r>    3.9508    1.0000 </r>
       <r>    6.1486    0.0000 </r>
       <r>    6.1968    0.0000 </r>
       <r>    7.2287    0.0000 </r>
       <r>    7.2737    0.0000 </r>
      </set>
      <set comment="kpoint 33">
       <r>   -7.9306    1.0000 </r>
       <r>   -7.9070    1.0000 </r>
       <r>   -7.7274    1.0000 </r>
       <r>   -7.7039    1.0000 </r>
       <r>   -0.9937    1.0000 </r>
       <r>   -0.9869    1.0000 </r>
       <r>   -0.9540    1.0000 </r>
       <r>   -0.8925    1.0000 </r>
       <r>    0.1746    1.0000 </r>
       <r>    0.3907    1.0000 </r>
       <r>    1.0115    1.0000 </r>
       <r>    1.2163    1.0000 </r>
       <r>    1.2967    1.0000 </r>
       <r>    1.4160    1.0000 </r>
       <r>    2.1693    1.0000 </r>
       <r>    2.3625    1.0000 </r>
       <r>    3.9072    1.0000 </r>
       <r>    3.9867    1.0000 </r>
       <r>    6.0944    0.0000 </r>
       <r>    6.1343    0.0000 </r>
       <r>    7.2273    0.0000 </r>
       <r>    7.3227    0.0000 </r>
      </set>
      <set comment="kpoint 34">
       <r>   -7.9099    1.0000 </r>
       <r>   -7.8889    1.0000 </r>
       <r>   -7.7136    1.0000 </r>
       <r>   -7.6926    1.0000 </r>
       <r>   -1.0426    1.0000 </r>
       <r>   -0.9958    1.0000 </r>
       <r>   -0.8895    1.0000 </r>
       <r>   -0.8033    1.0000 </r>
       <r>    0.1979    1.0000 </r>
       <r>    0.3915    1.0000 </r>
       <r>    1.0409    1.0000 </r>
       <r>    1.1145    1.0000 </r>
       <r>    1.2342    1.0000 </r>
       <r>    1.2456    1.0000 </r>
       <r>    2.1413    1.0000 </r>
       <r>    2.3286    1.0000 </r>
       <r>    3.9469    1.0000 </r>
       <r>    4.0249    1.0000 </r>
       <r>    6.0375    0.0000 </r>
       <r>    6.0696    0.0000 </r>
       <r>    7.1520    0.0000 </r>
       <r>    7.3911    0.0000 </r>
      </set>
      <set comment="kpoint 35">
       <r>   -7.8904    1.0000 </r>
       <r>   -7.8722    1.0000 </r>
       <r>   -7.7005    1.0000 </r>
       <r>   -7.6823    1.0000 </r>
       <r>   -1.0868    1.0000 </r>
       <r>   -1.0345    1.0000 </r>
       <r>   -0.7879    1.0000 </r>
       <r>   -0.7118    1.0000 </r>
       <r>    0.2180    1.0000 </r>
       <r>    0.3809    1.0000 </r>
       <r>    0.9488    1.0000 </r>
       <r>    1.0630    1.0000 </r>
       <r>    1.0757    1.0000 </r>
       <r>    1.2723    1.0000 </r>
       <r>    2.1139    1.0000 </r>
       <r>    2.2897    1.0000 </r>
       <r>    3.9884    1.0000 </r>
       <r>    4.0646    1.0000 </r>
       <r>    5.9803    0.0000 </r>
       <r>    6.0052    0.0000 </r>
       <r>    7.0963    0.0000 </r>
       <r>    7.5236    0.0000 </r>
      </set>
      <set comment="kpoint 36">
       <r>   -7.8725    1.0000 </r>
       <r>   -7.8574    1.0000 </r>
       <r>   -7.6887    1.0000 </r>
       <r>   -7.6735    1.0000 </r>
       <r>   -1.1250    1.0000 </r>
       <r>   -1.0687    1.0000 </r>
       <r>   -0.6834    1.0000 </r>
       <r>   -0.6202    1.0000 </r>
       <r>    0.2322    1.0000 </r>
       <r>    0.3501    1.0000 </r>
       <r>    0.8109    1.0000 </r>
       <r>    0.9083    1.0000 </r>
       <r>    1.1146    1.0000 </r>
       <r>    1.2938    1.0000 </r>
       <r>    2.0897    1.0000 </r>
       <r>    2.2471    1.0000 </r>
       <r>    4.0296    1.0000 </r>
       <r>    4.1039    1.0000 </r>
       <r>    5.9256    0.0000 </r>
       <r>    5.9441    0.0000 </r>
       <r>    7.0448    0.0000 </r>
       <r>    7.5304    0.0000 </r>
      </set>
      <set comment="kpoint 37">
       <r>   -7.8571    1.0000 </r>
       <r>   -7.8453    1.0000 </r>
       <r>   -7.6784    1.0000 </r>
       <r>   -7.6666    1.0000 </r>
       <r>   -1.1563    1.0000 </r>
       <r>   -1.0971    1.0000 </r>
       <r>   -0.5789    1.0000 </r>
       <r>   -0.5319    1.0000 </r>
       <r>    0.2358    1.0000 </r>
       <r>    0.2894    1.0000 </r>
       <r>    0.7142    1.0000 </r>
       <r>    0.7788    1.0000 </r>
       <r>    1.1562    1.0000 </r>
       <r>    1.3070    1.0000 </r>
       <r>    2.0723    1.0000 </r>
       <r>    2.2029    1.0000 </r>
       <r>    4.0679    1.0000 </r>
       <r>    4.1406    1.0000 </r>
       <r>    5.8767    0.0000 </r>
       <r>    5.8898    0.0000 </r>
       <r>    7.0072    0.0000 </r>
       <r>    7.5560    0.0000 </r>
      </set>
      <set comment="kpoint 38">
       <r>   -7.8446    1.0000 </r>
       <r>   -7.8365    1.0000 </r>
       <r>   -7.6701    1.0000 </r>
       <r>   -7.6618    1.0000 </r>
       <r>   -1.1796    1.0000 </r>
       <r>   -1.1185    1.0000 </r>
       <r>   -0.4801    1.0000 </r>
       <r>   -0.4528    1.0000 </r>
       <r>    0.2037    1.0000 </r>
       <r>    0.2244    1.0000 </r>
       <r>    0.6602    1.0000 </r>
       <r>    0.6858    1.0000 </r>
       <r>    1.1984    1.0000 </r>
       <r>    1.3090    1.0000 </r>
       <r>    2.0649    1.0000 </r>
       <r>    2.1597    1.0000 </r>
       <r>    4.0997    1.0000 </r>
       <r>    4.1712    1.0000 </r>
       <r>    5.8377    0.0000 </r>
       <r>    5.8462    0.0000 </r>
       <r>    6.9843    0.0000 </r>
       <r>    7.5859    0.0000 </r>
      </set>
      <set comment="kpoint 39">
       <r>   -7.8358    1.0000 </r>
       <r>   -7.8316    1.0000 </r>
       <r>   -7.6640    1.0000 </r>
       <r>   -7.6597    1.0000 </r>
       <r>   -1.1941    1.0000 </r>
       <r>   -1.1320    1.0000 </r>
       <r>   -0.4004    1.0000 </r>
       <r>   -0.3934    1.0000 </r>
       <r>    0.1211    1.0000 </r>
       <r>    0.2018    1.0000 </r>
       <r>    0.6353    1.0000 </r>
       <r>    0.6365    1.0000 </r>
       <r>    1.2385    1.0000 </r>
       <r>    1.2979    1.0000 </r>
       <r>    2.0703    1.0000 </r>
       <r>    2.1205    1.0000 </r>
       <r>    4.1211    1.0000 </r>
       <r>    4.1922    1.0000 </r>
       <r>    5.8126    0.0000 </r>
       <r>    5.8169    0.0000 </r>
       <r>    6.9697    0.0000 </r>
       <r>    7.5129    0.0000 </r>
      </set>
      <set comment="kpoint 40">
       <r>   -7.8313    1.0000 </r>
       <r>   -7.8313    1.0000 </r>
       <r>   -7.6604    1.0000 </r>
       <r>   -7.6604    1.0000 </r>
       <r>   -1.1991    1.0000 </r>
       <r>   -1.1367    1.0000 </r>
       <r>   -0.3686    1.0000 </r>
       <r>   -0.3686    1.0000 </r>
       <r>    0.0843    1.0000 </r>
       <r>    0.1886    1.0000 </r>
       <r>    0.6257    1.0000 </r>
       <r>    0.6258    1.0000 </r>
       <r>    1.2732    1.0000 </r>
       <r>    1.2734    1.0000 </r>
       <r>    2.0892    1.0000 </r>
       <r>    2.0894    1.0000 </r>
       <r>    4.1289    1.0000 </r>
       <r>    4.1999    1.0000 </r>
       <r>    5.8051    0.0000 </r>
       <r>    5.8051    0.0000 </r>
       <r>    6.9654    0.0000 </r>
       <r>    7.6150    0.0000 </r>
      </set>
      <set comment="kpoint 41">
       <r>   -7.8313    1.0000 </r>
       <r>   -7.8313    1.0000 </r>
       <r>   -7.6604    1.0000 </r>
       <r>   -7.6604    1.0000 </r>
       <r>   -1.1991    1.0000 </r>
       <r>   -1.1367    1.0000 </r>
       <r>   -0.3686    1.0000 </r>
       <r>   -0.3686    1.0000 </r>
       <r>    0.0843    1.0000 </r>
       <r>    0.1886    1.0000 </r>
       <r>    0.6257    1.0000 </r>
       <r>    0.6258    1.0000 </r>
       <r>    1.2732    1.0000 </r>
       <r>    1.2734    1.0000 </r>
       <r>    2.0892    1.0000 </r>
       <r>    2.0894    1.0000 </r>
       <r>    4.1289    1.0000 </r>
       <r>    4.1999    1.0000 </r>
       <r>    5.8051    0.0000 </r>
       <r>    5.8051    0.0000 </r>
       <r>    6.9654    0.0000 </r>
       <r>    7.5267    0.0000 </r>
      </set>
      <set comment="kpoint 42">
       <r>   -7.8466    1.0000 </r>
       <r>   -7.8376    1.0000 </r>
       <r>   -7.6713    1.0000 </r>
       <r>   -7.6619    1.0000 </r>
       <r>   -1.1782    1.0000 </r>
       <r>   -1.1168    1.0000 </r>
       <r>   -0.4834    1.0000 </r>
       <r>   -0.4417    1.0000 </r>
       <r>    0.2100    1.0000 </r>
       <r>    0.2524    1.0000 </r>
       <r>    0.6274    1.0000 </r>
       <r>    0.6783    1.0000 </r>
       <r>    1.1912    1.0000 </r>
       <r>    1.3121    1.0000 </r>
       <r>    2.0683    1.0000 </r>
       <r>    2.1638    1.0000 </r>
       <r>    4.0959    1.0000 </r>
       <r>    4.1665    1.0000 </r>
       <r>    5.8381    0.0000 </r>
       <r>    5.8513    0.0000 </r>
       <r>    6.9788    0.0000 </r>
       <r>    7.5145    0.0000 </r>
      </set>
      <set comment="kpoint 43">
       <r>   -7.8864    1.0000 </r>
       <r>   -7.8674    1.0000 </r>
       <r>   -7.6958    1.0000 </r>
       <r>   -7.6759    1.0000 </r>
       <r>   -1.1138    1.0000 </r>
       <r>   -1.0547    1.0000 </r>
       <r>   -0.6616    1.0000 </r>
       <r>   -0.5862    1.0000 </r>
       <r>    0.3778    1.0000 </r>
       <r>    0.4318    1.0000 </r>
       <r>    0.6517    1.0000 </r>
       <r>    0.7962    1.0000 </r>
       <r>    1.0841    1.0000 </r>
       <r>    1.2967    1.0000 </r>
       <r>    2.1193    1.0000 </r>
       <r>    2.2719    1.0000 </r>
       <r>    4.0043    1.0000 </r>
       <r>    4.0719    1.0000 </r>
       <r>    5.9321    0.0000 </r>
       <r>    5.9721    0.0000 </r>
       <r>    7.0094    0.0000 </r>
       <r>    7.4195    0.0000 </r>
      </set>
      <set comment="kpoint 44">
       <r>   -7.9529    1.0000 </r>
       <r>   -7.9237    1.0000 </r>
       <r>   -7.7343    1.0000 </r>
       <r>   -7.7031    1.0000 </r>
       <r>   -1.0052    1.0000 </r>
       <r>   -0.9489    1.0000 </r>
       <r>   -0.8108    1.0000 </r>
       <r>   -0.7171    1.0000 </r>
       <r>    0.4876    1.0000 </r>
       <r>    0.5644    1.0000 </r>
       <r>    0.7874    1.0000 </r>
       <r>    0.9687    1.0000 </r>
       <r>    0.9721    1.0000 </r>
       <r>    1.2410    1.0000 </r>
       <r>    2.2322    1.0000 </r>
       <r>    2.3975    1.0000 </r>
       <r>    3.8778    1.0000 </r>
       <r>    3.9381    1.0000 </r>
       <r>    6.0483    0.0000 </r>
       <r>    6.1395    0.0000 </r>
       <r>    7.0389    0.0000 </r>
       <r>    7.2201    0.0000 </r>
      </set>
      <set comment="kpoint 45">
       <r>   -8.0468    1.0000 </r>
       <r>   -8.0072    1.0000 </r>
       <r>   -7.7862    1.0000 </r>
       <r>   -7.7428    1.0000 </r>
       <r>   -0.9132    1.0000 </r>
       <r>   -0.8533    1.0000 </r>
       <r>   -0.8068    1.0000 </r>
       <r>   -0.7996    1.0000 </r>
       <r>    0.5637    1.0000 </r>
       <r>    0.5734    1.0000 </r>
       <r>    0.8697    1.0000 </r>
       <r>    1.0423    1.0000 </r>
       <r>    1.1726    1.0000 </r>
       <r>    1.1776    1.0000 </r>
       <r>    2.3818    1.0000 </r>
       <r>    2.5289    1.0000 </r>
       <r>    3.7429    1.0000 </r>
       <r>    3.7916    1.0000 </r>
       <r>    6.1390    0.0000 </r>
       <r>    6.3199    0.0000 </r>
       <r>    6.9977    0.0000 </r>
       <r>    7.0734    0.0000 </r>
      </set>
      <set comment="kpoint 46">
       <r>   -8.1663    1.0000 </r>
       <r>   -8.1168    1.0000 </r>
       <r>   -7.8499    1.0000 </r>
       <r>   -7.7941    1.0000 </r>
       <r>   -0.9668    1.0000 </r>
       <r>   -0.8479    1.0000 </r>
       <r>   -0.6611    1.0000 </r>
       <r>   -0.6092    1.0000 </r>
       <r>    0.5474    1.0000 </r>
       <r>    0.6070    1.0000 </r>
       <r>    0.7869    1.0000 </r>
       <r>    1.1120    1.0000 </r>
       <r>    1.3128    1.0000 </r>
       <r>    1.4019    1.0000 </r>
       <r>    2.5491    1.0000 </r>
       <r>    2.6576    1.0000 </r>
       <r>    3.6192    1.0000 </r>
       <r>    3.6531    1.0000 </r>
       <r>    6.1588    0.0000 </r>
       <r>    6.4863    0.0000 </r>
       <r>    6.8352    0.0000 </r>
       <r>    7.0147    0.0000 </r>
      </set>
      <set comment="kpoint 47">
       <r>   -8.3080    1.0000 </r>
       <r>   -8.2492    1.0000 </r>
       <r>   -7.9234    1.0000 </r>
       <r>   -7.8550    1.0000 </r>
       <r>   -0.9765    1.0000 </r>
       <r>   -0.8414    1.0000 </r>
       <r>   -0.4338    1.0000 </r>
       <r>   -0.3815    1.0000 </r>
       <r>    0.4984    1.0000 </r>
       <r>    0.6167    1.0000 </r>
       <r>    0.7312    1.0000 </r>
       <r>    1.0716    1.0000 </r>
       <r>    1.5761    1.0000 </r>
       <r>    1.6274    1.0000 </r>
       <r>    2.7218    1.0000 </r>
       <r>    2.7770    1.0000 </r>
       <r>    3.5173    1.0000 </r>
       <r>    3.5358    1.0000 </r>
       <r>    6.0902    0.0000 </r>
       <r>    6.6208    0.0000 </r>
       <r>    6.7184    0.0000 </r>
       <r>    6.8238    0.0000 </r>
      </set>
      <set comment="kpoint 48">
       <r>   -8.4668    1.0000 </r>
       <r>   -8.3998    1.0000 </r>
       <r>   -8.0043    1.0000 </r>
       <r>   -7.9233    1.0000 </r>
       <r>   -0.9532    1.0000 </r>
       <r>   -0.7936    1.0000 </r>
       <r>   -0.1791    1.0000 </r>
       <r>   -0.1221    1.0000 </r>
       <r>    0.4333    1.0000 </r>
       <r>    0.5929    1.0000 </r>
       <r>    0.7095    1.0000 </r>
       <r>    1.0591    1.0000 </r>
       <r>    1.8193    1.0000 </r>
       <r>    1.8428    1.0000 </r>
       <r>    2.8817    1.0000 </r>
       <r>    2.8920    1.0000 </r>
       <r>    3.4410    1.0000 </r>
       <r>    3.4463    1.0000 </r>
       <r>    5.9841    0.0000 </r>
       <r>    6.5516    0.0000 </r>
       <r>    6.6582    0.0000 </r>
       <r>    6.7477    0.0000 </r>
      </set>
      <set comment="kpoint 49">
       <r>   -8.6372    1.0000 </r>
       <r>   -8.5630    1.0000 </r>
       <r>   -8.0899    1.0000 </r>
       <r>   -7.9966    1.0000 </r>
       <r>   -0.9139    1.0000 </r>
       <r>   -0.7156    1.0000 </r>
       <r>    0.0898    1.0000 </r>
       <r>    0.1616    1.0000 </r>
       <r>    0.3667    1.0000 </r>
       <r>    0.5421    1.0000 </r>
       <r>    0.7311    1.0000 </r>
       <r>    1.0800    1.0000 </r>
       <r>    2.0256    1.0000 </r>
       <r>    2.0337    1.0000 </r>
       <r>    2.9675    1.0000 </r>
       <r>    3.0534    1.0000 </r>
       <r>    3.3898    1.0000 </r>
       <r>    3.3926    1.0000 </r>
       <r>    5.8994    0.0000 </r>
       <r>    6.4180    0.0000 </r>
       <r>    6.6106    0.0000 </r>
       <r>    6.7883    0.0000 </r>
      </set>
      <set comment="kpoint 50">
       <r>   -8.8132    1.0000 </r>
       <r>   -8.7329    1.0000 </r>
       <r>   -8.1776    1.0000 </r>
       <r>   -8.0726    1.0000 </r>
       <r>   -0.8839    1.0000 </r>
       <r>   -0.6260    1.0000 </r>
       <r>    0.3240    1.0000 </r>
       <r>    0.3475    1.0000 </r>
       <r>    0.4595    1.0000 </r>
       <r>    0.4827    1.0000 </r>
       <r>    0.8153    1.0000 </r>
       <r>    1.1391    1.0000 </r>
       <r>    2.1708    1.0000 </r>
       <r>    2.1758    1.0000 </r>
       <r>    3.0315    1.0000 </r>
       <r>    3.2013    1.0000 </r>
       <r>    3.3798    1.0000 </r>
       <r>    3.3815    1.0000 </r>
       <r>    5.8669    0.0000 </r>
       <r>    6.3531    0.0000 </r>
       <r>    6.5664    0.0000 </r>
       <r>    6.7198    0.0000 </r>
      </set>
      <set comment="kpoint 51">
       <r>   -8.9890    1.0000 </r>
       <r>   -8.9039    1.0000 </r>
       <r>   -8.2649    1.0000 </r>
       <r>   -8.1488    1.0000 </r>
       <r>   -0.8909    1.0000 </r>
       <r>   -0.5543    1.0000 </r>
       <r>    0.3348    1.0000 </r>
       <r>    0.4470    1.0000 </r>
       <r>    0.5557    1.0000 </r>
       <r>    0.7573    1.0000 </r>
       <r>    0.9916    1.0000 </r>
       <r>    1.2433    1.0000 </r>
       <r>    2.2311    1.0000 </r>
       <r>    2.2395    1.0000 </r>
       <r>    3.0721    1.0000 </r>
       <r>    3.3316    1.0000 </r>
       <r>    3.4212    1.0000 </r>
       <r>    3.4382    1.0000 </r>
       <r>    5.8916    0.0000 </r>
       <r>    6.3736    0.0000 </r>
       <r>    6.5388    0.0000 </r>
       <r>    6.6856    0.0000 </r>
      </set>
      <set comment="kpoint 52">
       <r>   -9.1597    1.0000 </r>
       <r>   -9.0706    1.0000 </r>
       <r>   -8.3495    1.0000 </r>
       <r>   -8.2230    1.0000 </r>
       <r>   -0.9491    1.0000 </r>
       <r>   -0.5356    1.0000 </r>
       <r>    0.4151    1.0000 </r>
       <r>    0.4738    1.0000 </r>
       <r>    0.7139    1.0000 </r>
       <r>    1.0337    1.0000 </r>
       <r>    1.2491    1.0000 </r>
       <r>    1.4033    1.0000 </r>
       <r>    2.2056    1.0000 </r>
       <r>    2.2166    1.0000 </r>
       <r>    3.0889    1.0000 </r>
       <r>    3.4409    1.0000 </r>
       <r>    3.5078    1.0000 </r>
       <r>    3.5714    1.0000 </r>
       <r>    5.9648    0.0000 </r>
       <r>    6.4291    0.0000 </r>
       <r>    6.5600    0.0000 </r>
[...]
        <r>  0.0009  0.0007  0.0051  0.0003  0.0000  0.0000  0.0000  0.0000  0.0000 </r>
        <r>  0.0009  0.0007  0.0052  0.0002  0.0000  0.0000  0.0000  0.0000  0.0000 </r>
        <r>  0.0003  0.0238  0.1670  0.0081  0.0000  0.0000  0.0000  0.0000  0.0000 </r>
       </set>
       <set comment="band 13">
        <r>  0.0000  0.0000  0.0000  0.0000  0.0000  0.0000  0.0000  0.0000  0.0000 </r>
        <r>  0.0000  0.0000  0.0000  0.0000  0.0000  0.1359  0.0000  0.4067  0.0000 </r>
        <r>  0.0000  0.0389  0.0000  0.1129  0.0000  0.0000  0.0000  0.0000  0.0000 </r>
        <r>  0.0000  0.0000  0.0000  0.0000  0.0000  0.0000  0.0000  0.0000  0.0000 </r>
        <r>  0.0000  0.0000  0.0000  0.0000  0.0000  0.0000  0.0000  0.0000  0.0000 </r>
        <r>  0.0000  0.0389  0.0000  0.1129  0.0000  0.0000  0.0000  0.0000  0.0000 </r>
       </set>
       <set comment="band 14">
        <r>  0.0000  0.0000  0.0000  0.0000  0.0000  0.1359  0.0000  0.4067  0.0000 </r>
        <r>  0.0000  0.0000  0.0000  0.0000  0.0000  0.0000  0.0000  0.0000  0.0000 </r>
        <r>  0.0000  0.0000  0.0000  0.0000  0.0000  0.0000  0.0000  0.0000  0.0000 </r>
        <r>  0.0000  0.0389  0.0000  0.1129  0.0000  0.0000  0.0000  0.0000  0.0000 </r>
        <r>  0.0000  0.0389  0.0000  0.1129  0.0000  0.0000  0.0000  0.0000  0.0000 </r>
        <r>  0.0000  0.0000  0.0000  0.0000  0.0000  0.0000  0.0000  0.0000  0.0000 </r>
       </set>
       <set comment="band 15">
        <r>  0.0000  0.0000  0.0185  0.0000  0.0000  0.2847  0.0004  0.0951  0.0000 </r>
        <r>  0.0000  0.0000  0.0004  0.0000  0.0000  0.0058  0.0181  0.0019  0.0000 </r>
        <r>  0.0002  0.0018  0.0013  0.0006  0.0000  0.0000  0.0000  0.0000  0.0000 </r>
        <r>  0.0000  0.0879  0.0524  0.0303  0.0000  0.0000  0.0000  0.0000  0.0000 </r>
        <r>  0.0000  0.0879  0.0525  0.0303  0.0000  0.0000  0.0000  0.0000  0.0000 </r>
        <r>  0.0002  0.0018  0.0014  0.0006  0.0000  0.0000  0.0000  0.0000  0.0000 </r>
       </set>
       <set comment="band 16">
        <r>  0.0000  0.0000  0.0004  0.0000  0.0000  0.0058  0.0181  0.0020  0.0000 </r>
        <r>  0.0000  0.0000  0.0185  0.0000  0.0000  0.2847  0.0004  0.0951  0.0000 </r>
        <r>  0.0000  0.0879  0.0525  0.0303  0.0000  0.0000  0.0000  0.0000  0.0000 </r>
        <r>  0.0002  0.0018  0.0014  0.0006  0.0000  0.0000  0.0000  0.0000  0.0000 </r>
        <r>  0.0002  0.0018  0.0013  0.0006  0.0000  0.0000  0.0000  0.0000  0.0000 </r>
        <r>  0.0000  0.0879  0.0524  0.0303  0.0000  0.0000  0.0000  0.0000  0.0000 </r>
       </set>
       <set comment="band 17">
        <r>  0.0189  0.0001  0.0000  0.0000  0.0005  0.0000  0.5546  0.0000  0.0016 </r>
        <r>  0.0001  0.0000  0.0048  0.0000  0.0000  0.0000  0.0021  0.0000  0.0000 </r>
        <r>  0.0004  0.0004  0.0276  0.0001  0.0000  0.0000  0.0000  0.0000  0.0000 </r>
        <r>  0.0044  0.0007  0.0745  0.0002  0.0000  0.0000  0.0000  0.0000  0.0000 </r>
        <r>  0.0043  0.0007  0.0715  0.0002  0.0000  0.0000  0.0000  0.0000  0.0000 </r>
        <r>  0.0003  0.0003  0.0246  0.0001  0.0000  0.0000  0.0000  0.0000  0.0000 </r>
       </set>
       <set comment="band 18">
        <r>  0.0001  0.0000  0.0048  0.0000  0.0000  0.0000  0.0021  0.0000  0.0000 </r>
        <r>  0.0189  0.0001  0.0000  0.0000  0.0006  0.0000  0.5546  0.0000  0.0016 </r>
        <r>  0.0043  0.0007  0.0715  0.0002  0.0000  0.0000  0.0000  0.0000  0.0000 </r>
        <r>  0.0003  0.0003  0.0246  0.0001  0.0000  0.0000  0.0000  0.0000  0.0000 </r>
        <r>  0.0004  0.0004  0.0276  0.0001  0.0000  0.0000  0.0000  0.0000  0.0000 </r>
        <r>  0.0044  0.0007  0.0745  0.0002  0.0000  0.0000  0.0000  0.0000  0.0000 </r>
       </set>
       <set comment="band 19">
        <r>  0.0000  0.0000  0.0000  0.0000  0.0004  0.1362  0.0001  0.0278  0.0000 </r>
        <r>  0.0000  0.0000  0.0001  0.0000  0.0003  0.1617  0.0001  0.0360  0.0005 </r>
        <r>  0.0006  0.0813  0.0003  0.0131  0.0000  0.0000  0.0000  0.0000  0.0000 </r>
        <r>  0.0005  0.0690  0.0002  0.0127  0.0000  0.0000  0.0000  0.0000  0.0000 </r>
        <r>  0.0009  0.0697  0.0000  0.0121  0.0000  0.0000  0.0000  0.0000  0.0000 </r>
        <r>  0.0010  0.0829  0.0001  0.0203  0.0000  0.0000  0.0000  0.0000  0.0000 </r>
       </set>
       <set comment="band 20">
        <r>  0.0000  0.0003  0.0000  0.0001  0.0022  0.1333  0.0002  0.0195  0.0043 </r>
        <r>  0.0000  0.0002  0.0000  0.0003  0.0047  0.0638  0.0001  0.1282  0.0034 </r>
        <r>  0.0005  0.0450  0.0000  0.0513  0.0000  0.0000  0.0000  0.0000  0.0000 </r>
        <r>  0.0005  0.0506  0.0000  0.0057  0.0000  0.0000  0.0000  0.0000  0.0000 </r>
        <r>  0.0006  0.0940  0.0003  0.0115  0.0000  0.0000  0.0000  0.0000  0.0000 </r>
        <r>  0.0005  0.0369  0.0003  0.0718  0.0000  0.0000  0.0000  0.0000  0.0000 </r>
       </set>
       <set comment="band 21">
        <r>  0.0000  0.0000  0.0000  0.0004  0.0066  0.0563  0.0000  0.1968  0.0009 </r>
        <r>  0.0000  0.0000  0.0000  0.0001  0.0017  0.0299  0.0000  0.0650  0.0003 </r>
        <r>  0.0000  0.0102  0.0000  0.0256  0.0000  0.0000  0.0000  0.0000  0.0000 </r>
        <r>  0.0000  0.0224  0.0000  0.0792  0.0000  0.0000  0.0000  0.0000  0.0000 </r>
        <r>  0.0000  0.0368  0.0000  0.1345  0.0000  0.0000  0.0000  0.0000  0.0000 </r>
        <r>  0.0000  0.0172  0.0000  0.0475  0.0000  0.0000  0.0000  0.0000  0.0000 </r>
       </set>
       <set comment="band 22">
        <r>  0.0000  0.0044  0.0000  0.0008  0.0169  0.0183  0.0005  0.0659  0.0688 </r>
        <r>  0.0000  0.0001  0.0000  0.0012  0.0191  0.0567  0.0001  0.0942  0.0005 </r>
        <r>  0.0000  0.0193  0.0000  0.0889  0.0000  0.0000  0.0000  0.0000  0.0000 </r>
        <r>  0.0001  0.0556  0.0000  0.0622  0.0000  0.0000  0.0000  0.0000  0.0000 </r>
        <r>  0.0003  0.0602  0.0003  0.0346  0.0000  0.0000  0.0000  0.0000  0.0000 </r>
        <r>  0.0001  0.0306  0.0002  0.0453  0.0000  0.0000  0.0000  0.0000  0.0000 </r>
       </set>
      </set>
      <set comment="kpoint 140">
       <set comment="band 1">
        <r>  0.1304  0.0000  0.0000  0.0000  0.0000  0.0000  0.0002  0.0000  0.0000 </r>
        <r>  0.0000  0.0000  0.0001  0.0000  0.0000  0.0000  0.0000  0.0000  0.0000 </r>
        <r>  0.0007  0.0000  0.0000  0.0000  0.0000  0.0000  0.0000  0.0000  0.0000 </r>
        <r>  0.2747  0.0000  0.0050  0.0000  0.0000  0.0000  0.0000  0.0000  0.0000 </r>
        <r>  0.2747  0.0000  0.0050  0.0000  0.0000  0.0000  0.0000  0.0000  0.0000 </r>
        <r>  0.0007  0.0000  0.0000  0.0000  0.0000  0.0000  0.0000  0.0000  0.0000 </r>
       </set>
       <set comment="band 2">
        <r>  0.0000  0.0000  0.0001  0.0000  0.0000  0.0000  0.0000  0.0000  0.0000 </r>
        <r>  0.1304  0.0000  0.0000  0.0000  0.0000  0.0000  0.0002  0.0000  0.0000 </r>
        <r>  0.2747  0.0000  0.0050  0.0000  0.0000  0.0000  0.0000  0.0000  0.0000 </r>
        <r>  0.0007  0.0000  0.0000  0.0000  0.0000  0.0000  0.0000  0.0000  0.0000 </r>
        <r>  0.0007  0.0000  0.0000  0.0000  0.0000  0.0000  0.0000  0.0000  0.0000 </r>
        <r>  0.2747  0.0000  0.0050  0.0000  0.0000  0.0000  0.0000  0.0000  0.0000 </r>
       </set>
       <set comment="band 3">
        <r>  0.0000  0.0000  0.0591  0.0000  0.0000  0.0000  0.0000  0.0000  0.0000 </r>
        <r>  0.0006  0.0000  0.0000  0.0000  0.0000  0.0000  0.0000  0.0000  0.0000 </r>
        <r>  0.0008  0.0000  0.0001  0.0000  0.0000  0.0000  0.0000  0.0000  0.0000 </r>
        <r>  0.3145  0.0000  0.0004  0.0000  0.0000  0.0000  0.0000  0.0000  0.0000 </r>
        <r>  0.3145  0.0000  0.0004  0.0000  0.0000  0.0000  0.0000  0.0000  0.0000 </r>
        <r>  0.0008  0.0000  0.0001  0.0000  0.0000  0.0000  0.0000  0.0000  0.0000 </r>
       </set>
       <set comment="band 4">
        <r>  0.0006  0.0000  0.0000  0.0000  0.0000  0.0000  0.0000  0.0000  0.0000 </r>
        <r>  0.0000  0.0000  0.0591  0.0000  0.0000  0.0000  0.0000  0.0000  0.0000 </r>
        <r>  0.3145  0.0000  0.0004  0.0000  0.0000  0.0000  0.0000  0.0000  0.0000 </r>
        <r>  0.0008  0.0000  0.0001  0.0000  0.0000  0.0000  0.0000  0.0000  0.0000 </r>
        <r>  0.0008  0.0000  0.0001  0.0000  0.0000  0.0000  0.0000  0.0000  0.0000 </r>
        <r>  0.3145  0.0000  0.0004  0.0000  0.0000  0.0000  0.0000  0.0000  0.0000 </r>
       </set>
       <set comment="band 5">
        <r>  0.1273  0.0000  0.0000  0.0000  0.0000  0.0000  0.1990  0.0000  0.0000 </r>
        <r>  0.0000  0.0000  0.0007  0.0000  0.0000  0.0000  0.0000  0.0000  0.0000 </r>
        <r>  0.0004  0.0000  0.0016  0.0000  0.0000  0.0000  0.0000  0.0000  0.0000 </r>
        <r>  0.0172  0.0000  0.1247  0.0000  0.0000  0.0000  0.0000  0.0000  0.0000 </r>
        <r>  0.0172  0.0000  0.1247  0.0000  0.0000  0.0000  0.0000  0.0000  0.0000 </r>
        <r>  0.0004  0.0000  0.0016  0.0000  0.0000  0.0000  0.0000  0.0000  0.0000 </r>
       </set>
       <set comment="band 6">
        <r>  0.0000  0.0000  0.0007  0.0000  0.0000  0.0000  0.0000  0.0000  0.0000 </r>
        <r>  0.1273  0.0000  0.0000  0.0000  0.0000  0.0000  0.1990  0.0000  0.0000 </r>
        <r>  0.0172  0.0000  0.1247  0.0000  0.0000  0.0000  0.0000  0.0000  0.0000 </r>
        <r>  0.0004  0.0000  0.0016  0.0000  0.0000  0.0000  0.0000  0.0000  0.0000 </r>
        <r>  0.0004  0.0000  0.0016  0.0000  0.0000  0.0000  0.0000  0.0000  0.0000 </r>
        <r>  0.0172  0.0000  0.1247  0.0000  0.0000  0.0000  0.0000  0.0000  0.0000 </r>
       </set>
       <set comment="band 7">
        <r>  0.0000  0.0003  0.0000  0.0064  0.5738  0.0000  0.0000  0.0000  0.0224 </r>
        <r>  0.0000  0.0000  0.0000  0.0000  0.0001  0.0000  0.0000  0.0000  0.0001 </r>
        <r>  0.0000  0.0000  0.0000  0.0000  0.0000  0.0000  0.0000  0.0000  0.0000 </r>
        <r>  0.0000  0.0043  0.0000  0.1093  0.0000  0.0000  0.0000  0.0000  0.0000 </r>
        <r>  0.0000  0.0043  0.0000  0.1093  0.0000  0.0000  0.0000  0.0000  0.0000 </r>
        <r>  0.0000  0.0000  0.0000  0.0000  0.0000  0.0000  0.0000  0.0000  0.0000 </r>
       </set>
       <set comment="band 8">
        <r>  0.0000  0.0000  0.0000  0.0000  0.0001  0.0000  0.0000  0.0000  0.0001 </r>
        <r>  0.0000  0.0002  0.0000  0.0064  0.5741  0.0000  0.0000  0.0000  0.0221 </r>
        <r>  0.0000  0.0042  0.0000  0.1094  0.0000  0.0000  0.0000  0.0000  0.0000 </r>
        <r>  0.0000  0.0000  0.0000  0.0000  0.0000  0.0000  0.0000  0.0000  0.0000 </r>
        <r>  0.0000  0.0000  0.0000  0.0000  0.0000  0.0000  0.0000  0.0000  0.0000 </r>
        <r>  0.0000  0.0042  0.0000  0.1094  0.0000  0.0000  0.0000  0.0000  0.0000 </r>
       </set>
       <set comment="band 9">
        <r>  0.0000  0.0064  0.0000  0.0003  0.0224  0.0000  0.0000  0.0000  0.5738 </r>
        <r>  0.0000  0.0000  0.0000  0.0000  0.0001  0.0000  0.0000  0.0000  0.0001 </r>
        <r>  0.0000  0.0000  0.0000  0.0000  0.0000  0.0000  0.0000  0.0000  0.0000 </r>
        <r>  0.0000  0.1093  0.0000  0.0043  0.0000  0.0000  0.0000  0.0000  0.0000 </r>
        <r>  0.0000  0.1093  0.0000  0.0043  0.0000  0.0000  0.0000  0.0000  0.0000 </r>
        <r>  0.0000  0.0000  0.0000  0.0000  0.0000  0.0000  0.0000  0.0000  0.0000 </r>
       </set>
       <set comment="band 10">
        <r>  0.0000  0.0000  0.0000  0.0000  0.0001  0.0000  0.0000  0.0000  0.0001 </r>
        <r>  0.0000  0.0064  0.0000  0.0002  0.0222  0.0000  0.0000  0.0000  0.5741 </r>
        <r>  0.0000  0.1094  0.0000  0.0042  0.0000  0.0000  0.0000  0.0000  0.0000 </r>
        <r>  0.0000  0.0000  0.0000  0.0000  0.0000  0.0000  0.0000  0.0000  0.0000 </r>
        <r>  0.0000  0.0000  0.0000  0.0000  0.0000  0.0000  0.0000  0.0000  0.0000 </r>
        <r>  0.0000  0.1094  0.0000  0.0042  0.0000  0.0000  0.0000  0.0000  0.0000 </r>
       </set>
       <set comment="band 11">
        <r>  0.0000  0.0000  0.0509  0.0000  0.0000  0.0000  0.0000  0.0000  0.0000 </r>
        <r>  0.0004  0.0000  0.0000  0.0000  0.0000  0.0000  0.0568  0.0000  0.0000 </r>
        <r>  0.0011  0.0000  0.0002  0.0000  0.0000  0.0000  0.0000  0.0000  0.0000 </r>
        <r>  0.0004  0.0000  0.2259  0.0000  0.0000  0.0000  0.0000  0.0000  0.0000 </r>
        <r>  0.0004  0.0000  0.2259  0.0000  0.0000  0.0000  0.0000  0.0000  0.0000 </r>
        <r>  0.0011  0.0000  0.0003  0.0000  0.0000  0.0000  0.0000  0.0000  0.0000 </r>
       </set>
       <set comment="band 12">
        <r>  0.0004  0.0000  0.0000  0.0000  0.0000  0.0000  0.0568  0.0000  0.0000 </r>
        <r>  0.0000  0.0000  0.0509  0.0000  0.0000  0.0000  0.0000  0.0000  0.0000 </r>
        <r>  0.0004  0.0000  0.2259  0.0000  0.0000  0.0000  0.0000  0.0000  0.0000 </r>
        <r>  0.0011  0.0000  0.0003  0.0000  0.0000  0.0000  0.0000  0.0000  0.0000 </r>
        <r>  0.0011  0.0000  0.0002  0.0000  0.0000  0.0000  0.0000  0.0000  0.0000 </r>
        <r>  0.0004  0.0000  0.2259  0.0000  0.0000  0.0000  0.0000  0.0000  0.0000 </r>
       </set>
       <set comment="band 13">
        <r>  0.0000  0.0000  0.0000  0.0000  0.0000  0.4897  0.0000  0.0546  0.0000 </r>
        <r>  0.0000  0.0000  0.0000  0.0000  0.0000  0.0000  0.0000  0.0000  0.0000 </r>
        <r>  0.0000  0.0000  0.0000  0.0000  0.0000  0.0000  0.0000  0.0000  0.0000 </r>
        <r>  0.0000  0.1363  0.0000  0.0152  0.0000  0.0000  0.0000  0.0000  0.0000 </r>
        <r>  0.0000  0.1363  0.0000  0.0152  0.0000  0.0000  0.0000  0.0000  0.0000 </r>
        <r>  0.0000  0.0000  0.0000  0.0000  0.0000  0.0000  0.0000  0.0000  0.0000 </r>
       </set>
       <set comment="band 14">
        <r>  0.0000  0.0000  0.0000  0.0000  0.0000  0.0000  0.0000  0.0000  0.0000 </r>
        <r>  0.0000  0.0000  0.0000  0.0000  0.0000  0.5200  0.0000  0.0243  0.0000 </r>
        <r>  0.0000  0.1447  0.0000  0.0068  0.0000  0.0000  0.0000  0.0000  0.0000 </r>
        <r>  0.0000  0.0000  0.0000  0.0000  0.0000  0.0000  0.0000  0.0000  0.0000 </r>
        <r>  0.0000  0.0000  0.0000  0.0000  0.0000  0.0000  0.0000  0.0000  0.0000 </r>
        <r>  0.0000  0.1448  0.0000  0.0068  0.0000  0.0000  0.0000  0.0000  0.0000 </r>
       </set>
       <set comment="band 15">
        <r>  0.0000  0.0000  0.0000  0.0000  0.0000  0.0000  0.0000  0.0001  0.0000 </r>
        <r>  0.0000  0.0000  0.0000  0.0000  0.0000  0.0243  0.0000  0.5200  0.0000 </r>
        <r>  0.0000  0.0068  0.0000  0.1447  0.0000  0.0000  0.0000  0.0000  0.0000 </r>
        <r>  0.0000  0.0000  0.0000  0.0000  0.0000  0.0000  0.0000  0.0000  0.0000 </r>
        <r>  0.0000  0.0000  0.0000  0.0000  0.0000  0.0000  0.0000  0.0000  0.0000 </r>
        <r>  0.0000  0.0068  0.0000  0.1447  0.0000  0.0000  0.0000  0.0000  0.0000 </r>
       </set>
       <set comment="band 16">
        <r>  0.0000  0.0000  0.0000  0.0000  0.0000  0.0546  0.0000  0.4897  0.0000 </r>
        <r>  0.0000  0.0000  0.0000  0.0000  0.0000  0.0000  0.0000  0.0001  0.0000 </r>
        <r>  0.0000  0.0000  0.0000  0.0000  0.0000  0.0000  0.0000  0.0000  0.0000 </r>
        <r>  0.0000  0.0152  0.0000  0.1363  0.0000  0.0000  0.0000  0.0000  0.0000 </r>
        <r>  0.0000  0.0152  0.0000  0.1363  0.0000  0.0000  0.0000  0.0000  0.0000 </r>
        <r>  0.0000  0.0000  0.0000  0.0000  0.0000  0.0000  0.0000  0.0000  0.0000 </r>
       </set>
       <set comment="band 17">
        <r>  0.0189  0.0000  0.0000  0.0000  0.0000  0.0000  0.5602  0.0000  0.0000 </r>
        <r>  0.0000  0.0000  0.0046  0.0000  0.0000  0.0000  0.0000  0.0000  0.0000 </r>
        <r>  0.0003  0.0000  0.0257  0.0000  0.0000  0.0000  0.0000  0.0000  0.0000 </r>
        <r>  0.0041  0.0000  0.0736  0.0000  0.0000  0.0000  0.0000  0.0000  0.0000 </r>
        <r>  0.0042  0.0000  0.0742  0.0000  0.0000  0.0000  0.0000  0.0000  0.0000 </r>
        <r>  0.0003  0.0000  0.0262  0.0000  0.0000  0.0000  0.0000  0.0000  0.0000 </r>
       </set>
       <set comment="band 18">
        <r>  0.0000  0.0000  0.0046  0.0000  0.0000  0.0000  0.0000  0.0000  0.0000 </r>
        <r>  0.0189  0.0000  0.0000  0.0000  0.0000  0.0000  0.5602  0.0000  0.0000 </r>
        <r>  0.0042  0.0000  0.0742  0.0000  0.0000  0.0000  0.0000  0.0000  0.0000 </r>
        <r>  0.0003  0.0000  0.0262  0.0000  0.0000  0.0000  0.0000  0.0000  0.0000 </r>
        <r>  0.0003  0.0000  0.0257  0.0000  0.0000  0.0000  0.0000  0.0000  0.0000 </r>
        <r>  0.0041  0.0000  0.0736  0.0000  0.0000  0.0000  0.0000  0.0000  0.0000 </r>
       </set>
       <set comment="band 19">
        <r>  0.0000  0.0001  0.0000  0.0000  0.0001  0.1922  0.0000  0.0029  0.0013 </r>
        <r>  0.0000  0.0000  0.0000  0.0000  0.0000  0.1305  0.0000  0.0284  0.0007 </r>
        <r>  0.0000  0.0700  0.0000  0.0159  0.0000  0.0000  0.0000  0.0000  0.0000 </r>
        <r>  0.0000  0.1073  0.0000  0.0017  0.0000  0.0000  0.0000  0.0000  0.0000 </r>
        <r>  0.0000  0.0952  0.0000  0.0014  0.0000  0.0000  0.0000  0.0000  0.0000 </r>
        <r>  0.0000  0.0672  0.0000  0.0138  0.0000  0.0000  0.0000  0.0000  0.0000 </r>
       </set>
       <set comment="band 20">
        <r>  0.0000  0.0000  0.0000  0.0005  0.0079  0.0480  0.0000  0.0891  0.0005 </r>
        <r>  0.0000  0.0003  0.0000  0.0001  0.0016  0.1140  0.0000  0.0885  0.0043 </r>
        <r>  0.0000  0.0450  0.0000  0.0553  0.0000  0.0000  0.0000  0.0000  0.0000 </r>
        <r>  0.0000  0.0271  0.0000  0.0714  0.0000  0.0000  0.0000  0.0000  0.0000 </r>
        <r>  0.0000  0.0239  0.0000  0.0334  0.0000  0.0000  0.0000  0.0000  0.0000 </r>
        <r>  0.0000  0.0805  0.0000  0.0392  0.0000  0.0000  0.0000  0.0000  0.0000 </r>
       </set>
       <set comment="band 21">
        <r>  0.0000  0.0001  0.0000  0.0003  0.0047  0.0832  0.0000  0.0726  0.0016 </r>
        <r>  0.0000  0.0009  0.0000  0.0021  0.0337  0.0839  0.0000  0.0519  0.0147 </r>
        <r>  0.0000  0.0253  0.0000  0.0223  0.0000  0.0000  0.0000  0.0000  0.0000 </r>
        <r>  0.0000  0.0418  0.0000  0.0527  0.0000  0.0000  0.0000  0.0000  0.0000 </r>
        <r>  0.0000  0.0472  0.0000  0.0310  0.0000  0.0000  0.0000  0.0000  0.0000 </r>
        <r>  0.0000  0.0843  0.0000  0.0829  0.0000  0.0000  0.0000  0.0000  0.0000 </r>
       </set>
       <set comment="band 22">
        <r>  0.0000  0.0015  0.0000  0.0035  0.0556  0.0027  0.0000  0.0709  0.0235 </r>
        <r>  0.0000  0.0038  0.0000  0.0022  0.0344  0.0007  0.0000  0.0755  0.0603 </r>
        <r>  0.0000  0.0379  0.0000  0.0653  0.0000  0.0000  0.0000  0.0000  0.0000 </r>
        <r>  0.0000  0.0290  0.0000  0.1490  0.0000  0.0000  0.0000  0.0000  0.0000 </r>
        <r>  0.0000  0.0095  0.0000  0.0098  0.0000  0.0000  0.0000  0.0000  0.0000 </r>
        <r>  0.0000  0.0545  0.0000  0.0672  0.0000  0.0000  0.0000  0.0000  0.0000 </r>
       </set>
      </set>
     </set>
    </set>
   </array>
  </projected>
 </calculation>
 <structure name="finalpos" >
  <crystal>
   <varray name="basis" >
    <v>       3.19227375       0.00000000       0.00000000 </v>
    <v>      -1.59613687       2.76459035       0.00000000 </v>
    <v>       0.00000000       0.00000000      13.28154876 </v>
   </varray>
   <i name="volume">    117.21403994 </i>
   <varray name="rec_basis" >
    <v>       0.31325634       0.18085862       0.00000000 </v>
    <v>      -0.00000000       0.36171724       0.00000000 </v>
    <v>       0.00000000       0.00000000       0.07529242 </v>
   </varray>
  </crystal>
  <varray name="positions" >
   <v>       0.33333300       0.66666700       0.25000000 </v>
   <v>       0.66666700       0.33333300       0.75000000 </v>
   <v>       0.33333300       0.66666700       0.86743573 </v>
   <v>       0.66666700       0.33333300       0.13256427 </v>
   <v>       0.66666600       0.33333300       0.36743573 </v>
   <v>       0.33333400       0.66666700       0.63256427 </v>
  </varray>
 </structure>
</modeling>
