unknown system                          
   1.00000000000000     
     3.190316    0.000000    0.000000
    -1.595158    2.762894    0.000000
     0.000000    0.000000   14.879004
   Mo   S 
     2     4
Direct
  0.333333  0.666667  0.250000
  0.666667  0.333333  0.750000
  0.333333  0.666667  0.855174
  0.666667  0.333333  0.144826
  0.666666  0.333333  0.355174
  0.333334  0.666667  0.644826
 
   24   24  108
 0.35666     0.36691     0.39709     0.44573     0.51048     0.58709     0.66879     0.74799     0.81927     0.88030    
 0.92929     0.96228     0.97409     0.96225     0.92923     0.88022     0.81917     0.74789     0.66871     0.58702    
 0.51043     0.44569     0.39707     0.36690     0.36730     0.36713     0.38748     0.42663     0.48155     0.54995    
 0.62909     0.71271     0.79182     0.85959     0.91370     0.95328     0.97551     0.97641     0.95412     0.91074    
 0.85159     0.78283     0.70877     0.63172     0.55486     0.48434     0.42716     0.38763     0.39848     0.38787    
 0.39777     0.42834     0.47504     0.53304     0.60138     0.67933     0.76089     0.83681     0.90040     0.94864    
 0.97939     0.99074     0.98147     0.95049     0.89820     0.83000     0.75519     0.68043     0.60694     0.53623    
 0.47429     0.42755     0.44762     0.42813     0.42640     0.44666     0.48682     0.53860     0.59730     0.66424    
 0.73862     0.81397     0.88347     0.94222     0.98433      1.0048      1.0042     0.98568     0.94783     0.88878    
 0.81521     0.73937     0.66730     0.59819     0.53431     0.48282     0.51043     0.48561     0.47362     0.48039    
 0.51046     0.55698     0.61048     0.66986     0.73654     0.80581     0.87211     0.93437     0.98810      1.0216    
  1.0285      1.0152     0.98809     0.94365     0.87979     0.80678     0.73644     0.66987     0.60553     0.54997    
 0.58241     0.55491     0.53762     0.53205     0.54787     0.58474     0.63155     0.68392     0.74544     0.81235    
 0.87480     0.93224     0.98923      1.0369      1.0580      1.0501      1.0259     0.99036     0.93814     0.87242    
 0.80666     0.74590     0.68504     0.62671     0.66028     0.62942     0.61117     0.59920     0.60204     0.62694    
 0.66455     0.70558     0.75594     0.81945     0.88333     0.93723     0.98856      1.0417      1.0799      1.0867    
  1.0680      1.0369     0.99273     0.93353     0.87136     0.81714     0.76503     0.70917     0.74098     0.70533    
 0.68618     0.67303     0.66743     0.68163     0.71249     0.74449     0.77801     0.82677     0.88782     0.94274    
 0.98806      1.0355      1.0816      1.1056      1.1005      1.0781      1.0438     0.99265     0.93225     0.87995    
 0.83690     0.79013     0.81917     0.78122     0.75941     0.74676     0.73652     0.73994     0.76439     0.79505    
 0.81922     0.84816     0.89398     0.94551     0.98808      1.0269      1.0687      1.1007      1.1085      1.0973    
  1.0764      1.0406     0.98809     0.93579     0.89680     0.86131     0.88672     0.85339     0.83022     0.81850    
 0.80779     0.80122     0.81296     0.84022     0.86481     0.88352     0.91056     0.94914     0.98663      1.0187    
  1.0524      1.0834      1.0971      1.0922      1.0802      1.0612      1.0262     0.98109     0.94398     0.91685    
 0.93626     0.91403     0.89472     0.88534     0.87910     0.87017     0.86790     0.88097     0.90107     0.91712    
 0.93280     0.95572     0.98217      1.0065      1.0319      1.0589      1.0757      1.0747      1.0645      1.0534    
  1.0355      1.0061     0.97586     0.95452     0.96494     0.95553     0.94591     0.94142     0.94154     0.93954    
 0.93456     0.93320     0.93816     0.94541     0.95309     0.96360     0.97658     0.98934      1.0038      1.0226    
  1.0397      1.0451      1.0390      1.0296      1.0198      1.0056     0.98805     0.97412     0.97409     0.97510    
 0.97797     0.98241     0.98812     0.99387     0.99702     0.99501     0.98816     0.98022     0.97525     0.97395    
 0.97401     0.97389     0.97515     0.98012     0.98808     0.99496     0.99699     0.99384     0.98810     0.98241    
 0.97798     0.97511     0.96497     0.97413     0.98806      1.0056      1.0198      1.0297      1.0390      1.0452    
  1.0397      1.0227      1.0039     0.98945     0.97664     0.96360     0.95303     0.94532     0.93808     0.93315    
 0.93454     0.93954     0.94155     0.94145     0.94595     0.95557     0.93632     0.95456     0.97589      1.0062    
  1.0355      1.0534      1.0645      1.0748      1.0758      1.0590      1.0320      1.0066     0.98228     0.95578    
 0.93280     0.91707     0.90100     0.88092     0.86788     0.87018     0.87913     0.88539     0.89479     0.91410    
 0.88681     0.91692     0.94404     0.98114      1.0262      1.0613      1.0803      1.0923      1.0972      1.0835    
  1.0525      1.0188     0.98673     0.94923     0.91061     0.88352     0.86478     0.84018     0.81294     0.80123    
 0.80782     0.81855     0.83030     0.85348     0.81927     0.86140     0.89688     0.93586     0.98815      1.0407    
  1.0765      1.0974      1.1086      1.1008      1.0688      1.0269     0.98816     0.94558     0.89404     0.84819    
 0.81922     0.79503     0.76437     0.73994     0.73654     0.74681     0.75949     0.78131     0.74108     0.79024    
 0.83700     0.88004     0.93233     0.99273      1.0438      1.0782      1.1006      1.1057      1.0817      1.0356    
 0.98810     0.94279     0.88787     0.82681     0.77803     0.74449     0.71248     0.68163     0.66745     0.67307    
 0.68624     0.70541     0.66036     0.70927     0.76514     0.81724     0.87146     0.93362     0.99280      1.0369    
  1.0681      1.0868      1.0800      1.0417     0.98859     0.93725     0.88335     0.81947     0.75596     0.70559    
 0.66455     0.62694     0.60204     0.59922     0.61122     0.62949     0.58248     0.62680     0.68514     0.74601    
 0.80678     0.87252     0.93823     0.99043      1.0260      1.0502      1.0580      1.0370     0.98926     0.93224    
 0.87479     0.81235     0.74544     0.68392     0.63156     0.58474     0.54788     0.53207     0.53765     0.55496    
 0.51048     0.55004     0.60562     0.66997     0.73655     0.80690     0.87989     0.94373     0.98815      1.0152    
  1.0285      1.0216     0.98812     0.93436     0.87207     0.80577     0.73652     0.66985     0.61047     0.55698    
 0.51046     0.48040     0.47364     0.48565     0.44765     0.48287     0.53438     0.59828     0.66740     0.73948    
 0.81532     0.88887     0.94790     0.98573      1.0043      1.0048     0.98434     0.94219     0.88342     0.81391    
 0.73857     0.66420     0.59728     0.53859     0.48681     0.44666     0.42641     0.42816     0.39850     0.42759    
 0.47434     0.53631     0.60703     0.68053     0.75530     0.83010     0.89829     0.95055     0.98151     0.99075    
 0.97937     0.94860     0.90034     0.83673     0.76082     0.67927     0.60133     0.53301     0.47502     0.42833    
 0.39777     0.38788     0.36731     0.38765     0.42720     0.48440     0.55493     0.63181     0.70887     0.78293    
 0.85169     0.91081     0.95417     0.97642     0.97549     0.95324     0.91363     0.85950     0.79173     0.71263    
 0.62903     0.54990     0.48152     0.42661     0.38747     0.36713     0.38979     0.40064     0.43235     0.48293    
 0.54972     0.62863     0.71338     0.79683     0.87360     0.94081     0.99563      1.0328      1.0460      1.0324    
 0.99507     0.94037     0.87348     0.79699     0.71361     0.62873     0.54966     0.48282     0.43228     0.40062    
 0.40103     0.40085     0.42441     0.46934     0.53184     0.60929     0.69910     0.79514     0.88817     0.97054    
  1.0385      1.0891      1.1176      1.1184      1.0898      1.0354     0.96246     0.87921     0.79130     0.70181    
 0.61422     0.53459     0.46983     0.42456     0.43373     0.42047     0.43296     0.47098     0.52911     0.60182    
 0.68804     0.78689     0.89168     0.99181      1.0787      1.1469      1.1914      1.2078      1.1937      1.1492    
  1.0768     0.98501     0.88576     0.78776     0.69351     0.60500     0.52834     0.47023     0.48481     0.45847    
 0.45667     0.48375     0.53700     0.60728     0.68959     0.78513     0.89224      1.0024      1.1063      1.1957    
  1.2613      1.2947      1.2943      1.2631      1.2018      1.1118      1.0035     0.89264     0.78807     0.69052    
 0.60300     0.53300     0.54966     0.51252     0.49622     0.50716     0.54970     0.61628     0.69690     0.79048    
 0.89789      1.0123      1.1247      1.2299      1.3192      1.3762      1.3912      1.3696      1.3191      1.2393    
  1.1323      1.0131     0.89781     0.79074     0.69206     0.60915     0.62394     0.57742     0.55039     0.54467    
 0.57027     0.62652     0.70165     0.79116     0.89856      1.0186      1.1376      1.2505      1.3564      1.4407    
  1.4812      1.4730      1.4290      1.3572      1.2564      1.1352      1.0129     0.89942     0.79255     0.69662    
 0.70485     0.64705     0.61260     0.59498     0.60315     0.64464     0.70957     0.78820     0.88652      1.0076    
  1.1356      1.2553      1.3680      1.4718      1.5434      1.5616      1.5309      1.4667      1.3723      1.2516    
  1.1235      1.0055     0.89598     0.79170     0.78980     0.71833     0.67554     0.65038     0.64446     0.67064    
 0.72577     0.79369     0.87455     0.98192      1.1108      1.2382      1.3546      1.4651      1.5589      1.6085    
  1.6032      1.5553      1.4739      1.3596      1.2275      1.1026     0.99220     0.88680     0.87348     0.79059    
 0.73685     0.70500     0.68801     0.69763     0.74168     0.80477     0.87353     0.95916      1.0728      1.1996    
  1.3191      1.4299      1.5316      1.6033      1.6248      1.5998      1.5397      1.4444      1.3191      1.1892    
  1.0754     0.97262     0.94723     0.86055     0.79683     0.75796     0.73336     0.72644     0.75206     0.80707    
 0.87215     0.94354      1.0352      1.1479      1.2642      1.3734      1.4754      1.5582      1.5996      1.5944    
  1.5547      1.4846      1.3811      1.2582      1.1423      1.0418      1.0026     0.92035     0.85250     0.80767    
 0.77966     0.76306     0.76806     0.80342     0.85936     0.92329     0.99842      1.0912      1.1944      1.2967    
  1.3949      1.4823      1.5391      1.5517      1.5271      1.4764      1.3987      1.2962      1.1877      1.0902    
  1.0354     0.96188     0.89741     0.84973     0.81990     0.80220     0.79692     0.81135     0.84701     0.89740    
 0.95906      1.0336      1.1183      1.2062      1.2936      1.3772      1.4435      1.4754      1.4687      1.4329    
  1.3746      1.2958      1.2047      1.1158      1.0460     0.98164     0.92585     0.88093     0.84910     0.83099    
 0.82554     0.83160     0.84915     0.87934     0.92331     0.98015      1.0459      1.1158      1.1869      1.2569    
  1.3191      1.3623      1.3768      1.3607      1.3192      1.2598      1.1900      1.1167      1.0351     0.98060    
 0.93482     0.89911     0.86971     0.84823     0.84077     0.84650     0.85775     0.87269     0.89772     0.93602    
 0.98300      1.0343      1.0889      1.1434      1.1914      1.2287      1.2529      1.2576      1.2369      1.1953    
  1.1446      1.0911      1.0022     0.96075     0.92394     0.89981     0.88153     0.86205     0.84891     0.85034    
 0.85957     0.86738     0.87823     0.90008     0.92990     0.96211     0.99937      1.0420      1.0794      1.1036    
  1.1203      1.1329      1.1312      1.1082      1.0736      1.0389     0.94703     0.92313     0.89585     0.87995    
 0.87601     0.86966     0.85834     0.85404     0.85868     0.86136     0.86116     0.86882     0.88506     0.90057    
 0.91707     0.94417     0.97595     0.99533      1.0014      1.0075      1.0138      1.0067     0.98559     0.96472    
 0.87360     0.86857     0.85493     0.84456     0.84915     0.85881     0.86038     0.85892     0.86210     0.86221    
 0.85299     0.84564     0.84915     0.85371     0.85182     0.85554     0.87353     0.89149     0.89528     0.89360    
 0.89789     0.89999     0.89023     0.87802     0.79015     0.79972     0.80366     0.80253     0.81077     0.82967    
 0.84529     0.85361     0.86199     0.86695     0.85702     0.83746     0.82542     0.82109     0.81010     0.79353    
 0.78752     0.79318     0.79489     0.78926     0.78846     0.79381     0.79358     0.78805     0.70521     0.72240    
 0.74241     0.75648     0.77189     0.79624     0.82146     0.83861     0.85220     0.86457     0.86367     0.84313    
 0.81737     0.79997     0.78377     0.75891     0.73351     0.71858     0.70898     0.69686     0.68872     0.69158    
 0.69766     0.69950     0.62416     0.64449     0.67430     0.70391     0.73209     0.76533     0.80071     0.82745    
 0.84459     0.85897     0.86652     0.85505     0.82602     0.79468     0.76753     0.73777     0.70373     0.67336    
 0.64911     0.62620     0.60714     0.60082     0.60629     0.61416     0.54972     0.57254     0.60693     0.64717    
 0.68804     0.73221     0.78006     0.82181     0.84915     0.86543     0.87495     0.87170     0.84910     0.81250    
 0.77212     0.73085     0.68801     0.64729     0.61192     0.57941     0.54970     0.53065     0.52766     0.53579    
 0.48480     0.50973     0.54709     0.59409     0.64468     0.69758     0.75462     0.81107     0.85617     0.88432    
 0.89795     0.89862     0.88328     0.85092     0.80581     0.75297     0.69630     0.64133     0.59312     0.55132    
 0.51369     0.48388     0.46911     0.47080     0.43371     0.45789     0.49692     0.54895     0.60830     0.66983    
 0.73287     0.79698     0.85630     0.90207     0.92916     0.93718     0.92722     0.90046     0.85867     0.80368    
 0.73822     0.66835     0.60247     0.54560     0.49759     0.45866     0.43304     0.42481     0.40102     0.42024    
 0.45749     0.51120     0.57728     0.64936     0.72201     0.79264     0.85921     0.91730     0.96036     0.98256    
 0.98154     0.95922     0.91996     0.86701     0.80155     0.72591     0.64666     0.57223     0.50825     0.45687    
 0.42008     0.40086     0.48690     0.49922     0.53504     0.59173     0.66644     0.75578     0.85468     0.95667    
  1.0558      1.1470      1.2238      1.2766      1.2953      1.2758      1.2227      1.1462      1.0557     0.95711    
 0.85524     0.75606     0.66637     0.59153     0.53492     0.49920     0.49961     0.49943     0.52747     0.58118    
 0.65674     0.75212     0.86567     0.99183      1.1206      1.2418      1.3471      1.4279      1.4732      1.4740    
  1.4284      1.3438      1.2336      1.1116     0.98804     0.86850     0.75712     0.65948     0.58163     0.52761    
 0.53643     0.52015     0.53558     0.58275     0.65678     0.75305     0.87158      1.0120      1.1667      1.3219    
  1.4641      1.5807      1.6587      1.6872      1.6613      1.5834      1.4625      1.3151      1.1604      1.0126    
 0.87699     0.75622     0.65599     0.58205     0.59362     0.55975     0.55784     0.59243     0.66183     0.75845    
 0.87897      1.0256      1.1959      1.3780      1.5565      1.7154      1.8356      1.8992      1.8988      1.8377    
  1.7221      1.5623      1.3787      1.1959      1.0285     0.87995     0.75413     0.65781     0.66637     0.61527    
 0.59448     0.60970     0.66642     0.75912     0.88025      1.0307      1.2114      1.4125      1.6185      1.8155    
  1.9834      2.0939      2.1277      2.0870      1.9833      1.8251      1.6261      1.4130      1.2114      1.0313    
 0.87548     0.75181     0.75104     0.68161     0.64419     0.63826     0.67429     0.75392     0.86834      1.0160    
  1.2017      1.4185      1.6467      1.8717      2.0808      2.2451      2.3291      2.3203      2.2326      2.0814    
  1.8777      1.6442      1.4129      1.2031      1.0177     0.86306     0.84604     0.75364     0.70107     0.67763    
 0.69120     0.75128     0.85129     0.98503      1.1612      1.3828      1.6293      1.8763      2.1132      2.3227    
  2.4658      2.5088      2.4526      2.3173      2.1178      1.8727      1.6169      1.3808      1.1711     0.98845    
 0.94955     0.82951     0.75889     0.72123     0.71490     0.75355     0.83730     0.95387      1.1071      1.3121    
  1.5613      1.8238      2.0784      2.3155      2.5070      2.6098      2.6042      2.5034      2.3248      2.0839    
  1.8127      1.5526      1.3226      1.1196      1.0557     0.90935     0.81626     0.76398     0.74038     0.75594    
 0.82097     0.92401      1.0557      1.2304      1.4587      1.7200      1.9833      2.2334      2.4531      2.6044    
  2.6537      2.6007      2.4618      2.2488      1.9833      1.7088      1.4610      1.2443      1.1535     0.98961    
 0.87413     0.80544     0.76738     0.76003     0.79907     0.88473      1.0015      1.1493      1.3436      1.5823    
  1.8392      2.0912      2.3229      2.5053      2.6005      2.5950      2.5015      2.3326      2.0992      1.8325    
  1.5761      1.3507      1.2309      1.0609     0.92969     0.84462     0.79516     0.77158     0.78305     0.84048    
 0.93719      1.0637      1.2259      1.4296      1.6620      1.9015      2.1317      2.3302      2.4613      2.4994    
  2.4484      2.3240      2.1359      1.9009      1.6547      1.4288      1.2792      1.1125     0.97600     0.87804    
 0.81772     0.78562     0.77997     0.80888     0.87590     0.97651      1.1093      1.2768      1.4737      1.6855    
  1.8980      2.0950      2.2480      2.3265      2.3193      2.2366      2.0925      1.9005      1.6837      1.4709    
  1.2953      1.1382      1.0062     0.90328     0.83198     0.79116     0.77795     0.79120     0.83202     0.90231    
  1.0038      1.1364      1.2952      1.4712      1.6539      1.8308      1.9833      2.0870      2.1224      2.0848    
  1.9834      1.8345      1.6572      1.4718      1.2786      1.1371      1.0160     0.91849     0.84250     0.79005    
 0.76684     0.77214     0.79904     0.84564     0.91740      1.0170      1.1394      1.2783      1.4276      1.5770    
  1.7109      1.8142      1.8743      1.8788      1.8224      1.7155      1.5787      1.4295      1.2300      1.1112    
  1.0044     0.91929     0.85068     0.79350     0.75670     0.74972     0.76684     0.79865     0.84760     0.91941    
  1.0100      1.1128      1.2279      1.3509      1.4648      1.5538      1.6139      1.6416      1.6247      1.5586    
  1.4595      1.3475      1.1530      1.0636     0.97478     0.90261     0.84871     0.80088     0.75934     0.73875    
 0.74318     0.76219     0.79268     0.84169     0.90723     0.97901      1.0578      1.1506      1.2475      1.3256    
  1.3769      1.4075      1.4135      1.3818      1.3160      1.2362      1.0558     0.99772     0.93246     0.87326    
 0.83202     0.80022     0.76775     0.74345     0.73840     0.74665     0.76068     0.78759     0.83202     0.88187    
 0.92904     0.98478      1.0557      1.1241      1.1704      1.1973      1.2114      1.2033      1.1652      1.1107    
 0.95017     0.91866     0.88108     0.83962     0.80859     0.78962     0.77111     0.75287     0.74639     0.75121    
 0.75622     0.76363     0.78574     0.81885     0.84698     0.87094     0.90636     0.95281     0.99154      1.0145    
  1.0291      1.0342      1.0185     0.98491     0.84672     0.83373     0.82169     0.80371     0.78720     0.77956    
 0.77399     0.76461     0.75980     0.76530     0.77082     0.76885     0.76999     0.78343     0.79916     0.80637    
 0.81301     0.82974     0.85005     0.86332     0.87229     0.88106     0.88105     0.86609     0.75143     0.75114    
 0.75742     0.76251     0.76584     0.77377     0.78392     0.78747     0.78643     0.79056     0.79785     0.79641    
 0.78577     0.77780     0.77593     0.77167     0.76274     0.75676     0.75563     0.75325     0.74988     0.75201    
 0.75740     0.75689     0.66644     0.67669     0.69523     0.71784     0.74041     0.76596     0.79516     0.81932    
 0.83202     0.83851     0.84452     0.84472     0.83198     0.81002     0.78701     0.76432     0.74038     0.71823    
 0.70040     0.68355     0.66642     0.65551     0.65526     0.66056     0.59354     0.61239     0.64080     0.67676    
 0.71542     0.75635     0.80190     0.84793     0.88451     0.90677     0.91748     0.91829     0.90612     0.87970    
 0.84281     0.79995     0.75464     0.71186     0.67582     0.64509     0.61640     0.59271     0.58094     0.58257    
 0.53637     0.55911     0.59515     0.64261     0.69656     0.75307     0.81240     0.87458     0.93379     0.98074    
  1.0093      1.0180      1.0075     0.97946     0.93651     0.88142     0.81760     0.75133     0.69054     0.63916    
 0.59581     0.55993     0.53576     0.52788     0.49960     0.51992     0.55872     0.61381     0.68131     0.75587    
 0.83335     0.91177     0.98866      1.0580      1.1109      1.1387      1.1376      1.1095      1.0605     0.99651    
 0.92088     0.83746     0.75325     0.67620     0.61076     0.55804     0.51977     0.49945     0.64184     0.65626    
 0.69880     0.76793     0.86236     0.98043      1.1182      1.2690      1.4239      1.5721      1.6990      1.7863    
  1.8172      1.7850      1.6973      1.5709      1.4238      1.2698      1.1192     0.98092     0.86228     0.76762    
 0.69861     0.65623     0.65666     0.65646     0.69057     0.75826     0.85847     0.99188      1.1586      1.3527    
  1.5611      1.7667      1.9512      2.0939      2.1734      2.1741      2.0942      1.9476      1.7583      1.5520    
  1.3490      1.1616     0.99701     0.86121     0.75866     0.69071     0.70023     0.67999     0.69926     0.75976    
 0.86046      1.0010      1.1843      1.4104      1.6684      1.9370      2.1909      2.4030      2.5458      2.5974    
  2.5487      2.4062      2.1896      1.9300      1.6617      1.4108      1.1897      1.0042     0.85964     0.75910    
 0.76985     0.72524     0.72319     0.76849     0.86352      1.0063      1.1985      1.4444      1.7388      2.0619    
  2.3857      2.6774      2.8998      3.0191      3.0189      2.9024      2.6847      2.3918      2.0624      1.7383    
  1.4471      1.1996      1.0019     0.85943     0.86228     0.78955     0.76226     0.78370     0.86233     0.99897    
  1.1928      1.4492      1.7685      2.1336      2.5159      2.8833      3.1946      3.4011      3.4684      3.3938    
  3.1945      2.8932      2.5236      2.1339      1.7685      1.4501      1.1881     0.99137     0.97558     0.86861    
 0.81518     0.80898     0.86105     0.97883      1.1614      1.4140      1.7441      2.1393      2.5678      2.9962    
  3.3891      3.6936      3.8531      3.8438      3.6802      3.3895      3.0023      2.5651      2.1338      1.7459    
  1.4161      1.1558      1.1094     0.95847     0.87667     0.84427     0.86627     0.95615      1.1153      1.3460    
  1.6626      2.0664      2.5265      3.0005      3.4550      3.8468      4.1112      4.1962      4.0970      3.8409    
  3.4599      2.9970      2.5138      2.0646      1.6731      1.3494      1.2618      1.0583     0.94141     0.88382    
 0.87701     0.93557      1.0665      1.2666      1.5476      1.9272      2.3908      2.8915      3.3860      3.8388    
  4.1942      4.3854      4.3795      4.1904      3.8489      3.3922      2.8800      2.3815      1.9380      1.5604    
  1.4238      1.1679      1.0087     0.92321     0.88929     0.91439      1.0133      1.1832      1.4238      1.7552    
  2.1859      2.6828      3.1945      3.6809      4.0975      4.3796      4.4745      4.3756      4.1068      3.6974    
  3.1945      2.6707      2.1880      1.7697      1.5787      1.2819      1.0795     0.96233     0.90320     0.89533    
 0.95542      1.0906      1.2942      1.5738      1.9474      2.4052      2.9042      3.3984      3.8466      4.1925    
  4.3755      4.3696      4.1884      3.8569      3.4069      2.8968      2.3983      1.9550      1.7062      1.3864    
  1.1498      1.0004     0.91815     0.88434     0.90540     0.99635      1.1581      1.3891      1.7002      2.0952    
  2.5494      3.0219      3.4728      3.8544      4.1064      4.1862      4.0926      3.8478      3.4773      3.0211    
  2.5414      2.0947      1.7890      1.4651      1.2104      1.0339     0.92876     0.87681     0.87072     0.91956    
  1.0324      1.2115      1.4613      1.7859      2.1735      2.5954      3.0179      3.4023      3.6967      3.8507    
  3.8428      3.6843      3.3998      3.0208      2.5934      2.1706      1.8172      1.5059      1.2511      1.0600    
 0.93312     0.86300     0.84040     0.86239     0.93314      1.0597      1.2489      1.5036      1.8171      2.1712    
  2.5405      2.8947      3.1945      3.3957      3.4647      3.3928      3.1946      2.8992      2.5442      2.1713    
  1.7879      1.5047      1.2648      1.0760     0.93702     0.84686     0.80614     0.81100     0.85530     0.94036    
  1.0753      1.2656      1.5069      1.7882      2.0936      2.3990      2.6726      2.8819      2.9989      3.0032    
  2.8901      2.6780      2.4014      2.0951      1.7048      1.4635      1.2496      1.0770     0.94283     0.84185    
 0.78043     0.76525     0.79004     0.84683     0.93997      1.0769      1.2546      1.4653      1.7034      1.9552    
  2.1916      2.3828      2.5110      2.5625      2.5216      2.3879      2.1868      1.9516      1.5778      1.3890    
  1.2095      1.0597     0.94318     0.84902     0.77733     0.74179     0.74602     0.78004     0.84112     0.93628    
  1.0638      1.2133      1.3834      1.5759      1.7728      1.9409      2.0607      2.1283      2.1341      2.0654    
  1.9313      1.7614      1.4239      1.2901      1.1530      1.0295     0.93315     0.85663     0.79110     0.74634    
 0.73422     0.74946     0.78432     0.84450     0.93314      1.0376      1.1492      1.2772      1.4238      1.5648    
  1.6723      1.7402      1.7685      1.7457      1.6668      1.5515      1.2627      1.1775      1.0867     0.99551    
 0.91958     0.86119     0.81016     0.76831     0.74916     0.75384     0.77159     0.80302     0.85770     0.92984    
  1.0027      1.0764      1.1650      1.2649      1.3524      1.4130      1.4481      1.4530      1.4167      1.3459    
  1.1105      1.0627      1.0141     0.96033     0.90993     0.87060     0.83652     0.80382     0.78332     0.78304    
 0.79393     0.80779     0.83262     0.87467     0.92206     0.96324      1.0055      1.0585      1.1133      1.1561    
  1.1850      1.2008      1.1937      1.1590     0.97618     0.95603     0.93969     0.92131     0.90135     0.88648    
 0.87486     0.85910     0.84322     0.83905     0.84610     0.85275     0.85710     0.86860     0.88860     0.90740    
 0.92200     0.93933     0.96040     0.97776     0.98952     0.99986      1.0052     0.99657     0.86236     0.86361    
 0.87059     0.88019     0.88931     0.90147     0.91771     0.93005     0.93315     0.93333     0.93711     0.93951    
 0.93312     0.92067     0.90927     0.89952     0.88929     0.88089     0.87601     0.87051     0.86233     0.85716    
 0.85885     0.86216     0.76969     0.78656     0.81166     0.84341     0.87782     0.91529     0.95856      1.0036    
  1.0404      1.0636      1.0752      1.0762      1.0634      1.0361     0.99860     0.95628     0.91312     0.87404    
 0.84251     0.81607     0.79066     0.76895     0.75799     0.75958     0.70011     0.72453     0.76292     0.81343    
 0.87190     0.93544      1.0050      1.0803      1.1543      1.2153      1.2540      1.2665      1.2524      1.2143    
  1.1574      1.0873      1.0100     0.93340     0.86562     0.80985     0.76357     0.72541     0.69957     0.69101    
 0.65665     0.67975     0.72415     0.78794     0.86813     0.96066      1.0623      1.1708      1.2813      1.3837    
  1.4632      1.5059      1.5047      1.4615      1.3860      1.2893      1.1802      1.0667     0.95809     0.86290    
 0.78474     0.72340     0.67961     0.65652     0.84770     0.86564     0.92049      1.0148      1.1520      1.3334    
  1.5555      1.8080      2.0746      2.3326      2.5531      2.7035      2.7564      2.7017      2.5508      2.3311    
  2.0745      1.8091      1.5568      1.3341      1.1519      1.0144     0.92020     0.86561     0.86606     0.86583    
 0.91119      1.0059      1.1554      1.3658      1.6393      1.9671      2.3274      2.6891      3.0155      3.2669    
  3.4052      3.4057      3.2669      3.0117      2.6805      2.3182      1.9634      1.6425      1.3711      1.1581    
  1.0062     0.91134     0.92196     0.89402     0.92083      1.0073      1.1599      1.3862      1.6942      2.0827    
  2.5319      3.0047      3.4544      3.8298      4.0812      4.1709      4.0843      3.8334      3.4534      2.9976    
  2.5248      2.0828      1.6997      1.3895      1.1590      1.0067      1.0168     0.95059     0.94836      1.0152    
  1.1604      1.3916      1.7187      2.1480      2.6673      3.2401      3.8143      4.3292      4.7196      4.9292    
  4.9291      4.7227      4.3373      3.8208      3.2402      2.6664      2.1507      1.7198      1.3871      1.1562    
  1.1519      1.0358     0.99515      1.0296      1.1519      1.3730      1.7027      2.1526      2.7197      3.3713    
  4.0538      4.7040      5.2481      5.6077      5.7283      5.6002      5.2481      4.7144      4.0615      3.3713    
  2.7196      2.1538      1.6979      1.3650      1.3284      1.1478      1.0616      1.0550      1.1399      1.3321    
  1.6423      2.0860      2.6721      3.3768      4.1437      4.9074      5.5963      6.1221      6.3997      6.3898    