unknown system                          
   1.00000000000000     
     3.190316    0.000000    0.000000
    -1.595158    2.762894    0.000000
     0.000000    0.000000   14.879004
   Mo   S 
     2     4
Direct
  0.333333  0.666667  0.250000
  0.666667  0.333333  0.750000
  0.333333  0.666667  0.855174
  0.666667  0.333333  0.144826
  0.666666  0.333333  0.355174
  0.333334  0.666667  0.644826
 
   24   24  108
 0.35665695846E+00 0.36691460989E+00 0.39709469552E+00 0.44573054309E+00 0.51047879465E+00
 0.58709152632E+00 0.66879351457E+00 0.74798752551E+00 0.81926852802E+00 0.88030048998E+00
 0.92929110031E+00 0.96227854521E+00 0.97408641104E+00 0.96224858543E+00 0.92923130877E+00
 0.88021562046E+00 0.81917027162E+00 0.74789048763E+00 0.66870863112E+00 0.58702325526E+00
 0.51042721660E+00 0.44569440728E+00 0.39707243341E+00 0.36690426801E+00 0.36730072945E+00
 0.36712785395E+00 0.38747889473E+00 0.42662888256E+00 0.48155207130E+00 0.54995033411E+00
 0.62909223065E+00 0.71271050242E+00 0.79181835987E+00 0.85959058333E+00 0.91370107146E+00
 0.95328039952E+00 0.97550646176E+00 0.97640934477E+00 0.95412443843E+00 0.91073787375E+00
 0.85159264142E+00 0.78283044650E+00 0.70876925269E+00 0.63171845940E+00 0.55486082868E+00
 0.48434405725E+00 0.42715812664E+00 0.38762636953E+00 0.39847953307E+00 0.38786506646E+00
 0.39777173655E+00 0.42833636418E+00 0.47504436131E+00 0.53303636448E+00 0.60137673870E+00
 0.67933197800E+00 0.76089345052E+00 0.83680595261E+00 0.90040433624E+00 0.94863610742E+00
 0.97938582068E+00 0.99074244232E+00 0.98147299288E+00 0.95048992544E+00 0.89820363837E+00
 0.82999620780E+00 0.75519468419E+00 0.68042567736E+00 0.60694183952E+00 0.53623424508E+00
 0.47428576405E+00 0.42755456493E+00 0.44761689953E+00 0.42813341036E+00 0.42640396228E+00
 0.44665560151E+00 0.48681882919E+00 0.53860123293E+00 0.59729865898E+00 0.66423978885E+00
 0.73861837803E+00 0.81396777056E+00 0.88346892336E+00 0.94221899983E+00 0.98433392725E+00
 0.10047863500E+01 0.10042203656E+01 0.98567872949E+00 0.94782764155E+00 0.88877539880E+00
 0.81521431238E+00 0.73936792837E+00 0.66729827418E+00 0.59818870167E+00 0.53431172966E+00
 0.48281798960E+00 0.51042724040E+00 0.48561497822E+00 0.47361759319E+00 0.48039454312E+00
 0.51046108492E+00 0.55698148712E+00 0.61047601561E+00 0.66985893084E+00 0.73654474142E+00
 0.80580792605E+00 0.87210654344E+00 0.93437027210E+00 0.98810025952E+00 0.10215783182E+01
 0.10284543994E+01 0.10151609212E+01 0.98808725298E+00 0.94364686504E+00 0.87978917957E+00
 0.80678330844E+00 0.73643867302E+00 0.66986904767E+00 0.60553471602E+00 0.54997110145E+00
 0.58241105285E+00 0.55491092805E+00 0.53761861737E+00 0.53205089338E+00 0.54787072955E+00
 0.58474373173E+00 0.63155461435E+00 0.68392112420E+00 0.74543861381E+00 0.81235027155E+00
 0.87479510562E+00 0.93223890132E+00 0.98923234555E+00 0.10369051369E+01 0.10579696700E+01
 0.10501022249E+01 0.10258835834E+01 0.99036133251E+00 0.93814086029E+00 0.87242046755E+00
 0.80666437181E+00 0.74590271552E+00 0.68503790285E+00 0.62670973983E+00 0.66027700208E+00
 0.62942392574E+00 0.61117236276E+00 0.59919767248E+00 0.60203620084E+00 0.62694281259E+00
 0.66454929028E+00 0.70557712644E+00 0.75593649359E+00 0.81945015379E+00 0.88333326285E+00
 0.93723150074E+00 0.98855568551E+00 0.10416730143E+01 0.10799233747E+01 0.10866978960E+01
 0.10679853707E+01 0.10368611389E+01 0.99272630668E+00 0.93352857741E+00 0.87135757438E+00
 0.81713688513E+00 0.76503341280E+00 0.70916563357E+00 0.74098484898E+00 0.70532696825E+00
 0.68617789356E+00 0.67303227385E+00 0.66743341738E+00 0.68163098349E+00 0.71249127372E+00
 0.74449010802E+00 0.77801342516E+00 0.82676787953E+00 0.88782370219E+00 0.94274262071E+00
 0.98805644727E+00 0.10355337524E+01 0.10816147363E+01 0.11056489756E+01 0.11005314308E+01
 0.10781357479E+01 0.10437666970E+01 0.99265456901E+00 0.93224796071E+00 0.87994737516E+00
 0.83690182319E+00 0.79013240241E+00 0.81917020369E+00 0.78121962535E+00 0.75941187654E+00
 0.74675615577E+00 0.73652138932E+00 0.73994221001E+00 0.76438692946E+00 0.79504882837E+00
 0.81922424649E+00 0.84816136504E+00 0.89397993284E+00 0.94550529663E+00 0.98808172118E+00
 0.10268528783E+01 0.10687013879E+01 0.11007375989E+01 0.11084796198E+01 0.10973263068E+01
 0.10764170677E+01 0.10406065486E+01 0.98808716138E+00 0.93579438664E+00 0.89679660651E+00
 0.86130694255E+00 0.88672474654E+00 0.85339026345E+00 0.83021870304E+00 0.81849535868E+00
 0.80779026685E+00 0.80122462559E+00 0.81296422400E+00 0.84022135121E+00 0.86481312092E+00
 0.88351783753E+00 0.91056031108E+00 0.94914224762E+00 0.98662910462E+00 0.10187423702E+01
 0.10523981405E+01 0.10834328767E+01 0.10971359625E+01 0.10922342676E+01 0.10801888506E+01
 0.10612236968E+01 0.10261633132E+01 0.98109204492E+00 0.94398082236E+00 0.91685062589E+00
 0.93625588877E+00 0.91402880696E+00 0.89472185909E+00 0.88533996956E+00 0.87909891297E+00
 0.87017496167E+00 0.86789844948E+00 0.88096749594E+00 0.90106658857E+00 0.91711542550E+00
 0.93280081657E+00 0.95572009535E+00 0.98217183963E+00 0.10064639293E+01 0.10319063583E+01
 0.10589072876E+01 0.10757259003E+01 0.10747090770E+01 0.10644671658E+01 0.10533574887E+01
 0.10354790034E+01 0.10061428370E+01 0.97585551238E+00 0.95452092068E+00 0.96493837261E+00
 0.95553258407E+00 0.94590672538E+00 0.94142413665E+00 0.94154051623E+00 0.93954298469E+00
 0.93456350286E+00 0.93319692288E+00 0.93816159190E+00 0.94540843211E+00 0.95308911164E+00
 0.96360471095E+00 0.97657707293E+00 0.98934179850E+00 0.10037741630E+01 0.10225617802E+01
 0.10396534283E+01 0.10451290508E+01 0.10389831467E+01 0.10296030753E+01 0.10197748398E+01
 0.10055536247E+01 0.98805263181E+00 0.97411600237E+00 0.97408641091E+00 0.97509763739E+00
 0.97796647123E+00 0.98241255521E+00 0.98811751761E+00 0.99387150723E+00 0.99702043094E+00
 0.99500952610E+00 0.98815639736E+00 0.98022130707E+00 0.97525079400E+00 0.97395386153E+00
 0.97400838579E+00 0.97388733631E+00 0.97514725955E+00 0.98011992783E+00 0.98808178913E+00
 0.99496213666E+00 0.99698731462E+00 0.99384449736E+00 0.98810023576E+00 0.98241148566E+00
 0.97797872096E+00 0.97510994953E+00 0.96496824691E+00 0.97413125699E+00 0.98806362204E+00
 0.10055763997E+01 0.10198169862E+01 0.10296574494E+01 0.10390371772E+01 0.10451809809E+01
 0.10397173186E+01 0.10226532372E+01 0.10038895547E+01 0.98945205071E+00 0.97664361401E+00
 0.96360477691E+00 0.95303037265E+00 0.94532277174E+00 0.93808423582E+00 0.93314738843E+00
 0.93454187946E+00 0.93954089720E+00 0.94155323968E+00 0.94145179112E+00 0.94594642869E+00
 0.95557367575E+00 0.93631556339E+00 0.95456433371E+00 0.97588785434E+00 0.10061791184E+01
 0.10355321765E+01 0.10534270243E+01 0.10645397327E+01 0.10747727001E+01 0.10757843032E+01
 0.10589783245E+01 0.10320037072E+01 0.10065792774E+01 0.98227525717E+00 0.95577887804E+00
 0.93280093348E+00 0.91706945814E+00 0.90100432815E+00 0.88091804265E+00 0.86787717060E+00
 0.87018292408E+00 0.87913103040E+00 0.88539139468E+00 0.89478697265E+00 0.91409755372E+00
 0.88680959698E+00 0.91692222555E+00 0.94403734719E+00 0.98114207219E+00 0.10262198627E+01
 0.10612939125E+01 0.10802676825E+01 0.10923090415E+01 0.10971993790E+01 0.10834920922E+01
 0.10524692383E+01 0.10188339029E+01 0.98673036342E+00 0.94922770034E+00 0.91060633932E+00
 0.88351797922E+00 0.86478123475E+00 0.84018244598E+00 0.81294096610E+00 0.80122894139E+00
 0.80782376730E+00 0.81855431341E+00 0.83029682233E+00 0.85347797273E+00 0.81926859581E+00
 0.86140086551E+00 0.89687871033E+00 0.93586458083E+00 0.98815189872E+00 0.10406742384E+01
 0.10764918992E+01 0.10974046061E+01 0.11085528555E+01 0.11008009520E+01 0.10687597720E+01
 0.10269169365E+01 0.98815646514E+00 0.94558248473E+00 0.89404194063E+00 0.84819331462E+00
 0.81922438221E+00 0.79502974387E+00 0.76436805466E+00 0.73994013595E+00 0.73654478540E+00
 0.74680656589E+00 0.75948628297E+00 0.78131121822E+00 0.74108202042E+00 0.79023612908E+00
 0.83700309418E+00 0.88004009329E+00 0.93233004914E+00 0.99272832971E+00 0.10438381143E+01
 0.10782106383E+01 0.11006097811E+01 0.11057237100E+01 0.10816781841E+01 0.10355856462E+01
 0.98810407162E+00 0.94279232331E+00 0.88787298014E+00 0.82680654089E+00 0.77803256072E+00
 0.74449021021E+00 0.71248271196E+00 0.68162778552E+00 0.66744669152E+00 0.67306791464E+00
 0.68623750619E+00 0.70540844423E+00 0.66036183448E+00 0.70926543852E+00 0.76514093241E+00
 0.81724474103E+00 0.87145874094E+00 0.93361757215E+00 0.99280294780E+00 0.10369325287E+01
 0.10680602868E+01 0.10867768699E+01 0.10799958757E+01 0.10417267983E+01 0.98858875078E+00
 0.93725337067E+00 0.88335470969E+00 0.81947326974E+00 0.75595518162E+00 0.70558571568E+00
 0.66454934133E+00 0.62694233143E+00 0.60204435935E+00 0.59922123175E+00 0.61121551842E+00
 0.62948861157E+00 0.58247916376E+00 0.62679656380E+00 0.68513921848E+00 0.74601290206E+00
 0.80677631028E+00 0.87252490435E+00 0.93822985414E+00 0.99043498735E+00 0.10259511955E+01
 0.10501725859E+01 0.10580394075E+01 0.10369594415E+01 0.98925909393E+00 0.93224092651E+00
 0.87478734516E+00 0.81234609377E+00 0.74544061021E+00 0.68392422364E+00 0.63155509463E+00
 0.58474372806E+00 0.54787585882E+00 0.53206644941E+00 0.53764870387E+00 0.55495904997E+00
 0.51047877082E+00 0.55004152792E+00 0.60562258125E+00 0.66997100859E+00 0.73654980662E+00
 0.80689527333E+00 0.87989044481E+00 0.94372895365E+00 0.98815180698E+00 0.10152173560E+01
 0.10285077370E+01 0.10216206838E+01 0.98811749374E+00 0.93435732943E+00 0.87207435672E+00
 0.80577454024E+00 0.73652143343E+00 0.66984565653E+00 0.61046785367E+00 0.55697633143E+00
 0.51046103730E+00 0.48040293744E+00 0.47363728546E+00 0.48564900934E+00 0.44765312662E+00
 0.48287153307E+00 0.53438328913E+00 0.59827685705E+00 0.66740019265E+00 0.73947804855E+00
 0.81532223804E+00 0.88886828914E+00 0.94789784454E+00 0.98572854505E+00 0.10042565139E+01
 0.10048092610E+01 0.98433518943E+00 0.94219134130E+00 0.88341736517E+00 0.81390874416E+00
 0.73856797670E+00 0.66420418023E+00 0.59727516947E+00 0.53858575058E+00 0.48681039242E+00
 0.44665553148E+00 0.42641380379E+00 0.42815502022E+00 0.39850186161E+00 0.42759175020E+00
 0.47433997230E+00 0.53630584953E+00 0.60702972355E+00 0.68052687914E+00 0.75530208632E+00
 0.83009756604E+00 0.89828594434E+00 0.95054647749E+00 0.98150515150E+00 0.99075330077E+00
 0.97937363739E+00 0.94859653590E+00 0.90033927317E+00 0.83672780611E+00 0.76081897480E+00
 0.67927227813E+00 0.60133356767E+00 0.53300639183E+00 0.47502478309E+00 0.42832647769E+00
 0.39777167011E+00 0.38787533302E+00 0.36731105883E+00 0.38764884924E+00 0.42719527811E+00
 0.48439763085E+00 0.55493137638E+00 0.63180531961E+00 0.70886890911E+00 0.78293403109E+00
 0.85168663437E+00 0.91080965500E+00 0.95416790577E+00 0.97642449353E+00 0.97549403577E+00
 0.95323928177E+00 0.91363237900E+00 0.85950297584E+00 0.79172683698E+00 0.71262896415E+00
 0.62902739629E+00 0.54990216862E+00 0.48151816140E+00 0.42660738262E+00 0.38746859436E+00
 0.36712781406E+00 0.38979253571E+00 0.40063738152E+00 0.43234588538E+00 0.48293264935E+00
 0.54972445513E+00 0.62863043388E+00 0.71338295161E+00 0.79683177870E+00 0.87359900833E+00
 0.94081215652E+00 0.99563159007E+00 0.10327838816E+01 0.10459863688E+01 0.10324021092E+01
 0.99507197594E+00 0.94037090059E+00 0.87347602841E+00 0.79699287974E+00 0.71361050599E+00
 0.62872682900E+00 0.54966335257E+00 0.48282090337E+00 0.43227879989E+00 0.40062155444E+00
 0.40102803564E+00 0.40084602136E+00 0.42440826080E+00 0.46933907956E+00 0.53184089789E+00
 0.60929215458E+00 0.69909914490E+00 0.79514083044E+00 0.88816962341E+00 0.97053696547E+00
 0.10384830497E+01 0.10891440636E+01 0.11175751527E+01 0.11184082835E+01 0.10898239729E+01
 0.10353586145E+01 0.96246027840E+00 0.87920872236E+00 0.79129553981E+00 0.70181377172E+00
 0.61422206102E+00 0.53459323596E+00 0.46983263563E+00 0.42455690993E+00 0.43372978498E+00
 0.42046689208E+00 0.43295935656E+00 0.47097648009E+00 0.52910811405E+00 0.60182380977E+00
 0.68803696265E+00 0.78689101575E+00 0.89168498262E+00 0.99181065471E+00 0.10787257593E+01
 0.11469315709E+01 0.11914252510E+01 0.12077826897E+01 0.11937486220E+01 0.11491664683E+01
 0.10768243211E+01 0.98501246685E+00 0.88576089434E+00 0.78776129185E+00 0.69350731947E+00
 0.60499607223E+00 0.52834248428E+00 0.47023444005E+00 0.48481033862E+00 0.45846903244E+00
 0.45666654116E+00 0.48375049380E+00 0.53699728257E+00 0.60728470103E+00 0.68959066546E+00
 0.78513276980E+00 0.89223539966E+00 0.10024418554E+01 0.11062535410E+01 0.11956875870E+01
 0.12613350113E+01 0.12947000039E+01 0.12942524930E+01 0.12630518536E+01 0.12017797352E+01
 0.11117763069E+01 0.10034668428E+01 0.89263736354E+00 0.78806772202E+00 0.69052462764E+00
 0.60300196019E+00 0.53300093794E+00 0.54966337671E+00 0.51252289459E+00 0.49622191407E+00
 0.50715785164E+00 0.54970211641E+00 0.61627756981E+00 0.69689608811E+00 0.79047584234E+00
 0.89789305260E+00 0.10122925369E+01 0.11246643707E+01 0.12299167636E+01 0.13191712514E+01
 0.13762010661E+01 0.13912130377E+01 0.13695801249E+01 0.13191121917E+01 0.12393161728E+01
 0.11322979022E+01 0.10130650019E+01 0.89780807937E+00 0.79074066208E+00 0.69205631021E+00
 0.60915320448E+00 0.62394003753E+00 0.57741697920E+00 0.55038942499E+00 0.54467148313E+00
 0.57026758331E+00 0.62651903390E+00 0.70165221376E+00 0.79115500723E+00 0.89856116455E+00
 0.10185515697E+01 0.11376426014E+01 0.12504941276E+01 0.13563570657E+01 0.14407100154E+01
 0.14812365775E+01 0.14729867488E+01 0.14290402676E+01 0.13572349884E+01 0.12564142349E+01
 0.11352111306E+01 0.10129405858E+01 0.89942299125E+00 0.79255276005E+00 0.69662044199E+00
 0.70484703608E+00 0.64705148661E+00 0.61260376671E+00 0.59498187701E+00 0.60315220356E+00
 0.64463584613E+00 0.70956727554E+00 0.78820329828E+00 0.88652019243E+00 0.10076042607E+01
 0.11356353350E+01 0.12552514314E+01 0.13679939539E+01 0.14717889364E+01 0.15434331766E+01
 0.15615602377E+01 0.15309351361E+01 0.14666882979E+01 0.13723487970E+01 0.12516227076E+01
 0.11235344564E+01 0.10054610139E+01 0.89597534927E+00 0.79169728511E+00 0.78979903308E+00
 0.71833286305E+00 0.67554046673E+00 0.65037860601E+00 0.64445500938E+00 0.67063781779E+00
 0.72577409492E+00 0.79368615435E+00 0.87455257544E+00 0.98191908966E+00 0.11108155981E+01
 0.12382017876E+01 0.13546008227E+01 0.14651218456E+01 0.15588709471E+01 0.16084616178E+01
 0.16031581697E+01 0.15553406686E+01 0.14738774086E+01 0.13596325317E+01 0.12274599508E+01
 0.11025931358E+01 0.99220163666E+00 0.88679959536E+00 0.87347595753E+00 0.79058985036E+00
 0.73684780982E+00 0.70500207078E+00 0.68800821038E+00 0.69763338342E+00 0.74167959320E+00
 0.80476820644E+00 0.87353090955E+00 0.95916010407E+00 0.10727867695E+01 0.11995829226E+01
 0.13191096780E+01 0.14299228694E+01 0.15315605529E+01 0.16033276529E+01 0.16248265713E+01
 0.15997814718E+01 0.15396986768E+01 0.14443976036E+01 0.13191120967E+01 0.11892197554E+01
 0.10753734068E+01 0.97262434167E+00 0.94723189201E+00 0.86054934095E+00 0.79682705037E+00
 0.75796250419E+00 0.73335573451E+00 0.72644401238E+00 0.75205524653E+00 0.80706826982E+00
 0.87214747433E+00 0.94353992708E+00 0.10351693313E+01 0.11479471236E+01 0.12642370565E+01
 0.13734163910E+01 0.14754234901E+01 0.15582018446E+01 0.15996180998E+01 0.15944161427E+01
 0.15547039821E+01 0.14846346805E+01 0.13811034916E+01 0.12581895495E+01 0.11423101535E+01
 0.10418132165E+01 0.10026048502E+01 0.92035252783E+00 0.85250060518E+00 0.80766773089E+00
 0.77965617156E+00 0.76306486499E+00 0.76806325255E+00 0.80341538951E+00 0.85935577651E+00
 0.92329181146E+00 0.99841864602E+00 0.10912438609E+01 0.11944437657E+01 0.12966866730E+01
 0.13949160538E+01 0.14822798516E+01 0.15390933564E+01 0.15516817304E+01 0.15271368323E+01
 0.14764451560E+01 0.13987459360E+01 0.12962465581E+01 0.11876667326E+01 0.10902258241E+01
 0.10354469621E+01 0.96188165201E+00 0.89741194100E+00 0.84972795358E+00 0.81990259586E+00
 0.80220406040E+00 0.79692443807E+00 0.81135385512E+00 0.84700828027E+00 0.89739607335E+00
 0.95906497771E+00 0.10335884418E+01 0.11183409859E+01 0.12062109584E+01 0.12936371900E+01
 0.13772233009E+01 0.14435382669E+01 0.14753604107E+01 0.14687393474E+01 0.14328689934E+01
 0.13745835437E+01 0.12957553979E+01 0.12047331598E+01 0.11157605912E+01 0.10459863707E+01
 0.98164251790E+00 0.92584792363E+00 0.88092766600E+00 0.84910134734E+00 0.83098806935E+00
 0.82554329297E+00 0.83160497857E+00 0.84915045110E+00 0.87933631860E+00 0.92331238830E+00
 0.98015333331E+00 0.10459125265E+01 0.11157869606E+01 0.11869108894E+01 0.12568852373E+01
 0.13191097507E+01 0.13622854969E+01 0.13767574217E+01 0.13606530293E+01 0.13191712291E+01
 0.12598364036E+01 0.11899742638E+01 0.11166778438E+01 0.10351446140E+01 0.98059890199E+00
 0.93482342158E+00 0.89911486183E+00 0.86970889893E+00 0.84822826862E+00 0.84077481135E+00
 0.84649634916E+00 0.85774724347E+00 0.87269138969E+00 0.89772204447E+00 0.93601687017E+00
 0.98300489344E+00 0.10342818495E+01 0.10888877584E+01 0.11434468061E+01 0.11913731105E+01
 0.12286566300E+01 0.12528954347E+01 0.12576417417E+01 0.12369398713E+01 0.11953256004E+01
 0.11445755151E+01 0.10910983480E+01 0.10022154338E+01 0.96075053110E+00 0.92394488636E+00
 0.89980990574E+00 0.88153131161E+00 0.86205456981E+00 0.84890998386E+00 0.85033814005E+00
 0.85957247123E+00 0.86738438911E+00 0.87822819960E+00 0.90007814215E+00 0.92989623404E+00
 0.96211446546E+00 0.99936767656E+00 0.10420256881E+01 0.10793705424E+01 0.11036263861E+01
 0.11202880213E+01 0.11328511752E+01 0.11312482386E+01 0.11082476109E+01 0.10735929006E+01
 0.10388848961E+01 0.94703132089E+00 0.92313268390E+00 0.89584966207E+00 0.87995454526E+00
 0.87600654115E+00 0.86966238634E+00 0.85834399881E+00 0.85403906206E+00 0.85868208918E+00
 0.86136315824E+00 0.86116058986E+00 0.86882371566E+00 0.88506465530E+00 0.90057033963E+00
 0.91706801707E+00 0.94417257069E+00 0.97594981304E+00 0.99533192110E+00 0.10013803603E+01
 0.10075362814E+01 0.10138493260E+01 0.10066715158E+01 0.98558681343E+00 0.96471500694E+00
 0.87359907388E+00 0.86857207930E+00 0.85492893913E+00 0.84455890917E+00 0.84915206967E+00
 0.85880986747E+00 0.86037658056E+00 0.85892015765E+00 0.86210359899E+00 0.86220810723E+00
 0.85298856167E+00 0.84564132827E+00 0.84915051462E+00 0.85370860980E+00 0.85182283658E+00
 0.85554130028E+00 0.87353104602E+00 0.89149160463E+00 0.89528359664E+00 0.89360277334E+00
 0.89789309402E+00 0.89999114696E+00 0.89023393188E+00 0.87801795957E+00 0.79015203547E+00
 0.79971622052E+00 0.80366002263E+00 0.80252693850E+00 0.81077475672E+00 0.82966723530E+00
 0.84529407146E+00 0.85360622221E+00 0.86198559697E+00 0.86694733365E+00 0.85702251772E+00
 0.83745575109E+00 0.82541606290E+00 0.82108786051E+00 0.81009976264E+00 0.79352735449E+00
 0.78751791876E+00 0.79318159464E+00 0.79488777730E+00 0.78926202359E+00 0.78845847445E+00
 0.79381138110E+00 0.79357543568E+00 0.78805451709E+00 0.70521041221E+00 0.72239711715E+00
 0.74241062403E+00 0.75648485195E+00 0.77189182323E+00 0.79624343112E+00 0.82146048620E+00
 0.83860959548E+00 0.85220410666E+00 0.86456789575E+00 0.86366636673E+00 0.84313081079E+00
 0.81737075538E+00 0.79997402373E+00 0.78376866621E+00 0.75891150531E+00 0.73350698304E+00
 0.71858498106E+00 0.70897634502E+00 0.69686068955E+00 0.68872357286E+00 0.69158483343E+00
 0.69766048710E+00 0.69950089334E+00 0.62415579391E+00 0.64449439783E+00 0.67430136098E+00
 0.70391321821E+00 0.73209370587E+00 0.76532850029E+00 0.80071333831E+00 0.82745262875E+00
 0.84459004477E+00 0.85896872081E+00 0.86652457476E+00 0.85505425973E+00 0.82602260153E+00
 0.79468466130E+00 0.76753487497E+00 0.73777032132E+00 0.70372928805E+00 0.67335698400E+00
 0.64910575022E+00 0.62619741101E+00 0.60714055452E+00 0.60082069616E+00 0.60629377294E+00
 0.61416386141E+00 0.54972443142E+00 0.57253926664E+00 0.60693436528E+00 0.64717164418E+00
 0.68803680699E+00 0.73221241818E+00 0.78006438628E+00 0.82181042751E+00 0.84915198026E+00
 0.86543144890E+00 0.87494749134E+00 0.87170409396E+00 0.84910132154E+00 0.81250181513E+00
 0.77212332094E+00 0.73085067071E+00 0.68800825757E+00 0.64729292839E+00 0.61191569713E+00
 0.57941030239E+00 0.54970206855E+00 0.53065191965E+00 0.52765715264E+00 0.53579034433E+00
 0.48479906543E+00 0.50972615779E+00 0.54709076202E+00 0.59408817131E+00 0.64468213263E+00
 0.69758156069E+00 0.75462316863E+00 0.81107320253E+00 0.85617050783E+00 0.88431655296E+00
 0.89794812430E+00 0.89862052793E+00 0.88328490970E+00 0.85091569502E+00 0.80580594478E+00
 0.75296785288E+00 0.69629794238E+00 0.64132778231E+00 0.59312019680E+00 0.55132476354E+00
 0.51368664303E+00 0.48388284110E+00 0.46911474077E+00 0.47079903025E+00 0.43371419422E+00
 0.45788603239E+00 0.49691724677E+00 0.54895250159E+00 0.60830265046E+00 0.66983139759E+00
 0.73286977587E+00 0.79697560297E+00 0.85629731363E+00 0.90207350307E+00 0.92916042131E+00
 0.93717947750E+00 0.92721623445E+00 0.90046147056E+00 0.85866517068E+00 0.80368336537E+00
 0.73821604787E+00 0.66835129667E+00 0.60247198801E+00 0.54559795703E+00 0.49759024707E+00
 0.45866065294E+00 0.43304203281E+00 0.42481006547E+00 0.40102432878E+00 0.42024432644E+00
 0.45749440861E+00 0.51119628302E+00 0.57728214157E+00 0.64935593019E+00 0.72200543720E+00
 0.79264008179E+00 0.85921384403E+00 0.91730055100E+00 0.96035894919E+00 0.98256336109E+00
 0.98153863755E+00 0.95922378539E+00 0.91996095067E+00 0.86701411757E+00 0.80154734219E+00
 0.72591356160E+00 0.64665980351E+00 0.57223382401E+00 0.50824746654E+00 0.45686655992E+00
 0.42007526805E+00 0.40085619588E+00 0.48689558726E+00 0.49922102087E+00 0.53504180736E+00
 0.59172925333E+00 0.66643752610E+00 0.75578460958E+00 0.85467504105E+00 0.95666546491E+00
 0.10558107396E+01 0.11470417544E+01 0.12238423185E+01 0.12765578837E+01 0.12952654694E+01
 0.12757839138E+01 0.12227406644E+01 0.11462318032E+01 0.10556790541E+01 0.95711192077E+00
 0.85524200125E+00 0.75606480217E+00 0.66637141676E+00 0.59153414085E+00 0.53492095045E+00
 0.49919600855E+00 0.49961497068E+00 0.49942594903E+00 0.52746983749E+00 0.58117860027E+00
 0.65674493278E+00 0.75212048644E+00 0.86567230319E+00 0.99182563644E+00 0.11205933229E+01
 0.12417740727E+01 0.13471307005E+01 0.14278891870E+01 0.14732068221E+01 0.14739711728E+01
 0.14284035624E+01 0.13438238072E+01 0.12335603295E+01 0.11115842926E+01 0.98803875184E+00
 0.86850024548E+00 0.75711892440E+00 0.65948165459E+00 0.58163201585E+00 0.52761136917E+00
 0.53643451152E+00 0.52015244245E+00 0.53558307106E+00 0.58274821570E+00 0.65677706649E+00
 0.75305071954E+00 0.87158087412E+00 0.10120198128E+01 0.11666710029E+01 0.13219332719E+01
 0.14641458606E+01 0.15807371014E+01 0.16587440027E+01 0.16872171929E+01 0.16613432077E+01
 0.15834023343E+01 0.14625445355E+01 0.13150742610E+01 0.11604370867E+01 0.10126482291E+01
 0.87699286018E+00 0.75621758241E+00 0.65599273986E+00 0.58204565576E+00 0.59361863104E+00
 0.55974785838E+00 0.55784190072E+00 0.59242790376E+00 0.66182787737E+00 0.75844773173E+00
 0.87896707161E+00 0.10256328447E+01 0.11959117567E+01 0.13779688920E+01 0.15564920290E+01
 0.17154227696E+01 0.18355957074E+01 0.18991590443E+01 0.18988334709E+01 0.18377206369E+01
 0.17220725094E+01 0.15622749704E+01 0.13787495347E+01 0.11959404006E+01 0.10284622417E+01
 0.87995195641E+00 0.75412776999E+00 0.65780549187E+00 0.66637144146E+00 0.61526752989E+00
 0.59447580010E+00 0.60969714970E+00 0.66641664853E+00 0.75912375985E+00 0.88025259463E+00
 0.10307182625E+01 0.12114457635E+01 0.14124592085E+01 0.16184904379E+01 0.18155289562E+01
 0.19834384086E+01 0.20938976960E+01 0.21277072267E+01 0.20870021026E+01 0.19833284655E+01
 0.18251360642E+01 0.16261311223E+01 0.14130219426E+01 0.12113932022E+01 0.10312682297E+01
 0.87547927439E+00 0.75180948409E+00 0.75104351375E+00 0.68161104900E+00 0.64418514709E+00
 0.63825894078E+00 0.67429148803E+00 0.75392302875E+00 0.86834492201E+00 0.10159600903E+01
 0.12017499349E+01 0.14184623786E+01 0.16466660336E+01 0.18717378753E+01 0.20807831387E+01
 0.22450543919E+01 0.23290552512E+01 0.23203269412E+01 0.22325961305E+01 0.20814073426E+01
 0.18777329403E+01 0.16441556250E+01 0.14128911324E+01 0.12030568728E+01 0.10176748398E+01
 0.86305993597E+00 0.84604429383E+00 0.75363803903E+00 0.70107117418E+00 0.67763324074E+00
 0.69120144770E+00 0.75127592114E+00 0.85129095668E+00 0.98503494810E+00 0.11612351895E+01
 0.13828281709E+01 0.16292756671E+01 0.18762786187E+01 0.21131609154E+01 0.23227451203E+01
 0.24657923080E+01 0.25087698980E+01 0.24525761185E+01 0.23172869829E+01 0.21177590812E+01
 0.18727062683E+01 0.16169334396E+01 0.13808394085E+01 0.11711483552E+01 0.98845233036E+00
 0.94954872992E+00 0.82951169760E+00 0.75888828303E+00 0.72122889895E+00 0.71490342450E+00
 0.75355354458E+00 0.83730038922E+00 0.95386736490E+00 0.11070704137E+01 0.13121260811E+01
 0.15613166492E+01 0.18237836574E+01 0.20783839752E+01 0.23154523593E+01 0.25069864114E+01
 0.26098107918E+01 0.26042490002E+01 0.25033506595E+01 0.23248447900E+01 0.20839384358E+01
 0.18126823952E+01 0.15526274048E+01 0.13226321296E+01 0.11195556954E+01 0.10556789794E+01
 0.90934550093E+00 0.81626264591E+00 0.76397982479E+00 0.74037510815E+00 0.75594176185E+00
 0.82096922818E+00 0.92400904787E+00 0.10557258719E+01 0.12303738302E+01 0.14586819092E+01
 0.17199997304E+01 0.19833293473E+01 0.22333888997E+01 0.24531074642E+01 0.26043815063E+01
 0.26537152287E+01 0.26006569538E+01 0.24617739003E+01 0.22487726558E+01 0.19833283660E+01
 0.17088327820E+01 0.14610310490E+01 0.12442966045E+01 0.11535292047E+01 0.98960909992E+00
 0.87413035592E+00 0.80543818351E+00 0.76737706608E+00 0.76002921912E+00 0.79907422786E+00
 0.88472973735E+00 0.10015078940E+01 0.11492737656E+01 0.13435973464E+01 0.15822966307E+01
 0.18391753828E+01 0.20911590135E+01 0.23229346980E+01 0.25052650675E+01 0.26005236705E+01
 0.25949608522E+01 0.25014778798E+01 0.23326457870E+01 0.20991899820E+01 0.18325182629E+01
 0.15761102549E+01 0.13507023438E+01 0.12308907460E+01 0.10609116634E+01 0.92969172105E+00
 0.84461640483E+00 0.79515865686E+00 0.77157655720E+00 0.78305047962E+00 0.84048166246E+00
 0.93718809928E+00 0.10637283269E+01 0.12258614008E+01 0.14296245606E+01 0.16620343404E+01
 0.19015086446E+01 0.21317308622E+01 0.23302268276E+01 0.24612574710E+01 0.24994284921E+01
 0.24484445186E+01 0.23240286906E+01 0.21358573327E+01 0.19009232328E+01 0.16547066871E+01
 0.14288172526E+01 0.12792458052E+01 0.11125493014E+01 0.97599641245E+00 0.87804098330E+00
 0.81771551485E+00 0.78561530133E+00 0.77996684755E+00 0.80887809235E+00 0.87589827356E+00
 0.97651346700E+00 0.11093076960E+01 0.12768037131E+01 0.14736538456E+01 0.16854520674E+01
 0.18980414812E+01 0.20949840138E+01 0.22480060281E+01 0.23264772981E+01 0.23192778450E+01
 0.22365605457E+01 0.20924691089E+01 0.19005364177E+01 0.16837499792E+01 0.14709176364E+01
 0.12952654737E+01 0.11382198076E+01 0.10061644633E+01 0.90327505704E+00 0.83198194717E+00
 0.79116237991E+00 0.77795185949E+00 0.79120109714E+00 0.83201887535E+00 0.90230577561E+00
 0.10038035758E+01 0.11363592854E+01 0.12952166890E+01 0.14712260770E+01 0.16538842544E+01
 0.18308438584E+01 0.19833294261E+01 0.20869812887E+01 0.21223586182E+01 0.20847703040E+01
 0.19834383880E+01 0.18345453399E+01 0.16572304372E+01 0.14717537371E+01 0.12785758722E+01
 0.11370867469E+01 0.10159550729E+01 0.91849490755E+00 0.84249836269E+00 0.79004964058E+00
 0.76683860660E+00 0.77214097893E+00 0.79903992884E+00 0.84564217269E+00 0.91739755639E+00
 0.10169506450E+01 0.11394113967E+01 0.12782581927E+01 0.14276118440E+01 0.15770171507E+01
 0.17108624816E+01 0.18142131978E+01 0.18742660137E+01 0.18787772413E+01 0.18224374227E+01
 0.17154998755E+01 0.15787244351E+01 0.14294882437E+01 0.12300023459E+01 0.11112434230E+01
 0.10044471811E+01 0.91929226063E+00 0.85068224797E+00 0.79349774408E+00 0.75670346715E+00
 0.74971752430E+00 0.76683785474E+00 0.79864722821E+00 0.84759932567E+00 0.91941026277E+00
 0.10099636077E+01 0.11127748696E+01 0.12278514549E+01 0.13508894658E+01 0.14648418620E+01
 0.15537587404E+01 0.16139179322E+01 0.16416394630E+01 0.16246504900E+01 0.15585818012E+01
 0.14594993941E+01 0.13475443805E+01 0.11530026633E+01 0.10636084980E+01 0.97477840369E+00
 0.90261328298E+00 0.84870659665E+00 0.80087632983E+00 0.75933639055E+00 0.73874794158E+00
 0.74317630123E+00 0.76219128110E+00 0.79268103714E+00 0.84168871380E+00 0.90723256172E+00
 0.97901244626E+00 0.10577621461E+01 0.11505997867E+01 0.12474899763E+01 0.13256499994E+01
 0.13768618783E+01 0.14074695535E+01 0.14135296392E+01 0.13818452448E+01 0.13159670407E+01
 0.12362215570E+01 0.10558108034E+01 0.99771868987E+00 0.93246126793E+00 0.87325916817E+00
 0.83202200539E+00 0.80022308655E+00 0.76775473072E+00 0.74345485586E+00 0.73840097916E+00
 0.74665007905E+00 0.76067776337E+00 0.78758725353E+00 0.83201893482E+00 0.88187106892E+00
 0.92903795381E+00 0.98477580566E+00 0.10557260104E+01 0.11240682913E+01 0.11704328330E+01
 0.11973365365E+01 0.12114458027E+01 0.12032619533E+01 0.11651573779E+01 0.11107396739E+01
 0.95017038858E+00 0.91865784328E+00 0.88108455667E+00 0.83961615905E+00 0.80859157734E+00
 0.78962021546E+00 0.77110741888E+00 0.75286603058E+00 0.74639446638E+00 0.75121458249E+00
 0.75621788263E+00 0.76362779682E+00 0.78574014367E+00 0.81884575398E+00 0.84698201057E+00
 0.87093707533E+00 0.90635873445E+00 0.95281008750E+00 0.99153540798E+00 0.10144862745E+01
 0.10291136644E+01 0.10342231328E+01 0.10185202112E+01 0.98491151104E+00 0.84671597197E+00
 0.83373499118E+00 0.82168747713E+00 0.80370640089E+00 0.78719994716E+00 0.77956436383E+00
 0.77398707535E+00 0.76460696532E+00 0.75979572554E+00 0.76530267677E+00 0.77082256360E+00
 0.76885121772E+00 0.76999279476E+00 0.78343411619E+00 0.79915963019E+00 0.80636625207E+00
 0.81301008450E+00 0.82974257566E+00 0.85005231829E+00 0.86331825630E+00 0.87229355028E+00
 0.88105693905E+00 0.88105350420E+00 0.86608588801E+00 0.75142756788E+00 0.75113679853E+00
 0.75741754777E+00 0.76250615262E+00 0.76584181121E+00 0.77377348001E+00 0.78391602823E+00
 0.78747138923E+00 0.78643135805E+00 0.79055851510E+00 0.79784950362E+00 0.79641399634E+00
 0.78577121531E+00 0.77779646584E+00 0.77592832698E+00 0.77167305485E+00 0.76273995728E+00