   6   6   0   0
  0.2185851E+02  0.3190316E-09  0.3190316E-09  0.1487900E-08  0.5000000E-15
  1.000000000000000E-004
  CAR 
 unknown system                          
      8.36455130    -12.95459860  301      3.32790213      1.00000000
    -12.955  0.0000E+00  0.0000E+00
    -12.884  0.0000E+00  0.0000E+00
    -12.812  0.0000E+00  0.0000E+00
    -12.741  0.0000E+00  0.0000E+00
    -12.670  0.0000E+00  0.0000E+00
    -12.599  0.0000E+00  0.0000E+00
    -12.528  0.0000E+00  0.0000E+00
    -12.457  0.0000E+00  0.0000E+00
    -12.386  0.0000E+00  0.0000E+00
    -12.315  0.0000E+00  0.0000E+00
    -12.244  0.0000E+00  0.0000E+00
    -12.173  0.0000E+00  0.0000E+00
    -12.102  0.0000E+00  0.0000E+00
    -12.031  0.0000E+00  0.0000E+00
    -11.960  0.0000E+00  0.0000E+00
    -11.889  0.0000E+00  0.0000E+00
    -11.818  0.0000E+00  0.0000E+00
    -11.747  0.0000E+00  0.0000E+00
    -11.675  0.0000E+00  0.0000E+00
    -11.604  0.0000E+00  0.0000E+00
    -11.533  0.0000E+00  0.0000E+00
    -11.462  0.0000E+00  0.0000E+00
    -11.391  0.0000E+00  0.0000E+00
    -11.320  0.0000E+00  0.0000E+00
    -11.249  0.0000E+00  0.0000E+00
    -11.178  0.0000E+00  0.0000E+00
    -11.107  0.0000E+00  0.0000E+00
    -11.036  0.0000E+00  0.0000E+00
    -10.965  0.0000E+00  0.0000E+00
    -10.894  0.4211E+00  0.1093E-01
    -10.823  0.1005E+01  0.6158E-01
    -10.752  0.1588E+01  0.1537E+00
    -10.681  0.1004E+01  0.2373E+00
    -10.609  0.1070E+01  0.3110E+00
    -10.538  0.1136E+01  0.3894E+00
    -10.467  0.1203E+01  0.4725E+00
    -10.396  0.1269E+01  0.5603E+00
    -10.325  0.1325E+01  0.6528E+00
    -10.254  0.1337E+01  0.7473E+00
    -10.183  0.1349E+01  0.8428E+00
    -10.112  0.1393E+01  0.9399E+00
    -10.041  0.1448E+01  0.1041E+01
     -9.970  0.1504E+01  0.1146E+01
     -9.899  0.1559E+01  0.1255E+01
     -9.828  0.1614E+01  0.1367E+01
     -9.757  0.1670E+01  0.1484E+01
     -9.686  0.3855E+01  0.1663E+01
     -9.615  0.4202E+01  0.1986E+01
     -9.544  0.4697E+01  0.2302E+01
     -9.472  0.5217E+01  0.2654E+01
     -9.401  0.5644E+01  0.3041E+01
     -9.330  0.6115E+01  0.3457E+01
     -9.259  0.6682E+01  0.3912E+01
     -9.188  0.7955E+01  0.4409E+01
     -9.117  0.8457E+01  0.5218E+01
     -9.046  0.8415E+01  0.5814E+01
     -8.975  0.8781E+01  0.6425E+01
     -8.904  0.7717E+01  0.7216E+01
     -8.833  0.5487E+01  0.7719E+01
     -8.762  0.0000E+00  0.8000E+01
     -8.691  0.0000E+00  0.8000E+01
     -8.620  0.0000E+00  0.8000E+01
     -8.549  0.0000E+00  0.8000E+01
     -8.478  0.0000E+00  0.8000E+01
     -8.407  0.0000E+00  0.8000E+01
     -8.335  0.0000E+00  0.8000E+01
     -8.264  0.0000E+00  0.8000E+01
     -8.193  0.0000E+00  0.8000E+01
     -8.122  0.0000E+00  0.8000E+01
     -8.051  0.0000E+00  0.8000E+01
     -7.980  0.0000E+00  0.8000E+01
     -7.909  0.0000E+00  0.8000E+01
     -7.838  0.0000E+00  0.8000E+01
     -7.767  0.0000E+00  0.8000E+01
     -7.696  0.0000E+00  0.8000E+01
     -7.625  0.0000E+00  0.8000E+01
     -7.554  0.0000E+00  0.8000E+01
     -7.483  0.0000E+00  0.8000E+01
     -7.412  0.0000E+00  0.8000E+01
     -7.341  0.0000E+00  0.8000E+01
     -7.269  0.0000E+00  0.8000E+01
     -7.198  0.0000E+00  0.8000E+01
     -7.127  0.0000E+00  0.8000E+01
     -7.056  0.0000E+00  0.8000E+01
     -6.985  0.0000E+00  0.8000E+01
     -6.914  0.0000E+00  0.8000E+01
     -6.843  0.0000E+00  0.8000E+01
     -6.772  0.0000E+00  0.8000E+01
     -6.701  0.0000E+00  0.8000E+01
     -6.630  0.0000E+00  0.8000E+01
     -6.559  0.0000E+00  0.8000E+01
     -6.488  0.0000E+00  0.8000E+01
     -6.417  0.0000E+00  0.8000E+01
     -6.346  0.0000E+00  0.8000E+01
     -6.275  0.0000E+00  0.8000E+01
     -6.204  0.0000E+00  0.8000E+01
     -6.132  0.0000E+00  0.8000E+01
     -6.061  0.0000E+00  0.8000E+01
     -5.990  0.0000E+00  0.8000E+01
     -5.919  0.0000E+00  0.8000E+01
     -5.848  0.0000E+00  0.8000E+01
     -5.777  0.0000E+00  0.8000E+01
     -5.706  0.0000E+00  0.8000E+01
     -5.635  0.0000E+00  0.8000E+01
     -5.564  0.0000E+00  0.8000E+01
     -5.493  0.0000E+00  0.8000E+01
     -5.422  0.0000E+00  0.8000E+01
     -5.351  0.0000E+00  0.8000E+01
     -5.280  0.0000E+00  0.8000E+01
     -5.209  0.0000E+00  0.8000E+01
     -5.138  0.0000E+00  0.8000E+01
     -5.067  0.0000E+00  0.8000E+01
     -4.995  0.0000E+00  0.8000E+01
     -4.924  0.0000E+00  0.8000E+01
     -4.853  0.0000E+00  0.8000E+01
     -4.782  0.0000E+00  0.8000E+01
     -4.711  0.0000E+00  0.8000E+01
     -4.640  0.0000E+00  0.8000E+01
     -4.569  0.0000E+00  0.8000E+01
     -4.498  0.0000E+00  0.8000E+01
     -4.427  0.0000E+00  0.8000E+01
     -4.356  0.0000E+00  0.8000E+01
     -4.285  0.0000E+00  0.8000E+01
     -4.214  0.0000E+00  0.8000E+01
     -4.143  0.0000E+00  0.8000E+01
     -4.072  0.0000E+00  0.8000E+01
     -4.001  0.0000E+00  0.8000E+01
     -3.929  0.0000E+00  0.8000E+01
     -3.858  0.0000E+00  0.8000E+01
     -3.787  0.0000E+00  0.8000E+01
     -3.716  0.0000E+00  0.8000E+01
     -3.645  0.0000E+00  0.8000E+01
     -3.574  0.0000E+00  0.8000E+01
     -3.503  0.0000E+00  0.8000E+01
     -3.432  0.0000E+00  0.8000E+01
     -3.361  0.0000E+00  0.8000E+01
     -3.290  0.0000E+00  0.8000E+01
     -3.219  0.0000E+00  0.8000E+01
     -3.148  0.0000E+00  0.8000E+01
     -3.077  0.0000E+00  0.8000E+01
     -3.006  0.0000E+00  0.8000E+01
     -2.935  0.0000E+00  0.8000E+01
     -2.864  0.0000E+00  0.8000E+01
     -2.792  0.0000E+00  0.8000E+01
     -2.721  0.0000E+00  0.8000E+01
     -2.650  0.0000E+00  0.8000E+01
     -2.579  0.6514E-01  0.8000E+01
     -2.508  0.9189E+00  0.8035E+01
     -2.437  0.1885E+01  0.8133E+01
     -2.366  0.3057E+01  0.8307E+01
     -2.295  0.4653E+01  0.8573E+01
     -2.224  0.5428E+01  0.8943E+01
     -2.153  0.5885E+01  0.9346E+01
     -2.082  0.7742E+01  0.9891E+01
     -2.011  0.6600E+01  0.1040E+02
     -1.940  0.5570E+01  0.1083E+02
     -1.869  0.9574E+01  0.1153E+02
     -1.798  0.2792E+01  0.1195E+02
     -1.727  0.1046E+02  0.1244E+02
     -1.655  0.5825E+01  0.1299E+02
     -1.584  0.2684E+01  0.1323E+02
     -1.513  0.2465E+01  0.1342E+02
     -1.442  0.2245E+01  0.1358E+02
     -1.371  0.2026E+01  0.1373E+02
     -1.300  0.1807E+01  0.1387E+02
     -1.229  0.1667E+01  0.1399E+02
     -1.158  0.1679E+01  0.1411E+02
     -1.087  0.1691E+01  0.1423E+02
     -1.016  0.1703E+01  0.1435E+02
     -0.945  0.1718E+01  0.1447E+02
     -0.874  0.4470E+01  0.1467E+02
     -0.803  0.9665E+01  0.1516E+02
     -0.732  0.1299E+02  0.1602E+02
     -0.661  0.9984E+01  0.1678E+02
     -0.589  0.8541E+01  0.1746E+02
     -0.518  0.5388E+01  0.1796E+02
     -0.447  0.2699E+01  0.1824E+02
     -0.376  0.2385E+01  0.1842E+02
     -0.305  0.2208E+01  0.1858E+02
     -0.234  0.2048E+01  0.1873E+02
     -0.163  0.1889E+01  0.1887E+02
     -0.092  0.6101E+01  0.1903E+02
     -0.021  0.2017E+02  0.2031E+02
      0.050  0.7853E+01  0.2124E+02
      0.121  0.5502E+01  0.2171E+02
      0.192  0.6524E+01  0.2218E+02
      0.263  0.3794E+01  0.2253E+02
      0.334  0.3607E+01  0.2280E+02
      0.405  0.3420E+01  0.2305E+02
      0.476  0.3233E+01  0.2328E+02
      0.548  0.4949E+01  0.2357E+02
      0.619  0.5039E+01  0.2394E+02
      0.690  0.4510E+01  0.2429E+02
      0.761  0.2832E+01  0.2455E+02
      0.832  0.1790E+01  0.2469E+02
      0.903  0.1749E+01  0.2482E+02
      0.974  0.1714E+01  0.2494E+02
      1.045  0.1685E+01  0.2506E+02
      1.116  0.3943E+01  0.2521E+02
      1.187  0.9964E+01  0.2569E+02
      1.258  0.1833E+02  0.2670E+02
      1.329  0.1415E+02  0.2788E+02
      1.400  0.5567E+01  0.2858E+02
      1.471  0.3196E+01  0.2887E+02
      1.542  0.2959E+01  0.2908E+02
      1.613  0.2883E+01  0.2929E+02
      1.685  0.2979E+01  0.2949E+02
      1.756  0.3474E+01  0.2972E+02
      1.827  0.6020E+01  0.3004E+02
      1.898  0.8480E+01  0.3058E+02
      1.969  0.4934E+01  0.3109E+02
      2.040  0.4503E+01  0.3143E+02
      2.111  0.3264E+01  0.3171E+02
      2.182  0.1725E+01  0.3189E+02
      2.253  0.2529E+01  0.3201E+02
      2.324  0.6191E+01  0.3231E+02
      2.395  0.7850E+01  0.3289E+02
      2.466  0.7199E+01  0.3343E+02
      2.537  0.6661E+01  0.3392E+02
      2.608  0.6143E+01  0.3437E+02
      2.679  0.4311E+01  0.3476E+02
      2.751  0.3788E+01  0.3505E+02
      2.822  0.3265E+01  0.3530E+02
      2.893  0.3007E+01  0.3552E+02
      2.964  0.2376E+01  0.3571E+02
      3.035  0.9396E+00  0.3588E+02
      3.106  0.8422E+00  0.3595E+02
      3.177  0.3276E+00  0.3598E+02
      3.248  0.8283E-01  0.3600E+02
      3.319  0.1061E-04  0.3600E+02
      3.390  0.0000E+00  0.3600E+02
      3.461  0.0000E+00  0.3600E+02
      3.532  0.0000E+00  0.3600E+02
      3.603  0.0000E+00  0.3600E+02
      3.674  0.0000E+00  0.3600E+02
      3.745  0.0000E+00  0.3600E+02
      3.816  0.0000E+00  0.3600E+02
      3.888  0.0000E+00  0.3600E+02
      3.959  0.0000E+00  0.3600E+02
      4.030  0.0000E+00  0.3600E+02
      4.101  0.0000E+00  0.3600E+02
      4.172  0.0000E+00  0.3600E+02
      4.243  0.0000E+00  0.3600E+02
      4.314  0.0000E+00  0.3600E+02
      4.385  0.0000E+00  0.3600E+02
      4.456  0.0000E+00  0.3600E+02
      4.527  0.0000E+00  0.3600E+02
      4.598  0.0000E+00  0.3600E+02
      4.669  0.0000E+00  0.3600E+02
      4.740  0.0000E+00  0.3600E+02
      4.811  0.0000E+00  0.3600E+02
      4.882  0.0000E+00  0.3600E+02
      4.953  0.0000E+00  0.3600E+02
      5.025  0.1737E+01  0.3615E+02
      5.096  0.5172E+01  0.3639E+02
      5.167  0.8679E+01  0.3689E+02
      5.238  0.1268E+02  0.3765E+02
      5.309  0.2676E+02  0.3875E+02
      5.380  0.2284E+01  0.3947E+02
      5.451  0.1655E+01  0.3961E+02
      5.522  0.7679E+01  0.3988E+02
      5.593  0.7560E+01  0.4061E+02
      5.664  0.8202E+01  0.4118E+02
      5.735  0.7950E+01  0.4176E+02
      5.806  0.1018E+02  0.4234E+02
      5.877  0.4934E+01  0.4291E+02
      5.948  0.3243E+01  0.4318E+02
      6.019  0.2675E+01  0.4339E+02
      6.091  0.2234E+01  0.4356E+02
      6.162  0.1981E+01  0.4371E+02
      6.233  0.1898E+01  0.4386E+02
      6.304  0.9782E+00  0.4396E+02
      6.375  0.0000E+00  0.4400E+02
      6.446  0.0000E+00  0.4400E+02
      6.517  0.0000E+00  0.4400E+02
      6.588  0.0000E+00  0.4400E+02
      6.659  0.0000E+00  0.4400E+02
      6.730  0.0000E+00  0.4400E+02
      6.801  0.0000E+00  0.4400E+02
      6.872  0.0000E+00  0.4400E+02
      6.943  0.0000E+00  0.4400E+02
      7.014  0.0000E+00  0.4400E+02
      7.085  0.0000E+00  0.4400E+02
      7.156  0.0000E+00  0.4400E+02
      7.228  0.0000E+00  0.4400E+02
      7.299  0.0000E+00  0.4400E+02
      7.370  0.0000E+00  0.4400E+02
      7.441  0.0000E+00  0.4400E+02
      7.512  0.0000E+00  0.4400E+02
      7.583  0.0000E+00  0.4400E+02
      7.654  0.0000E+00  0.4400E+02
      7.725  0.0000E+00  0.4400E+02
      7.796  0.0000E+00  0.4400E+02
      7.867  0.0000E+00  0.4400E+02
      7.938  0.0000E+00  0.4400E+02
      8.009  0.0000E+00  0.4400E+02
      8.080  0.0000E+00  0.4400E+02
      8.151  0.0000E+00  0.4400E+02
      8.222  0.0000E+00  0.4400E+02
      8.293  0.0000E+00  0.4400E+02
      8.365  0.0000E+00  0.4400E+02
