       N       E                     dE             d eps       ncg     rms          rms(c)
DAV:   1     0.112083303168E+03    0.11208E+03   -0.94580E+03   894   0.660E+02
DAV:   2    -0.369412775878E+02   -0.14902E+03   -0.14564E+03  1218   0.178E+02
DAV:   3    -0.463370345893E+02   -0.93958E+01   -0.93650E+01  1164   0.493E+01
DAV:   4    -0.465707259809E+02   -0.23369E+00   -0.23339E+00  1248   0.808E+00
DAV:   5    -0.465763936130E+02   -0.56676E-02   -0.56659E-02  1196   0.109E+00    0.982E+00
RMM:   6    -0.442145195868E+02    0.23619E+01   -0.23557E+01   973   0.176E+01    0.338E+00
RMM:   7    -0.434878617590E+02    0.72666E+00   -0.19354E+00   974   0.472E+00    0.187E+00
RMM:   8    -0.434094770852E+02    0.78385E-01   -0.77036E-01   988   0.317E+00    0.753E-01
RMM:   9    -0.433987414606E+02    0.10736E-01   -0.20351E-01  1045   0.165E+00    0.461E-01
RMM:  10    -0.433883731147E+02    0.10368E-01   -0.48177E-02  1049   0.838E-01    0.836E-02
RMM:  11    -0.433883654431E+02    0.76715E-05   -0.28003E-03  1090   0.204E-01    0.289E-02
RMM:  12    -0.433885049453E+02   -0.13950E-03   -0.49330E-04  1124   0.860E-02    0.146E-02
RMM:  13    -0.433885185846E+02   -0.13639E-04   -0.22429E-04  1128   0.533E-02    0.169E-02
RMM:  14    -0.433885099706E+02    0.86141E-05   -0.62468E-05   865   0.319E-02
   1 F= -.44719797E+02 E0= -.44719797E+02  d E =0.000000E+00
