 vasp.5.4.4.18Apr17-6-g9f103f2a35 (build Jun 30 2017 11:15:00) complex          
  
 executed on    STALLO_VASP_5.4.4 date 2019.11.08  11:35:49
 running on    4 total cores
 distrk:  each k-point on    4 cores,    1 groups
 distr:  one band on NCORES_PER_BAND=   2 cores,    2 groups


--------------------------------------------------------------------------------------------------------


 INCAR:
 POTCAR:   PAW_PBE Mo 08Apr2002                   
 POTCAR:    PAW_PBE S 17Jan2003                   
 POTCAR:   PAW_PBE Mo 08Apr2002                   
   VRHFIN =Mo: 4p5s4d                                                           
   LEXCH  = PE                                                                  
   EATOM  =   217.5180 eV,   15.9871 Ry                                         
                                                                                
   TITEL  = PAW_PBE Mo 08Apr2002                                                
   LULTRA =        F    use ultrasoft PP ?                                      
   IUNSCR =        1    unscreen: 0-lin 1-nonlin 2-no                           
   RPACOR =    2.200    partial core radius                                     
   POMASS =   95.940; ZVAL   =    6.000    mass and valenz                      
   RCORE  =    2.750    outmost cutoff radius                                   
   RWIGS  =    2.750; RWIGS  =    1.455    wigner-seitz radius (au A)           
   ENMAX  =  224.584; ENMIN  =  168.438 eV                                      
   RCLOC  =    2.111    cutoff for local pot                                    
   LCOR   =        T    correct aug charges                                     
   LPAW   =        T    paw PP                                                  
   EAUG   =  345.278                                                            
   DEXC   =    -.088                                                            
   RMAX   =    3.077    core radius for proj-oper                               
   RAUG   =    1.300    factor for augmentation sphere                          
   RDEP   =    2.815    radius for radial grids                                 
   QCUT   =   -4.063; QGAM   =    8.126    optimization parameters              
                                                                                
   Description                                                                  
     l     E      TYP  RCUT    TYP  RCUT                                        
     2   .000     23  2.500                                                     
     2   .000     23  2.500                                                     
     0   .000     23  2.600                                                     
     0  1.000     23  2.600                                                     
     1   .400     23  2.750                                                     
     1  2.000     23  2.750                                                     
     3   .000      7   .000                                                     
  local pseudopotential read in
  partial core-charges read in
  atomic valenz-charges read in
  non local Contribution for L=           2  read in
    real space projection operators read in
  non local Contribution for L=           2  read in
    real space projection operators read in
  non local Contribution for L=           0  read in
    real space projection operators read in
  non local Contribution for L=           0  read in
    real space projection operators read in
  non local Contribution for L=           1  read in
    real space projection operators read in
  non local Contribution for L=           1  read in
    real space projection operators read in
    PAW grid and wavefunctions read in
 
   number of l-projection  operators is LMAX  =           6
   number of lm-projection operators is LMMAX =          18
 
 POTCAR:    PAW_PBE S 17Jan2003                   
   VRHFIN =S : s2p4                                                             
   LEXCH  = PE                                                                  
   EATOM  =   276.8230 eV,   20.3459 Ry                                         
                                                                                
   TITEL  = PAW_PBE S 17Jan2003                                                 
   LULTRA =        F    use ultrasoft PP ?                                      
   IUNSCR =        1    unscreen: 0-lin 1-nonlin 2-no                           
   RPACOR =    1.500    partial core radius                                     
   POMASS =   32.066; ZVAL   =    6.000    mass and valenz                      
   RCORE  =    1.900    outmost cutoff radius                                   
   RWIGS  =    2.200; RWIGS  =    1.164    wigner-seitz radius (au A)           
   ENMAX  =  280.000; ENMIN  =  194.016 eV                                      
   ICORE  =        2    local potential                                         
   LCOR   =        T    correct aug charges                                     
   LPAW   =        T    paw PP                                                  
   EAUG   =  335.092                                                            
   DEXC   =     .000                                                            
   RMAX   =    2.867    core radius for proj-oper                               
   RAUG   =    1.300    factor for augmentation sphere                          
   RDEP   =    1.954    radius for radial grids                                 
   QCUT   =   -4.360; QGAM   =    8.721    optimization parameters              
                                                                                
   Description                                                                  
     l     E      TYP  RCUT    TYP  RCUT                                        
     0   .000     23  1.900                                                     
     0   .000     23  1.900                                                     
     1   .000     23  1.900                                                     
     1   .000     23  1.900                                                     
     2   .000     23  1.900                                                     
  local pseudopotential read in
  partial core-charges read in
  atomic valenz-charges read in
  non local Contribution for L=           0  read in
    real space projection operators read in
  non local Contribution for L=           0  read in
    real space projection operators read in
  non local Contribution for L=           1  read in
    real space projection operators read in
  non local Contribution for L=           1  read in
    real space projection operators read in
    PAW grid and wavefunctions read in
 
   number of l-projection  operators is LMAX  =           4
   number of lm-projection operators is LMMAX =           8
 
 PAW_PBE Mo 08Apr2002                   :
 energy of atom  1       EATOM= -217.5180
 kinetic energy error for atom=    0.1013 (will be added to EATOM!!)
  PAW_PBE S 17Jan2003                   :
 energy of atom  2       EATOM= -276.8230
 kinetic energy error for atom=    0.1878 (will be added to EATOM!!)
 
 
 POSCAR: MoS2_mp-2815_computed                   
  positions in direct lattice
  No initial velocities read in
 exchange correlation table for  LEXCH =        8
   RHO(1)=    0.500       N(1)  =     2000
   RHO(2)=  100.500       N(2)  =     4000
 


--------------------------------------------------------------------------------------------------------


 ion  position               nearest neighbor table
   1  0.333  0.667  0.250-   5 2.42   4 2.42   4 2.42   5 2.42   5 2.42   4 2.42
   2  0.667  0.333  0.750-   6 2.42   3 2.42   3 2.42   6 2.42   6 2.42   3 2.42
   3  0.333  0.667  0.855-   2 2.42   2 2.42   2 2.42
   4  0.667  0.333  0.145-   1 2.42   1 2.42   1 2.42
   5  0.667  0.333  0.355-   1 2.42   1 2.42   1 2.42
   6  0.333  0.667  0.645-   2 2.42   2 2.42   2 2.42
 
  LATTYP: Found a hexagonal cell.
 ALAT       =     3.1903157300
 C/A-ratio  =     4.6638030713
  
  Lattice vectors:
  
 A1 = (   3.1903157300,   0.0000000000,   0.0000000000)
 A2 = (  -1.5951578650,   2.7628944683,   0.0000000000)
 A3 = (   0.0000000000,   0.0000000000,  14.8790043000)


Analysis of symmetry for initial positions (statically):
=====================================================================
 Subroutine PRICEL returns:
 Original cell was already a primitive cell.
 

 Routine SETGRP: Setting up the symmetry group for a 
 hexagonal supercell.


 Subroutine GETGRP returns: Found 24 space group operations
 (whereof 12 operations were pure point group operations)
 out of a pool of 24 trial point group operations.


The static configuration has the point symmetry D_3d.
 The point group associated with its full space group is D_6h.


Analysis of symmetry for dynamics (positions and initial velocities):
=====================================================================
 Subroutine PRICEL returns:
 Original cell was already a primitive cell.
 

 Routine SETGRP: Setting up the symmetry group for a 
 hexagonal supercell.


 Subroutine GETGRP returns: Found 24 space group operations
 (whereof 12 operations were pure point group operations)
 out of a pool of 24 trial point group operations.


The dynamic configuration has the point symmetry D_3d.
 The point group associated with its full space group is D_6h.


 Subroutine INISYM returns: Found 24 space group operations
 (whereof 12 operations are pure point group operations),
 and found     1 'primitive' translations

 
 
 KPOINTS: k-density: 4.0                          

Automatic generation of k-mesh.
Space group operators:
 irot       det(A)        alpha          n_x          n_y          n_z        tau_x        tau_y        tau_z
    1     1.000000     0.000001     1.000000     0.000000     0.000000     0.000000     0.000000     0.000000
    2    -1.000000     0.000001     1.000000     0.000000     0.000000     0.000000     0.000000     0.000000
    3     1.000000   120.000000     0.000000     0.000000    -1.000000     0.000000     0.000000     0.000000
    4    -1.000000   120.000000     0.000000     0.000000    -1.000000     0.000000     0.000000     0.000000
    5     1.000000   120.000000     0.000000     0.000000     1.000000     0.000000     0.000000     0.000000
    6    -1.000000   120.000000     0.000000     0.000000     1.000000     0.000000     0.000000     0.000000
    7     1.000000   179.999999     1.000000    -0.000000     0.000000     0.000000     0.000000     0.000000
    8    -1.000000   179.999999     1.000000    -0.000000     0.000000     0.000000     0.000000     0.000000
    9     1.000000   180.000000     0.500000    -0.866025     0.000000     0.000000     0.000000     0.000000
   10    -1.000000   180.000000     0.500000    -0.866025     0.000000     0.000000     0.000000     0.000000
   11     1.000000   180.000000    -0.500000    -0.866025     0.000000     0.000000     0.000000     0.000000
   12    -1.000000   180.000000    -0.500000    -0.866025     0.000000     0.000000     0.000000     0.000000
   13     1.000000    60.000000     0.000000     0.000000    -1.000000     0.000001     0.000000     0.500000
   14    -1.000000    60.000000     0.000000     0.000000    -1.000000     0.000001     0.000000     0.500000
   15     1.000000   180.000000     0.000000     0.000000     1.000000     0.000000     0.000000     0.500000
   16    -1.000000   180.000000     0.000000     0.000000     1.000000     0.000000     0.000000     0.500000
   17     1.000000    60.000000     0.000000     0.000000     1.000000     0.000000     0.000000     0.500000
   18    -1.000000    60.000000     0.000000     0.000000     1.000000     0.000000     0.000000     0.500000
   19     1.000000   179.999999     0.866025    -0.500000     0.000000     0.000000     0.000000     0.500000
   20    -1.000000   179.999999     0.866025    -0.500000     0.000000     0.000000     0.000000     0.500000
   21     1.000000   180.000000     0.000000     1.000000     0.000000     0.000001     0.000000     0.500000
   22    -1.000000   180.000000     0.000000     1.000000     0.000000     0.000001     0.000000     0.500000
   23     1.000000   179.999999     0.866025     0.500000     0.000000     0.000000     0.000000     0.500000
   24    -1.000000   179.999999     0.866025     0.500000     0.000000     0.000000     0.000000     0.500000
 
 Subroutine IBZKPT returns following result:
 ===========================================
 
 Found     20 irreducible k-points:
 
 Following reciprocal coordinates:
            Coordinates               Weight
  0.000000  0.000000  0.000000      1.000000
  0.125000 -0.000000  0.000000      6.000000
  0.250000 -0.000000  0.000000      6.000000
  0.375000 -0.000000  0.000000      6.000000
  0.500000 -0.000000  0.000000      3.000000
  0.125000  0.125000  0.000000      6.000000
  0.250000  0.125000  0.000000     12.000000
  0.375000  0.125000  0.000000     12.000000
  0.250000  0.250000  0.000000      6.000000
  0.375000  0.250000  0.000000      6.000000
  0.000000  0.000000  0.500000      1.000000
  0.125000 -0.000000  0.500000      6.000000
  0.250000 -0.000000  0.500000      6.000000
  0.375000 -0.000000  0.500000      6.000000
  0.500000 -0.000000  0.500000      3.000000
  0.125000  0.125000  0.500000      6.000000
  0.250000  0.125000  0.500000     12.000000
  0.375000  0.125000  0.500000     12.000000
  0.250000  0.250000  0.500000      6.000000
  0.375000  0.250000  0.500000      6.000000
 
 Following cartesian coordinates:
            Coordinates               Weight
  0.000000  0.000000  0.000000      1.000000
  0.039181  0.022621  0.000000      6.000000
  0.078362  0.045242  0.000000      6.000000
  0.117543  0.067864  0.000000      6.000000
  0.156724  0.090485  0.000000      3.000000
  0.039181  0.067864  0.000000      6.000000
  0.078362  0.090485  0.000000     12.000000
  0.117543  0.113106  0.000000     12.000000
  0.078362  0.135727  0.000000      6.000000
  0.117543  0.158348  0.000000      6.000000
  0.000000  0.000000  0.033604      1.000000
  0.039181  0.022621  0.033604      6.000000
  0.078362  0.045242  0.033604      6.000000
  0.117543  0.067864  0.033604      6.000000
  0.156724  0.090485  0.033604      3.000000
  0.039181  0.067864  0.033604      6.000000
  0.078362  0.090485  0.033604     12.000000
  0.117543  0.113106  0.033604     12.000000
  0.078362  0.135727  0.033604      6.000000
  0.117543  0.158348  0.033604      6.000000
 
 TETIRR: Found    136 inequivalent tetrahedra from      768


--------------------------------------------------------------------------------------------------------




 Dimension of arrays:
   k-points           NKPTS =     20   k-points in BZ     NKDIM =     20   number of bands    NBANDS=     22
   number of dos      NEDOS =    301   number of ions     NIONS =      6
   non local maximal  LDIM  =      6   non local SUM 2l+1 LMDIM =     18
   total plane-waves  NPLWV =   7776
   max r-space proj   IRMAX =      1   max aug-charges    IRDMAX=   4006
   dimension x,y,z NGX =    12 NGY =   12 NGZ =   54
   dimension x,y,z NGXF=    24 NGYF=   24 NGZF=  108
   support grid    NGXF=    24 NGYF=   24 NGZF=  108
   ions per type =               2   4
   NGX,Y,Z   is equivalent  to a cutoff of   6.25,  6.25,  6.03 a.u.
   NGXF,Y,Z  is equivalent  to a cutoff of  12.51, 12.51, 12.07 a.u.

 SYSTEM =  unknown system                          
 POSCAR =  MoS2_mp-2815_computed                   

 Startparameter for this run:
   NWRITE =      2    write-flag & timer
   PREC   = normal    normal or accurate (medium, high low for compatibility)
   ISTART =      0    job   : 0-new  1-cont  2-samecut
   ICHARG =      2    charge: 1-file 2-atom 10-const
   ISPIN  =      1    spin polarized calculation?
   LNONCOLLINEAR =      F non collinear calculations
   LSORBIT =      F    spin-orbit coupling
   INIWAV =      1    electr: 0-lowe 1-rand  2-diag
   LASPH  =      F    aspherical Exc in radial PAW
   METAGGA=      F    non-selfconsistent MetaGGA calc.

 Electronic Relaxation 1
   ENCUT  =  200.0 eV  14.70 Ry    3.83 a.u.   3.68  3.68 17.16*2*pi/ulx,y,z
   ENINI  =  200.0     initial cutoff
   ENAUG  =  345.3 eV  augmentation charge cutoff
   NELM   =     60;   NELMIN=  4; NELMDL=  0     # of ELM steps 
   EDIFF  = 0.1E-04   stopping-criterion for ELM
   LREAL  =      F    real-space projection
   NLSPLINE    = F    spline interpolate recip. space projectors
   LCOMPAT=      F    compatible to vasp.4.4
   GGA_COMPAT  = T    GGA compatible to vasp.4.4-vasp.4.6
   LMAXPAW     = -100 max onsite density
   LMAXMIX     =    2 max onsite mixed and CHGCAR
   VOSKOWN=      0    Vosko Wilk Nusair interpolation
   ROPT   =    0.00000   0.00000
 Ionic relaxation
   EDIFFG = 0.1E-03   stopping-criterion for IOM
   NSW    =      0    number of steps for IOM
   NBLOCK =      1;   KBLOCK =      1    inner block; outer block 
   IBRION =     -1    ionic relax: 0-MD 1-quasi-New 2-CG
   NFREE  =      0    steps in history (QN), initial steepest desc. (CG)
   ISIF   =      2    stress and relaxation
   IWAVPR =     10    prediction:  0-non 1-charg 2-wave 3-comb
   ISYM   =      2    0-nonsym 1-usesym 2-fastsym
   LCORR  =      T    Harris-Foulkes like correction to forces

   POTIM  = 0.5000    time-step for ionic-motion
   TEIN   =    0.0    initial temperature
   TEBEG  =    0.0;   TEEND  =   0.0 temperature during run
   SMASS  =  -3.00    Nose mass-parameter (am)
   estimated Nose-frequenzy (Omega)   =  0.10E-29 period in steps =****** mass=  -0.233E-27a.u.
   SCALEE = 1.0000    scale energy and forces
   NPACO  =    256;   APACO  = 16.0  distance and # of slots for P.C.
   PSTRESS=    0.0 pullay stress

  Mass of Ions in am
   POMASS =  95.94 32.07
  Ionic Valenz
   ZVAL   =   6.00  6.00
  Atomic Wigner-Seitz radii
   RWIGS  =  -1.00 -1.00
  virtual crystal weights 
   VCA    =   1.00  1.00
   NELECT =      36.0000    total number of electrons
   NUPDOWN=      -1.0000    fix difference up-down

 DOS related values:
   EMIN   =  10.00;   EMAX   =-10.00  energy-range for DOS
   EFERMI =   0.00
   ISMEAR =    -5;   SIGMA  =   0.20  broadening in eV -4-tet -1-fermi 0-gaus

 Electronic relaxation 2 (details)
   IALGO  =     68    algorithm
   LDIAG  =      T    sub-space diagonalisation (order eigenvalues)
   LSUBROT=      F    optimize rotation matrix (better conditioning)
   TURBO    =      0    0=normal 1=particle mesh
   IRESTART =      0    0=no restart 2=restart with 2 vectors
   NREBOOT  =      0    no. of reboots
   NMIN     =      0    reboot dimension
   EREF     =   0.00    reference energy to select bands
   IMIX   =      4    mixing-type and parameters
     AMIX     =   0.40;   BMIX     =  1.00
     AMIX_MAG =   1.60;   BMIX_MAG =  1.00
     AMIN     =   0.10
     WC   =   100.;   INIMIX=   1;  MIXPRE=   1;  MAXMIX= -45

 Intra band minimization:
   WEIMIN = 0.0000     energy-eigenvalue tresh-hold
   EBREAK =  0.11E-06  absolut break condition
   DEPER  =   0.30     relativ break condition  

   TIME   =   0.40     timestep for ELM

  volume/ion in A,a.u.               =      21.86       147.51
  Fermi-wavevector in a.u.,A,eV,Ry     =   1.063943  2.010561 15.401453  1.131975
  Thomas-Fermi vector in A             =   2.199445
 
 Write flags
   LWAVE        =      F    write WAVECAR
   LDOWNSAMPLE  =      F    k-point downsampling of WAVECAR
   LCHARG       =      T    write CHGCAR
   LVTOT        =      F    write LOCPOT, total local potential
   LVHAR        =      F    write LOCPOT, Hartree potential only
   LELF         =      F    write electronic localiz. function (ELF)
   LORBIT       =      0    0 simple, 1 ext, 2 COOP (PROOUT), +10 PAW based schemes


 Dipole corrections
   LMONO  =      F    monopole corrections only (constant potential shift)
   LDIPOL =      F    correct potential (dipole corrections)
   IDIPOL =      0    1-x, 2-y, 3-z, 4-all directions 
   EPSILON=  1.0000000 bulk dielectric constant

 Exchange correlation treatment:
   GGA     =    --    GGA type
   LEXCH   =     8    internal setting for exchange type
   VOSKOWN=      0    Vosko Wilk Nusair interpolation
   LHFCALC =     F    Hartree Fock is set to
   LHFONE  =     F    Hartree Fock one center treatment
   AEXX    =    0.0000 exact exchange contribution

 Linear response parameters
   LEPSILON=     F    determine dielectric tensor
   LRPA    =     F    only Hartree local field effects (RPA)
   LNABLA  =     F    use nabla operator in PAW spheres
   LVEL    =     F    velocity operator in full k-point grid
   LINTERFAST=   F  fast interpolation
   KINTER  =     0    interpolate to denser k-point grid
   CSHIFT  =0.1000    complex shift for real part using Kramers Kronig
   OMEGAMAX=  -1.0    maximum frequency
   DEG_THRESHOLD= 0.2000000E-02 threshold for treating states as degnerate
   RTIME   =   -0.100 relaxation time in fs
  (WPLASMAI=    0.000 imaginary part of plasma frequency in eV, 0.658/RTIME)
   DFIELD  = 0.0000000 0.0000000 0.0000000 field for delta impulse in time
 
 Orbital magnetization related:
   ORBITALMAG=     F  switch on orbital magnetization
   LCHIMAG   =     F  perturbation theory with respect to B field
   DQ        =  0.001000  dq finite difference perturbation B field
   LLRAUG    =     F  two centre corrections for induced B field



--------------------------------------------------------------------------------------------------------


 Static calculation
 charge density and potential will be updated during run
 non-spin polarized calculation
 RMM-DIIS sequential band-by-band and
  variant of blocked Davidson during initial phase
 perform sub-space diagonalisation
    before iterative eigenvector-optimisation
 modified Broyden-mixing scheme, WC =      100.0
 initial mixing is a Kerker type mixing with AMIX =  0.4000 and BMIX =      1.0000
 Hartree-type preconditioning will be used
 using additional bands            4
 reciprocal scheme for non local part
 use partial core corrections
 calculate Harris-corrections to forces 
   (improved forces if not selfconsistent)
 use gradient corrections 
 use of overlap-Matrix (Vanderbilt PP)
 Fermi weights with tetrahedron method with Bloechl corrections


--------------------------------------------------------------------------------------------------------


  energy-cutoff  :      200.00
  volume of cell :      131.15
      direct lattice vectors                 reciprocal lattice vectors
     3.190315730  0.000000000  0.000000000     0.313448600  0.180969634  0.000000000
    -1.595157865  2.762894468  0.000000000     0.000000000  0.361939267  0.000000000
     0.000000000  0.000000000 14.879004300     0.000000000  0.000000000  0.067208798

  length of vectors
     3.190315730  3.190315730 14.879004300     0.361939267  0.361939267  0.067208798


 
 k-points in units of 2pi/SCALE and weight: k-density: 4.0                          
   0.00000000  0.00000000  0.00000000       0.008
   0.03918108  0.02262120  0.00000000       0.047
   0.07836215  0.04524241  0.00000000       0.047
   0.11754323  0.06786361  0.00000000       0.047
   0.15672430  0.09048482  0.00000000       0.023
   0.03918108  0.06786361  0.00000000       0.047
   0.07836215  0.09048482  0.00000000       0.094
   0.11754323  0.11310602  0.00000000       0.094
   0.07836215  0.13572723  0.00000000       0.047
   0.11754323  0.15834843  0.00000000       0.047
   0.00000000  0.00000000  0.03360440       0.008
   0.03918108  0.02262120  0.03360440       0.047
   0.07836215  0.04524241  0.03360440       0.047
   0.11754323  0.06786361  0.03360440       0.047
   0.15672430  0.09048482  0.03360440       0.023
   0.03918108  0.06786361  0.03360440       0.047
   0.07836215  0.09048482  0.03360440       0.094
   0.11754323  0.11310602  0.03360440       0.094
   0.07836215  0.13572723  0.03360440       0.047
   0.11754323  0.15834843  0.03360440       0.047
 
 k-points in reciprocal lattice and weights: k-density: 4.0                          
   0.00000000  0.00000000  0.00000000       0.008
   0.12500000 -0.00000000  0.00000000       0.047
   0.25000000 -0.00000000  0.00000000       0.047
   0.37500000 -0.00000000  0.00000000       0.047
   0.50000000 -0.00000000  0.00000000       0.023
   0.12500000  0.12500000  0.00000000       0.047
   0.25000000  0.12500000  0.00000000       0.094
   0.37500000  0.12500000  0.00000000       0.094
   0.25000000  0.25000000  0.00000000       0.047
   0.37500000  0.25000000  0.00000000       0.047
   0.00000000  0.00000000  0.50000000       0.008
   0.12500000 -0.00000000  0.50000000       0.047
   0.25000000 -0.00000000  0.50000000       0.047
   0.37500000 -0.00000000  0.50000000       0.047
   0.50000000 -0.00000000  0.50000000       0.023
   0.12500000  0.12500000  0.50000000       0.047
   0.25000000  0.12500000  0.50000000       0.094
   0.37500000  0.12500000  0.50000000       0.094
   0.25000000  0.25000000  0.50000000       0.047
   0.37500000  0.25000000  0.50000000       0.047
 
 position of ions in fractional coordinates (direct lattice) 
   0.33333300  0.66666700  0.25000000
   0.66666700  0.33333300  0.75000000
   0.33333300  0.66666700  0.85517400
   0.66666700  0.33333300  0.14482600
   0.66666600  0.33333300  0.35517400
   0.33333400  0.66666700  0.64482600
 
 position of ions in cartesian coordinates  (Angst):
  -0.00000160  1.84193057  3.71975108
   1.59515946  0.92096390 11.15925323
  -0.00000160  1.84193057 12.72413762
   1.59515946  0.92096390  2.15486668
   1.59515627  0.92096390  5.28463547
   0.00000160  1.84193057  9.59436883
 


--------------------------------------------------------------------------------------------------------


 k-point  1 :   0.0000 0.0000 0.0000  plane waves:     863
 k-point  2 :   0.1250-0.0000 0.0000  plane waves:     861
 k-point  3 :   0.2500-0.0000 0.0000  plane waves:     848
 k-point  4 :   0.3750-0.0000 0.0000  plane waves:     832
 k-point  5 :   0.5000-0.0000 0.0000  plane waves:     846
 k-point  6 :   0.1250 0.1250 0.0000  plane waves:     845
 k-point  7 :   0.2500 0.1250 0.0000  plane waves:     838
 k-point  8 :   0.3750 0.1250 0.0000  plane waves:     842
 k-point  9 :   0.2500 0.2500 0.0000  plane waves:     840
 k-point 10 :   0.3750 0.2500 0.0000  plane waves:     832
 k-point 11 :   0.0000 0.0000 0.5000  plane waves:     862
 k-point 12 :   0.1250-0.0000 0.5000  plane waves:     856
 k-point 13 :   0.2500-0.0000 0.5000  plane waves:     842
 k-point 14 :   0.3750-0.0000 0.5000  plane waves:     834
 k-point 15 :   0.5000-0.0000 0.5000  plane waves:     848
 k-point 16 :   0.1250 0.1250 0.5000  plane waves:     844
 k-point 17 :   0.2500 0.1250 0.5000  plane waves:     846
 k-point 18 :   0.3750 0.1250 0.5000  plane waves:     842
 k-point 19 :   0.2500 0.2500 0.5000  plane waves:     834
 k-point 20 :   0.3750 0.2500 0.5000  plane waves:     844

 maximum and minimum number of plane-waves per node :       432      410

 maximum number of plane-waves:       863
 maximum index in each direction: 
   IXMAX=    3   IYMAX=    3   IZMAX=   17
   IXMIN=   -4   IYMIN=   -3   IZMIN=  -17


 parallel 3D FFT for wavefunctions:
    minimum data exchange during FFTs selected (reduces bandwidth)
 parallel 3D FFT for charge:
    minimum data exchange during FFTs selected (reduces bandwidth)


 total amount of memory used by VASP MPI-rank0    35900. kBytes
=======================================================================

   base      :      30000. kBytes
   nonl-proj :       2529. kBytes
   fftplans  :        646. kBytes
   grid      :       1039. kBytes
   one-center:         46. kBytes
   wavefun   :       1640. kBytes
 
     INWAV:  cpu time    0.0010: real time    0.0004
 Broyden mixing: mesh for mixing (old mesh)
   NGX =  7   NGY =  7   NGZ = 35
  (NGX  = 24   NGY  = 24   NGZ  =108)
  gives a total of   1715 points

 initial charge density was supplied:
 charge density of overlapping atoms calculated
 number of electron      36.0000000 magnetization 
 keeping initial charge density in first step


--------------------------------------------------------------------------------------------------------


 Maximum index for augmentation-charges          931 (set IRDMAX)


--------------------------------------------------------------------------------------------------------


 First call to EWALD:  gamma=   0.349
 Maximum number of real-space cells 5x 5x 1
 Maximum number of reciprocal cells 2x 2x 7

    FEWALD:  cpu time    0.0010: real time    0.0015


--------------------------------------- Iteration      1(   1)  ---------------------------------------


    POTLOK:  cpu time    0.0120: real time    0.0376
    SETDIJ:  cpu time    0.0040: real time    0.0040
     EDDAV:  cpu time    0.1830: real time    0.1891
 BZINTS: Fermi energy: 11.699566; 36.000000 electrons
         Band energy:  79.776876;  BLOECHL correction: -0.153907
       DOS:  cpu time    0.0050: real time    0.0052
    --------------------------------------------
      LOOP:  cpu time    0.2040: real time    0.2359

 eigenvalue-minimisations  :   894
 total energy-change (2. order) : 0.1120833E+03  (-0.9457972E+03)
 number of electron      36.0000000 magnetization 
 augmentation part       36.0000000 magnetization 

 Free energy of the ion-electron system (eV)
  ---------------------------------------------------
  alpha Z        PSCENC =        90.42577596
  Ewald energy   TEWEN  =     -1146.88905665
  -Hartree energ DENC   =      -535.10238360
  -exchange      EXHF   =         0.00000000
  -V(xc)+E(xc)   XCENC  =       -72.59367574
  PAW double counting   =       813.77302396     -658.68146406
  entropy T*S    EENTRO =         0.00000000
  eigenvalues    EBANDS =        79.77687610
  atomic energy  EATOM  =      1541.37420719
  Solvation  Ediel_sol  =         0.00000000
  ---------------------------------------------------
  free energy    TOTEN  =       112.08330317 eV

  energy without entropy =      112.08330317  energy(sigma->0) =      112.08330317


--------------------------------------------------------------------------------------------------------




--------------------------------------- Iteration      1(   2)  ---------------------------------------


     EDDAV:  cpu time    0.2300: real time    0.2309
 BZINTS: Fermi energy:  5.025156; 36.000000 electrons
         Band energy: -69.247705;  BLOECHL correction:  0.000000
       DOS:  cpu time    0.0010: real time    0.0013
    --------------------------------------------
      LOOP:  cpu time    0.2310: real time    0.2322

 eigenvalue-minimisations  :  1218
 total energy-change (2. order) :-0.1490246E+03  (-0.1456436E+03)
 number of electron      36.0000000 magnetization 
 augmentation part       36.0000000 magnetization 

 Free energy of the ion-electron system (eV)
  ---------------------------------------------------
  alpha Z        PSCENC =        90.42577596
  Ewald energy   TEWEN  =     -1146.88905665
  -Hartree energ DENC   =      -535.10238360
  -exchange      EXHF   =         0.00000000
  -V(xc)+E(xc)   XCENC  =       -72.59367574
  PAW double counting   =       813.77302396     -658.68146406
  entropy T*S    EENTRO =         0.00000000
  eigenvalues    EBANDS =       -69.24770466
  atomic energy  EATOM  =      1541.37420719
  Solvation  Ediel_sol  =         0.00000000
  ---------------------------------------------------
  free energy    TOTEN  =       -36.94127759 eV

  energy without entropy =      -36.94127759  energy(sigma->0) =      -36.94127759


--------------------------------------------------------------------------------------------------------




--------------------------------------- Iteration      1(   3)  ---------------------------------------


     EDDAV:  cpu time    0.2200: real time    0.2204
 BZINTS: Fermi energy:  3.963123; 36.000000 electrons
         Band energy: -78.643462;  BLOECHL correction:  0.000000
       DOS:  cpu time    0.0020: real time    0.0013
    --------------------------------------------
      LOOP:  cpu time    0.2220: real time    0.2217

 eigenvalue-minimisations  :  1164
 total energy-change (2. order) :-0.9395757E+01  (-0.9364974E+01)
 number of electron      36.0000000 magnetization 
 augmentation part       36.0000000 magnetization 

 Free energy of the ion-electron system (eV)
  ---------------------------------------------------
  alpha Z        PSCENC =        90.42577596
  Ewald energy   TEWEN  =     -1146.88905665
  -Hartree energ DENC   =      -535.10238360
  -exchange      EXHF   =         0.00000000
  -V(xc)+E(xc)   XCENC  =       -72.59367574
  PAW double counting   =       813.77302396     -658.68146406
  entropy T*S    EENTRO =         0.00000000
  eigenvalues    EBANDS =       -78.64346166
  atomic energy  EATOM  =      1541.37420719
  Solvation  Ediel_sol  =         0.00000000
  ---------------------------------------------------
  free energy    TOTEN  =       -46.33703459 eV

  energy without entropy =      -46.33703459  energy(sigma->0) =      -46.33703459


--------------------------------------------------------------------------------------------------------




--------------------------------------- Iteration      1(   4)  ---------------------------------------


     EDDAV:  cpu time    0.2320: real time    0.2360
 BZINTS: Fermi energy:  3.937950; 36.000000 electrons
         Band energy: -78.877153;  BLOECHL correction:  0.000000
       DOS:  cpu time    0.0020: real time    0.0014
    --------------------------------------------
      LOOP:  cpu time    0.2340: real time    0.2374

 eigenvalue-minimisations  :  1248
 total energy-change (2. order) :-0.2336914E+00  (-0.2333919E+00)
 number of electron      36.0000000 magnetization 
 augmentation part       36.0000000 magnetization 

 Free energy of the ion-electron system (eV)
  ---------------------------------------------------
  alpha Z        PSCENC =        90.42577596
  Ewald energy   TEWEN  =     -1146.88905665
  -Hartree energ DENC   =      -535.10238360
  -exchange      EXHF   =         0.00000000
  -V(xc)+E(xc)   XCENC  =       -72.59367574
  PAW double counting   =       813.77302396     -658.68146406
  entropy T*S    EENTRO =         0.00000000
  eigenvalues    EBANDS =       -78.87715305
  atomic energy  EATOM  =      1541.37420719
  Solvation  Ediel_sol  =         0.00000000
  ---------------------------------------------------
  free energy    TOTEN  =       -46.57072598 eV

  energy without entropy =      -46.57072598  energy(sigma->0) =      -46.57072598


--------------------------------------------------------------------------------------------------------




--------------------------------------- Iteration      1(   5)  ---------------------------------------


     EDDAV:  cpu time    0.2240: real time    0.2237
 BZINTS: Fermi energy:  3.912585; 36.000000 electrons
         Band energy: -78.882821;  BLOECHL correction:  0.000000
       DOS:  cpu time    0.0010: real time    0.0014
    CHARGE:  cpu time    0.0130: real time    0.0127
    MIXING:  cpu time    0.0000: real time    0.0008
    --------------------------------------------
      LOOP:  cpu time    0.2380: real time    0.2386

 eigenvalue-minimisations  :  1196
 total energy-change (2. order) :-0.5667632E-02  (-0.5665877E-02)
 number of electron      35.9999881 magnetization 
 augmentation part       -1.8816647 magnetization 

 Broyden mixing:
  rms(total) = 0.98233E+00    rms(broyden)= 0.98088E+00
  rms(prec ) = 0.12207E+01
  weight for this iteration     100.00

 Free energy of the ion-electron system (eV)
  ---------------------------------------------------
  alpha Z        PSCENC =        90.42577596
  Ewald energy   TEWEN  =     -1146.88905665
  -Hartree energ DENC   =      -535.10238360
  -exchange      EXHF   =         0.00000000
  -V(xc)+E(xc)   XCENC  =       -72.59367574
  PAW double counting   =       813.77302396     -658.68146406
  entropy T*S    EENTRO =         0.00000000
  eigenvalues    EBANDS =       -78.88282069
  atomic energy  EATOM  =      1541.37420719
  Solvation  Ediel_sol  =         0.00000000
  ---------------------------------------------------
  free energy    TOTEN  =       -46.57639361 eV

  energy without entropy =      -46.57639361  energy(sigma->0) =      -46.57639361


--------------------------------------------------------------------------------------------------------




--------------------------------------- Iteration      1(   6)  ---------------------------------------


    POTLOK:  cpu time    0.0080: real time    0.0090
    SETDIJ:  cpu time    0.0040: real time    0.0032
    EDDIAG:  cpu time    0.0390: real time    0.0404
  RMM-DIIS:  cpu time    0.1260: real time    0.1254
    ORTHCH:  cpu time    0.0040: real time    0.0043
 BZINTS: Fermi energy:  2.930974; 36.000000 electrons
         Band energy: -78.524701;  BLOECHL correction:  0.000000
       DOS:  cpu time    0.0010: real time    0.0014
    CHARGE:  cpu time    0.0130: real time    0.0124
    MIXING:  cpu time    0.0010: real time    0.0004
    --------------------------------------------
      LOOP:  cpu time    0.1960: real time    0.1965

 eigenvalue-minimisations  :   973
 total energy-change (2. order) : 0.2361874E+01  (-0.2355660E+01)
 number of electron      35.9999859 magnetization 
 augmentation part       -0.8698444 magnetization 

 Broyden mixing:
  rms(total) = 0.33757E+00    rms(broyden)= 0.33573E+00
  rms(prec ) = 0.48958E+00
  weight for this iteration     100.00

 eigenvalues of (default mixing * dielectric matrix)
  average eigenvalue GAMMA=   0.8892
  0.8892

 Free energy of the ion-electron system (eV)
  ---------------------------------------------------
  alpha Z        PSCENC =        90.42577596
  Ewald energy   TEWEN  =     -1146.88905665
  -Hartree energ DENC   =      -533.15697112
  -exchange      EXHF   =         0.00000000
  -V(xc)+E(xc)   XCENC  =       -70.76923969
  PAW double counting   =       855.62467449     -702.29920927
  entropy T*S    EENTRO =         0.00000000
  eigenvalues    EBANDS =       -78.52470051
  atomic energy  EATOM  =      1541.37420719
  Solvation  Ediel_sol  =         0.00000000
  ---------------------------------------------------
  free energy    TOTEN  =       -44.21451959 eV

  energy without entropy =      -44.21451959  energy(sigma->0) =      -44.21451959


--------------------------------------------------------------------------------------------------------




--------------------------------------- Iteration      1(   7)  ---------------------------------------


    POTLOK:  cpu time    0.0080: real time    0.0088
    SETDIJ:  cpu time    0.0030: real time    0.0032
    EDDIAG:  cpu time    0.0400: real time    0.0397
  RMM-DIIS:  cpu time    0.1280: real time    0.1276
    ORTHCH:  cpu time    0.0040: real time    0.0044
 BZINTS: Fermi energy:  3.243664; 36.000000 electrons
         Band energy: -72.863619;  BLOECHL correction:  0.000000
       DOS:  cpu time    0.0010: real time    0.0012
    CHARGE:  cpu time    0.0120: real time    0.0124
    MIXING:  cpu time    0.0010: real time    0.0004
    --------------------------------------------
      LOOP:  cpu time    0.1970: real time    0.1977

 eigenvalue-minimisations  :   974
 total energy-change (2. order) : 0.7266578E+00  (-0.1935386E+00)
 number of electron      35.9999862 magnetization 
 augmentation part       -1.1244567 magnetization 

 Broyden mixing:
  rms(total) = 0.18708E+00    rms(broyden)= 0.18702E+00
  rms(prec ) = 0.22024E+00
  weight for this iteration     100.00

 eigenvalues of (default mixing * dielectric matrix)
  average eigenvalue GAMMA=   1.4281
  0.7521  2.1040

 Free energy of the ion-electron system (eV)
  ---------------------------------------------------
  alpha Z        PSCENC =        90.42577596
  Ewald energy   TEWEN  =     -1146.88905665
  -Hartree energ DENC   =      -537.42198998
  -exchange      EXHF   =         0.00000000
  -V(xc)+E(xc)   XCENC  =       -70.93292268
  PAW double counting   =       892.74084860     -739.92110509
  entropy T*S    EENTRO =         0.00000000
  eigenvalues    EBANDS =       -72.86361911
  atomic energy  EATOM  =      1541.37420719
  Solvation  Ediel_sol  =         0.00000000
  ---------------------------------------------------
  free energy    TOTEN  =       -43.48786176 eV

  energy without entropy =      -43.48786176  energy(sigma->0) =      -43.48786176


--------------------------------------------------------------------------------------------------------




--------------------------------------- Iteration      1(   8)  ---------------------------------------


    POTLOK:  cpu time    0.0080: real time    0.0088
    SETDIJ:  cpu time    0.0040: real time    0.0032
    EDDIAG:  cpu time    0.0390: real time    0.0396
  RMM-DIIS:  cpu time    0.1290: real time    0.1283
    ORTHCH:  cpu time    0.0040: real time    0.0044
 BZINTS: Fermi energy:  3.393706; 36.000000 electrons
         Band energy: -68.146415;  BLOECHL correction:  0.000000
       DOS:  cpu time    0.0010: real time    0.0014
    CHARGE:  cpu time    0.0130: real time    0.0123
    MIXING:  cpu time    0.0000: real time    0.0010
    --------------------------------------------
      LOOP:  cpu time    0.1980: real time    0.1989

 eigenvalue-minimisations  :   988
 total energy-change (2. order) : 0.7838467E-01  (-0.7703636E-01)
 number of electron      35.9999862 magnetization 
 augmentation part       -1.1631938 magnetization 

 Broyden mixing:
  rms(total) = 0.75327E-01    rms(broyden)= 0.75176E-01
  rms(prec ) = 0.99475E-01
  weight for this iteration     100.00

 eigenvalues of (default mixing * dielectric matrix)
  average eigenvalue GAMMA=   1.4929
  2.0921  1.5859  0.8008

 Free energy of the ion-electron system (eV)
  ---------------------------------------------------
  alpha Z        PSCENC =        90.42577596
  Ewald energy   TEWEN  =     -1146.88905665
  -Hartree energ DENC   =      -541.53657138
  -exchange      EXHF   =         0.00000000
  -V(xc)+E(xc)   XCENC  =       -70.45410089
  PAW double counting   =       949.28695837     -797.47027451
  entropy T*S    EENTRO =         0.00000000
  eigenvalues    EBANDS =       -68.14641519
  atomic energy  EATOM  =      1541.37420719
  Solvation  Ediel_sol  =         0.00000000
  ---------------------------------------------------
  free energy    TOTEN  =       -43.40947709 eV

  energy without entropy =      -43.40947709  energy(sigma->0) =      -43.40947709


--------------------------------------------------------------------------------------------------------




--------------------------------------- Iteration      1(   9)  ---------------------------------------


    POTLOK:  cpu time    0.0090: real time    0.0110
    SETDIJ:  cpu time    0.0030: real time    0.0032
    EDDIAG:  cpu time    0.0400: real time    0.0396
  RMM-DIIS:  cpu time    0.1370: real time    0.1372
    ORTHCH:  cpu time    0.0040: real time    0.0043
 BZINTS: Fermi energy:  3.272189; 36.000000 electrons
         Band energy: -68.431654;  BLOECHL correction:  0.000000
       DOS:  cpu time    0.0010: real time    0.0014
    CHARGE:  cpu time    0.0130: real time    0.0125
    MIXING:  cpu time    0.0010: real time    0.0004
    --------------------------------------------
      LOOP:  cpu time    0.2080: real time    0.2096

 eigenvalue-minimisations  :  1045
 total energy-change (2. order) : 0.1073562E-01  (-0.2035120E-01)
 number of electron      35.9999860 magnetization 
 augmentation part       -1.0590342 magnetization 

 Broyden mixing:
  rms(total) = 0.46065E-01    rms(broyden)= 0.45950E-01
  rms(prec ) = 0.64410E-01
  weight for this iteration     100.00

 eigenvalues of (default mixing * dielectric matrix)
  average eigenvalue GAMMA=   1.5470
  0.9122  0.9122  2.3450  2.0187

 Free energy of the ion-electron system (eV)
  ---------------------------------------------------
  alpha Z        PSCENC =        90.42577596
  Ewald energy   TEWEN  =     -1146.88905665
  -Hartree energ DENC   =      -541.33132448
  -exchange      EXHF   =         0.00000000
  -V(xc)+E(xc)   XCENC  =       -70.20767053
  PAW double counting   =       957.17189643     -805.51091568
  entropy T*S    EENTRO =         0.00000000
  eigenvalues    EBANDS =       -68.43165371
  atomic energy  EATOM  =      1541.37420719
  Solvation  Ediel_sol  =         0.00000000
  ---------------------------------------------------
  free energy    TOTEN  =       -43.39874146 eV

  energy without entropy =      -43.39874146  energy(sigma->0) =      -43.39874146


--------------------------------------------------------------------------------------------------------




--------------------------------------- Iteration      1(  10)  ---------------------------------------


    POTLOK:  cpu time    0.0080: real time    0.0087
    SETDIJ:  cpu time    0.0040: real time    0.0032
    EDDIAG:  cpu time    0.0390: real time    0.0397
  RMM-DIIS:  cpu time    0.1380: real time    0.1374
    ORTHCH:  cpu time    0.0030: real time    0.0044
 BZINTS: Fermi energy:  3.327857; 36.000000 electrons
         Band energy: -67.588530;  BLOECHL correction:  0.000000
       DOS:  cpu time    0.0020: real time    0.0012
    CHARGE:  cpu time    0.0120: real time    0.0124
    MIXING:  cpu time    0.0010: real time    0.0004
    --------------------------------------------
      LOOP:  cpu time    0.2070: real time    0.2074

 eigenvalue-minimisations  :  1049
 total energy-change (2. order) : 0.1036835E-01  (-0.4817692E-02)
 number of electron      35.9999862 magnetization 
 augmentation part       -1.1103338 magnetization 

 Broyden mixing:
  rms(total) = 0.83597E-02    rms(broyden)= 0.82714E-02
  rms(prec ) = 0.10548E-01
  weight for this iteration     100.00

 eigenvalues of (default mixing * dielectric matrix)
  average eigenvalue GAMMA=   1.4556
  2.4319  0.8919  0.8919  1.5310  1.5310

 Free energy of the ion-electron system (eV)
  ---------------------------------------------------
  alpha Z        PSCENC =        90.42577596
  Ewald energy   TEWEN  =     -1146.88905665
  -Hartree energ DENC   =      -542.08725777
  -exchange      EXHF   =         0.00000000
  -V(xc)+E(xc)   XCENC  =       -70.23832158
  PAW double counting   =       963.28252117     -811.66771153
  entropy T*S    EENTRO =         0.00000000
  eigenvalues    EBANDS =       -67.58852991
  atomic energy  EATOM  =      1541.37420719
  Solvation  Ediel_sol  =         0.00000000
  ---------------------------------------------------
  free energy    TOTEN  =       -43.38837311 eV

  energy without entropy =      -43.38837311  energy(sigma->0) =      -43.38837311


--------------------------------------------------------------------------------------------------------




--------------------------------------- Iteration      1(  11)  ---------------------------------------


    POTLOK:  cpu time    0.0080: real time    0.0088
    SETDIJ:  cpu time    0.0040: real time    0.0032
    EDDIAG:  cpu time    0.0400: real time    0.0396
  RMM-DIIS:  cpu time    0.1400: real time    0.1406
    ORTHCH:  cpu time    0.0040: real time    0.0044
 BZINTS: Fermi energy:  3.323420; 36.000000 electrons
         Band energy: -67.496918;  BLOECHL correction:  0.000000
       DOS:  cpu time    0.0010: real time    0.0012
    CHARGE:  cpu time    0.0130: real time    0.0124
    MIXING:  cpu time    0.0010: real time    0.0004
    --------------------------------------------
      LOOP:  cpu time    0.2110: real time    0.2107

 eigenvalue-minimisations  :  1090
 total energy-change (2. order) : 0.7671539E-05  (-0.2800255E-03)
 number of electron      35.9999861 magnetization 
 augmentation part       -1.1033304 magnetization 

 Broyden mixing:
  rms(total) = 0.28927E-02    rms(broyden)= 0.28838E-02
  rms(prec ) = 0.35381E-02
  weight for this iteration     100.00

 eigenvalues of (default mixing * dielectric matrix)
  average eigenvalue GAMMA=   1.6766
  2.9932  2.5393  1.7595  0.9025  0.9025  0.9627

 Free energy of the ion-electron system (eV)
  ---------------------------------------------------
  alpha Z        PSCENC =        90.42577596
  Ewald energy   TEWEN  =     -1146.88905665
  -Hartree energ DENC   =      -542.20051542
  -exchange      EXHF   =         0.00000000
  -V(xc)+E(xc)   XCENC  =       -70.21451050
  PAW double counting   =       963.19030538     -811.57765338
  entropy T*S    EENTRO =         0.00000000
  eigenvalues    EBANDS =       -67.49691801
  atomic energy  EATOM  =      1541.37420719
  Solvation  Ediel_sol  =         0.00000000
  ---------------------------------------------------
  free energy    TOTEN  =       -43.38836544 eV

  energy without entropy =      -43.38836544  energy(sigma->0) =      -43.38836544


--------------------------------------------------------------------------------------------------------




--------------------------------------- Iteration      1(  12)  ---------------------------------------


    POTLOK:  cpu time    0.0080: real time    0.0087
    SETDIJ:  cpu time    0.0040: real time    0.0032
    EDDIAG:  cpu time    0.0390: real time    0.0396
  RMM-DIIS:  cpu time    0.1460: real time    0.1455
    ORTHCH:  cpu time    0.0040: real time    0.0044
 BZINTS: Fermi energy:  3.327867; 36.000000 electrons
         Band energy: -67.334695;  BLOECHL correction:  0.000000
       DOS:  cpu time    0.0010: real time    0.0013
    CHARGE:  cpu time    0.0120: real time    0.0124
    MIXING:  cpu time    0.0010: real time    0.0004
    --------------------------------------------
      LOOP:  cpu time    0.2150: real time    0.2155

 eigenvalue-minimisations  :  1124
 total energy-change (2. order) :-0.1395021E-03  (-0.4933024E-04)
 number of electron      35.9999861 magnetization 
 augmentation part       -1.1026168 magnetization 

 Broyden mixing:
  rms(total) = 0.14583E-02    rms(broyden)= 0.14517E-02
  rms(prec ) = 0.17971E-02
  weight for this iteration     100.00

 eigenvalues of (default mixing * dielectric matrix)
  average eigenvalue GAMMA=   1.6257
  2.9534  2.2763  1.7180  1.7180  0.8957  0.8957  0.9227

 Free energy of the ion-electron system (eV)
  ---------------------------------------------------
  alpha Z        PSCENC =        90.42577596
  Ewald energy   TEWEN  =     -1146.88905665
  -Hartree energ DENC   =      -542.38391625
  -exchange      EXHF   =         0.00000000
  -V(xc)+E(xc)   XCENC  =       -70.20586209
  PAW double counting   =       963.00431276     -811.37927040
  entropy T*S    EENTRO =         0.00000000
  eigenvalues    EBANDS =       -67.33469547
  atomic energy  EATOM  =      1541.37420719
  Solvation  Ediel_sol  =         0.00000000
  ---------------------------------------------------
  free energy    TOTEN  =       -43.38850495 eV

  energy without entropy =      -43.38850495  energy(sigma->0) =      -43.38850495


--------------------------------------------------------------------------------------------------------




--------------------------------------- Iteration      1(  13)  ---------------------------------------


    POTLOK:  cpu time    0.0080: real time    0.0088
    SETDIJ:  cpu time    0.0040: real time    0.0032
    EDDIAG:  cpu time    0.0400: real time    0.0397
  RMM-DIIS:  cpu time    0.1430: real time    0.1433
    ORTHCH:  cpu time    0.0040: real time    0.0044
 BZINTS: Fermi energy:  3.329446; 36.000000 electrons
         Band energy: -67.334573;  BLOECHL correction:  0.000000
       DOS:  cpu time    0.0010: real time    0.0012
    CHARGE:  cpu time    0.0130: real time    0.0123
    MIXING:  cpu time    0.0000: real time    0.0005
    --------------------------------------------
      LOOP:  cpu time    0.2130: real time    0.2133

 eigenvalue-minimisations  :  1128
 total energy-change (2. order) :-0.1363936E-04  (-0.2242857E-04)
 number of electron      35.9999861 magnetization 
 augmentation part       -1.1052801 magnetization 

 Broyden mixing:
  rms(total) = 0.16869E-02    rms(broyden)= 0.16801E-02
  rms(prec ) = 0.22109E-02
  weight for this iteration     100.00

 eigenvalues of (default mixing * dielectric matrix)
  average eigenvalue GAMMA=   1.7353
  3.2277  2.6241  2.6241  1.5489  1.1826  0.8983  0.8983  0.8783

 Free energy of the ion-electron system (eV)
  ---------------------------------------------------
  alpha Z        PSCENC =        90.42577596
  Ewald energy   TEWEN  =     -1146.88905665
  -Hartree energ DENC   =      -542.37909088
  -exchange      EXHF   =         0.00000000
  -V(xc)+E(xc)   XCENC  =       -70.20851284
  PAW double counting   =       963.19712946     -811.57439781
  entropy T*S    EENTRO =         0.00000000
  eigenvalues    EBANDS =       -67.33457302
  atomic energy  EATOM  =      1541.37420719
  Solvation  Ediel_sol  =         0.00000000
  ---------------------------------------------------
  free energy    TOTEN  =       -43.38851858 eV

  energy without entropy =      -43.38851858  energy(sigma->0) =      -43.38851858


--------------------------------------------------------------------------------------------------------




--------------------------------------- Iteration      1(  14)  ---------------------------------------


    POTLOK:  cpu time    0.0090: real time    0.0110
    SETDIJ:  cpu time    0.0030: real time    0.0032
    EDDIAG:  cpu time    0.0400: real time    0.0396
  RMM-DIIS:  cpu time    0.1130: real time    0.1132
    ORTHCH:  cpu time    0.0040: real time    0.0044
 BZINTS: Fermi energy:  3.327902; 36.000000 electrons
         Band energy: -67.347605;  BLOECHL correction:  0.000000
       DOS:  cpu time    0.0020: real time    0.0012
    --------------------------------------------
      LOOP:  cpu time    0.1710: real time    0.1726

 eigenvalue-minimisations  :   865
 total energy-change (2. order) : 0.8614077E-05  (-0.6246837E-05)
 number of electron      35.9999861 magnetization 
 augmentation part       -1.1052801 magnetization 

 Free energy of the ion-electron system (eV)
  ---------------------------------------------------
  alpha Z        PSCENC =        90.42577596
  Ewald energy   TEWEN  =     -1146.88905665
  -Hartree energ DENC   =      -542.36901630
  -exchange      EXHF   =         0.00000000
  -V(xc)+E(xc)   XCENC  =       -70.20613339
  PAW double counting   =       963.00843748     -811.38511947
  entropy T*S    EENTRO =         0.00000000
  eigenvalues    EBANDS =       -67.34760480
  atomic energy  EATOM  =      1541.37420719
  Solvation  Ediel_sol  =         0.00000000
  ---------------------------------------------------
  free energy    TOTEN  =       -43.38850997 eV

  energy without entropy =      -43.38850997  energy(sigma->0) =      -43.38850997


--------------------------------------------------------------------------------------------------------




 average (electrostatic) potential at core
  the test charge radii are     1.2296  0.9698
  (the norm of the test charge is              1.0000)
       1 -40.3587       2 -40.3587       3 -88.2978       4 -88.2978       5 -88.2978
       6 -88.2978
 
 
 
 E-fermi :   3.3279     XC(G=0):  -9.3310     alpha+bet : -9.6368


 k-point     1 :       0.0000    0.0000    0.0000
  band No.  band energies     occupation 
      1     -10.9546      2.00000
      2     -10.9353      2.00000
      3      -9.7575      2.00000
      4      -9.7232      2.00000
      5      -2.5045      2.00000
      6      -2.3516      2.00000
      7       0.5398      2.00000
      8       0.5399      2.00000
      9       0.5406      2.00000
     10       0.5407      2.00000
     11       1.1313      2.00000
     12       1.6504      2.00000
     13       1.6506      2.00000
     14       1.6539      2.00000
     15       1.6541      2.00000
     16       1.6853      2.00000
     17       2.9324      2.00000
     18       3.3198      2.00000
     19       5.8922      0.00000
     20       5.9027      0.00000
     21       5.9514      0.00000
     22       6.0935      0.00000

 k-point     2 :       0.1250   -0.0000    0.0000
  band No.  band energies     occupation 
      1     -10.7408      2.00000
      2     -10.7219      2.00000
      3      -9.6541      2.00000
      4      -9.6222      2.00000
      5      -2.2591      2.00000
      6      -2.1070      2.00000
      7       0.0717      2.00000
      8       0.0746      2.00000
      9       0.4809      2.00000
     10       0.6916      2.00000
     11       0.7728      2.00000
     12       0.7766      2.00000
     13       1.3091      2.00000
     14       1.3193      2.00000
     15       1.9528      2.00000
     16       2.2362      2.00000
     17       2.8537      2.00000
     18       3.1072      2.00000
     19       5.5363      0.00000
     20       5.6555      0.00000
     21       5.7187      0.00000
     22       5.7776      0.00000

 k-point     3 :       0.2500   -0.0000    0.0000
  band No.  band energies     occupation 
      1     -10.1724      2.00000
      2     -10.1557      2.00000
      3      -9.3816      2.00000
      4      -9.3575      2.00000
      5      -1.8637      2.00000
      6      -1.7609      2.00000
      7      -0.6762      2.00000
      8      -0.6336      2.00000
      9      -0.4397      2.00000
     10      -0.3408      2.00000
     11       0.6741      2.00000
     12       0.6823      2.00000
     13       1.3632      2.00000
     14       1.3688      2.00000
     15       1.7295      2.00000
     16       1.9382      2.00000
     17       2.3868      2.00000
     18       2.4342      2.00000
     19       5.1436      0.00000
     20       5.4636      0.00000
     21       5.4742      0.00000
     22       5.4942      0.00000

 k-point     4 :       0.3750   -0.0000    0.0000
  band No.  band energies     occupation 
      1      -9.4968      2.00000
      2      -9.4846      2.00000
      3      -9.0686      2.00000
      4      -9.0543      2.00000
      5      -2.2654      2.00000
      6      -2.2327      2.00000
      7      -1.2710      2.00000
      8      -1.2310      2.00000
      9      -0.8230      2.00000
     10      -0.7407      2.00000
     11       0.1812      2.00000
     12       0.1843      2.00000
     13       1.3612      2.00000
     14       1.4756      2.00000
     15       1.9593      2.00000
     16       1.9627      2.00000
     17       2.1949      2.00000
     18       2.2476      2.00000
     19       5.2916      0.00000
     20       5.3006      0.00000
     21       5.4830      0.00000
     22       5.6587      0.00000

 k-point     5 :       0.5000   -0.0000    0.0000
  band No.  band energies     occupation 
      1      -9.1672      2.00000
      2      -9.1599      2.00000
      3      -8.9219      2.00000
      4      -8.9157      2.00000
      5      -2.5977      2.00000
      6      -2.5699      2.00000
      7      -1.6414      2.00000
      8      -1.6077      2.00000
      9      -0.9472      2.00000
     10      -0.8656      2.00000
     11      -0.0093      2.00000
     12       0.0082      2.00000
     13       1.2677      2.00000
     14       1.2895      2.00000
     15       2.1823      2.00000
     16       2.1872      2.00000
     17       2.5034      2.00000
     18       2.5056      2.00000
     19       5.3064      0.00000
     20       5.3155      0.00000
     21       5.7976      0.00000
     22       5.8492      0.00000

 k-point     6 :       0.1250    0.1250    0.0000
  band No.  band energies     occupation 
      1     -10.3478      2.00000
      2     -10.3306      2.00000
      3      -9.4643      2.00000
      4      -9.4376      2.00000
      5      -1.8961      2.00000
      6      -1.7645      2.00000
      7      -0.4983      2.00000
      8      -0.4842      2.00000
      9      -0.0468      2.00000
     10       0.0955      2.00000
     11       0.4868      2.00000
     12       0.5149      2.00000
     13       1.1132      2.00000
     14       1.1184      2.00000
     15       2.1178      2.00000
     16       2.3298      2.00000
     17       2.5724      2.00000
     18       2.6471      2.00000
     19       5.0858      0.00000
     20       5.3450      0.00000
     21       5.5640      0.00000
     22       5.6218      0.00000

 k-point     7 :       0.2500    0.1250    0.0000
  band No.  band energies     occupation 
      1      -9.7147      2.00000
      2      -9.7008      2.00000
      3      -9.1622      2.00000
      4      -9.1438      2.00000
      5      -1.9162      2.00000
      6      -1.8693      2.00000
      7      -0.9242      2.00000
      8      -0.8998      2.00000
      9      -0.6884      2.00000
     10      -0.6179      2.00000
     11      -0.0456      2.00000
     12       0.0338      2.00000
     13       1.2104      2.00000
     14       1.2232      2.00000
     15       1.8135      2.00000
     16       1.9031      2.00000
     17       2.3236      2.00000
     18       2.3323      2.00000
     19       5.0194      0.00000
     20       5.2417      0.00000
     21       5.5745      0.00000
     22       5.7269      0.00000

 k-point     8 :       0.3750    0.1250    0.0000
  band No.  band energies     occupation 
      1      -9.1827      2.00000
      2      -9.1752      2.00000
      3      -8.9138      2.00000
      4      -8.9057      2.00000
      5      -2.3079      2.00000
      6      -2.2820      2.00000
      7      -1.6811      2.00000
      8      -1.6727      2.00000
      9      -0.8119      2.00000
     10      -0.7432      2.00000
     11      -0.0494      2.00000
     12       0.0005      2.00000
     13       1.2222      2.00000
     14       1.2410      2.00000
     15       1.3560      2.00000
     16       1.3910      2.00000
     17       2.6459      2.00000
     18       2.6637      2.00000
     19       5.2996      0.00000
     20       5.3644      0.00000
     21       5.8013      0.00000
     22       5.8819      0.00000

 k-point     9 :       0.2500    0.2500    0.0000
  band No.  band energies     occupation 
      1      -9.1980      2.00000
      2      -9.1898      2.00000
      3      -8.9064      2.00000
      4      -8.8963      2.00000
      5      -1.9432      2.00000
      6      -1.9214      2.00000
      7      -1.7337      2.00000
      8      -1.7204      2.00000
      9      -0.4640      2.00000
     10      -0.4400      2.00000
     11      -0.1171      2.00000
     12      -0.0268      2.00000
     13       0.2365      2.00000
     14       0.2613      2.00000
     15       1.5053      2.00000
     16       1.5117      2.00000
     17       2.6190      2.00000
     18       2.6319      2.00000
     19       5.2077      0.00000
     20       5.3489      0.00000
     21       5.9233      0.00000
     22       6.1145      0.00000

 k-point    10 :       0.3750    0.2500    0.0000
  band No.  band energies     occupation 
      1      -8.9609      2.00000
      2      -8.9582      2.00000
      3      -8.7841      2.00000
      4      -8.7807      2.00000
      5      -2.1124      2.00000
      6      -2.1081      2.00000
      7      -1.7678      2.00000
      8      -1.7546      2.00000
      9      -0.7524      2.00000
     10      -0.7142      2.00000
     11      -0.0829      2.00000
     12      -0.0575      2.00000
     13       0.1357      2.00000
     14       0.1891      2.00000
     15       1.1015      2.00000
     16       1.1409      2.00000
     17       2.9855      2.00000
     18       3.0078      2.00000
     19       4.9613      0.00000
     20       4.9647      0.00000
     21       6.1871      0.00000
     22       6.3646      0.00000

 k-point    11 :       0.0000    0.0000    0.5000
  band No.  band energies     occupation 
      1     -10.9451      2.00000
      2     -10.9451      2.00000
      3      -9.7398      2.00000
      4      -9.7398      2.00000
      5      -2.4248      2.00000
      6      -2.4248      2.00000
      7       0.5330      2.00000
      8       0.5330      2.00000
      9       0.5331      2.00000
     10       0.5331      2.00000
     11       1.3849      2.00000
     12       1.3849      2.00000
     13       1.6527      2.00000
     14       1.6527      2.00000
     15       1.6529      2.00000
     16       1.6530      2.00000
     17       3.1689      2.00000
     18       3.1689      2.00000
     19       5.8887      0.00000
     20       5.9080      0.00000
     21       5.9337      0.00000
     22       5.9611      0.00000

 k-point    12 :       0.1250   -0.0000    0.5000
  band No.  band energies     occupation 
      1     -10.7313      2.00000
      2     -10.7313      2.00000
      3      -9.6377      2.00000
      4      -9.6377      2.00000
      5      -2.1816      2.00000
      6      -2.1816      2.00000
      7       0.0747      2.00000
      8       0.0747      2.00000
      9       0.5930      2.00000
     10       0.5930      2.00000
     11       0.7727      2.00000
     12       0.7727      2.00000
     13       1.3134      2.00000
     14       1.3134      2.00000
     15       2.0663      2.00000
     16       2.0663      2.00000
     17       3.0133      2.00000
     18       3.0133      2.00000
     19       5.5939      0.00000
     20       5.6072      0.00000
     21       5.7338      0.00000
     22       5.8468      0.00000

 k-point    13 :       0.2500   -0.0000    0.5000
  band No.  band energies     occupation 
      1     -10.1641      2.00000
      2     -10.1641      2.00000
      3      -9.3693      2.00000
      4      -9.3693      2.00000
      5      -1.8125      2.00000
      6      -1.8125      2.00000
      7      -0.6600      2.00000
      8      -0.6600      2.00000
      9      -0.3807      2.00000
     10      -0.3807      2.00000
     11       0.6792      2.00000
     12       0.6792      2.00000
     13       1.3652      2.00000
     14       1.3652      2.00000
     15       1.8255      2.00000
     16       1.8255      2.00000
     17       2.4191      2.00000
     18       2.4191      2.00000
     19       5.2884      0.00000
     20       5.2896      0.00000
     21       5.4731      0.00000
     22       5.4797      0.00000

 k-point    14 :       0.3750   -0.0000    0.5000
  band No.  band energies     occupation 
      1      -9.4910      2.00000
      2      -9.4910      2.00000
      3      -9.0614      2.00000
      4      -9.0614      2.00000
      5      -2.2504      2.00000
      6      -2.2504      2.00000
      7      -1.2557      2.00000
      8      -1.2557      2.00000
      9      -0.7779      2.00000
     10      -0.7779      2.00000
     11       0.1810      2.00000
     12       0.1810      2.00000
     13       1.4196      2.00000
     14       1.4196      2.00000
     15       1.9589      2.00000
     16       1.9589      2.00000
     17       2.2217      2.00000
     18       2.2217      2.00000
     19       5.2930      0.00000
     20       5.2930      0.00000
     21       5.5672      0.00000
     22       5.5674      0.00000

 k-point    15 :       0.5000   -0.0000    0.5000
  band No.  band energies     occupation 
      1      -9.1636      2.00000
      2      -9.1636      2.00000
      3      -8.9190      2.00000
      4      -8.9190      2.00000
      5      -2.5816      2.00000
      6      -2.5816      2.00000
      7      -1.6259      2.00000
      8      -1.6259      2.00000
      9      -0.9110      2.00000
     10      -0.9110      2.00000
     11       0.0006      2.00000
     12       0.0006      2.00000
     13       1.2793      2.00000
     14       1.2794      2.00000
     15       2.1859      2.00000
     16       2.1859      2.00000
     17       2.4963      2.00000
     18       2.4963      2.00000
     19       5.3143      0.00000
     20       5.3143      0.00000
     21       5.8234      0.00000
     22       5.8237      0.00000

 k-point    16 :       0.1250    0.1250    0.5000
  band No.  band energies     occupation 
      1     -10.3395      2.00000
      2     -10.3395      2.00000
      3      -9.4509      2.00000
      4      -9.4509      2.00000
      5      -1.8337      2.00000
      6      -1.8337      2.00000
      7      -0.4927      2.00000
      8      -0.4927      2.00000
      9       0.0341      2.00000
     10       0.0341      2.00000
     11       0.5013      2.00000
     12       0.5013      2.00000
     13       1.1144      2.00000
     14       1.1144      2.00000
     15       2.2072      2.00000
     16       2.2072      2.00000
     17       2.6220      2.00000
     18       2.6220      2.00000
     19       5.2046      0.00000
     20       5.2058      0.00000
     21       5.5665      0.00000
     22       5.6134      0.00000

 k-point    17 :       0.2500    0.1250    0.5000
  band No.  band energies     occupation 
      1      -9.7079      2.00000
      2      -9.7079      2.00000
      3      -9.1531      2.00000
      4      -9.1531      2.00000
      5      -1.8942      2.00000
      6      -1.8942      2.00000
      7      -0.9168      2.00000
      8      -0.9168      2.00000
      9      -0.6537      2.00000
     10      -0.6537      2.00000
     11      -0.0057      2.00000
     12      -0.0057      2.00000
     13       1.2139      2.00000
     14       1.2139      2.00000
     15       1.8527      2.00000
     16       1.8527      2.00000
     17       2.3282      2.00000
     18       2.3282      2.00000
     19       5.1282      0.00000
     20       5.1289      0.00000
     21       5.5825      0.00000
     22       5.8897      0.00000

 k-point    18 :       0.3750    0.1250    0.5000
  band No.  band energies     occupation 
      1      -9.1789      2.00000
      2      -9.1789      2.00000
      3      -8.9099      2.00000
      4      -8.9099      2.00000
      5      -2.2944      2.00000
      6      -2.2944      2.00000
      7      -1.6768      2.00000
      8      -1.6768      2.00000
      9      -0.7808      2.00000
     10      -0.7808      2.00000
     11      -0.0212      2.00000
     12      -0.0212      2.00000
     13       1.2311      2.00000
     14       1.2311      2.00000
     15       1.3720      2.00000
     16       1.3720      2.00000
     17       2.6551      2.00000
     18       2.6551      2.00000
     19       5.3306      0.00000
     20       5.3306      0.00000
     21       5.8395      0.00000
     22       5.8407      0.00000

 k-point    19 :       0.2500    0.2500    0.5000
  band No.  band energies     occupation 
      1      -9.1939      2.00000
      2      -9.1939      2.00000
      3      -8.9010      2.00000
      4      -8.9010      2.00000
      5      -1.9330      2.00000
      6      -1.9330      2.00000
      7      -1.7246      2.00000
      8      -1.7246      2.00000
      9      -0.4542      2.00000
     10      -0.4542      2.00000
     11      -0.0643      2.00000
     12      -0.0643      2.00000
     13       0.2512      2.00000
     14       0.2512      2.00000
     15       1.5090      2.00000
     16       1.5090      2.00000
     17       2.6282      2.00000
     18       2.6282      2.00000
     19       5.2731      0.00000
     20       5.2733      0.00000
     21       6.1056      0.00000
     22       6.1910      0.00000

 k-point    20 :       0.3750    0.2500    0.5000
  band No.  band energies     occupation 
      1      -8.9599      2.00000
      2      -8.9599      2.00000
      3      -8.7825      2.00000
      4      -8.7825      2.00000
      5      -2.1108      2.00000
      6      -2.1108      2.00000
      7      -1.7639      2.00000
      8      -1.7639      2.00000
      9      -0.7345      2.00000
     10      -0.7344      2.00000
     11      -0.0769      2.00000
     12      -0.0769      2.00000
     13       0.1638      2.00000
     14       0.1638      2.00000
     15       1.1194      2.00000
     16       1.1194      2.00000
     17       2.9932      2.00000
     18       2.9932      2.00000
     19       4.9541      0.00000
     20       4.9541      0.00000
     21       6.2641      0.00000
     22       6.2649      0.00000


--------------------------------------------------------------------------------------------------------


 soft charge-density along one line, spin component           1
         0         1         2         3         4         5         6         7         8         9
 total charge-density along one line
 
 pseudopotential strength for first ion, spin component:           1
 -8.245  -0.000  -0.000   0.000  -0.000  -0.073   0.000   0.000
 -0.000  -8.245  -0.000  -0.000  -0.000   0.000  -0.073   0.000
 -0.000  -0.000  -8.224  -0.000   0.000   0.000   0.000  -0.075
  0.000  -0.000  -0.000  -8.245   0.000  -0.000   0.000   0.000
 -0.000  -0.000   0.000   0.000  -8.245   0.000   0.000  -0.000
 -0.073   0.000   0.000  -0.000   0.000   0.112  -0.000  -0.000
  0.000  -0.073   0.000   0.000   0.000  -0.000   0.112  -0.000
  0.000   0.000  -0.075   0.000  -0.000  -0.000  -0.000   0.112
 -0.000   0.000   0.000  -0.073  -0.000   0.000   0.000  -0.000
  0.000   0.000  -0.000  -0.000  -0.073  -0.000  -0.000   0.000
 -0.000  -0.000  -0.005   0.000   0.000   0.000   0.000   0.000
  0.000   0.000   0.001  -0.000  -0.000  -0.000  -0.000  -0.000
 -0.000   0.000  -0.000  -0.000  -0.007   0.000  -0.000   0.000
 -0.000   0.000   0.000  -0.000  -0.000  -0.000  -0.000  -0.000
 -0.007  -0.000   0.000   0.000  -0.000  -0.000  -0.000  -0.000
  0.000  -0.000   0.000   0.000   0.004  -0.000   0.000  -0.000
  0.000  -0.000  -0.000   0.000   0.000  -0.000   0.000   0.000
  0.004   0.000  -0.000  -0.000   0.000   0.000  -0.000   0.000
 total augmentation occupancy for first ion, spin component:           1
  0.963  -0.000  -0.000  -0.000  -0.000   0.594   0.000  -0.000   0.000  -0.000  -0.000  -0.000   0.000  -0.000  -0.065  -0.000
  0.000   0.902  -0.000   0.000   0.000   0.000   0.815   0.000   0.000   0.000   0.000  -0.000   0.000  -0.000   0.000   0.000
 -0.000   0.000   1.028   0.000   0.000  -0.000  -0.000   0.499  -0.000   0.000   0.111  -0.020  -0.000  -0.000   0.000   0.000
  0.000   0.000   0.000   0.902   0.000   0.000   0.000   0.000   0.815   0.000  -0.000  -0.000  -0.000  -0.000   0.000   0.000
 -0.000   0.000   0.000   0.000   0.963  -0.000  -0.000   0.000  -0.000   0.594   0.000  -0.000  -0.065  -0.000  -0.000   0.007
  0.594   0.000  -0.000   0.000  -0.000   0.691   0.000  -0.000  -0.000  -0.000   0.000  -0.000   0.000  -0.000  -0.132  -0.000
  0.000   0.815   0.000   0.000  -0.000  -0.000   1.077   0.000   0.000   0.000  -0.000   0.000   0.000   0.000  -0.000   0.000
 -0.000   0.000   0.499   0.000   0.000  -0.000  -0.000   0.488   0.000   0.000   0.049  -0.021  -0.000   0.000   0.000   0.000
  0.000   0.000  -0.000   0.815   0.000  -0.000   0.000  -0.000   1.077   0.000   0.000   0.000   0.000   0.000   0.000   0.000
 -0.000  -0.000   0.000   0.000   0.594  -0.000   0.000   0.000  -0.000   0.691   0.000  -0.000  -0.132   0.000  -0.000   0.023
 -0.000   0.000   0.111  -0.000   0.000   0.000  -0.000   0.049   0.000   0.000   1.209  -0.192  -0.000  -0.000  -0.000  -0.000
 -0.000  -0.000  -0.020  -0.000  -0.000  -0.000   0.000  -0.021  -0.000  -0.000  -0.192   0.044  -0.000  -0.000   0.000  -0.000
  0.000   0.000  -0.000   0.000  -0.065   0.000   0.000  -0.000   0.000  -0.132   0.000  -0.000   0.217   0.000   0.000  -0.033
  0.000   0.000  -0.000  -0.000   0.000   0.000   0.000   0.000   0.000  -0.000  -0.000  -0.000  -0.000   0.264   0.000   0.000
 -0.065   0.000   0.000  -0.000  -0.000  -0.132   0.000   0.000   0.000  -0.000   0.000  -0.000   0.000   0.000   0.217  -0.000
 -0.000  -0.000   0.000  -0.000   0.007  -0.000  -0.000   0.000  -0.000   0.023  -0.000   0.000  -0.033   0.000  -0.000   0.005
 -0.000  -0.000   0.000   0.000  -0.000   0.000  -0.000   0.000   0.000   0.000   0.000   0.000   0.000  -0.039   0.000  -0.000
  0.007   0.000  -0.000  -0.000   0.000   0.023   0.000  -0.000  -0.000   0.000   0.000   0.000  -0.000  -0.000  -0.033   0.000


------------------------ aborting loop because EDIFF is reached ----------------------------------------


    CHARGE:  cpu time    0.0130: real time    0.0124
    FORLOC:  cpu time    0.0010: real time    0.0010
    FORNL :  cpu time    0.0340: real time    0.0346
    STRESS:  cpu time    0.0980: real time    0.0988
    FORCOR:  cpu time    0.0100: real time    0.0095
    FORHAR:  cpu time    0.0010: real time    0.0021
    MIXING:  cpu time    0.0010: real time    0.0005
    OFIELD:  cpu time    0.0000: real time    0.0000

  DFT-D2 method for vdW energy calculation
  -------------------------------------------------------------------

  Parameters of vdW forcefield:
         C6(Jnm^6/mol)     R0(A)
   -----------------------------
   Mo      24.670          1.639
   S        5.570          1.683

  IVDW =   1
  VDW_RADIUS =    50.000 A
  VDW_S6 =     0.750
  VDW_SR =     1.000
  VDW_D =    20.000
  LVDW_EWALD = F

  Number of pair interactions contributing to vdW energy:   84128
  Edisp (eV):   -1.33129
    FORVDW:  cpu time    0.0210: real time    0.0577

  FORCE on cell =-STRESS in cart. coord.  units (eV):
  Direction    XX          YY          ZZ          XY          YZ          ZX
  --------------------------------------------------------------------------------------
  Alpha Z    90.42578    90.42578    90.42578
  Ewald     -12.90873   -12.90785 -1121.07429     0.00038     0.00000     0.00025
  Hartree   466.29378   466.29379  -390.19651     0.00004     0.00000    -0.00001
  E(xc)    -140.84470  -140.84467  -142.04362     0.00003    -0.00002    -0.00002
  Local   -1084.64367 -1084.64539   868.10685    -0.00133    -0.00011    -0.00018
  n-local   255.43106   252.55198   264.27131    -0.24304     0.00033     0.00002
  augment   -51.30437   -51.30345   -53.52347     0.00080    -0.00001    -0.00001
  Kinetic   470.51459   476.27069   478.21090   -15.02293     0.00020     0.00011
  Fock        0.00000     0.00000     0.00000     0.00000     0.00000     0.00000
  vdW         0.17103     0.17103    -0.86546     0.00000     0.00000    -0.00000
  -------------------------------------------------------------------------------------
  Total      -5.42666    -5.42666    -6.68851    -0.00000    -0.00000    -0.00000
  in kB     -66.29352   -66.29352   -81.70870    -0.00000    -0.00000    -0.00000
  external pressure =      -71.43 kB  Pullay stress =        0.00 kB


 VOLUME and BASIS-vectors are now :
 -----------------------------------------------------------------------------
  energy-cutoff  :      200.00
  volume of cell :      131.15
      direct lattice vectors                 reciprocal lattice vectors
     3.190315730  0.000000000  0.000000000     0.313448600  0.180969634  0.000000000
    -1.595157865  2.762894468  0.000000000     0.000000000  0.361939267  0.000000000
     0.000000000  0.000000000 14.879004300     0.000000000  0.000000000  0.067208798

  length of vectors
     3.190315730  3.190315730 14.879004300     0.361939267  0.361939267  0.067208798


 FORCES acting on ions
    electron-ion (+dipol)            ewald-force                    non-local-force                 convergence-correction
 -----------------------------------------------------------------------------------------------
   0.461E-04 -.338E-04 -.958E-05   0.928E-04 -.107E-03 0.288E-09   -.121E-16 0.104E-16 0.148E-20   0.592E-06 -.343E-06 -.323E-09
   0.677E-04 -.319E-04 -.958E-05   -.928E-04 0.107E-03 -.288E-09   0.173E-17 -.104E-16 0.212E-20   -.588E-06 0.340E-06 -.323E-09
   0.680E-03 -.706E-04 -.241E+03   0.865E-04 -.537E-04 0.247E+03   -.781E-17 -.867E-17 -.529E+01   -.167E-06 0.101E-06 0.630E-02
   -.132E-02 0.441E-03 0.241E+03   -.865E-04 0.537E-04 -.247E+03   -.867E-17 0.364E-16 0.529E+01   0.158E-06 -.956E-07 -.630E-02
   0.635E-03 0.936E-03 -.241E+03   -.638E-05 0.537E-04 0.247E+03   -.278E-16 -.191E-16 -.529E+01   0.184E-06 -.907E-07 0.630E-02
   -.132E-02 -.543E-03 0.241E+03   0.638E-05 -.537E-04 -.247E+03   0.252E-16 -.867E-17 0.529E+01   -.188E-06 0.932E-07 -.630E-02
 -----------------------------------------------------------------------------------------------
   -.121E-02 0.698E-03 -.105E-04   -.561E-14 0.109E-13 0.284E-13   -.295E-16 0.000E+00 0.000E+00   -.868E-08 0.501E-08 -.891E-09
 
 
 POSITION                                       TOTAL-FORCE (eV/Angst)
 -----------------------------------------------------------------------------------
     -0.00000      1.84193      3.71975         0.000000      0.000000      0.000000
      1.59516      0.92096     11.15925         0.000000     -0.000000      0.000000
     -0.00000      1.84193     12.72414        -0.000000      0.000000     -0.098948
      1.59516      0.92096      2.15487         0.000000     -0.000000      0.098948
      1.59516      0.92096      5.28464         0.000000     -0.000000     -0.098948
      0.00000      1.84193      9.59437        -0.000000      0.000000      0.098948
 -----------------------------------------------------------------------------------
    total drift:                               -0.001208      0.000698     -0.000010


--------------------------------------------------------------------------------------------------------



  FREE ENERGIE OF THE ION-ELECTRON SYSTEM (eV)
  ---------------------------------------------------
  free  energy   TOTEN  =       -44.71979699 eV

  energy  without entropy=      -44.71979699  energy(sigma->0) =      -44.71979699
 


--------------------------------------------------------------------------------------------------------


    POTLOK:  cpu time    0.0130: real time    0.0118


--------------------------------------------------------------------------------------------------------


     LOOP+:  cpu time    3.2105: real time    3.3477
    4ORBIT:  cpu time    0.0000: real time    0.0000
 BZINTS: Fermi energy:  3.327902; 36.000000 electrons
         Band energy: -67.347605;  BLOECHL correction:  0.000000

 total amount of memory used by VASP MPI-rank0    35900. kBytes
=======================================================================

   base      :      30000. kBytes
   nonl-proj :       2529. kBytes
   fftplans  :        646. kBytes
   grid      :       1039. kBytes
   one-center:         46. kBytes
   wavefun   :       1640. kBytes
 
  
  
 General timing and accounting informations for this job:
 ========================================================
  
                  Total CPU time used (sec):        3.878
                            User time (sec):        3.806
                          System time (sec):        0.072
                         Elapsed time (sec):        4.509
  
                   Maximum memory used (kb):       25836.
                   Average memory used (kb):           0.
  
                          Minor page faults:         6554
                          Major page faults:          156
                 Voluntary context switches:         2546
