<?xml version="1.0" encoding="ISO-8859-1"?>
<modeling>
 <generator>
  <i name="program" type="string">vasp </i>
  <i name="version" type="string">5.4.4.18Apr17-6-g9f103f2a35  </i>
  <i name="subversion" type="string">(build Jun 30 2017 11:15:00) complex            parallel </i>
  <i name="platform" type="string">STALLO_VASP_5.4.4 </i>
  <i name="date" type="string">2019 11 08 </i>
  <i name="time" type="string">11:35:49 </i>
 </generator>
 <incar>
  <i type="string" name="PREC">normal    ! low/normal/accurate</i>
  <i type="string" name="ALGO"> Fast      ! Algorithm for electronic re</i>
  <i type="int" name="ISPIN">     1</i>
  <i type="int" name="NELMIN">     4</i>
  <i name="EDIFF">      0.00001000</i>
  <i type="int" name="NSW">     0</i>
  <i name="ENCUT">    200.00000000</i>
  <i type="logical" name="LREAL"> F  </i>
  <i type="int" name="ISMEAR">    -5</i>
  <i name="SIGMA">      0.20000000</i>
  <i type="logical" name="LWAVE"> F  </i>
  <v type="int" name="KPOINT_BSE">    -1     0     0     0</v>
 </incar>
 <structure name="primitive_cell" >
  <crystal>
   <varray name="basis" >
    <v>       3.19031573       0.00000000       0.00000000 </v>
    <v>      -1.59515786       2.76289447       0.00000000 </v>
    <v>       0.00000000       0.00000000      14.87900430 </v>
   </varray>
   <i name="volume">    131.15106795 </i>
   <varray name="rec_basis" >
    <v>       0.31344860       0.18096963       0.00000000 </v>
    <v>       0.00000000       0.36193927       0.00000000 </v>
    <v>       0.00000000       0.00000000       0.06720880 </v>
   </varray>
  </crystal>
  <varray name="positions" >
   <v>       0.33333300      -0.33333300       0.25000000 </v>
   <v>      -0.33333400       0.33333300       0.35517400 </v>
   <v>      -0.33333300       0.33333300       0.14482600 </v>
   <v>       0.33333300      -0.33333300      -0.14482600 </v>
   <v>       0.33333400      -0.33333300      -0.35517400 </v>
   <v>      -0.33333300       0.33333300      -0.25000000 </v>
  </varray>
 </structure>
 <varray name="primitive_index" >
  <v type="int" >        1 </v>
  <v type="int" >        5 </v>
  <v type="int" >        4 </v>
  <v type="int" >        3 </v>
  <v type="int" >        6 </v>
  <v type="int" >        2 </v>
 </varray>
 <kpoints>
  <generation param="Gamma">
   <v type="int" name="divisions">       8        8        2 </v>
   <v name="usershift">      0.00000000       0.00000000       0.00000000 </v>
   <v name="genvec1">      0.12500000       0.00000000       0.00000000 </v>
   <v name="genvec2">      0.00000000       0.12500000       0.00000000 </v>
   <v name="genvec3">      0.00000000       0.00000000       0.50000000 </v>
   <v name="shift">      0.00000000       0.00000000       0.00000000 </v>
  </generation>
  <varray name="kpointlist" >
   <v>       0.00000000       0.00000000       0.00000000 </v>
   <v>       0.12500000      -0.00000000       0.00000000 </v>
   <v>       0.25000000      -0.00000000       0.00000000 </v>
   <v>       0.37500000      -0.00000000       0.00000000 </v>
   <v>       0.50000000      -0.00000000       0.00000000 </v>
   <v>       0.12500000       0.12500000       0.00000000 </v>
   <v>       0.25000000       0.12500000       0.00000000 </v>
   <v>       0.37500000       0.12500000       0.00000000 </v>
   <v>       0.25000000       0.25000000       0.00000000 </v>
   <v>       0.37500000       0.25000000       0.00000000 </v>
   <v>       0.00000000       0.00000000       0.50000000 </v>
   <v>       0.12500000      -0.00000000       0.50000000 </v>
   <v>       0.25000000      -0.00000000       0.50000000 </v>
   <v>       0.37500000      -0.00000000       0.50000000 </v>
   <v>       0.50000000      -0.00000000       0.50000000 </v>
   <v>       0.12500000       0.12500000       0.50000000 </v>
   <v>       0.25000000       0.12500000       0.50000000 </v>
   <v>       0.37500000       0.12500000       0.50000000 </v>
   <v>       0.25000000       0.25000000       0.50000000 </v>
   <v>       0.37500000       0.25000000       0.50000000 </v>
  </varray>
  <varray name="weights" >
   <v>       0.00781250 </v>
   <v>       0.04687500 </v>
   <v>       0.04687500 </v>
   <v>       0.04687500 </v>
   <v>       0.02343750 </v>
   <v>       0.04687500 </v>
   <v>       0.09375000 </v>
   <v>       0.09375000 </v>
   <v>       0.04687500 </v>
   <v>       0.04687500 </v>
   <v>       0.00781250 </v>
   <v>       0.04687500 </v>
   <v>       0.04687500 </v>
   <v>       0.04687500 </v>
   <v>       0.02343750 </v>
   <v>       0.04687500 </v>
   <v>       0.09375000 </v>
   <v>       0.09375000 </v>
   <v>       0.04687500 </v>
   <v>       0.04687500 </v>
  </varray>
  <varray name="tetrahedronlist"  type="int" >
   <v type="int" >        8        2        2        6       12 </v>
   <v type="int" >        8        1        2        2       12 </v>
   <v type="int" >        4        1        2       11       12 </v>
   <v type="int" >        4        2        6       12       16 </v>
   <v type="int" >        8        2       12       12       16 </v>
   <v type="int" >        8        2       11       12       12 </v>
   <v type="int" >        8        3        6        7       16 </v>
   <v type="int" >        8        2        3        6       16 </v>
   <v type="int" >        4        2        3       12       16 </v>
   <v type="int" >        4        3        7       16       17 </v>
   <v type="int" >        8        3       13       16       17 </v>
   <v type="int" >        8        3       12       13       16 </v>
   <v type="int" >        8        4        7        8       17 </v>
   <v type="int" >        8        3        4        7       17 </v>
   <v type="int" >        4        3        4       13       17 </v>
   <v type="int" >        4        4        8       17       18 </v>
   <v type="int" >        8        4       14       17       18 </v>
   <v type="int" >        8        4       13       14       17 </v>
   <v type="int" >        8        5        8        8       18 </v>
   <v type="int" >        8        4        5        8       18 </v>
   <v type="int" >        4        4        5       14       18 </v>
   <v type="int" >        4        5        8       18       18 </v>
   <v type="int" >        4        5       15       18       18 </v>
   <v type="int" >        8        5       14       15       18 </v>
   <v type="int" >        8        4        7        8       18 </v>
   <v type="int" >        4        4        5       15       18 </v>
   <v type="int" >        4        4        7       17       18 </v>
   <v type="int" >        8        4       14       15       18 </v>
   <v type="int" >        8        3        6        7       17 </v>
   <v type="int" >        4        3        4       14       17 </v>
   <v type="int" >        4        3        6       16       17 </v>
   <v type="int" >        8        3       13       14       17 </v>
   <v type="int" >        4        2        2        6       16 </v>
   <v type="int" >        4        2        3       13       16 </v>
   <v type="int" >        4        2        2       12       16 </v>
   <v type="int" >        8        2       12       13       16 </v>
   <v type="int" >        4        1        2       12       12 </v>
   <v type="int" >        4        1       11       12       12 </v>
   <v type="int" >        8        3        6        7       13 </v>
   <v type="int" >        8        2        3        6       13 </v>
   <v type="int" >        4        2        6       12       13 </v>
   <v type="int" >        4        6        7       13       17 </v>
   <v type="int" >        8        6       13       16       17 </v>
   <v type="int" >        8        6       12       13       16 </v>
   <v type="int" >        8        7        7        9       17 </v>
   <v type="int" >        8        6        7        7       17 </v>
   <v type="int" >        4        6        7       16       17 </v>
   <v type="int" >        4        7        9       17       19 </v>
   <v type="int" >        8        7       17       17       19 </v>
   <v type="int" >        8        7       16       17       17 </v>
   <v type="int" >        8        8        9       10       19 </v>
   <v type="int" >        8        7        8        9       19 </v>
   <v type="int" >        4        7        8       17       19 </v>
   <v type="int" >        4        8       10       19       20 </v>
   <v type="int" >        8        8       18       19       20 </v>
   <v type="int" >        8        8       17       18       19 </v>
   <v type="int" >        8        8        9       10       20 </v>
   <v type="int" >        4        8        8       10       20 </v>
   <v type="int" >        4        8        8       18       20 </v>
   <v type="int" >        4        8        9       19       20 </v>
   <v type="int" >        8        8       18       18       20 </v>
   <v type="int" >        4        7        7        9       19 </v>
   <v type="int" >        4        7        8       18       19 </v>
   <v type="int" >        4        7        7       17       19 </v>
   <v type="int" >        8        7       17       18       19 </v>
   <v type="int" >        4        6        7       17       17 </v>
   <v type="int" >        4        3        6       13       17 </v>
   <v type="int" >        4        6       16       17       17 </v>
   <v type="int" >        4        2        6       13       16 </v>
   <v type="int" >        8        4        7        8       14 </v>
   <v type="int" >        8        3        4        7       14 </v>
   <v type="int" >        4        3        7       13       14 </v>
   <v type="int" >        4        7        8       14       18 </v>
   <v type="int" >        8        7       14       17       18 </v>
   <v type="int" >        8        7       13       14       17 </v>
   <v type="int" >        8        8        9       10       18 </v>
   <v type="int" >        8        7        8        9       18 </v>
   <v type="int" >        4        7        9       17       18 </v>
   <v type="int" >        4        9       10       18       20 </v>
   <v type="int" >        8        9       18       19       20 </v>
   <v type="int" >        8        9       17       18       19 </v>
   <v type="int" >        4       10       10       10       20 </v>
   <v type="int" >        8        9       10       10       20 </v>
   <v type="int" >        4        9       10       19       20 </v>
   <v type="int" >        4       10       10       20       20 </v>
   <v type="int" >        4       10       20       20       20 </v>
   <v type="int" >        8       10       19       20       20 </v>
   <v type="int" >        4        9       10       20       20 </v>
   <v type="int" >        4        8        9       18       20 </v>
   <v type="int" >        4        9       19       20       20 </v>
   <v type="int" >        4        7        9       18       19 </v>
   <v type="int" >        4        4        7       14       18 </v>
   <v type="int" >        4        3        7       14       17 </v>
   <v type="int" >        4        5        8        8       15 </v>
   <v type="int" >        8        4        5        8       15 </v>
   <v type="int" >        4        4        8       14       15 </v>
   <v type="int" >        4        8        8       15       18 </v>
   <v type="int" >        8        8       15       18       18 </v>
   <v type="int" >        8        8       14       15       18 </v>
   <v type="int" >        8        8        8       10       18 </v>
   <v type="int" >        4        8       10       18       18 </v>
   <v type="int" >        4        9       10       18       19 </v>
   <v type="int" >        8       10       18       19       20 </v>
   <v type="int" >        4       10       18       18       20 </v>
   <v type="int" >        4        9       10       10       19 </v>
   <v type="int" >        4       10       10       19       20 </v>
   <v type="int" >        4        8       10       18       19 </v>
   <v type="int" >        4        8       10       18       20 </v>
   <v type="int" >        4        5        8       15       18 </v>
   <v type="int" >        4        4        8       15       18 </v>
   <v type="int" >        8        4        5        8       14 </v>
   <v type="int" >        4        5        8       14       15 </v>
   <v type="int" >        4        7        8       14       17 </v>
   <v type="int" >        8        8       14       17       18 </v>
   <v type="int" >        8        7        8        9       17 </v>
   <v type="int" >        4        8        9       17       18 </v>
   <v type="int" >        4        7        9       17       17 </v>
   <v type="int" >        4        9       17       17       19 </v>
   <v type="int" >        4        8        9       17       19 </v>
   <v type="int" >        4        4        8       14       17 </v>
   <v type="int" >        4        5        8       14       18 </v>
   <v type="int" >        8        3        4        7       13 </v>
   <v type="int" >        4        4        7       13       14 </v>
   <v type="int" >        4        6        7       13       16 </v>
   <v type="int" >        8        7       13       16       17 </v>
   <v type="int" >        4        6        7        7       16 </v>
   <v type="int" >        4        7        7       16       17 </v>
   <v type="int" >        4        3        7       13       16 </v>
   <v type="int" >        4        4        7       13       17 </v>
   <v type="int" >        8        2        3        6       12 </v>
   <v type="int" >        4        3        6       12       13 </v>
   <v type="int" >        4        2        6       12       12 </v>
   <v type="int" >        4        6       12       12       16 </v>
   <v type="int" >        4        3        6       12       16 </v>
   <v type="int" >        4        1        2        2       11 </v>
   <v type="int" >        4        2        2       11       12 </v>
  </varray>
  <i name="volumeweight">      0.00130208 </i>
 </kpoints>
 <parameters>
  <separator name="general" >
   <i type="string" name="SYSTEM">unknown system</i>
   <i type="logical" name="LCOMPAT"> F  </i>
  </separator>
  <separator name="electronic" >
   <i type="string" name="PREC">normal</i>
   <i name="ENMAX">    200.00000000</i>
   <i name="ENAUG">    345.27800000</i>
   <i name="EDIFF">      0.00001000</i>
   <i type="int" name="IALGO">    68</i>
   <i type="int" name="IWAVPR">    10</i>
   <i type="int" name="NBANDS">    22</i>
   <i name="NELECT">     36.00000000</i>
   <i type="int" name="TURBO">     0</i>
   <i type="int" name="IRESTART">     0</i>
   <i type="int" name="NREBOOT">     0</i>
   <i type="int" name="NMIN">     0</i>
   <i name="EREF">      0.00000000</i>
   <separator name="electronic smearing" >
    <i type="int" name="ISMEAR">    -5</i>
    <i name="SIGMA">      0.20000000</i>
    <i name="KSPACING">      0.50000000</i>
    <i type="logical" name="KGAMMA"> T  </i>
   </separator>
   <separator name="electronic projectors" >
    <i type="logical" name="LREAL"> F  </i>
    <v name="ROPT">      0.00000000      0.00000000</v>
    <i type="int" name="LMAXPAW">  -100</i>
    <i type="int" name="LMAXMIX">     2</i>
    <i type="logical" name="NLSPLINE"> F  </i>
   </separator>
   <separator name="electronic startup" >
    <i type="int" name="ISTART">     0</i>
    <i type="int" name="ICHARG">     2</i>
    <i type="int" name="INIWAV">     1</i>
   </separator>
   <separator name="electronic spin" >
    <i type="int" name="ISPIN">     1</i>
    <i type="logical" name="LNONCOLLINEAR"> F  </i>
    <v name="MAGMOM">      1.00000000      1.00000000      1.00000000      1.00000000      1.00000000      1.00000000</v>
    <i name="NUPDOWN">     -1.00000000</i>
    <i type="logical" name="LSORBIT"> F  </i>
    <v name="SAXIS">      0.00000000      0.00000000      1.00000000</v>
    <i type="logical" name="LSPIRAL"> F  </i>
    <v name="QSPIRAL">      0.00000000      0.00000000      0.00000000</v>
    <i type="logical" name="LZEROZ"> F  </i>
   </separator>
   <separator name="electronic exchange-correlation" >
    <i type="logical" name="LASPH"> F  </i>
    <i type="logical" name="LMETAGGA"> F  </i>
   </separator>
   <separator name="electronic convergence" >
    <i type="int" name="NELM">    60</i>
    <i type="int" name="NELMDL">     0</i>
    <i type="int" name="NELMIN">     4</i>
    <i name="ENINI">    200.00000000</i>
    <separator name="electronic convergence detail" >
     <i type="logical" name="LDIAG"> T  </i>
     <i type="logical" name="LSUBROT"> F  </i>
     <i name="WEIMIN">      0.00000000</i>
     <i name="EBREAK">      0.00000011</i>
     <i name="DEPER">      0.30000000</i>
     <i type="int" name="NRMM">     4</i>
     <i name="TIME">      0.40000000</i>
    </separator>
   </separator>
   <separator name="electronic mixer" >
    <i name="AMIX">      0.40000000</i>
    <i name="BMIX">      1.00000000</i>
    <i name="AMIN">      0.10000000</i>
    <i name="AMIX_MAG">      1.60000000</i>
    <i name="BMIX_MAG">      1.00000000</i>
    <separator name="electronic mixer details" >
     <i type="int" name="IMIX">     4</i>
     <i type="logical" name="MIXFIRST"> F  </i>
     <i type="int" name="MAXMIX">   -45</i>
     <i name="WC">    100.00000000</i>
     <i type="int" name="INIMIX">     1</i>
     <i type="int" name="MIXPRE">     1</i>
     <i type="int" name="MREMOVE">     5</i>
    </separator>
   </separator>
   <separator name="electronic dipolcorrection" >
    <i type="logical" name="LDIPOL"> F  </i>
    <i type="logical" name="LMONO"> F  </i>
    <i type="int" name="IDIPOL">     0</i>
    <i name="EPSILON">      1.00000000</i>
    <v name="DIPOL">   -100.00000000   -100.00000000   -100.00000000</v>
    <i name="EFIELD">      0.00000000</i>
   </separator>
  </separator>
  <separator name="grids" >
   <i type="int" name="NGX">    12</i>
   <i type="int" name="NGY">    12</i>
   <i type="int" name="NGZ">    54</i>
   <i type="int" name="NGXF">    24</i>
   <i type="int" name="NGYF">    24</i>
   <i type="int" name="NGZF">   108</i>
   <i type="logical" name="ADDGRID"> F  </i>
  </separator>
  <separator name="ionic" >
   <i type="int" name="NSW">     0</i>
   <i type="int" name="IBRION">    -1</i>
   <i type="int" name="MDALGO">     0</i>
   <i type="int" name="ISIF">     2</i>
   <i name="PSTRESS">      0.00000000</i>
   <i name="EDIFFG">      0.00010000</i>
   <i type="int" name="NFREE">     0</i>
   <i name="POTIM">      0.50000000</i>
   <i name="SMASS">     -3.00000000</i>
   <i name="SCALEE">      1.00000000</i>
  </separator>
  <separator name="ionic md" >
   <i name="TEBEG">      0.00010000</i>
   <i name="TEEND">      0.00010000</i>
   <i type="int" name="NBLOCK">     1</i>
   <i type="int" name="KBLOCK">     1</i>
   <i type="int" name="NPACO">   256</i>
   <i name="APACO">     16.00000000</i>
  </separator>
  <separator name="symmetry" >
   <i type="int" name="ISYM">     2</i>
   <i name="SYMPREC">      0.00001000</i>
  </separator>
  <separator name="dos" >
   <i type="int" name="LORBIT">     0</i>
   <v name="RWIGS">     -1.00000000     -1.00000000</v>
   <i type="int" name="NEDOS">   301</i>
   <i name="EMIN">     10.00000000</i>
   <i name="EMAX">    -10.00000000</i>
   <i name="EFERMI">      0.00000000</i>
  </separator>
  <separator name="writing" >
   <i type="int" name="NWRITE">     2</i>
   <i type="logical" name="LWAVE"> F  </i>
   <i type="logical" name="LDOWNSAMPLE"> F  </i>
   <i type="logical" name="LCHARG"> T  </i>
   <i type="logical" name="LPARD"> F  </i>
   <i type="logical" name="LVTOT"> F  </i>
   <i type="logical" name="LVHAR"> F  </i>
   <i type="logical" name="LELF"> F  </i>
   <i type="logical" name="LOPTICS"> F  </i>
   <v name="STM">      0.00000000      0.00000000      0.00000000      0.00000000      0.00000000      0.00000000      0.00000000</v>
  </separator>
  <separator name="performance" >
   <i type="int" name="NPAR">     2</i>
   <i type="int" name="NSIM">     4</i>
   <i type="int" name="NBLK">    -1</i>
   <i type="logical" name="LPLANE"> T  </i>
   <i type="logical" name="LSCALAPACK"> T  </i>
   <i type="logical" name="LSCAAWARE"> F  </i>
   <i type="logical" name="LSCALU"> F  </i>
   <i type="logical" name="LASYNC"> F  </i>
   <i type="logical" name="LORBITALREAL"> F  </i>
  </separator>
  <separator name="miscellaneous" >
   <i type="int" name="IDIOT">     3</i>
   <i type="int" name="ISPECIAL">     0</i>
   <i type="logical" name="LMUSIC"> F  </i>
   <v name="POMASS">     95.94000000     32.06600000</v>
   <v name="DARWINR">      0.00000000      0.00000000</v>
   <v name="DARWINV">      1.00000000      1.00000000</v>
   <i type="logical" name="LCORR"> T  </i>
  </separator>
  <i type="logical" name="GGA_COMPAT"> T  </i>
  <i type="logical" name="LBERRY"> F  </i>
  <i type="int" name="ICORELEVEL">     0</i>
  <i type="logical" name="LDAU"> F  </i>
  <i type="int" name="I_CONSTRAINED_M">     0</i>
  <separator name="electronic exchange-correlation" >
   <i type="string" name="GGA">--</i>
   <i type="int" name="VOSKOWN">     0</i>
   <i type="logical" name="LHFCALC"> F  </i>
   <i type="string" name="PRECFOCK"></i>
   <i type="logical" name="LSYMGRAD"> F  </i>
   <i type="logical" name="LHFONE"> F  </i>
   <i type="logical" name="LRHFCALC"> F  </i>
   <i type="logical" name="LTHOMAS"> F  </i>
   <i type="logical" name="LMODELHF"> F  </i>
   <i name="ENCUT4O">     -1.00000000</i>
   <i type="int" name="EXXOEP">     0</i>
   <i type="int" name="FOURORBIT">     0</i>
   <i name="AEXX">      0.00000000</i>
   <i name="HFALPHA">      0.00000000</i>
   <i name="MCALPHA">      0.00000000</i>
   <i name="ALDAX">      1.00000000</i>
   <i name="AGGAX">      1.00000000</i>
   <i name="ALDAC">      1.00000000</i>
   <i name="AGGAC">      1.00000000</i>
   <i type="int" name="NKREDX">     1</i>
   <i type="int" name="NKREDY">     1</i>
   <i type="int" name="NKREDZ">     1</i>
   <i type="logical" name="SHIFTRED"> F  </i>
   <i type="logical" name="ODDONLY"> F  </i>
   <i type="logical" name="EVENONLY"> F  </i>
   <i type="int" name="LMAXFOCK">     0</i>
   <i type="int" name="NMAXFOCKAE">     0</i>
   <i type="logical" name="LFOCKAEDFT"> F  </i>
   <i name="HFSCREEN">      0.00000000</i>
   <i name="HFSCREENC">      0.00000000</i>
   <i type="int" name="NBANDSGWLOW">     0</i>
  </separator>
  <separator name="vdW DFT" >
   <i type="logical" name="LUSE_VDW"> F  </i>
   <i name="Zab_VDW">     -0.84910000</i>
   <i name="PARAM1">      0.12340000</i>
   <i name="PARAM2">      1.00000000</i>
   <i name="PARAM3">      0.00000000</i>
  </separator>
  <separator name="model GW" >
   <i type="int" name="MODEL_GW">     0</i>
   <i name="MODEL_EPS0">     13.11510680</i>
   <i name="MODEL_ALPHA">      1.00000000</i>
  </separator>
  <separator name="linear response parameters" >
   <i type="logical" name="LEPSILON"> F  </i>
   <i type="logical" name="LRPA"> F  </i>
   <i type="logical" name="LNABLA"> F  </i>
   <i type="logical" name="LVEL"> F  </i>
   <i type="int" name="KINTER">     0</i>
   <i name="CSHIFT">      0.10000000</i>
   <i name="OMEGAMAX">     -1.00000000</i>
   <i name="DEG_THRESHOLD">      0.00200000</i>
   <i name="RTIME">     -0.10000000</i>
   <i name="WPLASMAI">      0.00000000</i>
   <v name="DFIELD">      0.00000000      0.00000000      0.00000000</v>
   <v name="WPLASMA">      0.00000000      0.00000000      0.00000000      0.00000000      0.00000000      0.00000000      0.00000000      0.00000000      0.00000000</v>
  </separator>
  <separator name="orbital magnetization" >
   <i type="logical" name="NUCIND"> F  </i>
   <v name="MAGPOS">      0.00000000      0.00000000      0.00000000</v>
   <i type="logical" name="LNICSALL"> T  </i>
   <i type="logical" name="ORBITALMAG"> F  </i>
   <i type="logical" name="LMAGBLOCH"> F  </i>
   <i type="logical" name="LCHIMAG"> F  </i>
   <i type="logical" name="LGAUGE"> T  </i>
   <i type="int" name="MAGATOM">     0</i>
   <v name="MAGDIPOL">      0.00000000      0.00000000      0.00000000</v>
   <v name="AVECCONST">      0.00000000      0.00000000      0.00000000</v>
  </separator>
  <separator name="response functions" >
   <i type="logical" name="LADDER"> F  </i>
   <i type="logical" name="LRPAFORCE"> F  </i>
   <i type="logical" name="LFXC"> F  </i>
   <i type="logical" name="LHARTREE"> T  </i>
   <i type="int" name="IBSE">     0</i>
   <v type="int" name="KPOINT">    -1     0     0     0</v>
   <i type="logical" name="LTCTE"> F  </i>
   <i type="logical" name="LTETE"> F  </i>
   <i type="logical" name="LTRIPLET"> F  </i>
   <i type="logical" name="LFXCEPS"> F  </i>
   <i type="logical" name="LFXHEG"> F  </i>
   <i type="int" name="NATURALO">     2</i>
   <i type="logical" name="L2ORDER"> F  </i>
   <i type="logical" name="LMP2LT"> F  </i>
   <i type="logical" name="LUSEW"> F  </i>
   <i name="ENCUTGW">     -2.00000000</i>
   <i name="ENCUTGWSOFT">     -2.00000000</i>
   <i name="ENCUTLF">     -1.00000000</i>
   <i type="int" name="LMAXMP2">    -1</i>
   <i name="SCISSOR">      0.00000000</i>
   <i type="int" name="NOMEGA">     0</i>
   <i type="int" name="NOMEGAR">     0</i>
   <i type="int" name="NBANDSGW">    -1</i>
   <i type="int" name="NBANDSO">    -1</i>
   <i type="int" name="NBANDSV">    -1</i>
   <i type="int" name="NELM">     1</i>
   <i type="int" name="NELMHF">     1</i>
   <i type="int" name="DIM">     3</i>
   <i type="int" name="ANTIRES">     0</i>
   <i name="OMEGAMAX">    -30.00000000</i>
   <i name="OMEGAMIN">    -30.00000000</i>
   <i name="OMEGATL">   -200.00000000</i>
   <i type="int" name="OMEGAGRID">   140</i>
   <i name="CSHIFT">     -0.10000000</i>
   <i type="logical" name="SELFENERGY"> F  </i>
   <i type="logical" name="LSPECTRAL"> F  </i>
   <i type="logical" name="LSPECTRALGW"> F  </i>
   <i type="logical" name="LSINGLES"> F  </i>
   <i type="logical" name="LFERMIGW"> F  </i>
   <i type="logical" name="ODDONLYGW"> F  </i>
   <i type="logical" name="EVENONLYGW"> F  </i>
   <i type="int" name="NKREDLFX">     1</i>
   <i type="int" name="NKREDLFY">     1</i>
   <i type="int" name="NKREDLFZ">     1</i>
   <i type="int" name="MAXMEM">  2800</i>
   <i type="int" name="TELESCOPE">     0</i>
   <i type="int" name="TAUPAR">     1</i>
   <i type="int" name="OMEGAPAR">    -1</i>
   <i name="LAMBDA">      1.00000000</i>
  </separator>
  <separator name="External order field" >
   <i name="OFIELD_KAPPA">      0.00000000</i>
   <v name="OFIELD_K">      0.00000000      0.00000000      0.00000000</v>
   <i name="OFIELD_Q6_NEAR">      0.00000000</i>
   <i name="OFIELD_Q6_FAR">      0.00000000</i>
   <i name="OFIELD_A">      0.00000000</i>
  </separator>
 </parameters>
 <atominfo>
  <atoms>       6 </atoms>
  <types>       2 </types>
  <array name="atoms" >
   <dimension dim="1">ion</dimension>
   <field type="string">element</field>
   <field type="int">atomtype</field>
   <set>
    <rc><c>Mo</c><c>   1</c></rc>
    <rc><c>Mo</c><c>   1</c></rc>
    <rc><c>S </c><c>   2</c></rc>
    <rc><c>S </c><c>   2</c></rc>
    <rc><c>S </c><c>   2</c></rc>
    <rc><c>S </c><c>   2</c></rc>
   </set>
  </array>
  <array name="atomtypes" >
   <dimension dim="1">type</dimension>
   <field type="int">atomspertype</field>
   <field type="string">element</field>
   <field>mass</field>
   <field>valence</field>
   <field type="string">pseudopotential</field>
   <set>
    <rc><c>   2</c><c>Mo</c><c>     95.94000000</c><c>      6.00000000</c><c> PAW_PBE Mo 08Apr2002                   </c></rc>
    <rc><c>   4</c><c>S </c><c>     32.06600000</c><c>      6.00000000</c><c>  PAW_PBE S 17Jan2003                   </c></rc>
   </set>
  </array>
 </atominfo>
 <structure name="initialpos" >
  <crystal>
   <varray name="basis" >
    <v>       3.19031573       0.00000000       0.00000000 </v>
    <v>      -1.59515786       2.76289447       0.00000000 </v>
    <v>       0.00000000       0.00000000      14.87900430 </v>
   </varray>
   <i name="volume">    131.15106795 </i>
   <varray name="rec_basis" >
    <v>       0.31344860       0.18096963       0.00000000 </v>
    <v>       0.00000000       0.36193927       0.00000000 </v>
    <v>       0.00000000       0.00000000       0.06720880 </v>
   </varray>
  </crystal>
  <varray name="positions" >
   <v>       0.33333300       0.66666700       0.25000000 </v>
   <v>       0.66666700       0.33333300       0.75000000 </v>
   <v>       0.33333300       0.66666700       0.85517400 </v>
   <v>       0.66666700       0.33333300       0.14482600 </v>
   <v>       0.66666600       0.33333300       0.35517400 </v>
   <v>       0.33333400       0.66666700       0.64482600 </v>
  </varray>
 </structure>
 <calculation>
  <scstep>
   <time name="dav">    0.18    0.19</time>
   <time name="total">    0.20    0.24</time>
   <energy>
    <i name="alphaZ">     90.42577596 </i>
    <i name="ewald">  -1146.88905665 </i>
    <i name="hartreedc">   -535.10238360 </i>
    <i name="XCdc">    -72.59367574 </i>
    <i name="pawpsdc">    813.77302396 </i>
    <i name="pawaedc">   -658.68146406 </i>
    <i name="eentropy">      0.00000000 </i>
    <i name="bandstr">     79.77687610 </i>
    <i name="atom">   1541.37420719 </i>
    <i name="e_fr_energy">    112.08330317 </i>
    <i name="e_wo_entrp">    112.08330317 </i>
    <i name="e_0_energy">    112.08330317 </i>
   </energy>
  </scstep>
  <scstep>
   <time name="dav">    0.23    0.23</time>
   <time name="total">    0.23    0.23</time>
   <energy>
    <i name="e_fr_energy">    -36.94127759 </i>
    <i name="e_wo_entrp">    -36.94127759 </i>
    <i name="e_0_energy">    -36.94127759 </i>
   </energy>
  </scstep>
  <scstep>
   <time name="dav">    0.22    0.22</time>
   <time name="total">    0.22    0.22</time>
   <energy>
    <i name="e_fr_energy">    -46.33703459 </i>
    <i name="e_wo_entrp">    -46.33703459 </i>
    <i name="e_0_energy">    -46.33703459 </i>
   </energy>
  </scstep>
  <scstep>
   <time name="dav">    0.23    0.24</time>
   <time name="total">    0.23    0.24</time>
   <energy>
    <i name="e_fr_energy">    -46.57072598 </i>
    <i name="e_wo_entrp">    -46.57072598 </i>
    <i name="e_0_energy">    -46.57072598 </i>
   </energy>
  </scstep>
  <scstep>
   <time name="dav">    0.22    0.22</time>
   <time name="total">    0.24    0.24</time>
   <energy>
    <i name="e_fr_energy">    -46.57639361 </i>
    <i name="e_wo_entrp">    -46.57639361 </i>
    <i name="e_0_energy">    -46.57639361 </i>
   </energy>
  </scstep>
  <scstep>
   <time name="diag">    0.04    0.04</time>
   <time name="diis">    0.13    0.13</time>
   <time name="orth">    0.00    0.00</time>
   <time name="total">    0.20    0.20</time>
   <energy>
    <i name="e_fr_energy">    -44.21451959 </i>
    <i name="e_wo_entrp">    -44.21451959 </i>
    <i name="e_0_energy">    -44.21451959 </i>
   </energy>
  </scstep>
  <scstep>
   <time name="diag">    0.04    0.04</time>
   <time name="diis">    0.13    0.13</time>
   <time name="orth">    0.00    0.00</time>
   <time name="total">    0.20    0.20</time>
   <energy>
    <i name="e_fr_energy">    -43.48786176 </i>
    <i name="e_wo_entrp">    -43.48786176 </i>
    <i name="e_0_energy">    -43.48786176 </i>
   </energy>
  </scstep>
  <scstep>
   <time name="diag">    0.04    0.04</time>
   <time name="diis">    0.13    0.13</time>
   <time name="orth">    0.00    0.00</time>
   <time name="total">    0.20    0.20</time>
   <energy>
    <i name="e_fr_energy">    -43.40947709 </i>
    <i name="e_wo_entrp">    -43.40947709 </i>
    <i name="e_0_energy">    -43.40947709 </i>
   </energy>
  </scstep>
  <scstep>
   <time name="diag">    0.04    0.04</time>
   <time name="diis">    0.14    0.14</time>
   <time name="orth">    0.00    0.00</time>
   <time name="total">    0.21    0.21</time>
   <energy>
    <i name="e_fr_energy">    -43.39874146 </i>
    <i name="e_wo_entrp">    -43.39874146 </i>
    <i name="e_0_energy">    -43.39874146 </i>
   </energy>
  </scstep>
  <scstep>
   <time name="diag">    0.04    0.04</time>
   <time name="diis">    0.14    0.14</time>
   <time name="orth">    0.00    0.00</time>
   <time name="total">    0.21    0.21</time>
   <energy>
    <i name="e_fr_energy">    -43.38837311 </i>
    <i name="e_wo_entrp">    -43.38837311 </i>
    <i name="e_0_energy">    -43.38837311 </i>
   </energy>
  </scstep>
  <scstep>
   <time name="diag">    0.04    0.04</time>
   <time name="diis">    0.14    0.14</time>
   <time name="orth">    0.00    0.00</time>
   <time name="total">    0.21    0.21</time>
   <energy>
    <i name="e_fr_energy">    -43.38836544 </i>
    <i name="e_wo_entrp">    -43.38836544 </i>
    <i name="e_0_energy">    -43.38836544 </i>
   </energy>
  </scstep>
  <scstep>
   <time name="diag">    0.04    0.04</time>
   <time name="diis">    0.15    0.15</time>
   <time name="orth">    0.00    0.00</time>
   <time name="total">    0.21    0.22</time>
   <energy>
    <i name="e_fr_energy">    -43.38850495 </i>
    <i name="e_wo_entrp">    -43.38850495 </i>
    <i name="e_0_energy">    -43.38850495 </i>
   </energy>
  </scstep>
  <scstep>
   <time name="diag">    0.04    0.04</time>
   <time name="diis">    0.14    0.14</time>
   <time name="orth">    0.00    0.00</time>
   <time name="total">    0.21    0.21</time>
   <energy>
    <i name="e_fr_energy">    -43.38851858 </i>
    <i name="e_wo_entrp">    -43.38851858 </i>
    <i name="e_0_energy">    -43.38851858 </i>
   </energy>
  </scstep>
  <scstep>
   <time name="diag">    0.04    0.04</time>
   <time name="diis">    0.11    0.11</time>
   <time name="orth">    0.00    0.00</time>
   <time name="total">    0.17    0.17</time>
   <energy>
    <i name="alphaZ">     90.42577596 </i>
    <i name="ewald">  -1146.88905665 </i>
    <i name="hartreedc">   -542.36901630 </i>
    <i name="XCdc">    -70.20613339 </i>
    <i name="pawpsdc">    963.00843748 </i>
    <i name="pawaedc">   -811.38511947 </i>
    <i name="eentropy">      0.00000000 </i>
    <i name="bandstr">    -67.34760480 </i>
    <i name="atom">   1541.37420719 </i>
    <i name="e_fr_energy">    -43.38850997 </i>
    <i name="e_wo_entrp">    -43.38850997 </i>
    <i name="e_0_energy">    -43.38850997 </i>
   </energy>
  </scstep>
  <structure>
   <crystal>
    <varray name="basis" >
     <v>       3.19031573       0.00000000       0.00000000 </v>
     <v>      -1.59515786       2.76289447       0.00000000 </v>
     <v>       0.00000000       0.00000000      14.87900430 </v>
    </varray>
    <i name="volume">    131.15106795 </i>
    <varray name="rec_basis" >
     <v>       0.31344860       0.18096963       0.00000000 </v>
     <v>       0.00000000       0.36193927       0.00000000 </v>
     <v>       0.00000000       0.00000000       0.06720880 </v>
    </varray>
   </crystal>
   <varray name="positions" >
    <v>       0.33333300       0.66666700       0.25000000 </v>
    <v>       0.66666700       0.33333300       0.75000000 </v>
    <v>       0.33333300       0.66666700       0.85517400 </v>
    <v>       0.66666700       0.33333300       0.14482600 </v>
    <v>       0.66666600       0.33333300       0.35517400 </v>
    <v>       0.33333400       0.66666700       0.64482600 </v>
   </varray>
  </structure>
  <varray name="forces" >
   <v>       0.00000000       0.00000000       0.00000000 </v>
   <v>       0.00000000      -0.00000000       0.00000000 </v>
   <v>      -0.00000000       0.00000000      -0.09894833 </v>
   <v>       0.00000000      -0.00000000       0.09894833 </v>
   <v>       0.00000000      -0.00000000      -0.09894833 </v>
   <v>      -0.00000000       0.00000000       0.09894833 </v>
  </varray>
  <varray name="stress" >
   <v>     -66.29352000      -0.00000000      -0.00000000 </v>
   <v>      -0.00000000     -66.29352000      -0.00000000 </v>
   <v>       0.00000000      -0.00000000     -81.70870316 </v>
  </varray>
  <energy>
   <i name="e_fr_energy">    -44.71979699 </i>
   <i name="e_wo_entrp">    -44.71979699 </i>
   <i name="e_0_energy">      0.00000000 </i>
  </energy>
  <time name="totalsc">    3.21    3.35</time>
  <eigenvalues>
   <array>
    <dimension dim="1">band</dimension>
    <dimension dim="2">kpoint</dimension>
    <dimension dim="3">spin</dimension>
    <field>eigene</field>
    <field>occ</field>
    <set>
     <set comment="spin 1">
      <set comment="kpoint 1">
       <r>  -10.9546    1.0000 </r>
       <r>  -10.9353    1.0000 </r>
       <r>   -9.7575    1.0000 </r>
       <r>   -9.7232    1.0000 </r>
       <r>   -2.5045    1.0000 </r>
       <r>   -2.3516    1.0000 </r>
       <r>    0.5398    1.0000 </r>
       <r>    0.5399    1.0000 </r>
       <r>    0.5406    1.0000 </r>
       <r>    0.5407    1.0000 </r>
       <r>    1.1313    1.0000 </r>
       <r>    1.6504    1.0000 </r>
       <r>    1.6506    1.0000 </r>
       <r>    1.6539    1.0000 </r>
       <r>    1.6541    1.0000 </r>
       <r>    1.6853    1.0000 </r>
       <r>    2.9324    1.0000 </r>
       <r>    3.3198    1.0000 </r>
       <r>    5.8922    0.0000 </r>
       <r>    5.9027    0.0000 </r>
       <r>    5.9514    0.0000 </r>
       <r>    6.0935    0.0000 </r>
      </set>
      <set comment="kpoint 2">
       <r>  -10.7408    1.0000 </r>
       <r>  -10.7219    1.0000 </r>
       <r>   -9.6541    1.0000 </r>
       <r>   -9.6222    1.0000 </r>
       <r>   -2.2591    1.0000 </r>
       <r>   -2.1070    1.0000 </r>
       <r>    0.0717    1.0000 </r>
       <r>    0.0746    1.0000 </r>
       <r>    0.4809    1.0000 </r>
       <r>    0.6916    1.0000 </r>
       <r>    0.7728    1.0000 </r>
       <r>    0.7766    1.0000 </r>
       <r>    1.3091    1.0000 </r>
       <r>    1.3193    1.0000 </r>
       <r>    1.9528    1.0000 </r>
       <r>    2.2362    1.0000 </r>
       <r>    2.8537    1.0000 </r>
       <r>    3.1072    1.0000 </r>
       <r>    5.5363    0.0000 </r>
       <r>    5.6555    0.0000 </r>
       <r>    5.7187    0.0000 </r>
       <r>    5.7776    0.0000 </r>
      </set>
      <set comment="kpoint 3">
       <r>  -10.1724    1.0000 </r>
       <r>  -10.1557    1.0000 </r>
       <r>   -9.3816    1.0000 </r>
       <r>   -9.3575    1.0000 </r>
       <r>   -1.8637    1.0000 </r>
       <r>   -1.7609    1.0000 </r>
       <r>   -0.6762    1.0000 </r>
       <r>   -0.6336    1.0000 </r>
       <r>   -0.4397    1.0000 </r>
       <r>   -0.3408    1.0000 </r>
       <r>    0.6741    1.0000 </r>
       <r>    0.6823    1.0000 </r>
       <r>    1.3632    1.0000 </r>
       <r>    1.3688    1.0000 </r>
       <r>    1.7295    1.0000 </r>
       <r>    1.9382    1.0000 </r>
       <r>    2.3868    1.0000 </r>
       <r>    2.4342    1.0000 </r>
       <r>    5.1436    0.0000 </r>
       <r>    5.4636    0.0000 </r>
       <r>    5.4742    0.0000 </r>
       <r>    5.4942    0.0000 </r>
      </set>
      <set comment="kpoint 4">
       <r>   -9.4968    1.0000 </r>
       <r>   -9.4846    1.0000 </r>
       <r>   -9.0686    1.0000 </r>
       <r>   -9.0543    1.0000 </r>
       <r>   -2.2654    1.0000 </r>
       <r>   -2.2327    1.0000 </r>
       <r>   -1.2710    1.0000 </r>
       <r>   -1.2310    1.0000 </r>
       <r>   -0.8230    1.0000 </r>
       <r>   -0.7407    1.0000 </r>
       <r>    0.1812    1.0000 </r>
       <r>    0.1843    1.0000 </r>
       <r>    1.3612    1.0000 </r>
       <r>    1.4756    1.0000 </r>
       <r>    1.9593    1.0000 </r>
       <r>    1.9627    1.0000 </r>
       <r>    2.1949    1.0000 </r>
       <r>    2.2476    1.0000 </r>
       <r>    5.2916    0.0000 </r>
       <r>    5.3006    0.0000 </r>
       <r>    5.4830    0.0000 </r>
       <r>    5.6587    0.0000 </r>
      </set>
      <set comment="kpoint 5">
       <r>   -9.1672    1.0000 </r>
       <r>   -9.1599    1.0000 </r>
       <r>   -8.9219    1.0000 </r>
       <r>   -8.9157    1.0000 </r>
       <r>   -2.5977    1.0000 </r>
       <r>   -2.5699    1.0000 </r>
       <r>   -1.6414    1.0000 </r>
       <r>   -1.6077    1.0000 </r>
       <r>   -0.9472    1.0000 </r>
       <r>   -0.8656    1.0000 </r>
       <r>   -0.0093    1.0000 </r>
       <r>    0.0082    1.0000 </r>
       <r>    1.2677    1.0000 </r>
       <r>    1.2895    1.0000 </r>
       <r>    2.1823    1.0000 </r>
       <r>    2.1872    1.0000 </r>
       <r>    2.5034    1.0000 </r>
       <r>    2.5056    1.0000 </r>
       <r>    5.3064    0.0000 </r>
       <r>    5.3155    0.0000 </r>
       <r>    5.7976    0.0000 </r>
       <r>    5.8492    0.0000 </r>
      </set>
      <set comment="kpoint 6">
       <r>  -10.3478    1.0000 </r>
       <r>  -10.3306    1.0000 </r>
       <r>   -9.4643    1.0000 </r>
       <r>   -9.4376    1.0000 </r>
       <r>   -1.8961    1.0000 </r>
       <r>   -1.7645    1.0000 </r>
       <r>   -0.4983    1.0000 </r>
       <r>   -0.4842    1.0000 </r>
       <r>   -0.0468    1.0000 </r>
       <r>    0.0955    1.0000 </r>
       <r>    0.4868    1.0000 </r>
       <r>    0.5149    1.0000 </r>
       <r>    1.1132    1.0000 </r>
       <r>    1.1184    1.0000 </r>
       <r>    2.1178    1.0000 </r>
       <r>    2.3298    1.0000 </r>
       <r>    2.5724    1.0000 </r>
       <r>    2.6471    1.0000 </r>
       <r>    5.0858    0.0000 </r>
       <r>    5.3450    0.0000 </r>
       <r>    5.5640    0.0000 </r>
       <r>    5.6218    0.0000 </r>
      </set>
      <set comment="kpoint 7">
       <r>   -9.7147    1.0000 </r>
       <r>   -9.7008    1.0000 </r>
       <r>   -9.1622    1.0000 </r>
       <r>   -9.1438    1.0000 </r>
       <r>   -1.9162    1.0000 </r>
       <r>   -1.8693    1.0000 </r>
       <r>   -0.9242    1.0000 </r>
       <r>   -0.8998    1.0000 </r>
       <r>   -0.6884    1.0000 </r>
       <r>   -0.6179    1.0000 </r>
       <r>   -0.0456    1.0000 </r>
       <r>    0.0338    1.0000 </r>
       <r>    1.2104    1.0000 </r>
       <r>    1.2232    1.0000 </r>
       <r>    1.8135    1.0000 </r>
       <r>    1.9031    1.0000 </r>
       <r>    2.3236    1.0000 </r>
       <r>    2.3323    1.0000 </r>
       <r>    5.0194    0.0000 </r>
       <r>    5.2417    0.0000 </r>
       <r>    5.5745    0.0000 </r>
       <r>    5.7269    0.0000 </r>
      </set>
      <set comment="kpoint 8">
       <r>   -9.1827    1.0000 </r>
       <r>   -9.1752    1.0000 </r>
       <r>   -8.9138    1.0000 </r>
       <r>   -8.9057    1.0000 </r>
       <r>   -2.3079    1.0000 </r>
       <r>   -2.2820    1.0000 </r>
       <r>   -1.6811    1.0000 </r>
       <r>   -1.6727    1.0000 </r>
       <r>   -0.8119    1.0000 </r>
       <r>   -0.7432    1.0000 </r>
       <r>   -0.0494    1.0000 </r>
       <r>    0.0005    1.0000 </r>
       <r>    1.2222    1.0000 </r>
       <r>    1.2410    1.0000 </r>
       <r>    1.3560    1.0000 </r>
       <r>    1.3910    1.0000 </r>
       <r>    2.6459    1.0000 </r>
       <r>    2.6637    1.0000 </r>
       <r>    5.2996    0.0000 </r>
       <r>    5.3644    0.0000 </r>
       <r>    5.8013    0.0000 </r>
       <r>    5.8819    0.0000 </r>
      </set>
      <set comment="kpoint 9">
       <r>   -9.1980    1.0000 </r>
       <r>   -9.1898    1.0000 </r>
       <r>   -8.9064    1.0000 </r>
       <r>   -8.8963    1.0000 </r>
       <r>   -1.9432    1.0000 </r>
       <r>   -1.9214    1.0000 </r>
       <r>   -1.7337    1.0000 </r>
       <r>   -1.7204    1.0000 </r>
       <r>   -0.4640    1.0000 </r>
       <r>   -0.4400    1.0000 </r>
       <r>   -0.1171    1.0000 </r>
       <r>   -0.0268    1.0000 </r>
       <r>    0.2365    1.0000 </r>
       <r>    0.2613    1.0000 </r>
       <r>    1.5053    1.0000 </r>
       <r>    1.5117    1.0000 </r>
       <r>    2.6190    1.0000 </r>
       <r>    2.6319    1.0000 </r>
       <r>    5.2077    0.0000 </r>
       <r>    5.3489    0.0000 </r>
       <r>    5.9233    0.0000 </r>
       <r>    6.1145    0.0000 </r>
      </set>
      <set comment="kpoint 10">
       <r>   -8.9609    1.0000 </r>
       <r>   -8.9582    1.0000 </r>
       <r>   -8.7841    1.0000 </r>
       <r>   -8.7807    1.0000 </r>
       <r>   -2.1124    1.0000 </r>
       <r>   -2.1081    1.0000 </r>
       <r>   -1.7678    1.0000 </r>
       <r>   -1.7546    1.0000 </r>
       <r>   -0.7524    1.0000 </r>
       <r>   -0.7142    1.0000 </r>
       <r>   -0.0829    1.0000 </r>
       <r>   -0.0575    1.0000 </r>
       <r>    0.1357    1.0000 </r>
       <r>    0.1891    1.0000 </r>
       <r>    1.1015    1.0000 </r>
       <r>    1.1409    1.0000 </r>
       <r>    2.9855    1.0000 </r>
       <r>    3.0078    1.0000 </r>
       <r>    4.9613    0.0000 </r>
       <r>    4.9647    0.0000 </r>
       <r>    6.1871    0.0000 </r>
       <r>    6.3646    0.0000 </r>
      </set>
      <set comment="kpoint 11">
       <r>  -10.9451    1.0000 </r>
       <r>  -10.9451    1.0000 </r>
       <r>   -9.7398    1.0000 </r>
       <r>   -9.7398    1.0000 </r>
       <r>   -2.4248    1.0000 </r>
       <r>   -2.4248    1.0000 </r>
       <r>    0.5330    1.0000 </r>
       <r>    0.5330    1.0000 </r>
       <r>    0.5331    1.0000 </r>
       <r>    0.5331    1.0000 </r>
       <r>    1.3849    1.0000 </r>
       <r>    1.3849    1.0000 </r>
       <r>    1.6527    1.0000 </r>
       <r>    1.6527    1.0000 </r>
       <r>    1.6529    1.0000 </r>
       <r>    1.6530    1.0000 </r>
       <r>    3.1689    1.0000 </r>
       <r>    3.1689    1.0000 </r>
       <r>    5.8887    0.0000 </r>
       <r>    5.9080    0.0000 </r>
       <r>    5.9337    0.0000 </r>
       <r>    5.9611    0.0000 </r>
      </set>
      <set comment="kpoint 12">
       <r>  -10.7313    1.0000 </r>
       <r>  -10.7313    1.0000 </r>
       <r>   -9.6377    1.0000 </r>
       <r>   -9.6377    1.0000 </r>
       <r>   -2.1816    1.0000 </r>
       <r>   -2.1816    1.0000 </r>
       <r>    0.0747    1.0000 </r>
       <r>    0.0747    1.0000 </r>
       <r>    0.5930    1.0000 </r>
       <r>    0.5930    1.0000 </r>
       <r>    0.7727    1.0000 </r>
       <r>    0.7727    1.0000 </r>
       <r>    1.3134    1.0000 </r>
       <r>    1.3134    1.0000 </r>
       <r>    2.0663    1.0000 </r>
       <r>    2.0663    1.0000 </r>
       <r>    3.0133    1.0000 </r>
       <r>    3.0133    1.0000 </r>
       <r>    5.5939    0.0000 </r>
       <r>    5.6072    0.0000 </r>
       <r>    5.7338    0.0000 </r>
       <r>    5.8468    0.0000 </r>
      </set>
      <set comment="kpoint 13">
       <r>  -10.1641    1.0000 </r>
       <r>  -10.1641    1.0000 </r>
       <r>   -9.3693    1.0000 </r>
       <r>   -9.3693    1.0000 </r>
       <r>   -1.8125    1.0000 </r>
       <r>   -1.8125    1.0000 </r>
       <r>   -0.6600    1.0000 </r>
       <r>   -0.6600    1.0000 </r>
       <r>   -0.3807    1.0000 </r>
       <r>   -0.3807    1.0000 </r>
       <r>    0.6792    1.0000 </r>
       <r>    0.6792    1.0000 </r>
       <r>    1.3652    1.0000 </r>
       <r>    1.3652    1.0000 </r>
       <r>    1.8255    1.0000 </r>
       <r>    1.8255    1.0000 </r>
       <r>    2.4191    1.0000 </r>
       <r>    2.4191    1.0000 </r>
       <r>    5.2884    0.0000 </r>
       <r>    5.2896    0.0000 </r>
       <r>    5.4731    0.0000 </r>
       <r>    5.4797    0.0000 </r>
      </set>
      <set comment="kpoint 14">
       <r>   -9.4910    1.0000 </r>
       <r>   -9.4910    1.0000 </r>
       <r>   -9.0614    1.0000 </r>
       <r>   -9.0614    1.0000 </r>
       <r>   -2.2504    1.0000 </r>
       <r>   -2.2504    1.0000 </r>
       <r>   -1.2557    1.0000 </r>
       <r>   -1.2557    1.0000 </r>
       <r>   -0.7779    1.0000 </r>
       <r>   -0.7779    1.0000 </r>
       <r>    0.1810    1.0000 </r>
       <r>    0.1810    1.0000 </r>
       <r>    1.4196    1.0000 </r>
       <r>    1.4196    1.0000 </r>
       <r>    1.9589    1.0000 </r>
       <r>    1.9589    1.0000 </r>
       <r>    2.2217    1.0000 </r>
       <r>    2.2217    1.0000 </r>
       <r>    5.2930    0.0000 </r>
       <r>    5.2930    0.0000 </r>
       <r>    5.5672    0.0000 </r>
       <r>    5.5674    0.0000 </r>
      </set>
      <set comment="kpoint 15">
       <r>   -9.1636    1.0000 </r>
       <r>   -9.1636    1.0000 </r>
       <r>   -8.9190    1.0000 </r>
       <r>   -8.9190    1.0000 </r>
       <r>   -2.5816    1.0000 </r>
       <r>   -2.5816    1.0000 </r>
       <r>   -1.6259    1.0000 </r>
       <r>   -1.6259    1.0000 </r>
       <r>   -0.9110    1.0000 </r>
       <r>   -0.9110    1.0000 </r>
       <r>    0.0006    1.0000 </r>
       <r>    0.0006    1.0000 </r>
       <r>    1.2793    1.0000 </r>
       <r>    1.2794    1.0000 </r>
       <r>    2.1859    1.0000 </r>
       <r>    2.1859    1.0000 </r>
       <r>    2.4963    1.0000 </r>
       <r>    2.4963    1.0000 </r>
       <r>    5.3143    0.0000 </r>
       <r>    5.3143    0.0000 </r>
       <r>    5.8234    0.0000 </r>
       <r>    5.8237    0.0000 </r>
      </set>
      <set comment="kpoint 16">
       <r>  -10.3395    1.0000 </r>
       <r>  -10.3395    1.0000 </r>
       <r>   -9.4509    1.0000 </r>
       <r>   -9.4509    1.0000 </r>
       <r>   -1.8337    1.0000 </r>
       <r>   -1.8337    1.0000 </r>
       <r>   -0.4927    1.0000 </r>
       <r>   -0.4927    1.0000 </r>
       <r>    0.0341    1.0000 </r>
       <r>    0.0341    1.0000 </r>
       <r>    0.5013    1.0000 </r>
       <r>    0.5013    1.0000 </r>
       <r>    1.1144    1.0000 </r>
       <r>    1.1144    1.0000 </r>
       <r>    2.2072    1.0000 </r>
       <r>    2.2072    1.0000 </r>
       <r>    2.6220    1.0000 </r>
       <r>    2.6220    1.0000 </r>
       <r>    5.2046    0.0000 </r>
       <r>    5.2058    0.0000 </r>
       <r>    5.5665    0.0000 </r>
       <r>    5.6134    0.0000 </r>
      </set>
      <set comment="kpoint 17">
       <r>   -9.7079    1.0000 </r>
       <r>   -9.7079    1.0000 </r>
       <r>   -9.1531    1.0000 </r>
       <r>   -9.1531    1.0000 </r>
       <r>   -1.8942    1.0000 </r>
       <r>   -1.8942    1.0000 </r>
       <r>   -0.9168    1.0000 </r>
       <r>   -0.9168    1.0000 </r>
       <r>   -0.6537    1.0000 </r>
       <r>   -0.6537    1.0000 </r>
       <r>   -0.0057    1.0000 </r>
       <r>   -0.0057    1.0000 </r>
       <r>    1.2139    1.0000 </r>
       <r>    1.2139    1.0000 </r>
       <r>    1.8527    1.0000 </r>
       <r>    1.8527    1.0000 </r>
       <r>    2.3282    1.0000 </r>
       <r>    2.3282    1.0000 </r>
       <r>    5.1282    0.0000 </r>
       <r>    5.1289    0.0000 </r>
       <r>    5.5825    0.0000 </r>
       <r>    5.8897    0.0000 </r>
      </set>
      <set comment="kpoint 18">
       <r>   -9.1789    1.0000 </r>
       <r>   -9.1789    1.0000 </r>
       <r>   -8.9099    1.0000 </r>
       <r>   -8.9099    1.0000 </r>
       <r>   -2.2944    1.0000 </r>
       <r>   -2.2944    1.0000 </r>
       <r>   -1.6768    1.0000 </r>
       <r>   -1.6768    1.0000 </r>
       <r>   -0.7808    1.0000 </r>
       <r>   -0.7808    1.0000 </r>
       <r>   -0.0212    1.0000 </r>
       <r>   -0.0212    1.0000 </r>
       <r>    1.2311    1.0000 </r>
       <r>    1.2311    1.0000 </r>
       <r>    1.3720    1.0000 </r>
       <r>    1.3720    1.0000 </r>
       <r>    2.6551    1.0000 </r>
       <r>    2.6551    1.0000 </r>
       <r>    5.3306    0.0000 </r>
       <r>    5.3306    0.0000 </r>
       <r>    5.8395    0.0000 </r>
       <r>    5.8407    0.0000 </r>
      </set>
      <set comment="kpoint 19">
       <r>   -9.1939    1.0000 </r>
       <r>   -9.1939    1.0000 </r>
       <r>   -8.9010    1.0000 </r>
       <r>   -8.9010    1.0000 </r>
       <r>   -1.9330    1.0000 </r>
       <r>   -1.9330    1.0000 </r>
       <r>   -1.7246    1.0000 </r>
       <r>   -1.7246    1.0000 </r>
       <r>   -0.4542    1.0000 </r>
       <r>   -0.4542    1.0000 </r>
       <r>   -0.0643    1.0000 </r>
       <r>   -0.0643    1.0000 </r>
       <r>    0.2512    1.0000 </r>
       <r>    0.2512    1.0000 </r>
       <r>    1.5090    1.0000 </r>
       <r>    1.5090    1.0000 </r>
       <r>    2.6282    1.0000 </r>
       <r>    2.6282    1.0000 </r>
       <r>    5.2731    0.0000 </r>
       <r>    5.2733    0.0000 </r>
       <r>    6.1056    0.0000 </r>
       <r>    6.1910    0.0000 </r>
      </set>
      <set comment="kpoint 20">
       <r>   -8.9599    1.0000 </r>
       <r>   -8.9599    1.0000 </r>
       <r>   -8.7825    1.0000 </r>
       <r>   -8.7825    1.0000 </r>
       <r>   -2.1108    1.0000 </r>
       <r>   -2.1108    1.0000 </r>
       <r>   -1.7639    1.0000 </r>
       <r>   -1.7639    1.0000 </r>
       <r>   -0.7345    1.0000 </r>
       <r>   -0.7344    1.0000 </r>
       <r>   -0.0769    1.0000 </r>
       <r>   -0.0769    1.0000 </r>
       <r>    0.1638    1.0000 </r>
       <r>    0.1638    1.0000 </r>
       <r>    1.1194    1.0000 </r>
       <r>    1.1194    1.0000 </r>
       <r>    2.9932    1.0000 </r>
       <r>    2.9932    1.0000 </r>
       <r>    4.9541    0.0000 </r>
       <r>    4.9541    0.0000 </r>
       <r>    6.2641    0.0000 </r>
       <r>    6.2649    0.0000 </r>
      </set>
     </set>
    </set>
   </array>
  </eigenvalues>
  <separator name="orbital magnetization" >
   <v name="MAGDIPOLOUT">      0.00000000      0.00000000      0.00000000</v>
  </separator>
  <dos>
   <i name="efermi">      3.32790213 </i>
   <total>
    <array>
     <dimension dim="1">gridpoints</dimension>
     <dimension dim="2">spin</dimension>
     <field>energy</field>
     <field>total</field>
     <field>integrated</field>
     <set>
      <set comment="spin 1">
       <r>   -12.9546     0.0000     0.0000 </r>
       <r>   -12.8835     0.0000     0.0000 </r>
       <r>   -12.8125     0.0000     0.0000 </r>
       <r>   -12.7414     0.0000     0.0000 </r>
       <r>   -12.6703     0.0000     0.0000 </r>
       <r>   -12.5993     0.0000     0.0000 </r>
       <r>   -12.5282     0.0000     0.0000 </r>
       <r>   -12.4572     0.0000     0.0000 </r>
       <r>   -12.3861     0.0000     0.0000 </r>
       <r>   -12.3150     0.0000     0.0000 </r>
       <r>   -12.2440     0.0000     0.0000 </r>
       <r>   -12.1729     0.0000     0.0000 </r>
       <r>   -12.1018     0.0000     0.0000 </r>
       <r>   -12.0308     0.0000     0.0000 </r>
       <r>   -11.9597     0.0000     0.0000 </r>
       <r>   -11.8886     0.0000     0.0000 </r>
       <r>   -11.8176     0.0000     0.0000 </r>
       <r>   -11.7465     0.0000     0.0000 </r>
       <r>   -11.6754     0.0000     0.0000 </r>
       <r>   -11.6044     0.0000     0.0000 </r>
       <r>   -11.5333     0.0000     0.0000 </r>
       <r>   -11.4623     0.0000     0.0000 </r>
       <r>   -11.3912     0.0000     0.0000 </r>
       <r>   -11.3201     0.0000     0.0000 </r>
       <r>   -11.2491     0.0000     0.0000 </r>
       <r>   -11.1780     0.0000     0.0000 </r>
       <r>   -11.1069     0.0000     0.0000 </r>
       <r>   -11.0359     0.0000     0.0000 </r>
       <r>   -10.9648     0.0000     0.0000 </r>
       <r>   -10.8937     0.4211     0.0109 </r>
       <r>   -10.8227     1.0046     0.0616 </r>
       <r>   -10.7516     1.5880     0.1537 </r>
       <r>   -10.6806     1.0039     0.2373 </r>
       <r>   -10.6095     1.0702     0.3110 </r>
       <r>   -10.5384     1.1365     0.3894 </r>
       <r>   -10.4674     1.2027     0.4725 </r>
       <r>   -10.3963     1.2690     0.5603 </r>
       <r>   -10.3252     1.3246     0.6528 </r>
       <r>   -10.2542     1.3368     0.7473 </r>
       <r>   -10.1831     1.3491     0.8428 </r>
       <r>   -10.1120     1.3929     0.9399 </r>
       <r>   -10.0410     1.4483     1.0409 </r>
       <r>    -9.9699     1.5037     1.1458 </r>
       <r>    -9.8989     1.5591     1.2546 </r>
       <r>    -9.8278     1.6144     1.3673 </r>
       <r>    -9.7567     1.6701     1.4840 </r>
       <r>    -9.6857     3.8554     1.6628 </r>
       <r>    -9.6146     4.2020     1.9859 </r>
       <r>    -9.5435     4.6966     2.3021 </r>
       <r>    -9.4725     5.2170     2.6537 </r>
       <r>    -9.4014     5.6441     3.0413 </r>
       <r>    -9.3303     6.1148     3.4573 </r>
       <r>    -9.2593     6.6825     3.9120 </r>
       <r>    -9.1882     7.9550     4.4094 </r>
       <r>    -9.1172     8.4568     5.2177 </r>
       <r>    -9.0461     8.4149     5.8142 </r>
       <r>    -8.9750     8.7809     6.4252 </r>
       <r>    -8.9040     7.7175     7.2157 </r>
       <r>    -8.8329     5.4871     7.7193 </r>
       <r>    -8.7618     0.0000     8.0000 </r>
       <r>    -8.6908     0.0000     8.0000 </r>
       <r>    -8.6197     0.0000     8.0000 </r>
       <r>    -8.5486     0.0000     8.0000 </r>
       <r>    -8.4776     0.0000     8.0000 </r>
       <r>    -8.4065     0.0000     8.0000 </r>
       <r>    -8.3354     0.0000     8.0000 </r>
       <r>    -8.2644     0.0000     8.0000 </r>
       <r>    -8.1933     0.0000     8.0000 </r>
       <r>    -8.1223     0.0000     8.0000 </r>
       <r>    -8.0512     0.0000     8.0000 </r>
       <r>    -7.9801     0.0000     8.0000 </r>
       <r>    -7.9091     0.0000     8.0000 </r>
       <r>    -7.8380     0.0000     8.0000 </r>
       <r>    -7.7669     0.0000     8.0000 </r>
       <r>    -7.6959     0.0000     8.0000 </r>
       <r>    -7.6248     0.0000     8.0000 </r>
       <r>    -7.5537     0.0000     8.0000 </r>
       <r>    -7.4827     0.0000     8.0000 </r>
       <r>    -7.4116     0.0000     8.0000 </r>
       <r>    -7.3406     0.0000     8.0000 </r>
       <r>    -7.2695     0.0000     8.0000 </r>
       <r>    -7.1984     0.0000     8.0000 </r>
       <r>    -7.1274     0.0000     8.0000 </r>
       <r>    -7.0563     0.0000     8.0000 </r>
       <r>    -6.9852     0.0000     8.0000 </r>
       <r>    -6.9142     0.0000     8.0000 </r>
       <r>    -6.8431     0.0000     8.0000 </r>
       <r>    -6.7720     0.0000     8.0000 </r>
       <r>    -6.7010     0.0000     8.0000 </r>
       <r>    -6.6299     0.0000     8.0000 </r>
       <r>    -6.5589     0.0000     8.0000 </r>
       <r>    -6.4878     0.0000     8.0000 </r>
       <r>    -6.4167     0.0000     8.0000 </r>
       <r>    -6.3457     0.0000     8.0000 </r>
       <r>    -6.2746     0.0000     8.0000 </r>
       <r>    -6.2035     0.0000     8.0000 </r>
       <r>    -6.1325     0.0000     8.0000 </r>
       <r>    -6.0614     0.0000     8.0000 </r>
       <r>    -5.9903     0.0000     8.0000 </r>
       <r>    -5.9193     0.0000     8.0000 </r>
       <r>    -5.8482     0.0000     8.0000 </r>
       <r>    -5.7772     0.0000     8.0000 </r>
       <r>    -5.7061     0.0000     8.0000 </r>
       <r>    -5.6350     0.0000     8.0000 </r>
       <r>    -5.5640     0.0000     8.0000 </r>
       <r>    -5.4929     0.0000     8.0000 </r>
       <r>    -5.4218     0.0000     8.0000 </r>
       <r>    -5.3508     0.0000     8.0000 </r>
       <r>    -5.2797     0.0000     8.0000 </r>
       <r>    -5.2086     0.0000     8.0000 </r>
       <r>    -5.1376     0.0000     8.0000 </r>
       <r>    -5.0665     0.0000     8.0000 </r>
       <r>    -4.9954     0.0000     8.0000 </r>
       <r>    -4.9244     0.0000     8.0000 </r>
       <r>    -4.8533     0.0000     8.0000 </r>
       <r>    -4.7823     0.0000     8.0000 </r>
       <r>    -4.7112     0.0000     8.0000 </r>
       <r>    -4.6401     0.0000     8.0000 </r>
       <r>    -4.5691     0.0000     8.0000 </r>
       <r>    -4.4980     0.0000     8.0000 </r>
       <r>    -4.4269     0.0000     8.0000 </r>
       <r>    -4.3559     0.0000     8.0000 </r>
       <r>    -4.2848     0.0000     8.0000 </r>
       <r>    -4.2137     0.0000     8.0000 </r>
       <r>    -4.1427     0.0000     8.0000 </r>
       <r>    -4.0716     0.0000     8.0000 </r>
       <r>    -4.0006     0.0000     8.0000 </r>
       <r>    -3.9295     0.0000     8.0000 </r>
       <r>    -3.8584     0.0000     8.0000 </r>
       <r>    -3.7874     0.0000     8.0000 </r>
       <r>    -3.7163     0.0000     8.0000 </r>
       <r>    -3.6452     0.0000     8.0000 </r>
       <r>    -3.5742     0.0000     8.0000 </r>
       <r>    -3.5031     0.0000     8.0000 </r>
       <r>    -3.4320     0.0000     8.0000 </r>
       <r>    -3.3610     0.0000     8.0000 </r>
       <r>    -3.2899     0.0000     8.0000 </r>
       <r>    -3.2189     0.0000     8.0000 </r>
       <r>    -3.1478     0.0000     8.0000 </r>
       <r>    -3.0767     0.0000     8.0000 </r>
       <r>    -3.0057     0.0000     8.0000 </r>
       <r>    -2.9346     0.0000     8.0000 </r>
       <r>    -2.8635     0.0000     8.0000 </r>
       <r>    -2.7925     0.0000     8.0000 </r>
       <r>    -2.7214     0.0000     8.0000 </r>
       <r>    -2.6503     0.0000     8.0000 </r>
       <r>    -2.5793     0.0651     8.0004 </r>
       <r>    -2.5082     0.9189     8.0346 </r>
       <r>    -2.4372     1.8851     8.1331 </r>
       <r>    -2.3661     3.0565     8.3074 </r>
       <r>    -2.2950     4.6525     8.5732 </r>
       <r>    -2.2240     5.4281     8.9430 </r>
       <r>    -2.1529     5.8850     9.3456 </r>
       <r>    -2.0818     7.7418     9.8911 </r>
       <r>    -2.0108     6.5996    10.4006 </r>
       <r>    -1.9397     5.5699    10.8293 </r>
       <r>    -1.8686     9.5739    11.5279 </r>
       <r>    -1.7976     2.7918    11.9506 </r>
       <r>    -1.7265    10.4620    12.4367 </r>
       <r>    -1.6554     5.8251    12.9897 </r>
       <r>    -1.5844     2.6840    13.2327 </r>
       <r>    -1.5133     2.4646    13.4156 </r>
       <r>    -1.4423     2.2453    13.5830 </r>
       <r>    -1.3712     2.0261    13.7347 </r>
       <r>    -1.3001     1.8072    13.8710 </r>
       <r>    -1.2291     1.6675    13.9928 </r>
       <r>    -1.1580     1.6794    14.1117 </r>
       <r>    -1.0869     1.6914    14.2315 </r>
       <r>    -1.0159     1.7034    14.3521 </r>
       <r>    -0.9448     1.7181    14.4736 </r>
       <r>    -0.8737     4.4704    14.6712 </r>
       <r>    -0.8027     9.6654    15.1584 </r>
       <r>    -0.7316    12.9863    16.0240 </r>
       <r>    -0.6606     9.9836    16.7803 </r>
       <r>    -0.5895     8.5410    17.4641 </r>
       <r>    -0.5184     5.3879    17.9591 </r>
       <r>    -0.4474     2.6989    18.2366 </r>
       <r>    -0.3763     2.3855    18.4156 </r>
       <r>    -0.3052     2.2081    18.5784 </r>
       <r>    -0.2342     2.0484    18.7296 </r>
       <r>    -0.1631     1.8889    18.8695 </r>
       <r>    -0.0920     6.1014    19.0345 </r>
       <r>    -0.0210    20.1678    20.3123 </r>
       <r>     0.0501     7.8532    21.2363 </r>
       <r>     0.1211     5.5016    21.7131 </r>
       <r>     0.1922     6.5235    22.1793 </r>
       <r>     0.2633     3.7936    22.5328 </r>
       <r>     0.3343     3.6068    22.7958 </r>
       <r>     0.4054     3.4199    23.0454 </r>
       <r>     0.4765     3.2329    23.2818 </r>
       <r>     0.5475     4.9486    23.5740 </r>
       <r>     0.6186     5.0393    23.9393 </r>
       <r>     0.6897     4.5104    24.2930 </r>
       <r>     0.7607     2.8317    24.5526 </r>
       <r>     0.8318     1.7898    24.6927 </r>
       <r>     0.9028     1.7488    24.8184 </r>
       <r>     0.9739     1.7140    24.9414 </r>
       <r>     1.0450     1.6855    25.0622 </r>
       <r>     1.1160     3.9427    25.2096 </r>
       <r>     1.1871     9.9644    25.6891 </r>
       <r>     1.2582    18.3279    26.6952 </r>
       <r>     1.3292    14.1511    27.8753 </r>
       <r>     1.4003     5.5674    28.5783 </r>
       <r>     1.4714     3.1963    28.8652 </r>
       <r>     1.5424     2.9593    29.0812 </r>
       <r>     1.6135     2.8829    29.2888 </r>
       <r>     1.6846     2.9787    29.4937 </r>
       <r>     1.7556     3.4736    29.7186 </r>
       <r>     1.8267     6.0196    30.0378 </r>
       <r>     1.8977     8.4799    30.5759 </r>
       <r>     1.9688     4.9337    31.0940 </r>
       <r>     2.0399     4.5027    31.4341 </r>
       <r>     2.1109     3.2643    31.7150 </r>
       <r>     2.1820     1.7251    31.8895 </r>
       <r>     2.2531     2.5292    32.0142 </r>
       <r>     2.3241     6.1911    32.3099 </r>
       <r>     2.3952     7.8503    32.8939 </r>
       <r>     2.4663     7.1988    33.4251 </r>
       <r>     2.5373     6.6612    33.9186 </r>
       <r>     2.6084     6.1435    34.3719 </r>
       <r>     2.6794     4.3107    34.7590 </r>
       <r>     2.7505     3.7884    35.0468 </r>
       <r>     2.8216     3.2652    35.2974 </r>
       <r>     2.8926     3.0073    35.5169 </r>
       <r>     2.9637     2.3757    35.7112 </r>
       <r>     3.0348     0.9396    35.8807 </r>
       <r>     3.1058     0.8422    35.9451 </r>
       <r>     3.1769     0.3276    35.9844 </r>
       <r>     3.2480     0.0828    35.9980 </r>
       <r>     3.3190     0.0000    36.0000 </r>
       <r>     3.3901     0.0000    36.0000 </r>
       <r>     3.4611     0.0000    36.0000 </r>
       <r>     3.5322     0.0000    36.0000 </r>
       <r>     3.6033     0.0000    36.0000 </r>
       <r>     3.6743     0.0000    36.0000 </r>
       <r>     3.7454     0.0000    36.0000 </r>
       <r>     3.8165     0.0000    36.0000 </r>
       <r>     3.8875     0.0000    36.0000 </r>
       <r>     3.9586     0.0000    36.0000 </r>
       <r>     4.0297     0.0000    36.0000 </r>
       <r>     4.1007     0.0000    36.0000 </r>
       <r>     4.1718     0.0000    36.0000 </r>
       <r>     4.2428     0.0000    36.0000 </r>
       <r>     4.3139     0.0000    36.0000 </r>
       <r>     4.3850     0.0000    36.0000 </r>
       <r>     4.4560     0.0000    36.0000 </r>
       <r>     4.5271     0.0000    36.0000 </r>
       <r>     4.5982     0.0000    36.0000 </r>
       <r>     4.6692     0.0000    36.0000 </r>
       <r>     4.7403     0.0000    36.0000 </r>
       <r>     4.8114     0.0000    36.0000 </r>
       <r>     4.8824     0.0000    36.0000 </r>
       <r>     4.9535     0.0000    36.0000 </r>
       <r>     5.0246     1.7372    36.1544 </r>
       <r>     5.0956     5.1722    36.3944 </r>
       <r>     5.1667     8.6793    36.8854 </r>
       <r>     5.2377    12.6803    37.6469 </r>
       <r>     5.3088    26.7640    38.7517 </r>
       <r>     5.3799     2.2838    39.4693 </r>
       <r>     5.4509     1.6553    39.6061 </r>
       <r>     5.5220     7.6786    39.8838 </r>
       <r>     5.5931     7.5605    40.6104 </r>
       <r>     5.6641     8.2016    41.1825 </r>
       <r>     5.7352     7.9499    41.7640 </r>
       <r>     5.8063    10.1764    42.3358 </r>
       <r>     5.8773     4.9338    42.9143 </r>
       <r>     5.9484     3.2430    43.1797 </r>
       <r>     6.0194     2.6748    43.3892 </r>
       <r>     6.0905     2.2336    43.5629 </r>
       <r>     6.1616     1.9808    43.7104 </r>
       <r>     6.2326     1.8978    43.8590 </r>
       <r>     6.3037     0.9782    43.9612 </r>
       <r>     6.3748     0.0000    44.0000 </r>
       <r>     6.4458     0.0000    44.0000 </r>
       <r>     6.5169     0.0000    44.0000 </r>
       <r>     6.5880     0.0000    44.0000 </r>
       <r>     6.6590     0.0000    44.0000 </r>
       <r>     6.7301     0.0000    44.0000 </r>
       <r>     6.8011     0.0000    44.0000 </r>
       <r>     6.8722     0.0000    44.0000 </r>
       <r>     6.9433     0.0000    44.0000 </r>
       <r>     7.0143     0.0000    44.0000 </r>
       <r>     7.0854     0.0000    44.0000 </r>
       <r>     7.1565     0.0000    44.0000 </r>
       <r>     7.2275     0.0000    44.0000 </r>
       <r>     7.2986     0.0000    44.0000 </r>
       <r>     7.3697     0.0000    44.0000 </r>
       <r>     7.4407     0.0000    44.0000 </r>
       <r>     7.5118     0.0000    44.0000 </r>
       <r>     7.5828     0.0000    44.0000 </r>
       <r>     7.6539     0.0000    44.0000 </r>
       <r>     7.7250     0.0000    44.0000 </r>
       <r>     7.7960     0.0000    44.0000 </r>
       <r>     7.8671     0.0000    44.0000 </r>
       <r>     7.9382     0.0000    44.0000 </r>
       <r>     8.0092     0.0000    44.0000 </r>
       <r>     8.0803     0.0000    44.0000 </r>
       <r>     8.1514     0.0000    44.0000 </r>
       <r>     8.2224     0.0000    44.0000 </r>
       <r>     8.2935     0.0000    44.0000 </r>
       <r>     8.3646     0.0000    44.0000 </r>
      </set>
     </set>
    </array>
   </total>
  </dos>
 </calculation>
 <structure name="finalpos" >
  <crystal>
   <varray name="basis" >
    <v>       3.19031573       0.00000000       0.00000000 </v>
    <v>      -1.59515786       2.76289447       0.00000000 </v>
    <v>       0.00000000       0.00000000      14.87900430 </v>
   </varray>
   <i name="volume">    131.15106795 </i>
   <varray name="rec_basis" >
    <v>       0.31344860       0.18096963       0.00000000 </v>
    <v>       0.00000000       0.36193927       0.00000000 </v>
    <v>       0.00000000       0.00000000       0.06720880 </v>
   </varray>
  </crystal>
  <varray name="positions" >
   <v>       0.33333300       0.66666700       0.25000000 </v>
   <v>       0.66666700       0.33333300       0.75000000 </v>
   <v>       0.33333300       0.66666700       0.85517400 </v>
   <v>       0.66666700       0.33333300       0.14482600 </v>
   <v>       0.66666600       0.33333300       0.35517400 </v>
   <v>       0.33333400       0.66666700       0.64482600 </v>
  </varray>
 </structure>
</modeling>
