unknown system                          
   1.00000000000000     
     3.190316    0.000000    0.000000
    -1.595158    2.762894    0.000000
     0.000000    0.000000   18.879004
   Mo   S 
     1     2
Direct
  0.333333  0.666667  0.197031
  0.666667  0.333333  0.114141
  0.666666  0.333333  0.279921
 
   24   24  160
 0.25902     0.26282     0.27319     0.29120     0.31853     0.35471     0.39675     0.44104     0.48436     0.52391    
 0.55695     0.57964     0.58662     0.57495     0.54893     0.51733     0.48436     0.44689     0.40259     0.35689    
 0.31852     0.29115     0.27302     0.26232     0.26265     0.26298     0.27250     0.29162     0.32155     0.36262    
 0.41354     0.47144     0.53131     0.58675     0.63308     0.66860     0.69041     0.69186     0.66838     0.62504    
 0.57359     0.52189     0.47001     0.41692     0.36623     0.32367     0.29227     0.27215     0.27328     0.26711    
 0.27297     0.29191     0.32383     0.36766     0.42311     0.48980     0.56377     0.63689     0.70075     0.75071    
 0.78518     0.80142     0.79399     0.75898     0.69995     0.62814     0.55549     0.48784     0.42558     0.36957    
 0.32372     0.29160     0.29219     0.27735     0.27546     0.29063     0.32374     0.37042     0.42868     0.50056    
 0.58418     0.67100     0.75191     0.82033     0.86986     0.89579     0.89854     0.87920     0.83392     0.76087    
 0.67078     0.58126     0.50130     0.42972     0.36752     0.32096     0.31852     0.29512     0.28309     0.28850    
 0.31852     0.36743     0.42764     0.50237     0.59417     0.69270     0.78592     0.87083     0.94206     0.98489    
 0.99249     0.97550     0.94205     0.88367     0.79499     0.69176     0.59417     0.50605     0.42532     0.36010    
 0.34980     0.31764     0.29762     0.28953     0.30896     0.35653     0.41727     0.48994     0.58545     0.69698    
 0.80275     0.89697     0.98621      1.0577      1.0859      1.0704      1.0342     0.98338     0.90415     0.79867    
 0.69047     0.59140     0.49594     0.40949     0.38657     0.34071     0.31616     0.29742     0.30018     0.33967    
 0.40039     0.46758     0.55562     0.67361     0.79605     0.89923     0.99340      1.0864      1.1502      1.1582    
  1.1251      1.0747      1.0014     0.89605     0.77896     0.67282     0.57177     0.46934     0.43203     0.36451    
 0.33320     0.31062     0.29722     0.32024     0.37850     0.44426     0.51837     0.62634     0.75986     0.87936    
 0.97529      1.0699      1.1577      1.2013      1.1907      1.1507      1.0885     0.98913     0.86302     0.74498    
 0.64199     0.53507     0.48436     0.39333     0.34652     0.32266     0.30050     0.30215     0.34867     0.41693    
 0.48436     0.57211     0.69877     0.83379     0.94206      1.0334      1.1241      1.1903      1.2055      1.1832    
  1.1411      1.0636     0.94205     0.81052     0.69969     0.59563     0.53310     0.42820     0.35965     0.32881    
 0.30563     0.29040     0.31400     0.37652     0.44601     0.51966     0.62536     0.75986     0.88428     0.98374    
  1.0745      1.1508      1.1837      1.1727      1.1435      1.0933     0.99706     0.86648     0.74422     0.64048    
 0.56706     0.46254     0.37688     0.33104     0.30722     0.28635     0.28690     0.32896     0.39505     0.46420    
 0.54998     0.66717     0.79413     0.90437      1.0016      1.0892      1.1422      1.1438      1.1160      1.0778    
  1.0106     0.90058     0.77612     0.66771     0.58355     0.48688     0.39657     0.33499     0.30395     0.28395    
 0.27348     0.29185     0.34143     0.40433     0.47742     0.57357     0.68751     0.79661     0.89477     0.98890    
  1.0644      1.0934      1.0768      1.0400     0.98769     0.90335     0.79182     0.68158     0.58662     0.49664    
 0.41148     0.34254     0.29991     0.27690     0.26492     0.27007     0.29990     0.34874     0.41038     0.48963    
 0.58661     0.68595     0.77600     0.86147     0.94206     0.99718      1.0094     0.98627     0.94206     0.87586    
 0.78492     0.68304     0.57887     0.49380     0.41582     0.34936     0.29974     0.26825     0.25277     0.25308    
 0.27051     0.30374     0.35112     0.41494     0.49590     0.58495     0.66894     0.74333     0.81066     0.86729    
 0.90100     0.90329     0.87586     0.82415     0.75248     0.66750     0.55906     0.48238     0.41033     0.35022    
 0.30255     0.26565     0.24236     0.23657     0.24666     0.26834     0.30150     0.34935     0.41248     0.48702    
 0.56601     0.64013     0.70088     0.74601     0.77792     0.79465     0.78803     0.75395     0.69890     0.63241    
 0.52654     0.46406     0.39955     0.34471     0.30328     0.26922     0.24176     0.22826     0.23080     0.24356    
 0.26470     0.29833     0.34433     0.39836     0.46056     0.53079     0.59711     0.64383     0.66998     0.68525    
 0.68954     0.67259     0.63326     0.58244     0.48436     0.43847     0.38603     0.33665     0.29993     0.27229    
 0.24781     0.23108     0.22771     0.23351     0.24455     0.26594     0.29990     0.33817     0.37692     0.42490    
 0.48436     0.53857     0.57164     0.58720     0.59417     0.58848     0.56351     0.52564     0.43785     0.40642    
 0.36913     0.32897     0.29624     0.27324     0.25397     0.23865     0.23324     0.23608     0.24075     0.25067    
 0.27393     0.30564     0.33315     0.35757     0.39139     0.43459     0.47177     0.49385     0.50498     0.50678    
 0.49398     0.46793     0.39236     0.37173     0.34863     0.32139     0.29598     0.27741     0.26272     0.24979    
 0.24342     0.24540     0.24886     0.25099     0.26054     0.28308     0.30942     0.32877     0.34428     0.36465    
 0.38876     0.40918     0.42325     0.43073     0.42776     0.41287     0.35196     0.33950     0.32716     0.31282    
 0.29821     0.28723     0.27915     0.27079     0.26420     0.26384     0.26740     0.26822     0.26711     0.27260    
 0.28810     0.30690     0.32177     0.33235     0.34142     0.35017     0.35889     0.36663     0.36940     0.36369    
 0.31853     0.31286     0.30824     0.30415     0.30048     0.29911     0.30036     0.30126     0.29993     0.29881    
 0.30045     0.30234     0.29991     0.29351     0.28909     0.29170     0.30050     0.31023     0.31620     0.31789    
 0.31852     0.32086     0.32357     0.32305     0.29216     0.29205     0.29356     0.29743     0.30328     0.31111    
 0.32142     0.33312     0.34297     0.34839     0.35025     0.35110     0.35054     0.34463     0.33107     0.31401    
 0.30126     0.29680     0.29746     0.29759     0.29526     0.29271     0.29194     0.29225     0.27310     0.27662    
 0.28301     0.29353     0.30815     0.32542     0.34434     0.36494     0.38594     0.40319     0.41253     0.41405    
 0.41139     0.40618     0.39511     0.37442     0.34643     0.31935     0.30024     0.28952     0.28299     0.27750    
 0.27332     0.27182     0.26213     0.26692     0.27632     0.29171     0.31401     0.34156     0.37142     0.40192    
 0.43243     0.46073     0.48207     0.49172     0.48890     0.47759     0.46223     0.44265     0.41500     0.37867    
 0.34040     0.30924     0.28863     0.27562     0.26680     0.26200     0.33885     0.34520     0.36315     0.39386    
 0.43903     0.49771     0.56576     0.63777     0.70828     0.77200     0.82402     0.85881     0.86988     0.85386    
 0.81552     0.76501     0.70826     0.64399     0.57197     0.50004     0.43904     0.39382     0.36296     0.34466    
 0.34501     0.34535     0.36193     0.39493     0.44522     0.51245     0.59421     0.68588     0.78003     0.86731    
 0.94026     0.99496      1.0270      1.0285     0.99475     0.93174     0.85339     0.77009     0.68441     0.59778    
 0.51623     0.44745     0.39564     0.36158     0.36323     0.35251     0.36291     0.39525     0.44870     0.52119    
 0.61123     0.71681     0.83167     0.94458      1.0437      1.1214      1.1737      1.1964      1.1831      1.1302    
  1.0429     0.93536     0.82293     0.71471     0.61379     0.52319     0.44859     0.39492     0.39491     0.36922    
 0.36724     0.39327     0.44750     0.52408     0.61945     0.73413     0.86420     0.99808      1.1230      1.2288    
  1.3054      1.3456      1.3485      1.3153      1.2432      1.1325     0.99784     0.86109     0.73489     0.62054    
 0.52104     0.44457     0.43904     0.39731     0.37875     0.39031     0.43903     0.51749     0.61594     0.73600    
 0.87847      1.0301      1.1751      1.3068      1.4155      1.4825      1.4980      1.4725      1.4155      1.3203    
  1.1847      1.0291     0.87847     0.73992     0.61352     0.50977     0.49254     0.43403     0.40000     0.39145    
 0.42485     0.49966     0.59814     0.71690     0.86550      1.0346      1.1984      1.3473      1.4841      1.5909    
  1.6373      1.6209      1.5660      1.4811      1.3549      1.1941      1.0277     0.87182     0.72328     0.58994    
 0.55502     0.47463     0.42833     0.40150     0.41143     0.47356     0.56968     0.68186     0.82306      1.0008    
  1.1858      1.3497      1.4992      1.6380      1.7317      1.7494      1.7052      1.6255      1.5077      1.3464    
  1.1677      1.0000     0.84014     0.68369     0.62826     0.51844     0.45777     0.41941     0.40522     0.44405    
 0.53327     0.64126     0.76640     0.93346      1.1314      1.3158      1.4725      1.6205      1.7488      1.8139    
  1.8027      1.7414      1.6402      1.4872      1.2985      1.1157     0.95001     0.78403     0.70826     0.56850    
 0.48523     0.43841     0.40752     0.41668     0.48746     0.59346     0.70826     0.85185      1.0417      1.2431    
  1.4155      1.5652      1.7041      1.8022      1.8282      1.7948      1.7221      1.5972      1.4155      1.2184    
  1.0426     0.87671     0.78170     0.62403     0.51316     0.45298     0.41401     0.39789     0.43731     0.53096    
 0.64282     0.76745     0.93210      1.1311      1.3207      1.4812      1.6252      1.7415      1.7953      1.7837    
  1.7338      1.6451      1.4953      1.3018      1.1146     0.94808     0.83471     0.67619     0.54456     0.46426    
 0.41878     0.38972     0.39730     0.46209     0.56379     0.67792     0.81661     0.99345      1.1832      1.3547    
  1.5076      1.6408      1.7233      1.7342      1.6956      1.6287      1.5172      1.3507      1.1641     0.99403    
 0.86296     0.71338     0.57616     0.47693     0.41971     0.38576     0.37470     0.40695     0.48381     0.58441    
 0.70336     0.85238      1.0239      1.1913      1.3445      1.4867      1.5980      1.6453      1.6278      1.5722    
  1.4854      1.3536      1.1862      1.0176     0.86988     0.72968     0.59898     0.49159     0.41999     0.37879    
 0.36031     0.37154     0.41998     0.49819     0.59783     0.72226     0.86988      1.0222      1.1640      1.2965    
  1.4155      1.4957      1.5162      1.4841      1.4155      1.3118      1.1735      1.0191     0.85799     0.72670    
 0.60603     0.50248     0.42319     0.37094     0.34466     0.34494     0.37324     0.42740     0.50435     0.60508    
 0.72890     0.86445     0.99535      1.1136      1.2186      1.3030      1.3516      1.3540      1.3121      1.2328    
  1.1233     0.99378     0.82621     0.70862     0.59779     0.50338     0.42739     0.36914     0.33249     0.32221    
 0.33695     0.37194     0.42630     0.50245     0.60001     0.71353     0.83362     0.94772      1.0439      1.1168    
  1.1667      1.1899      1.1773      1.1252      1.0418     0.93954     0.77473     0.67776     0.57934     0.49392    
 0.42689     0.37284     0.33150     0.31095     0.31362     0.33341     0.36814     0.42170     0.49346     0.57805    
 0.67411     0.77926     0.87825     0.95192     0.99702      1.0222      1.0267     0.99972     0.94077     0.86279    
 0.70828     0.63485     0.55425     0.47875     0.42000     0.37511     0.33816     0.31391     0.30815     0.31647    
 0.33477     0.36849     0.41998     0.48029     0.54460     0.62055     0.70826     0.78771     0.84001     0.86741    
 0.87847     0.86869     0.83140     0.77410     0.63447     0.58233     0.52315     0.46211     0.41160     0.37491    
 0.34591     0.32442     0.31618     0.31913     0.32659     0.34246     0.37570     0.42150     0.46647     0.51096    
 0.56648     0.63098     0.68624     0.72109     0.73881     0.74067     0.72118     0.68223     0.56118     0.52610    
 0.48741     0.44511     0.40691     0.37889     0.35802     0.34153     0.33358     0.33530     0.33924     0.34276    
 0.35573     0.38487     0.42107     0.45293     0.48289     0.51862     0.55730     0.58958     0.61136     0.62160    
 0.61607     0.59349     0.49483     0.47338     0.45136     0.42796     0.40614     0.39065     0.38069     0.37234    
 0.36666     0.36723     0.37095     0.37085     0.36845     0.37378     0.39153     0.41532     0.43748     0.45689    
 0.47537     0.49290     0.50850     0.52012     0.52300     0.51354     0.43903     0.42897     0.41996     0.41256    
 0.40751     0.40710     0.41149     0.41683     0.42000     0.42224     0.42521     0.42594     0.41999     0.40869    
 0.39959     0.39923     0.40752     0.41902     0.42838     0.43426     0.43903     0.44450     0.44844     0.44679    
 0.39488     0.39406     0.39573     0.40153     0.41166     0.42620     0.44516     0.46644     0.48535     0.49778    
 0.50344     0.50433     0.50008     0.48716     0.46431     0.43731     0.41576     0.40481     0.40155     0.39996    
 0.39745     0.39548     0.39530     0.39560     0.36304     0.36847     0.37868     0.39567     0.41986     0.44955    
 0.48294     0.51877     0.55414     0.58315     0.60008     0.60413     0.59887     0.58633     0.56385     0.52878    
 0.48512     0.44312     0.41148     0.39143     0.37865     0.36939     0.36328     0.36120     0.34445     0.35235    
 0.36813     0.39368     0.43015     0.47552     0.52576     0.57762     0.62853     0.67429     0.70829     0.72447    
 0.72148     0.70354     0.67585     0.63932     0.59143     0.53343     0.47430     0.42513     0.39045     0.36739    
 0.35218     0.34430     0.44327     0.45393     0.48449     0.53555     0.60799     0.69969     0.80487     0.91597    
  1.0248      1.1228      1.2020      1.2543      1.2714      1.2491      1.1930      1.1153      1.0247     0.92260    
 0.81149     0.70217     0.60801     0.53554     0.48431     0.45335     0.45373     0.45409     0.48191     0.53662    
 0.61775     0.72339     0.84937     0.98897      1.1319      1.2652      1.3773      1.4606      1.5080      1.5096    
  1.4604      1.3682      1.2504      1.1214     0.98746     0.85316     0.72738     0.62010     0.53738     0.48156    
 0.48458     0.46688     0.48425     0.53695     0.62259     0.73699     0.87670      1.0378      1.2115      1.3827    
  1.5349      1.6553      1.7355      1.7682      1.7454      1.6646      1.5341      1.3730      1.2022      1.0355    
 0.87936     0.73908     0.62246     0.53660     0.53667     0.49488     0.49278     0.53494     0.62015     0.74002    
 0.88857      1.0645      1.2619      1.4656      1.6580      1.8226      1.9431      2.0067      2.0098      1.9536    
  1.8379      1.6681      1.4653      1.2585      1.0653     0.88971     0.73679     0.61704     0.60801     0.53978    
 0.51182     0.53235     0.60800     0.72870     0.88161      1.0664      1.2824      1.5133      1.7387      1.9454    
  2.1162      2.2239      2.2532      2.2133      2.1162      1.9598      1.7488      1.5122      1.2824      1.0706    
 0.87909     0.72053     0.69423     0.59828     0.54437     0.53531     0.58856     0.70178     0.85352      1.0378    
  1.2632      1.5181      1.7722      2.0099      2.2263      2.3937      2.4721      2.4547      2.3672      2.2230    
  2.0180      1.7676      1.5108      1.2699      1.0446     0.84485     0.79349     0.66465     0.58775     0.54970    
 0.56982     0.66353     0.80910     0.98478      1.2023      1.4685      1.7499      2.0124      2.2554      2.4732    
  2.6198      2.6551      2.5916      2.4600      2.2644      2.0089      1.7308      1.4676      1.2205     0.98669    
 0.90589     0.73700     0.63528     0.57493     0.55983     0.62066     0.75276     0.91977      1.1176      1.3710    
  1.6669      1.9549      2.2140      2.4546      2.6547      2.7584      2.7466      2.6469      2.4756      2.2295    
  1.9366      1.6502      1.3885      1.1362      1.0247     0.81679     0.68269     0.60384     0.56098     0.58075    
 0.68502     0.84326      1.0247      1.2488      1.5328      1.8378      2.1162      2.3663      2.5905      2.7461    
  2.7917      2.7382      2.6096      2.4003      2.1162      1.8116      1.5338      1.2752      1.1331     0.90096    
 0.73109     0.62996     0.56904     0.55195     0.61334     0.74994     0.92081      1.1179      1.3686      1.6657    
  1.9593      2.2226      2.4593      2.6469      2.7387      2.7263      2.6386      2.4804      2.2376      1.9393    
  1.6480      1.3856      1.2134     0.97776     0.78181     0.65333     0.57746     0.53711     0.55469     0.65106    
 0.80223     0.97957      1.1941      1.4590      1.7456      2.0164      2.2634      2.4758      2.6108      2.6391    
  2.5815      2.4630      2.2736      2.0121      1.7253      1.4597      1.2587      1.0328     0.82949     0.67741    
 0.58313     0.52942     0.51768     0.56961     0.68478     0.83833      1.0222      1.2475      1.5047      1.7627    
  2.0055      2.2284      2.4011      2.4810      2.4624      2.3738      2.2270      2.0152      1.7574      1.4980    
  1.2714      1.0584     0.86297     0.70119     0.58817     0.52070     0.49283     0.51296     0.58817     0.70825    
 0.86179      1.0505      1.2714      1.5030      1.7252      1.9336      2.1162      2.2386      2.2734      2.2263    
  2.1162      1.9499      1.7353      1.4997      1.2534      1.0552     0.87370     0.71721     0.59504     0.51224    
 0.46989     0.47012     0.51458     0.59949     0.71921     0.87265      1.0575      1.2603      1.4611      1.6470    
  1.8117      1.9414      2.0144      2.0170      1.9510      1.8269      1.6573      1.4594      1.2043      1.0278    
 0.86175     0.71817     0.60073     0.51046     0.45337     0.43612     0.45800     0.51338     0.59960     0.71716    
 0.86403      1.0330      1.2122      1.3852      1.5350      1.6513      1.7297      1.7631      1.7409      1.6603    
  1.5329      1.3765      1.1256     0.97939     0.83292     0.70368     0.59891     0.51432     0.45109     0.41915    
 0.42195     0.45311     0.50940     0.59346     0.70314     0.83150     0.97559      1.1305      1.2768      1.3905    
  1.4645      1.5050      1.5097      1.4673      1.3787      1.2604      1.0248     0.91235     0.79210     0.67940    
 0.58817     0.51655     0.45928     0.42226     0.41226     0.42495     0.45576     0.50966     0.58817     0.68094    
 0.78186     0.89725      1.0247      1.1401      1.2203      1.2653      1.2824      1.2666      1.2112      1.1257    
 0.91254     0.83142     0.74166     0.65112     0.57458     0.51656     0.47117     0.43846     0.42465     0.42772    
 0.44071     0.46758     0.51746     0.58500     0.65565     0.72877     0.81468     0.90880     0.98936      1.0423    
  1.0695      1.0714      1.0424     0.98516     0.80009     0.74515     0.68496     0.62161     0.56489     0.52215    
 0.49045     0.46658     0.45450     0.45507     0.46040     0.46784     0.48804     0.52848     0.57985     0.62992    
 0.68024     0.73721     0.79588     0.84442     0.87682     0.89086     0.88175     0.84859     0.69666     0.66336    
 0.62844     0.59271     0.56068     0.53806     0.52403     0.51385     0.50770     0.50846     0.51234     0.51206    
 0.50973     0.51674     0.53898     0.57041     0.60287     0.63434     0.66541     0.69456     0.71919     0.73585    
 0.73887     0.72449     0.60799     0.59292     0.57887     0.56764     0.56098     0.56169     0.56968     0.58003    
 0.58817     0.59407     0.59848     0.59796     0.58817     0.57146     0.55709     0.55332     0.56098     0.57452    
 0.58781     0.59852     0.60800     0.61700     0.62232     0.61939     0.53664     0.53634     0.53986     0.54973    
 0.56671     0.59090     0.62167     0.65564     0.68631     0.70773     0.71824     0.71920     0.71021     0.68828    
 0.65339     0.61331     0.57979     0.55944     0.54976     0.54434     0.53992     0.53729     0.53702     0.53733    
 0.48438     0.49409     0.51176     0.53979     0.57876     0.62656     0.68029     0.73707     0.79199     0.83690    
 0.86411     0.87164     0.86286     0.84030     0.80229     0.74767     0.68258     0.61972     0.56986     0.53528    
 0.51171     0.49506     0.48463     0.48114     0.45314     0.46673     0.49373     0.53591     0.59415     0.66560    
 0.74479     0.82648     0.90574     0.97577      1.0275      1.0528      1.0497      1.0224     0.97740     0.91718    
 0.84114     0.75292     0.66429     0.58882     0.53251     0.49295     0.46652     0.45295     0.58325     0.60019    
 0.64895     0.72888     0.83929     0.97638      1.1326      1.2980      1.4612      1.6092      1.7292      1.8081    
  1.8344      1.8025      1.7195      1.6013      1.4612      1.3051      1.1396     0.97903     0.83932     0.72888    
 0.64876     0.59956     0.59997     0.60036     0.64386     0.72864     0.85228      1.0109      1.1983      1.4060    
  1.6203      1.8229      1.9958      2.1247      2.1967      2.1984      2.1245      1.9861      1.8072      1.6091    
  1.4044      1.2024      1.0151     0.85478     0.72945     0.64348     0.64905     0.62190     0.64870     0.72899    
 0.85835      1.0303      1.2395      1.4805      1.7417      2.0029      2.2396      2.4298      2.5563      2.6054    
  2.5669      2.4397      2.2388      1.9926      1.7319      1.4780      1.2423      1.0325     0.85821     0.72862    
 0.73008     0.66692     0.66467     0.72822     0.85482      1.0335      1.2563      1.5209      1.8195      2.1325    
  2.4340      2.6962      2.8907      2.9944      2.9977      2.9020      2.7126      2.4447      2.1322      1.8159    
  1.5217      1.2575      1.0300     0.85151     0.83932     0.73625     0.69606     0.72833     0.83931      1.0165    
  1.2446      1.5228      1.8497      2.2055      2.5620      2.8944      3.1708      3.3489      3.4025      3.3377    
  3.1708      2.9097      2.5727      2.2043      1.8498      1.5274      1.2420      1.0078     0.97057     0.82528    
 0.74569     0.73605     0.81497     0.97865      1.2028      1.4804      1.8208      2.2105      2.6124      2.9996    
  3.3524      3.6245      3.7591      3.7406      3.5962      3.3489      3.0082      2.6075      2.2028      1.8280    
  1.4877      1.1935      1.1205     0.92688     0.81027     0.75795     0.79116     0.92571      1.1371      1.4016    
  1.7320      2.1355      2.5738      3.0022      3.4061      3.7608      3.9996      4.0663      3.9696      3.7468    
  3.4157      2.9985      2.5535      2.1346      1.7513      1.4036      1.2873      1.0378     0.88208     0.79361    
 0.77750     0.86645      1.0545      1.3022      1.6051      1.9905      2.4434      2.9045      3.3392      3.7410    
  4.0660      4.2377      4.2251      4.0578      3.7633      3.3558      2.8850      2.4257      2.0092      1.6249    
  1.4612      1.1577     0.95558     0.83528     0.77733     0.81069     0.95802      1.1858      1.4612      1.8055    
  2.2375      2.7125      3.1709      3.5953      3.9683      4.2245      4.3051      4.2161      3.9887      3.6315    
  3.1708      2.6846      2.2385      1.8335      1.6202      1.2808      1.0304     0.87539     0.78642     0.76827    
 0.85775      1.0504      1.3019      1.6039      1.9866      2.4408      2.9081      3.3475      3.7455      4.0576    
  4.2167      4.2035      4.0487      3.7679      3.3635      2.8868      2.4220      2.0046      1.7412      1.3917    
  1.1058     0.91281     0.79746     0.74277     0.77326     0.91045      1.1276      1.3935      1.7206      2.1229    
  2.5670      3.0047      3.4134      3.7631      3.9900      4.0495      3.9587      3.7494      3.4242      3.0002    
  2.5454      2.1236      1.8128      1.4718      1.1740     0.94972     0.80638     0.72703     0.71450     0.79198    
 0.95764      1.1835      1.4605      1.8007      2.1931      2.5997      2.9932      3.3537      3.6324      3.7691    
  3.7493      3.6033      3.3523      3.0035      2.5939      2.1861      1.8344      1.5105      1.2211     0.98352    
 0.81455     0.71220     0.67203     0.70390     0.81454     0.99112      1.2199      1.5021      1.8344      2.1913    
  2.5453      2.8807      3.1709      3.3655      3.4252      3.3523      3.1708      2.8980      2.5560      2.1878    
  1.8071      1.5072      1.2365      1.0051     0.82381     0.69951     0.63549     0.63565     0.70190     0.82855    
  1.0073      1.2353      1.5096      1.8145      2.1252      2.4210      2.6847      2.8902      3.0045      3.0071    
  2.9003      2.7009      2.4320      2.1233      1.7315      1.4665      1.2198      1.0061     0.83053     0.69570    
 0.61022     0.58325     0.61502     0.69875     0.82937      1.0051      1.2222      1.4720      1.7400      2.0042    
  2.2398      2.4269      2.5524      2.6027      2.5643      2.4364      2.2376      1.9950      1.6122      1.3933    
  1.1777     0.98621     0.82788     0.69973     0.60508     0.55661     0.55953     0.60718     0.69459     0.82215    
 0.98555      1.1761      1.3894      1.6174      1.8352      2.0112      2.1313      2.1966      2.2016      2.1343    
  1.9988      1.8179      1.4612      1.2929      1.1168     0.95192     0.81454     0.70399     0.61638     0.55987    
 0.54325     0.56268     0.61273     0.69683     0.81454     0.95342      1.1059      1.2769      1.4612      1.6290    
  1.7512      1.8232      1.8497      1.8244      1.7414      1.6138      1.2944      1.1732      1.0416     0.91054    
 0.79732     0.70778     0.63678     0.58569     0.56236     0.56558     0.58806     0.63308     0.70882     0.80831    
 0.91526      1.0279      1.1555      1.2904      1.4064      1.4853      1.5262      1.5281      1.4853      1.4020    
  1.1276      1.0465     0.95796     0.86653     0.78411     0.71930     0.66954     0.63198     0.61138     0.60924    
 0.61752     0.63325     0.66702     0.72603     0.79996     0.87540     0.95301      1.0380      1.1230      1.1931    
  1.2396      1.2587      1.2448      1.1975     0.97318     0.92555     0.87477     0.82341     0.77751     0.74373    
 0.72126     0.70493     0.69473     0.69362     0.69765     0.69923     0.70052     0.71355     0.74472     0.78788    
 0.83426     0.88106     0.92766     0.97091      1.0064      1.0291      1.0322      1.0120     0.83929     0.81960    
 0.80079     0.78582     0.77734     0.77859     0.78912     0.80302     0.81454     0.82284     0.82823     0.82693    
 0.81455     0.79397     0.77576     0.76966     0.77733     0.79318     0.81033     0.82555     0.83931     0.85149    
 0.85806     0.85400     0.73004     0.73259     0.74089     0.75796     0.78486     0.82154     0.86661     0.91527    
 0.95915     0.99044      1.0062      1.0073     0.99317     0.96132     0.91289     0.85766     0.80967     0.77713    
 0.75803     0.74567     0.73640     0.73074     0.72907     0.72939     0.64884     0.66608     0.69601     0.74081    
 0.80068     0.87281     0.95307      1.0368      1.1167      1.1819      1.2222      1.2342      1.2210      1.1855    
  1.1276      1.0480     0.95546     0.86552     0.79121     0.73599     0.69595     0.66711     0.64910     0.64303    
 0.59934     0.62173     0.66569     0.73211     0.82088     0.92789      1.0461      1.1680      1.2859      1.3896    
  1.4661      1.5046      1.5012      1.4607      1.3913      1.2981      1.1836      1.0547     0.92649     0.81520    
 0.72850     0.66487     0.62150     0.59913     0.77147     0.79658     0.86909     0.98681      1.1475      1.3461    
  1.5738      1.8184      2.0640      2.2905      2.4760      2.5986      2.6401      2.5926      2.4656      2.2820    
  2.0640      1.8260      1.5814      1.3489      1.1475     0.98680     0.86888     0.79590     0.79635     0.79678    
 0.86021     0.98362      1.1631      1.3937      1.6687      1.9777      2.3026      2.6168      2.8903      3.0960    
  3.2097      3.2115      3.0956      2.8799      2.6001      2.2908      1.9761      1.6731      1.3983      1.1658    
 0.98445     0.85976     0.86920     0.83026     0.86881     0.98396      1.1702      1.4203      1.7291      2.0908    
  2.4901      2.8982      3.2764      3.5856      3.7920      3.8696      3.8032      3.5962      3.2755      2.8872    
  2.4796      2.0881      1.7321      1.4227      1.1700     0.98357     0.98809     0.89828     0.89585     0.98606    
  1.1658      1.4237      1.7528      2.1520      2.6118      3.1048      3.5903      4.0200      4.3429      4.5164    
  4.5199      4.3550      4.0375      3.6017      3.1043      2.6078      2.1528      1.7541      1.4200      1.1623    
  1.1475      1.0003     0.94504     0.99183      1.1475      1.3997      1.7345      2.1540      2.6575      3.2198    
  3.7983      4.3470      4.8067      5.1076      5.2040      5.0957      4.8067      4.3633      3.8097      3.2184    
  2.6575      2.1588      1.7318      1.3904      1.3399      1.1301      1.0183      1.0081      1.1191      1.3486    
  1.6735      2.0906      2.6130      3.2249      3.8772      4.5221      5.1114      5.5659      5.7991      5.7793    
  5.5357      5.1077      4.5313      3.8721      3.2167      2.6208      2.0985      1.6636      1.5609      1.2791    