unknown system                          
   1.00000000000000     
     3.190316    0.000000    0.000000
    -1.595158    2.762894    0.000000
     0.000000    0.000000   18.879004
   Mo   S 
     1     2
Direct
  0.333333  0.666667  0.197031
  0.666667  0.333333  0.114141
  0.666666  0.333333  0.279921
 
   24   24  160
 0.25901787879E+00 0.26281957608E+00 0.27319166130E+00 0.29119689596E+00 0.31852960185E+00
 0.35470878734E+00 0.39674825098E+00 0.44103547222E+00 0.48436073825E+00 0.52390552655E+00
 0.55694901923E+00 0.57963707696E+00 0.58661529389E+00 0.57494869176E+00 0.54892886298E+00
 0.51733123455E+00 0.48436223287E+00 0.44688699454E+00 0.40258650562E+00 0.35689211558E+00
 0.31852378639E+00 0.29115265879E+00 0.27301753554E+00 0.26231633736E+00 0.26264602813E+00
 0.26297927592E+00 0.27249686877E+00 0.29161583079E+00 0.32154588213E+00 0.36262246736E+00
 0.41354468745E+00 0.47143773773E+00 0.53131301575E+00 0.58674659823E+00 0.63308308964E+00
 0.66859747579E+00 0.69040845796E+00 0.69185864748E+00 0.66838430164E+00 0.62504094613E+00
 0.57359348548E+00 0.52189332728E+00 0.47001306103E+00 0.41691762121E+00 0.36623085293E+00
 0.32367237291E+00 0.29227224302E+00 0.27214967310E+00 0.27327829599E+00 0.26710644263E+00
 0.27296697926E+00 0.29190762188E+00 0.32382860736E+00 0.36765504206E+00 0.42311460340E+00
 0.48979555314E+00 0.56376956361E+00 0.63689134935E+00 0.70074731768E+00 0.75070763977E+00
 0.78517809056E+00 0.80142023141E+00 0.79398694827E+00 0.75897878570E+00 0.69995472778E+00
 0.62814342365E+00 0.55549217962E+00 0.48783977122E+00 0.42558001357E+00 0.36956842526E+00
 0.32371670053E+00 0.29159974155E+00 0.29219433891E+00 0.27735101109E+00 0.27546079985E+00
 0.29062701947E+00 0.32373844193E+00 0.37042043594E+00 0.42868413583E+00 0.50055603937E+00
 0.58417933410E+00 0.67099968839E+00 0.75190924217E+00 0.82033186545E+00 0.86986209502E+00
 0.89579346347E+00 0.89853936365E+00 0.87919558062E+00 0.83392171054E+00 0.76087287507E+00
 0.67077566450E+00 0.58126356350E+00 0.50129735762E+00 0.42971950135E+00 0.36752455200E+00
 0.32095599240E+00 0.31852377195E+00 0.29512163583E+00 0.28308767745E+00 0.28849731242E+00
 0.31852346959E+00 0.36743405490E+00 0.42763825378E+00 0.50236920426E+00 0.59417438938E+00
 0.69270197560E+00 0.78592370930E+00 0.87083310594E+00 0.94205590072E+00 0.98488827452E+00
 0.99248829637E+00 0.97550253306E+00 0.94204788581E+00 0.88366748668E+00 0.79498545933E+00
 0.69176450640E+00 0.59416884829E+00 0.50605274568E+00 0.42531926684E+00 0.36010409353E+00
 0.34979730854E+00 0.31764369667E+00 0.29761609187E+00 0.28952619135E+00 0.30895850620E+00
 0.35652666440E+00 0.41727362996E+00 0.48993966965E+00 0.58545130002E+00 0.69698459552E+00
 0.80274966530E+00 0.89696607921E+00 0.98621259000E+00 0.10577051297E+01 0.10858812701E+01
 0.10704283355E+01 0.10341713823E+01 0.98337510901E+00 0.90414936515E+00 0.79867161225E+00
 0.69046676979E+00 0.59140441824E+00 0.49593677218E+00 0.40949314983E+00 0.38656600098E+00
 0.34070621543E+00 0.31616037233E+00 0.29742300738E+00 0.30018053837E+00 0.33967322887E+00
 0.40039117562E+00 0.46758309394E+00 0.55561956249E+00 0.67361498403E+00 0.79604815167E+00
 0.89923190739E+00 0.99340315300E+00 0.10864181279E+01 0.11501886373E+01 0.11582489476E+01
 0.11251035742E+01 0.10746863045E+01 0.10013987510E+01 0.89605239045E+00 0.77896494588E+00
 0.67281952208E+00 0.57177344972E+00 0.46934058299E+00 0.43203463826E+00 0.36450901834E+00
 0.33319986211E+00 0.31061500723E+00 0.29721613619E+00 0.32024174273E+00 0.37850275488E+00
 0.44426003439E+00 0.51836944345E+00 0.62634455808E+00 0.75986457351E+00 0.87936414961E+00
 0.97528753258E+00 0.10699162342E+01 0.11576663691E+01 0.12013032898E+01 0.11907151657E+01
 0.11506724340E+01 0.10885364944E+01 0.98912833273E+00 0.86301807074E+00 0.74497881652E+00
 0.64199359671E+00 0.53507102002E+00 0.48436224048E+00 0.39332688016E+00 0.34652151901E+00
 0.32265837096E+00 0.30050023927E+00 0.30215322722E+00 0.34866808953E+00 0.41693459476E+00
 0.48436310909E+00 0.57211335351E+00 0.69877408651E+00 0.83379203059E+00 0.94205607557E+00
 0.10334256373E+01 0.11240529685E+01 0.11902614835E+01 0.12054788480E+01 0.11832058864E+01
 0.11411240815E+01 0.10636278398E+01 0.94204791903E+00 0.81051840639E+00 0.69969397561E+00
 0.59562544155E+00 0.53309565719E+00 0.42819756728E+00 0.35965439369E+00 0.32880686998E+00
 0.30562896984E+00 0.29039710361E+00 0.31400406210E+00 0.37651756445E+00 0.44601088608E+00
 0.51966280214E+00 0.62536288347E+00 0.75986290434E+00 0.88427533606E+00 0.98374039685E+00
 0.10744598931E+01 0.11508070955E+01 0.11836642624E+01 0.11726908714E+01 0.11434867126E+01
 0.10932875581E+01 0.99706403779E+00 0.86647724838E+00 0.74421658164E+00 0.64047569393E+00
 0.56706098001E+00 0.46253903802E+00 0.37687861938E+00 0.33103676699E+00 0.30722361745E+00
 0.28635342019E+00 0.28690215126E+00 0.32896246958E+00 0.39505185975E+00 0.46419547625E+00
 0.54998347306E+00 0.66717075779E+00 0.79412726821E+00 0.90437044608E+00 0.10015609659E+01
 0.10892221411E+01 0.11421850864E+01 0.11438161949E+01 0.11160360415E+01 0.10777843115E+01
 0.10106204148E+01 0.90058324600E+00 0.77611562927E+00 0.66771183866E+00 0.58355034542E+00
 0.48688424048E+00 0.39657143606E+00 0.33498936230E+00 0.30395102116E+00 0.28394547923E+00
 0.27348076052E+00 0.29185006529E+00 0.34142511592E+00 0.40432762785E+00 0.47741870291E+00
 0.57356964885E+00 0.68750911240E+00 0.79661002804E+00 0.89476664158E+00 0.98889884893E+00
 0.10643889305E+01 0.10933702368E+01 0.10768143421E+01 0.10400043909E+01 0.98769287663E+00
 0.90335341236E+00 0.79181643257E+00 0.68158237677E+00 0.58661533572E+00 0.49663623633E+00
 0.41148145701E+00 0.34253710985E+00 0.29991252358E+00 0.27689770830E+00 0.26492044199E+00
 0.27006793988E+00 0.29990474780E+00 0.34873982529E+00 0.41037509458E+00 0.48962641311E+00
 0.58661239372E+00 0.68594932482E+00 0.77599515055E+00 0.86146909099E+00 0.94205611605E+00
 0.99718176348E+00 0.10094236670E+01 0.98626558540E+00 0.94205597433E+00 0.87586229877E+00
 0.78491734266E+00 0.68303694872E+00 0.57886747441E+00 0.49380128388E+00 0.41582440184E+00
 0.34936103769E+00 0.29973568304E+00 0.26824701275E+00 0.25276579196E+00 0.25308177406E+00
 0.27051300257E+00 0.30374005801E+00 0.35111764553E+00 0.41494163947E+00 0.49589863668E+00
 0.58494528972E+00 0.66894256630E+00 0.74332884647E+00 0.81066079037E+00 0.86728583102E+00
 0.90100373753E+00 0.90329124872E+00 0.87586058929E+00 0.82414762565E+00 0.75247949308E+00
 0.66749816516E+00 0.55905648864E+00 0.48238202561E+00 0.41033189223E+00 0.35021664820E+00
 0.30255279461E+00 0.26565406784E+00 0.24236338019E+00 0.23656823364E+00 0.24665939342E+00
 0.26833795922E+00 0.30149502984E+00 0.34934582144E+00 0.41248256679E+00 0.48702254733E+00
 0.56600814212E+00 0.64012511420E+00 0.70088155867E+00 0.74601444285E+00 0.77792023129E+00
 0.79465269353E+00 0.78803117988E+00 0.75395316036E+00 0.69890066565E+00 0.63241060909E+00
 0.52653883699E+00 0.46405781811E+00 0.39954982532E+00 0.34471456343E+00 0.30327841449E+00
 0.26921925067E+00 0.24176115107E+00 0.22825563425E+00 0.23080107039E+00 0.24356376198E+00
 0.26470246900E+00 0.29833273422E+00 0.34433127207E+00 0.39835932355E+00 0.46056002315E+00
 0.53078956595E+00 0.59710830005E+00 0.64383025256E+00 0.66997954876E+00 0.68525216831E+00
 0.68953822851E+00 0.67259132385E+00 0.63325589633E+00 0.58243863926E+00 0.48436075603E+00
 0.43846757500E+00 0.38603126284E+00 0.33665285072E+00 0.29992608119E+00 0.27228912459E+00
 0.24780646729E+00 0.23107630843E+00 0.22770773885E+00 0.23351441923E+00 0.24455194563E+00
 0.26593598801E+00 0.29990472758E+00 0.33817012197E+00 0.37691976198E+00 0.42489984251E+00
 0.48436311929E+00 0.53856845720E+00 0.57164008701E+00 0.58719948990E+00 0.59417442738E+00
 0.58848431693E+00 0.56350882588E+00 0.52563670645E+00 0.43785340241E+00 0.40641721358E+00
 0.36912746530E+00 0.32897200075E+00 0.29624254174E+00 0.27323604937E+00 0.25397362168E+00
 0.23865124020E+00 0.23324086228E+00 0.23607539575E+00 0.24075251629E+00 0.25066933389E+00
 0.27392770134E+00 0.30563814094E+00 0.33314673208E+00 0.35757105952E+00 0.39139088232E+00
 0.43459413744E+00 0.47176736375E+00 0.49385237916E+00 0.50498420589E+00 0.50678421650E+00
 0.49397984749E+00 0.46792597546E+00 0.39236383312E+00 0.37172707165E+00 0.34863205742E+00
 0.32138549851E+00 0.29597858990E+00 0.27740959501E+00 0.26272354993E+00 0.24978934219E+00
 0.24342203506E+00 0.24539663018E+00 0.24885525205E+00 0.25099397019E+00 0.26053603240E+00
 0.28308459119E+00 0.30941868885E+00 0.32876629066E+00 0.34428367290E+00 0.36465259980E+00
 0.38875510992E+00 0.40917664141E+00 0.42325382350E+00 0.43072802281E+00 0.42775980624E+00
 0.41287219770E+00 0.35196438256E+00 0.33950437499E+00 0.32716045785E+00 0.31281972074E+00
 0.29820653885E+00 0.28723421860E+00 0.27915181229E+00 0.27079398487E+00 0.26419806640E+00
 0.26384154041E+00 0.26739627320E+00 0.26821738493E+00 0.26711144467E+00 0.27259946346E+00
 0.28809566125E+00 0.30690156154E+00 0.32177046009E+00 0.33234971961E+00 0.34141547804E+00
 0.35017191923E+00 0.35889258257E+00 0.36663434588E+00 0.36939727143E+00 0.36369219493E+00
 0.31852960312E+00 0.31286277529E+00 0.30824179246E+00 0.30414823286E+00 0.30048324831E+00
 0.29911391877E+00 0.30036301891E+00 0.30126165047E+00 0.29992606841E+00 0.29880808392E+00
 0.30044534196E+00 0.30234233001E+00 0.29991249061E+00 0.29351234843E+00 0.28909151540E+00
 0.29170158794E+00 0.30050023599E+00 0.31023146867E+00 0.31620105337E+00 0.31789034988E+00
 0.31852348529E+00 0.32085973626E+00 0.32356785667E+00 0.32305322798E+00 0.29216242526E+00
 0.29205104409E+00 0.29356171397E+00 0.29743261373E+00 0.30327672611E+00 0.31111415820E+00
 0.32142216045E+00 0.33311961211E+00 0.34296500578E+00 0.34838669606E+00 0.35025331110E+00
 0.35109620769E+00 0.35054447314E+00 0.34462981097E+00 0.33107341173E+00 0.31400797645E+00
 0.30126226063E+00 0.29680148251E+00 0.29745965704E+00 0.29758650801E+00 0.29525991064E+00
 0.29270756351E+00 0.29194429262E+00 0.29225167513E+00 0.27309627561E+00 0.27662433806E+00
 0.28301313067E+00 0.29352505173E+00 0.30814639763E+00 0.32541822683E+00 0.34434300907E+00
 0.36494318508E+00 0.38593586380E+00 0.40318528880E+00 0.41253471340E+00 0.41405257782E+00
 0.41138608090E+00 0.40617525308E+00 0.39510610872E+00 0.37441662171E+00 0.34642613653E+00
 0.31934969323E+00 0.30023525754E+00 0.28951910105E+00 0.28299227864E+00 0.27750467000E+00
 0.27332313051E+00 0.27182437564E+00 0.26212662236E+00 0.26692326563E+00 0.27631510472E+00
 0.29170515002E+00 0.31400684743E+00 0.34155581905E+00 0.37141782378E+00 0.40192369124E+00
 0.43242796720E+00 0.46073154950E+00 0.48207276280E+00 0.49172019558E+00 0.48890142204E+00
 0.47758966736E+00 0.46222981321E+00 0.44265056709E+00 0.41499556412E+00 0.37866843907E+00
 0.34039699969E+00 0.30923749401E+00 0.28863161458E+00 0.27561636417E+00 0.26679720605E+00
 0.26199754524E+00 0.33884931008E+00 0.34519528313E+00 0.36314537080E+00 0.39385822969E+00
 0.43903254715E+00 0.49771250933E+00 0.56575954882E+00 0.63777468413E+00 0.70827863432E+00
 0.77200250349E+00 0.82402476437E+00 0.85881137216E+00 0.86988414539E+00 0.85386148621E+00
 0.81552305795E+00 0.76500527456E+00 0.70826177782E+00 0.64398918966E+00 0.57196764842E+00
 0.50003600419E+00 0.43903524823E+00 0.39382435224E+00 0.36296446570E+00 0.34465563025E+00
 0.34500725352E+00 0.34535153325E+00 0.36192568964E+00 0.39493375704E+00 0.44521771602E+00
 0.51245408930E+00 0.59421425137E+00 0.68588181467E+00 0.78003060685E+00 0.86731293514E+00
 0.94025912278E+00 0.99495592800E+00 0.10269555747E+01 0.10285076361E+01 0.99475126402E+00
 0.93173966469E+00 0.85338544519E+00 0.77009290622E+00 0.68441428681E+00 0.59778034519E+00
 0.51623442259E+00 0.44744631742E+00 0.39564042757E+00 0.36157913410E+00 0.36322722461E+00
 0.35251233824E+00 0.36291224502E+00 0.39524553855E+00 0.44870371770E+00 0.52119479033E+00
 0.61123194857E+00 0.71680516477E+00 0.83166524175E+00 0.94457594630E+00 0.10437216771E+01
 0.11214177368E+01 0.11737419784E+01 0.11963760451E+01 0.11830665847E+01 0.11301755318E+01
 0.10429037607E+01 0.93535912662E+00 0.82293032318E+00 0.71470845874E+00 0.61378666723E+00
 0.52319192182E+00 0.44858925094E+00 0.39491802082E+00 0.39490669309E+00 0.36921730033E+00
 0.36723517468E+00 0.39327277556E+00 0.44750486424E+00 0.52407842780E+00 0.61944848152E+00
 0.73413490343E+00 0.86420082500E+00 0.99807591302E+00 0.11230421053E+01 0.12287900523E+01
 0.13054307459E+01 0.13456193177E+01 0.13485246902E+01 0.13153062718E+01 0.12431729827E+01
 0.11325366873E+01 0.99784198135E+00 0.86109438373E+00 0.73488801722E+00 0.62053854534E+00
 0.52103555007E+00 0.44456753312E+00 0.43903523379E+00 0.39731035074E+00 0.37875376970E+00
 0.39030831985E+00 0.43902932432E+00 0.51749392788E+00 0.61593887218E+00 0.73599602111E+00
 0.87847037217E+00 0.10300965785E+01 0.11751407076E+01 0.13067875523E+01 0.14155337843E+01
 0.14824517814E+01 0.14979783679E+01 0.14725348820E+01 0.14155268539E+01 0.13203418137E+01
 0.11846921372E+01 0.10290825224E+01 0.87846888008E+00 0.73992167562E+00 0.61352392204E+00
 0.50976679963E+00 0.49254324652E+00 0.43402706272E+00 0.40000003524E+00 0.39144600976E+00
 0.42484573173E+00 0.49965802984E+00 0.59814415196E+00 0.71689839379E+00 0.86549730979E+00
 0.10346002356E+01 0.11984414199E+01 0.13473489110E+01 0.14840848751E+01 0.15908939167E+01
 0.16372680441E+01 0.16209191022E+01 0.15659933689E+01 0.14810740151E+01 0.13549329555E+01
 0.11941129602E+01 0.10277057662E+01 0.87181752537E+00 0.72327524810E+00 0.58993599069E+00
 0.55501578908E+00 0.47463084274E+00 0.42833008280E+00 0.40150176766E+00 0.41143004241E+00
 0.47355946943E+00 0.56967695764E+00 0.68186100814E+00 0.82306076806E+00 0.10008250235E+01
 0.11857899111E+01 0.13497090644E+01 0.14992384770E+01 0.16379577663E+01 0.17317264173E+01
 0.17493964360E+01 0.17051789641E+01 0.16255416990E+01 0.15077068853E+01 0.13463661924E+01
 0.11677402690E+01 0.99999833744E+00 0.84014494644E+00 0.68369190349E+00 0.62825995761E+00
 0.51844205564E+00 0.45777299588E+00 0.41940809301E+00 0.40521619679E+00 0.44404509896E+00
 0.53327199560E+00 0.64125630281E+00 0.76640378231E+00 0.93345950577E+00 0.11314462504E+01
 0.13157668533E+01 0.14725100907E+01 0.16204922541E+01 0.17488209993E+01 0.18139288146E+01
 0.18027305906E+01 0.17414284241E+01 0.16401969269E+01 0.14871624885E+01 0.12984965910E+01
 0.11157250922E+01 0.95001433768E+00 0.78402573168E+00 0.70826178543E+00 0.56849971364E+00
 0.48522744614E+00 0.43840921058E+00 0.40751636893E+00 0.41668450535E+00 0.48746242598E+00
 0.59345734855E+00 0.70826362567E+00 0.85184527754E+00 0.10416837016E+01 0.12430515549E+01
 0.14155385180E+01 0.15652029105E+01 0.17040658185E+01 0.18022492684E+01 0.18281518268E+01
 0.17947853507E+01 0.17221308260E+01 0.15971606134E+01 0.14155268871E+01 0.12184161815E+01
 0.10426410101E+01 0.87670830514E+00 0.78169976684E+00 0.62403421585E+00 0.51315942179E+00
 0.45298043985E+00 0.41400589325E+00 0.39789122298E+00 0.43730781017E+00 0.53095837744E+00
 0.64281794686E+00 0.76744623241E+00 0.93210213638E+00 0.11311494861E+01 0.13207009306E+01
 0.14812496509E+01 0.16251818541E+01 0.17415276402E+01 0.17952692806E+01 0.17836531264E+01
 0.17337759691E+01 0.16451063450E+01 0.14953453874E+01 0.13018422062E+01 0.11145550959E+01
 0.94808254965E+00 0.83471294679E+00 0.67618688785E+00 0.54455806590E+00 0.46425678314E+00
 0.41877823359E+00 0.38972035866E+00 0.39730202523E+00 0.46209221100E+00 0.56379380138E+00
 0.67791566465E+00 0.81661323825E+00 0.99344789871E+00 0.11832087214E+01 0.13546971731E+01
 0.15075811757E+01 0.16408023340E+01 0.17232557082E+01 0.17341657870E+01 0.16955846950E+01
 0.16287012970E+01 0.15171682582E+01 0.13506810710E+01 0.11641394923E+01 0.99402889576E+00
 0.86295742416E+00 0.71337500165E+00 0.57615742511E+00 0.47693318078E+00 0.41970841510E+00
 0.38576092543E+00 0.37470107334E+00 0.40694835862E+00 0.48380890528E+00 0.58441236089E+00
 0.70336297758E+00 0.85237602655E+00 0.10238700199E+01 0.11912635515E+01 0.13445272465E+01
 0.14867002128E+01 0.15979733244E+01 0.16453174168E+01 0.16277878583E+01 0.15721572674E+01
 0.14854317367E+01 0.13536328902E+01 0.11862061241E+01 0.10176153380E+01 0.86988418722E+00
 0.72968208117E+00 0.59897739557E+00 0.49159444713E+00 0.41998882692E+00 0.37879384113E+00
 0.36031044477E+00 0.37154257749E+00 0.41998332112E+00 0.49819449784E+00 0.59783069705E+00
 0.72226316418E+00 0.86988491476E+00 0.10222338280E+01 0.11640188320E+01 0.12965467359E+01
 0.14155385584E+01 0.14956990774E+01 0.15161903456E+01 0.14841179412E+01 0.14155338579E+01
 0.13118081689E+01 0.11734792320E+01 0.10191442530E+01 0.85798543728E+00 0.72669760330E+00
 0.60603336369E+00 0.50247909950E+00 0.42319402592E+00 0.37094064039E+00 0.34466483293E+00
 0.34493984191E+00 0.37324156607E+00 0.42740433919E+00 0.50435318067E+00 0.60508411513E+00
 0.72889693540E+00 0.86444595961E+00 0.99534787733E+00 0.11136290263E+01 0.12185511460E+01
 0.13030116668E+01 0.13516090646E+01 0.13540156988E+01 0.13120776344E+01 0.12328464811E+01
 0.11233177602E+01 0.99377835254E+00 0.82620527984E+00 0.70862492387E+00 0.59779169368E+00
 0.50338450265E+00 0.42739437308E+00 0.36913949292E+00 0.33248604609E+00 0.32220949603E+00
 0.33694873201E+00 0.37193902616E+00 0.42630018698E+00 0.50245318648E+00 0.60001121532E+00
 0.71353294408E+00 0.83362263305E+00 0.94772259897E+00 0.10438642198E+01 0.11167910817E+01
 0.11666575900E+01 0.11898746597E+01 0.11773212242E+01 0.11251985220E+01 0.10418039775E+01
 0.93953673694E+00 0.77473206577E+00 0.67776425892E+00 0.57934491395E+00 0.49392223963E+00
 0.42689332403E+00 0.37284221738E+00 0.33149805495E+00 0.31094558005E+00 0.31362080949E+00
 0.33341182631E+00 0.36813544633E+00 0.42170075568E+00 0.49346431648E+00 0.57804602412E+00
 0.67411212194E+00 0.77926313847E+00 0.87824931229E+00 0.95191832786E+00 0.99702149860E+00
 0.10222299304E+01 0.10267101522E+01 0.99972313959E+00 0.94077240366E+00 0.86278698128E+00
 0.70827865209E+00 0.63484723210E+00 0.55424874427E+00 0.47875244607E+00 0.41999725691E+00
 0.37511232051E+00 0.33815601273E+00 0.31390993025E+00 0.30815247852E+00 0.31646683633E+00
 0.33476823816E+00 0.36849195401E+00 0.41998330090E+00 0.48028855686E+00 0.54460393180E+00
 0.62054790382E+00 0.70826363586E+00 0.78770860167E+00 0.84001264728E+00 0.86741452047E+00
 0.87847041016E+00 0.86869407694E+00 0.83140250556E+00 0.77410343522E+00 0.63447017225E+00
 0.58232634709E+00 0.52314676984E+00 0.46211239656E+00 0.41160458114E+00 0.37491020725E+00
 0.34590599740E+00 0.32441830015E+00 0.31618097185E+00 0.31912771102E+00 0.32658805853E+00
 0.34246129199E+00 0.37569777685E+00 0.42149683620E+00 0.46647075336E+00 0.51095936080E+00
 0.56647835766E+00 0.63097964772E+00 0.68623955780E+00 0.72108661186E+00 0.73880751174E+00
 0.74066985891E+00 0.72118373897E+00 0.68222567784E+00 0.56118375391E+00 0.52609570663E+00
 0.48741040673E+00 0.44510580670E+00 0.40691040802E+00 0.37888656748E+00 0.35802155981E+00
 0.34152743806E+00 0.33358020345E+00 0.33530162367E+00 0.33924234107E+00 0.34276484105E+00
 0.35573465812E+00 0.38487102608E+00 0.42106771167E+00 0.45292827059E+00 0.48288663229E+00
 0.51861680252E+00 0.55730091429E+00 0.58957737501E+00 0.61136306483E+00 0.62160486701E+00
 0.61607052693E+00 0.59349185634E+00 0.49483169292E+00 0.47337949079E+00 0.45135867829E+00
 0.42795638255E+00 0.40614036808E+00 0.39064828082E+00 0.38069335860E+00 0.37233843674E+00
 0.36665592086E+00 0.36723184367E+00 0.37094627212E+00 0.37084741631E+00 0.36845328590E+00
 0.37378421374E+00 0.39152717357E+00 0.41531848663E+00 0.43747816298E+00 0.45689353998E+00
 0.47536629244E+00 0.49289807011E+00 0.50849711285E+00 0.52011526539E+00 0.52300159354E+00
 0.51353848543E+00 0.43903254842E+00 0.42896998714E+00 0.41996088699E+00 0.41256231156E+00
 0.40750628722E+00 0.40710022847E+00 0.41148621409E+00 0.41683006310E+00 0.41999724413E+00
 0.42224281046E+00 0.42521387437E+00 0.42594093639E+00 0.41998879395E+00 0.40869152692E+00
 0.39958835973E+00 0.39923237287E+00 0.40751636565E+00 0.41902447388E+00 0.42838191210E+00
 0.43425945720E+00 0.43902934002E+00 0.44450156669E+00 0.44844096854E+00 0.44678706054E+00
 0.39487950854E+00 0.39406069836E+00 0.39572683417E+00 0.40153325863E+00 0.41166262321E+00
 0.42620233439E+00 0.44515855686E+00 0.46643819954E+00 0.48534928051E+00 0.49777855010E+00
 0.50343725377E+00 0.50432635138E+00 0.50007543994E+00 0.48715583976E+00 0.46430951609E+00
 0.43730722624E+00 0.41575601344E+00 0.40480561852E+00 0.40155450555E+00 0.39996002660E+00
 0.39744559869E+00 0.39548190633E+00 0.39529829752E+00 0.39560341843E+00 0.36303990053E+00
 0.36846523346E+00 0.37867829312E+00 0.39567408370E+00 0.41985540759E+00 0.44955187342E+00
 0.48294006590E+00 0.51876820978E+00 0.55414326065E+00 0.58314846704E+00 0.60007764549E+00
 0.60413336956E+00 0.59887193489E+00 0.58632736421E+00 0.56385341163E+00 0.52877988167E+00
 0.48512197909E+00 0.44311778901E+00 0.41148369788E+00 0.39143325601E+00 0.37864828632E+00
 0.36939154333E+00 0.36328047932E+00 0.36120329123E+00 0.34445339329E+00 0.35234501279E+00
 0.36813309846E+00 0.39367581441E+00 0.43014905432E+00 0.47551841035E+00 0.52576355711E+00
 0.57761564325E+00 0.62852975834E+00 0.67429280235E+00 0.70829275941E+00 0.72446544324E+00
 0.72148045079E+00 0.70353720810E+00 0.67585476139E+00 0.63932254588E+00 0.59143229786E+00
 0.53342941603E+00 0.47429872535E+00 0.42512817001E+00 0.39045246230E+00 0.36739305656E+00
 0.35218020000E+00 0.34429699564E+00 0.44327175468E+00 0.45393242079E+00 0.48449216074E+00
 0.53554533661E+00 0.60799049007E+00 0.69969325984E+00 0.80487343949E+00 0.91597128170E+00
 0.10247580863E+01 0.11227925057E+01 0.12020363059E+01 0.12543429887E+01 0.12713930406E+01
 0.12490871670E+01 0.11929849325E+01 0.11153276665E+01 0.10247378120E+01 0.92260217406E+00
 0.81149152507E+00 0.70216943227E+00 0.60801151123E+00 0.53553702905E+00 0.48430738789E+00
 0.45334718430E+00 0.45372659365E+00 0.45408701102E+00 0.48191323277E+00 0.53661824003E+00
 0.61774733674E+00 0.72339283252E+00 0.84936922689E+00 0.98896958755E+00 0.11319329049E+01
 0.12652067856E+01 0.13772881516E+01 0.14606456741E+01 0.15079727687E+01 0.15096290634E+01
 0.14604312379E+01 0.13682228088E+01 0.12504133121E+01 0.11214218676E+01 0.98746261760E+00
 0.85316455005E+00 0.72738187585E+00 0.62010145106E+00 0.53738147984E+00 0.48156086662E+00
 0.48457682659E+00 0.46688041730E+00 0.48425159358E+00 0.53695400153E+00 0.62258794120E+00
 0.73699107353E+00 0.87670070802E+00 0.10377876945E+01 0.12114578025E+01 0.13827074755E+01
 0.15348991009E+01 0.16552924031E+01 0.17355447677E+01 0.17681584525E+01 0.17454485295E+01
 0.16645998397E+01 0.15340550198E+01 0.13729588522E+01 0.12022007816E+01 0.10355307267E+01
 0.87935692020E+00 0.73907687700E+00 0.62246192475E+00 0.53660410294E+00 0.53666707304E+00
 0.49487568234E+00 0.49277754781E+00 0.53494027402E+00 0.62015241551E+00 0.74001619253E+00
 0.88857103039E+00 0.10645314428E+01 0.12618688661E+01 0.14655839149E+01 0.16579727470E+01
 0.18225818720E+01 0.19430553961E+01 0.20066859112E+01 0.20097873323E+01 0.19535765684E+01
 0.18378805928E+01 0.16680557741E+01 0.14653106130E+01 0.12585288381E+01 0.10652928535E+01
 0.88971280575E+00 0.73679004589E+00 0.61703723726E+00 0.60801149679E+00 0.53978457214E+00
 0.51182066486E+00 0.53235410522E+00 0.60800106640E+00 0.72870399498E+00 0.88160691537E+00
 0.10664310566E+01 0.12824242648E+01 0.15133489284E+01 0.17386963504E+01 0.19453908638E+01
 0.21161564302E+01 0.22238632840E+01 0.22532070107E+01 0.22133496443E+01 0.21161546555E+01
 0.19597571283E+01 0.17487929807E+01 0.15122422660E+01 0.12824317884E+01 0.10706402452E+01
 0.87908749521E+00 0.72052503035E+00 0.69422955778E+00 0.59828016063E+00 0.54437215349E+00
 0.53530718052E+00 0.58856054319E+00 0.70178280273E+00 0.85352000322E+00 0.10378056348E+01
 0.12631677092E+01 0.15180813828E+01 0.17722240118E+01 0.20099090161E+01 0.22262721772E+01
 0.23936742491E+01 0.24720991260E+01 0.24547144404E+01 0.23671836715E+01 0.22230423063E+01
 0.20179611820E+01 0.17676425758E+01 0.15107798295E+01 0.12699123121E+01 0.10446273891E+01
 0.84484529266E+00 0.79349349287E+00 0.66465057348E+00 0.58775181417E+00 0.54969705252E+00
 0.56981501524E+00 0.66353376476E+00 0.80909528931E+00 0.98477588443E+00 0.12023409521E+01
 0.14684563224E+01 0.17499246416E+01 0.20123872886E+01 0.22554428628E+01 0.24732225810E+01
 0.26198333690E+01 0.26551372316E+01 0.25916395903E+01 0.24600336970E+01 0.22644414095E+01
 0.20088645458E+01 0.17307949397E+01 0.14675974284E+01 0.12204682575E+01 0.98668526414E+00
 0.90588794603E+00 0.73700181013E+00 0.63527699245E+00 0.57492937003E+00 0.55983149171E+00
 0.62065740249E+00 0.75276438511E+00 0.91976968314E+00 0.11175677363E+01 0.13709528928E+01
 0.16668836773E+01 0.19549047644E+01 0.22139619644E+01 0.24546432899E+01 0.26546697516E+01
 0.27584357654E+01 0.27465855670E+01 0.26468908854E+01 0.24755911647E+01 0.22295031463E+01
 0.19365654731E+01 0.16502114799E+01 0.13885163030E+01 0.11362019627E+01 0.10247378196E+01
 0.81679077540E+00 0.68268941700E+00 0.60384141229E+00 0.56097569874E+00 0.58075472284E+00
 0.68502397223E+00 0.84325536534E+00 0.10247381457E+01 0.12488112354E+01 0.15327980755E+01
 0.18377706455E+01 0.21161672736E+01 0.23663402313E+01 0.25904566591E+01 0.27460747635E+01
 0.27916820170E+01 0.27381531208E+01 0.26096376251E+01 0.24002702351E+01 0.21161546887E+01
 0.18116038861E+01 0.15337855894E+01 0.12751805883E+01 0.11330659786E+01 0.90096153739E+00
 0.73108890060E+00 0.62995648685E+00 0.56903781830E+00 0.55195463694E+00 0.61334270721E+00
 0.74993850196E+00 0.92080503187E+00 0.11178735247E+01 0.13686303073E+01 0.16656670075E+01
 0.19592946421E+01 0.22225779662E+01 0.24592640001E+01 0.26468525454E+01 0.27386663933E+01
 0.27262967737E+01 0.26385557010E+01 0.24803926199E+01 0.22375654060E+01 0.19392818984E+01
 0.16480183400E+01 0.13855817276E+01 0.12133613580E+01 0.97776160802E+00 0.78180514930E+00
 0.65332594424E+00 0.57746291796E+00 0.53710515739E+00 0.55469266096E+00 0.65106303515E+00
 0.80223470105E+00 0.97956751846E+00 0.11941039322E+01 0.14590164476E+01 0.17455927991E+01
 0.20163502690E+01 0.22634078420E+01 0.24758455437E+01 0.26108330855E+01 0.26391122996E+01
 0.25814589371E+01 0.24630025059E+01 0.22735834376E+01 0.20120741724E+01 0.17253415803E+01
 0.14596538995E+01 0.12587382197E+01 0.10328359733E+01 0.82948742339E+00 0.67740589776E+00
 0.58313467911E+00 0.52942255923E+00 0.51767536189E+00 0.56960562598E+00 0.68477822132E+00
 0.83832949120E+00 0.10222238384E+01 0.12474762578E+01 0.15046739496E+01 0.17627377430E+01
 0.20055424715E+01 0.22283517207E+01 0.24011379623E+01 0.24810085632E+01 0.24624148020E+01
 0.23737698557E+01 0.22270369176E+01 0.20152068953E+01 0.17573506605E+01 0.14980439242E+01
 0.12713930825E+01 0.10583844481E+01 0.86296592711E+00 0.70118836057E+00 0.58817472847E+00
 0.52069884411E+00 0.49282794179E+00 0.51296026517E+00 0.58816900405E+00 0.70824904597E+00
 0.86178501662E+00 0.10505058571E+01 0.12714010384E+01 0.15029580793E+01 0.17252163729E+01
 0.19336211912E+01 0.21161673141E+01 0.22386113834E+01 0.22734409043E+01 0.22262769236E+01
 0.21161565037E+01 0.19498605523E+01 0.17352753415E+01 0.14996582245E+01 0.12534465406E+01
 0.10552432460E+01 0.87369625744E+00 0.71721228368E+00 0.59503899719E+00 0.51223603576E+00
 0.46988916245E+00 0.47011714815E+00 0.51458012750E+00 0.59948991866E+00 0.71921491222E+00
 0.87265286685E+00 0.10575445515E+01 0.12603373312E+01 0.14610696957E+01 0.16470322145E+01
 0.18117275210E+01 0.19414006076E+01 0.20144405582E+01 0.20169524074E+01 0.19509718691E+01
 0.18269220296E+01 0.16573456960E+01 0.14593697994E+01 0.12042821693E+01 0.10278199001E+01
 0.86175161950E+00 0.71817153461E+00 0.60072675544E+00 0.51045902356E+00 0.45336952930E+00
 0.43612193986E+00 0.45800441323E+00 0.51338412774E+00 0.59959617536E+00 0.71716164859E+00
 0.86403088277E+00 0.10330316759E+01 0.12122345158E+01 0.13852118336E+01 0.15350439416E+01
 0.16513262688E+01 0.17296807997E+01 0.17631273786E+01 0.17409422149E+01 0.16602596230E+01
 0.15329227331E+01 0.13765107956E+01 0.11256154836E+01 0.97938913570E+00 0.83291954860E+00
 0.70368088289E+00 0.59891254621E+00 0.51431668634E+00 0.45109376911E+00 0.41914859909E+00
 0.42195456382E+00 0.45311401240E+00 0.50940437606E+00 0.59345689385E+00 0.70313684387E+00
 0.83150145529E+00 0.97558780391E+00 0.11304753226E+01 0.12767808880E+01 0.13904901265E+01
 0.14644766257E+01 0.15050050327E+01 0.15096944812E+01 0.14672768539E+01 0.13787277610E+01
 0.12604496898E+01 0.10247581041E+01 0.91235013542E+00 0.79210455945E+00 0.67940409186E+00
 0.58817049376E+00 0.51655429768E+00 0.45928243819E+00 0.42226359847E+00 0.41226490974E+00
 0.42494593052E+00 0.45575857150E+00 0.50966227319E+00 0.58816898382E+00 0.68094151361E+00
 0.78185829475E+00 0.89725241346E+00 0.10247381559E+01 0.11400963071E+01 0.12203390042E+01
 0.12652932812E+01 0.12824243028E+01 0.12665531703E+01 0.12111883865E+01 0.11257391918E+01
 0.91254005866E+00 0.83142461595E+00 0.74166090818E+00 0.65111553688E+00 0.57457843623E+00
 0.51656313569E+00 0.47116531985E+00 0.43845873569E+00 0.42464668439E+00 0.42771636928E+00
 0.44070996974E+00 0.46758240030E+00 0.51746418972E+00 0.58500144193E+00 0.65565104489E+00
 0.72876895426E+00 0.81467746100E+00 0.90880025568E+00 0.98936390147E+00 0.10423142586E+01
 0.10694772725E+01 0.10714063250E+01 0.10423757360E+01 0.98515895348E+00 0.80008960622E+00
 0.74515031770E+00 0.68495958127E+00 0.62160539101E+00 0.56489448098E+00 0.52215310680E+00
 0.49044614418E+00 0.46657729312E+00 0.45449859055E+00 0.45507350967E+00 0.46039921051E+00
 0.46783590113E+00 0.48804411678E+00 0.52848318561E+00 0.57985292248E+00 0.62992423130E+00
 0.68024014019E+00 0.73720695228E+00 0.79588111146E+00 0.84442335324E+00 0.87682306967E+00
 0.89085787525E+00 0.88175400452E+00 0.84859186171E+00 0.69665798301E+00 0.66335775031E+00
 0.62843517147E+00 0.59271132630E+00 0.56068005805E+00 0.53805916572E+00 0.52403160212E+00
 0.51385360200E+00 0.50770468214E+00 0.50845843659E+00 0.51233750696E+00 0.51206124643E+00
 0.50972839209E+00 0.51673627234E+00 0.53898367649E+00 0.57041466846E+00 0.60286612233E+00
 0.63433637907E+00 0.66541229198E+00 0.69456467417E+00 0.71919128308E+00 0.73585086656E+00