    3    3    1    1
  0.5546970E+02  0.3190316E-09  0.3190316E-09  0.1887900E-08  0.5000000E-15
  1.000000000000000E-004
  CAR 
 unknown system                          
     18     10     14
 
  0.0000000E+00  0.0000000E+00  0.0000000E+00  0.1562500E-01
    1      -16.411187   1.000000
    2      -15.202838   1.000000
    3       -7.921131   1.000000
    4       -4.959298   1.000000
    5       -4.959045   1.000000
    6       -4.099672   1.000000
    7       -3.852030   1.000000
    8       -3.851563   1.000000
    9       -2.377015   1.000000
   10        0.396787   0.000000
   11        0.397571   0.000000
   12        0.619735   0.000000
   13        0.620407   0.000000
   14        3.001180   0.000000
 
  0.1250000E+00 -0.1387779E-16  0.0000000E+00  0.9375000E-01
    1      -16.197111   1.000000
    2      -15.100347   1.000000
    3       -7.676091   1.000000
    4       -5.423593   1.000000
    5       -4.906365   1.000000
    6       -4.724795   1.000000
    7       -4.188017   1.000000
    8       -3.420875   1.000000
    9       -2.515451   1.000000
   10        0.114343   0.000000
   11        0.181132   0.000000
   12        0.382732   0.000000
   13        0.751627   0.000000
   14        3.363987   0.000000
 
  0.2500000E+00 -0.2775558E-16  0.0000000E+00  0.9375000E-01
    1      -15.628592   1.000000
    2      -14.831462   1.000000
    3       -7.310413   1.000000
    4       -6.151797   1.000000
    5       -5.887769   1.000000
    6       -4.824567   1.000000
    7       -4.139103   1.000000
    8       -3.672532   1.000000
    9       -3.084129   1.000000
   10       -0.209430   0.000000
   11       -0.034337   0.000000
   12        0.508577   0.000000
   13        1.366539   0.000000
   14        4.192000   0.000000
 
  0.3750000E+00 -0.8326673E-16  0.0000000E+00  0.9375000E-01
    1      -14.953661   1.000000
    2      -14.522879   1.000000
    3       -7.749409   1.000000
    4       -6.756949   1.000000
    5       -6.282699   1.000000
    6       -5.323044   1.000000
    7       -4.081239   1.000000
    8       -3.549307   1.000000
    9       -3.278224   1.000000
   10       -0.217033   0.000000
   11        0.062914   0.000000
   12        1.227352   0.000000
   13        1.759286   0.000000
   14        4.782320   0.000000
 
  0.5000000E+00 -0.5551115E-16  0.0000000E+00  0.4687500E-01
    1      -14.625363   1.000000
    2      -14.379556   1.000000
    3       -8.082223   1.000000
    4       -7.122990   1.000000
    5       -6.408248   1.000000
    6       -5.504151   1.000000
    7       -4.219755   1.000000
    8       -3.321739   1.000000
    9       -2.996632   1.000000
   10       -0.195338   0.000000
   11        0.319469   0.000000
   12        1.527180   0.000000
   13        1.874958   0.000000
   14        3.828595   0.000000
 
  0.1250000E+00  0.1250000E+00  0.0000000E+00  0.9375000E-01
    1      -15.804453   1.000000
    2      -14.913229   1.000000
    3       -7.328190   1.000000
    4       -5.988742   1.000000
    5       -5.468936   1.000000
    6       -5.002322   1.000000
    7       -4.386338   1.000000
    8       -3.285451   1.000000
    9       -2.888146   1.000000
   10       -0.284377   0.000000
   11        0.093251   0.000000
   12        0.104923   0.000000
   13        1.345236   0.000000
   14        3.957128   0.000000
 
  0.2500000E+00  0.1250000E+00  0.0000000E+00  0.1875000E+00
    1      -15.171053   1.000000
    2      -14.614577   1.000000
    3       -7.392700   1.000000
    4       -6.414903   1.000000
    5       -6.151580   1.000000
    6       -5.507636   1.000000
    7       -4.287146   1.000000
    8       -3.648358   1.000000
    9       -3.172045   1.000000
   10       -0.368167   0.000000
   11        0.078470   0.000000
   12        0.575419   0.000000
   13        1.851234   0.000000
   14        4.954618   0.000000
 
  0.3750000E+00  0.1250000E+00  0.0000000E+00  0.1875000E+00
    1      -14.640665   1.000000
    2      -14.370655   1.000000
    3       -7.794808   1.000000
    4       -7.178786   1.000000
    5       -6.280534   1.000000
    6       -5.525327   1.000000
    7       -4.272247   1.000000
    8       -4.129746   1.000000
    9       -2.845263   1.000000
   10       -0.176228   0.000000
   11        0.333816   0.000000
   12        1.199004   0.000000
   13        1.885299   0.000000
   14        4.354960   0.000000
 
  0.2500000E+00  0.2500000E+00  0.0000000E+00  0.9375000E-01
    1      -14.655668   1.000000
    2      -14.361762   1.000000
    3       -7.434245   1.000000
    4       -7.228931   1.000000
    5       -5.954108   1.000000
    6       -5.573917   1.000000
    7       -5.254500   1.000000
    8       -3.997212   1.000000
    9       -2.874955   1.000000
   10       -0.227002   0.000000
   11        0.384510   0.000000
   12        0.700579   0.000000
   13        2.169120   0.000000
   14        5.184616   0.000000
 
  0.3750000E+00  0.2500000E+00  0.0000000E+00  0.9375000E-01
    1      -14.420706   1.000000
    2      -14.242716   1.000000
    3       -7.613512   1.000000
    4       -7.264681   1.000000
    5       -6.237865   1.000000
    6       -5.575789   1.000000
    7       -5.347596   1.000000
    8       -4.382394   1.000000
    9       -2.507689   1.000000
   10       -0.553238   0.000000
   11        0.761817   0.000000
   12        0.933675   0.000000
   13        2.312456   0.000000
   14        4.598646   0.000000
