unknown system                          
   1.00000000000000     
     3.190316    0.000000    0.000000
    -1.595158    2.762894    0.000000
     0.000000    0.000000   18.879004
   Mo   S 
     1     2
Direct
  0.333333  0.666667  0.197031
  0.666667  0.333333  0.114141
  0.666666  0.333333  0.279921
 
   12   12   80
 0.22406E-02 0.99602E-02 0.22597     0.59696E-03 0.54090     0.18126E-01 0.46587E-02 0.30490E-02 0.86053E-02 0.42247E-03
 0.22157E-01 0.59362E-02 0.32315E-02 0.15344E-02 0.14652E-02 0.29231E-02 0.16951E-01 0.81423E-02 0.63036E-01 0.43557E-02
 0.21405     0.33813E-02 0.22019E-02 0.32240E-02 0.67678E-03 0.35247E-02 0.22720E-02 0.17378E-02 0.22545E-01 0.13691E-01
 0.94592E-02 0.10750E-01 0.19916E-01 0.10811E-01 0.44962E-01 0.11070E-01 0.12256E-02 0.15847E-03 0.12140E-02 0.34521E-02
 0.44857E-02 0.21455E-02 0.88781E-02 0.41784E-02 0.31252E-01 0.24843     0.36680E-01 0.13922E-02 0.25997E-01 0.60794E-02
 0.21516E-02 0.60720E-03 0.26938E-01 0.14720E-01 0.18886E-01 0.37187E-01 0.60941     0.10623E-01 0.65475E-01 0.31257E-01
 0.12687E-02 0.11816E-02 0.98448E-04 0.11020E-03 0.34093E-03 0.20251E-01 0.13405E-01 0.25118     0.11481E-01 0.69238E-02
 0.54028E-02 0.95544E-02 0.44219E-01 0.20278E-02 0.12707E-02 0.64113E-04 0.19456E-02 0.10547E-01 0.44419E-01 0.73184E-01
 0.48405E-01 0.47303E-02 0.36627E-01 0.17582E-01 0.86242E-02 0.13988     0.36490E-03 0.25973E-03 0.44120E-03 0.83359E-03
 0.21202     0.23040E-02 0.12206E-01 0.55036E-02 0.11238E-01 0.77225     0.88726E-02 0.98223     0.14230E-01 0.14173E-03
 0.55580E-02 0.16030E-02 0.36764E-03 0.92245E-03 0.78663     0.17063E-02 0.99921     0.99710     0.12267E-01 0.62130E-03
 0.41398E-01 0.39255     0.11856E-01 0.74979E-04 0.33340E-03 0.81598E-04 0.80138E-02 0.78193E-02 0.56738     0.13808E-02
 0.15787E-02 0.18621     0.55937E-02 0.34165E-03 0.24612E-02 0.12668E-02 0.24954E-03 0.28129E-03 0.35158E-02 0.25449E-03
 0.13793E-01 0.89676     0.28344E-02 0.17381E-02 0.11428E-02 0.14969E-02 0.32866E-02 0.11871E-02 0.14646E-01 0.37684E-03
 0.49483E-01 0.50322E-03 0.60030E-03 0.22095E-02 0.35065E-02 0.77544E-02 0.24392E-01 0.36122E-02 0.17609     0.64753    
 0.28148E-01 0.52680E-01 0.26148E-01 0.25831E-02 0.13610     0.64192E-02 0.47232E-02 0.31291E-02 0.52297E-02 0.71922E-01
 0.61123E-01 0.52979E-01 0.90332     0.33754E-01 0.80832     0.59700E-01 0.10658E-01 0.83426E-02 0.24465E-02 0.31182    
 0.57123E-02 0.94006E-02 0.75101E-01 0.25817     0.78523E-01 0.14417     0.12738     0.70617E-01 0.10811     0.57002    
 0.20932E-01 0.67381E-03 0.58201E-01 0.11628E-01 0.89296E-01 0.19253E-01 0.12028     0.47154E-01 0.33263     0.58468    
 0.63498     0.10271E-01 0.99824     0.70815E-02 0.86457E-01 0.26569E-02 0.49913E-01 0.36585     0.12472     0.37990    
 0.88697     0.10483     0.71729     0.10402     0.94756E-02 0.20761E-01 0.45595E-03 0.11961E-02 0.21066E-02 0.57100    
 0.79804E-01 0.58359     0.11176     0.86096E-01 0.52052E-01 0.16432     0.99733     0.10857E-01 0.48054E-01 0.29651E-03
 0.17012     0.27954E-01 0.10762     0.92202     0.61384     0.47001E-01 0.51140     0.10068     0.43041E-01 0.84538E-01
 0.19144E-02 0.32678E-02 0.13716E-02 0.37173E-02 0.27625     0.15147E-01 0.61768E-01 0.88640E-01 0.74973E-01 0.56822    
 0.33704E-01 0.93816E-01 0.12447E-01 0.60428E-03 0.38035E-02 0.27547     0.15893E-02 0.15368E-01 0.24666     0.12135E-01
 0.30377     0.32366     0.99656     0.27465E-02 0.95992E-02 0.13161E-01 0.30719E-01 0.35560E-03 0.63910E-02 0.39216E-03
 0.89211E-01 0.48152     0.12071     0.78648E-02 0.47262E-02 0.19959E-01 0.46370E-02 0.12562E-02 0.63244E-02 0.29830E-01
 0.12563E-02 0.43685E-02 0.30925E-02 0.96053E-03 0.12989E-01 0.45345E-01 0.44062E-02 0.30037E-02 0.28239E-02 0.52024E-01
 0.11006E-01 0.73616E-02 0.98578     0.23332E-02 0.72957E-01 0.99002E-02 0.15529E-02 0.38116E-02 0.38966E-02 0.76399E-02
 0.25077E-01 0.15280E-01 0.20269     0.65906     0.11714     0.76356     0.72585E-01 0.11382E-01 0.44479E-01 0.71288E-02
 0.61480E-02 0.50230E-02 0.14460E-01 0.97522     0.16348     0.20462     0.78696     0.16416     0.61773     0.81200    
 0.39255E-01 0.18939E-01 0.73130E-02 0.17643E-01 0.12519E-01 0.37368E-01 0.20789     0.98677     0.31255     0.96388    
 0.36921     0.25495     0.24205     0.48267     0.79327     0.23968E-02 0.63434E-01 0.31006E-01 0.96533     0.11618    
 0.93434     0.26286     0.99360     0.65339     0.88437     0.52754E-01 0.39834     0.13991E-01 0.13495E-01 0.85506E-02
 0.10466     0.94117     0.36770     0.98699     0.75859     0.38424     0.91101     0.25891     0.49357E-01 0.86463    
 0.17706E-02 0.36895E-01 0.95074E-02 0.77252     0.26875     0.64723     0.39510     0.85583     0.25792     0.99057    
 0.56525     0.39259E-01 0.11872     0.10847E-02 0.69383E-01 0.64733E-01 0.23805     0.80265     0.93130     0.24523    
 0.93900     0.30924     0.14075     0.11472     0.66716E-02 0.23519     0.26313E-02 0.10373E-01 0.19095     0.67763E-01
 0.20413     0.87204     0.27085     0.51568     0.91413E-01 0.83344E-01 0.16095E-01 0.16237E-02 0.26472E-02 0.14030E-01
 0.51138E-02 0.60823     0.23284     0.59688E-01 0.35136     0.35034     0.18113     0.88978E-02 0.10231E-01 0.76511E-02
 0.76174E-02 0.11429E-02 0.85933E-01 0.15831E-02 0.35595E-01 0.29404     0.14824     0.32776E-01 0.11411E-01 0.14277E-01
 0.65627E-02 0.36865E-02 0.12064E-01 0.28306     0.44596E-02 0.99874     0.50812E-02 0.30363E-02 0.19370E-01 0.42481E-01
 0.59498E-02 0.49823E-02 0.61299E-02 0.18895     0.29762E-01 0.30708E-01 0.29003     0.10291E-01 0.38150E-01 0.28780    
 0.34154E-02 0.55021E-02 0.52931E-02 0.10180E-01 0.33357E-01 0.44585E-01 0.27856     0.56042     0.33077     0.85484    
 0.15960     0.35331E-01 0.44404E-01 0.98944E-02 0.91014E-02 0.81490E-02 0.29189E-01 0.43201     0.33535     0.48038    
 0.77631     0.47759     0.69358     0.83513     0.10134     0.33515E-01 0.16633E-01 0.17534E-01 0.23047E-01 0.10160    
 0.42046     0.84483     0.66460     0.94912     0.68442     0.56107     0.43790     0.33580     0.36793     0.68755E-02
 0.38777E-01 0.64656E-01 0.76358     0.41600     0.95456     0.68306     0.93381     0.81092     0.80801     0.18894    
 0.37690     0.26889E-01 0.17664E-01 0.21590E-01 0.19480     0.78693     0.68746     0.92958     0.87723     0.74894    
 0.87161     0.49763     0.18276     0.35376     0.56727E-02 0.35778     0.31371E-01 0.63319     0.57143     0.80881    
 0.75473     0.98066     0.64361     0.89511     0.58446     0.10543     0.60056E-01 0.36252E-02 0.50900E-01 0.13091    
 0.44013     0.79131     0.87492     0.63434     0.87192     0.60570     0.32533     0.17862     0.18257E-01 0.29729E-01
 0.60476E-02 0.24185E-01 0.23212     0.21670     0.46164     0.93382     0.57754     0.63764     0.18977     0.11113    
 0.26903E-01 0.44633E-02 0.47893E-02 0.13896E-01 0.13645E-01 0.41014     0.30499     0.20270     0.49366     0.46548    
 0.14843     0.22041E-01 0.17431E-01 0.12260E-01 0.10720E-01 0.35543E-02 0.30205E-01 0.52291E-02 0.42959E-01 0.18875    
 0.20508     0.93222E-01 0.22309E-01 0.20234E-01 0.12440E-01 0.96943E-02 0.23367E-01 0.90271E-01 0.12667E-01 0.80301E-01
 0.10558E-01 0.79937E-02 0.29820E-01 0.50750E-01 0.89483E-02 0.91877E-02 0.12903E-01 0.81665E-01 0.64846E-01 0.91741E-01
 0.25588     0.33100E-01 0.48137E-01 0.57759E-01 0.72745E-02 0.85061E-02 0.87955E-02 0.15211E-01 0.47727E-01 0.10228    
 0.38813     0.60783     0.54725     0.72312     0.29360     0.86370E-01 0.57101E-01 0.15081E-01 0.14287E-01 0.13389E-01
 0.49068E-01 0.38052     0.52005     0.68419     0.81603     0.71310     0.76420     0.72536     0.20087     0.52345E-01
 0.31485E-01 0.23372E-01 0.38695E-01 0.20714     0.60274     0.83979     0.82399     0.91563     0.82658     0.75127    
 0.60944     0.36028     0.27648     0.15369E-01 0.44737E-01 0.11985     0.70091     0.69153     0.91749     0.85980    
 0.92543     0.87523     0.83135     0.41083     0.44752     0.49215E-01 0.25861E-01 0.46954E-01 0.32432     0.78787    
 0.82960     0.92387     0.91663     0.87655     0.88373     0.68165     0.40037     0.26596     0.13808E-01 0.97045E-01
 0.79798E-01 0.65363     0.74921     0.87380     0.87835     0.94167     0.82743     0.85670     0.65375     0.20213    
 0.61468E-01 0.90192E-02 0.58440E-01 0.21554     0.60003     0.82455     0.88312     0.82642     0.88112     0.76559    
 0.51163     0.25352     0.36802E-01 0.26085E-01 0.11855E-01 0.43172E-01 0.28983     0.42719     0.67036     0.87268    
 0.75900     0.73727     0.32778     0.16125     0.42110E-01 0.98185E-02 0.91529E-02 0.18380E-01 0.28536E-01 0.27938    
 0.40918     0.42409     0.63314     0.58763     0.18506     0.46442E-01 0.28327E-01 0.19224E-01 0.16246E-01 0.85639E-02
 0.30144E-01 0.13067E-01 0.63833E-01 0.21480     0.28528     0.19649     0.38664E-01 0.30378E-01 0.21278E-01 0.20288E-01
 0.39584E-01 0.77362E-01 0.27766E-01 0.60895E-01 0.19128E-01 0.16915E-01 0.45468E-01 0.65349E-01 0.14130E-01 0.15842E-01
 0.23674E-01 0.89698E-01 0.12210     0.19025     0.29078     0.82442E-01 0.73778E-01 0.53196E-01 0.13482E-01 0.13648E-01
 0.13743E-01 0.21918E-01 0.70819E-01 0.19472     0.51087     0.68486     0.68611     0.73829     0.44638     0.17242    
 0.80755E-01 0.21900E-01 0.21139E-01 0.20334E-01 0.78742E-01 0.42961     0.65051     0.79269     0.86307     0.82798    
 0.82290     0.74044     0.31830     0.81489E-01 0.53970E-01 0.29612E-01 0.62183E-01 0.33118     0.70901     0.87161    
 0.89673     0.93176     0.89595     0.84256     0.71245     0.42959     0.32829     0.27898E-01 0.57130E-01 0.20348    
 0.73328     0.82129     0.93201     0.92806     0.94614     0.91901     0.87033     0.58972     0.55039     0.88319E-01
 0.35959E-01 0.91629E-01 0.46914     0.82829     0.89793     0.94543     0.94835     0.93235     0.91544     0.78671    
 0.58324     0.32966     0.28076E-01 0.89790E-01 0.16784     0.71630     0.83946     0.91913     0.93285     0.95062    
 0.90510     0.87948     0.72705     0.33001     0.91187E-01 0.19162E-01 0.90523E-01 0.33290     0.70763     0.86803    
 0.91437     0.90536     0.91333     0.84773     0.64794     0.36337     0.76093E-01 0.38782E-01 0.24627E-01 0.83374E-01
 0.39158     0.59701     0.78552     0.88393     0.84574     0.80923     0.47572     0.25149     0.74214E-01 0.21667E-01
 0.19675E-01 0.31680E-01 0.58371E-01 0.33438     0.52601     0.59871     0.72333     0.68104     0.26241     0.89335E-01
 0.45320E-01 0.31002E-01 0.29652E-01 0.19891E-01 0.40037E-01 0.27273E-01 0.10391     0.29136     0.37802     0.32038    
 0.62999E-01 0.43673E-01 0.31940E-01 0.37465E-01 0.71997E-01 0.11252     0.58429E-01 0.71584E-01 0.29790E-01 0.29780E-01
 0.69671E-01 0.92383E-01 0.21000E-01 0.23065E-01 0.37956E-01 0.12743     0.21815     0.32277     0.38481     0.17211    
 0.11986     0.61694E-01 0.20492E-01 0.20464E-01 0.18450E-01 0.29901E-01 0.10428     0.30458     0.61444     0.75203    
 0.76907     0.78285     0.56879     0.27654     0.11668     0.29953E-01 0.29095E-01 0.28479E-01 0.12020     0.49649    
 0.72685     0.84309     0.88744     0.87333     0.85733     0.77343     0.42113     0.12320     0.85096E-01 0.37519E-01
 0.95220E-01 0.43928     0.76405     0.88620     0.91537     0.93373     0.91389     0.87489     0.76579     0.50571    
 0.42502     0.44198E-01 0.80505E-01 0.29637     0.77436     0.86486     0.93224     0.93696     0.94489     0.92610    
 0.88801     0.68707     0.64066     0.14919     0.50194E-01 0.16166     0.58149     0.85910     0.91491     0.94448    
 0.94730     0.93909     0.92265     0.83841     0.69486     0.43976     0.49572E-01 0.11527     0.27996     0.77666    
 0.87719     0.92848     0.93907     0.94646     0.92240     0.89710     0.78717     0.45627     0.14466     0.34891E-01
 0.14675     0.45085     0.77963     0.89111     0.92223     0.92108     0.92185     0.88172     0.73768     0.47844    
 0.14206     0.59506E-01 0.46002E-01 0.14871     0.50479     0.70230     0.83904     0.89257     0.87625     0.84826    
 0.59483     0.36363     0.12575     0.41899E-01 0.35858E-01 0.52953E-01 0.10678     0.43880     0.62578     0.69625    
 0.77221     0.74200     0.35726     0.15273     0.71741E-01 0.48504E-01 0.51223E-01 0.39598E-01 0.57168E-01 0.49271E-01
 0.16542     0.39081     0.46323     0.42903     0.97004E-01 0.63138E-01 0.47246E-01 0.63977E-01 0.12339     0.17628    
 0.10897     0.99849E-01 0.44626E-01 0.47347E-01 0.10473     0.13333     0.29128E-01 0.31162E-01 0.57915E-01 0.18783    
 0.33765     0.45565     0.49286     0.28636     0.18988     0.81289E-01 0.28388E-01 0.28354E-01 0.23493E-01 0.40191E-01
 0.14501     0.39781     0.68019     0.79090     0.81268     0.81143     0.63634     0.37223     0.16419     0.40202E-01
 0.38761E-01 0.39179E-01 0.16723     0.55412     0.76112     0.85520     0.88526     0.87893     0.86523     0.78946    
 0.48896     0.17440     0.12515     0.48098E-01 0.13876     0.50903     0.78682     0.87427     0.89749     0.90766    
 0.89491     0.86933     0.78880     0.55882     0.52031     0.64006E-01 0.11561     0.37677     0.79407     0.86315    
 0.90190     0.89693     0.90394     0.89700     0.87838     0.72797     0.68450     0.23521     0.68135E-01 0.25794    
 0.63913     0.86719     0.89525     0.90371     0.89489     0.89971     0.90010     0.85460     0.75341     0.53633    
 0.82158E-01 0.15760     0.39237     0.80769     0.88070     0.90382     0.89944     0.90429     0.90012     0.89339    
 0.82301     0.54943     0.22578     0.59855E-01 0.23088     0.53839     0.82117     0.88915     0.90049     0.89411    
 0.90149     0.88221     0.78499     0.57293     0.22991     0.98472E-01 0.83147E-01 0.23911     0.58971     0.75577    
 0.85398     0.88023     0.86934     0.85663     0.66765     0.46344     0.19564     0.78137E-01 0.65683E-01 0.90420E-01
 0.17667     0.54258     0.67934     0.73938     0.79106     0.77118     0.43880     0.22452     0.11179     0.79420E-01
 0.89743E-01 0.75470E-01 0.87564E-01 0.80381E-01 0.24698     0.47799     0.52399     0.50607     0.13743     0.90426E-01
 0.71322E-01 0.10347     0.19319     0.26034     0.18227     0.14741     0.64515E-01 0.70571E-01 0.14973     0.18237    
 0.39551E-01 0.42308E-01 0.85016E-01 0.25680     0.44368     0.56114     0.57753     0.39246     0.28032     0.10977    
 0.38331E-01 0.38347E-01 0.30688E-01 0.53422E-01 0.18341     0.45563     0.71069     0.80684     0.83165     0.81767    
 0.66363     0.45226     0.21060     0.52553E-01 0.50811E-01 0.53020E-01 0.20850     0.58818     0.76575     0.84238    
 0.86245     0.86085     0.85214     0.78034     0.52388     0.22485     0.17240     0.59584E-01 0.18788     0.53818    
 0.78548     0.83675     0.83707     0.82998     0.83260     0.83546     0.78928     0.57328     0.56827     0.90028E-01
 0.14748     0.44505     0.78641     0.83141     0.81133     0.73362     0.74245     0.80656     0.84199     0.73919    
 0.68924     0.33800     0.89304E-01 0.35489     0.66139     0.85456     0.83261     0.74236     0.64696     0.73877    
 0.83579     0.84698     0.78358     0.58231     0.13480     0.19707     0.49948     0.81104     0.86186     0.82611    
 0.73838     0.74070     0.82405     0.86980     0.83842     0.61052     0.31871     0.98252E-01 0.32066     0.60176    
 0.84032     0.86677     0.83677     0.80464     0.84036     0.86027     0.80273     0.64150     0.31714     0.15986    
 0.13582     0.33872     0.63460     0.78165     0.84501     0.84347     0.83328     0.84340     0.70121     0.53444    
 0.27332     0.13275     0.11338     0.14582     0.26670     0.60575     0.69024     0.75106     0.78701     0.77344    
 0.49015     0.28798     0.16504     0.12801     0.14731     0.13027     0.13015     0.12505     0.34226     0.51973    
 0.55360     0.54956     0.17496     0.12272     0.10564     0.15550     0.27059     0.34681     0.27231     0.20123    
 0.87947E-01 0.10202     0.19637     0.22480     0.52894E-01 0.57140E-01 0.11658     0.31833     0.51892     0.63203    
 0.63143     0.48328     0.36949     0.13474     0.50646E-01 0.51717E-01 0.41076E-01 0.69019E-01 0.21203     0.48421    
 0.72728     0.82088     0.84712     0.82054     0.68378     0.51641     0.23658     0.66030E-01 0.65579E-01 0.68252E-01
 0.23558     0.59694     0.76210     0.83079     0.84619     0.84859     0.84089     0.76243     0.54091     0.25822    
 0.21769     0.72450E-01 0.22884     0.54027     0.77562     0.80091     0.76961     0.73524     0.76338     0.80257    
 0.78061     0.55995     0.56281     0.12767     0.16461     0.50558     0.76929     0.79997     0.69404     0.47947    
 0.48635     0.69067     0.80526     0.74666     0.68923     0.42305     0.11780     0.41219     0.68170     0.84341    
 0.76339     0.48629     0.26707     0.48507     0.76446     0.83980     0.81051     0.59309     0.20906     0.22646    
 0.59217     0.81062     0.84895     0.73225     0.48492     0.48214     0.73273     0.85157     0.85117     0.65940    
 0.38965     0.14937     0.38241     0.66018     0.85501     0.84994     0.76553     0.69060     0.77165     0.84460    
 0.81506     0.69219     0.38616     0.22878     0.19197     0.41888     0.66220     0.80689     0.83737     0.80678    
 0.79751     0.83352     0.71954     0.58425     0.34430     0.19242     0.16948     0.20838     0.35684     0.62598    
 0.69116     0.75694     0.77521     0.76731     0.51695     0.33820     0.22213     0.18479     0.21017     0.18909    
 0.17681     0.18677     0.42663     0.51651     0.56100     0.56464     0.20268     0.15622     0.14606     0.21086    
 0.34020     0.42169     0.35578     0.24096     0.11619     0.14588     0.22927     0.24808     0.68314E-01 0.75107E-01
 0.14875     0.36910     0.57161     0.67877     0.67126     0.56400     0.42734     0.15022     0.66998E-01 0.68452E-01
 0.55734E-01 0.86687E-01 0.22907     0.48589     0.72954     0.82851     0.85433     0.81738     0.69787     0.54584    
 0.23863     0.81588E-01 0.83502E-01 0.83881E-01 0.24575     0.58499     0.75843     0.83319     0.85407     0.85940    
 0.84297     0.74691     0.54558     0.26510     0.24412     0.89745E-01 0.24869     0.52481     0.76683     0.79844    
 0.77418     0.74035     0.76787     0.80189     0.77039     0.53598     0.52414     0.16926     0.17002     0.54183    
 0.75390     0.79963     0.68962     0.48257     0.48614     0.68854     0.79996     0.75650     0.69014     0.43433    
 0.14547     0.40028     0.69823     0.84580     0.76808     0.48587     0.26579     0.48706     0.76702     0.84451    
 0.82741     0.56243     0.24938     0.22746     0.61501     0.80582     0.85900     0.73959     0.48717     0.48032    
 0.74254     0.85641     0.85610     0.66601     0.37299     0.17761     0.36265     0.67666     0.86017     0.85593    
 0.76780     0.69085     0.77428     0.85307     0.81914     0.69120     0.38206     0.24245     0.20893     0.40792    
 0.65249     0.82546     0.84213     0.80117     0.79432     0.83894     0.72251     0.58462     0.34941     0.20950    
 0.19323     0.22701     0.36583     0.58948     0.69000     0.76454     0.76406     0.76155     0.52122     0.35473    
 0.24060     0.20257     0.22570     0.20507     0.19259     0.22676     0.44379     0.48594     0.55588     0.55435    
 0.21869     0.18223     0.17038     0.22895     0.34406     0.41809     0.35932     0.23651     0.14104     0.19051    
 0.23807     0.25321     0.85317E-01 0.95122E-01 0.17289     0.38787     0.57388     0.67244     0.66875     0.59115    
 0.42097     0.15930     0.89544E-01 0.87301E-01 0.78420E-01 0.10876     0.23155     0.43895     0.68075     0.79623    
 0.82307     0.77526     0.66321     0.50356     0.22673     0.10270     0.10605     0.10294     0.24166     0.54857    
 0.73150     0.82381     0.85914     0.86612     0.83366     0.71514     0.52093     0.25372     0.24158     0.11080    
 0.24461     0.48278     0.74390     0.80774     0.81392     0.79938     0.80953     0.81053     0.74302     0.49844    
 0.45543     0.18085     0.16122     0.51520     0.72047     0.80662     0.75843     0.66618     0.66507     0.75919    
 0.80487     0.74133     0.65164     0.34576     0.14249     0.31271     0.66575     0.83867     0.80961     0.66438    
 0.53403     0.66853     0.80694     0.83671     0.79815     0.46362     0.20699     0.18973     0.51492     0.76278    
 0.86497     0.80131     0.66876     0.65873     0.80551     0.85814     0.82366     0.58761     0.29808     0.17459    
 0.29324     0.60207     0.82672     0.85796     0.80769     0.76321     0.81282     0.85820     0.78080     0.60106    
 0.32988     0.24185     0.21866     0.34191     0.57002     0.80109     0.83335     0.80599     0.80109     0.83454    
 0.67310     0.49160     0.29308     0.21763     0.22474     0.23364     0.29860     0.47617     0.65002     0.74751    
 0.73727     0.73465     0.48047     0.30159     0.19770     0.18780     0.23029     0.21384     0.18332     0.19738    
 0.35658     0.42659     0.52924     0.51048     0.21973     0.18214     0.15154     0.18847     0.28820     0.35668    
 0.29396     0.18810     0.13706     0.19762     0.22643     0.24875     0.10624     0.11394     0.17142     0.33417    
 0.48281     0.57968     0.58523     0.50694     0.33318     0.15674     0.11436     0.10892     0.12062     0.14517    
 0.22192     0.33134     0.53376     0.67110     0.70326     0.64266     0.52469     0.38160     0.21243     0.13767    
 0.14114     0.13469     0.23641     0.48597     0.63736     0.74994     0.81326     0.82075     0.76352     0.62713    
 0.45295     0.24475     0.22325     0.13416     0.22788     0.40523     0.67652     0.77873     0.80677     0.80587    
 0.80574     0.77620     0.66805     0.43454     0.34912     0.15189     0.13778     0.40829     0.62599     0.76648    
 0.77745     0.75568     0.74957     0.77856     0.76815     0.65566     0.51664     0.22076     0.11173     0.20080    
 0.53003     0.77600     0.80410     0.74836     0.69902     0.75527     0.80138     0.76723     0.66812     0.32980    
 0.15209     0.14881     0.35158     0.62835     0.81989     0.81106     0.75548     0.74383     0.81606     0.80770    
 0.70518     0.45952     0.23924     0.15761     0.23919     0.47134     0.70531     0.80647     0.80307     0.78338    
 0.80624     0.81052     0.64641     0.46514     0.28295     0.22002     0.20445     0.28826     0.44756     0.67837    
 0.75906     0.77198     0.76337     0.77196     0.52517     0.34538     0.23977     0.20313     0.21508     0.21513    
 0.23841     0.33299     0.51664     0.65935     0.66381     0.64411     0.37736     0.20288     0.14927     0.16615    
 0.21174     0.20111     0.16551     0.14899     0.22715     0.32803     0.46845     0.43067     0.20839     0.15467    
 0.11231     0.14258     0.23646     0.30122     0.23575     0.14383     0.10845     0.16218     0.20849     0.24735    
 0.14014     0.13189     0.14399     0.22840     0.33916     0.44607     0.45803     0.35534     0.21468     0.13788    
 0.13641     0.14309     0.20189     0.21734     0.22147     0.22306     0.34169     0.45716     0.48847     0.43225    
 0.33216     0.25781     0.21535     0.20346     0.20748     0.19467     0.25757     0.41999     0.45921     0.55067    
 0.64047     0.64299     0.57085     0.46743     0.37048     0.26249     0.22067     0.17272     0.22345     0.31817    
 0.56081     0.66391     0.69179     0.70366     0.69924     0.64840     0.53657     0.36025     0.24528     0.13285    
 0.12866     0.28806     0.45107     0.62716     0.70044     0.70885     0.69630     0.69714     0.63994     0.48623    
 0.32860     0.15501     0.10180     0.14193     0.34307     0.59446     0.68964     0.69462     0.67936     0.70521    
 0.69287     0.57406     0.44842     0.22238     0.11242     0.11349     0.22682     0.41853     0.64847     0.71282    
 0.70561     0.69011     0.72008     0.62671     0.49357     0.31259     0.14087     0.84668E-01 0.14276     0.31945    
 0.48892     0.62442     0.69679     0.70221     0.69700     0.63182     0.43001     0.31459     0.15899     0.92825E-01
 0.86159E-01 0.16132     0.30631     0.46153     0.55644     0.65414     0.62703     0.58962     0.33409     0.22861    
 0.14199     0.85735E-01 0.81343E-01 0.90241E-01 0.14015     0.22306     0.33221     0.48264     0.53900     0.47170    
 0.26535     0.14487     0.11213     0.88942E-01 0.88596E-01 0.85638E-01 0.89359E-01 0.11021     0.15835     0.22981    
 0.39437     0.34489     0.20589     0.14173     0.10068     0.10718     0.14130     0.16802     0.13778     0.10988    
 0.10018     0.14176     0.20555     0.27385     0.20588     0.16193     0.13065     0.16445     0.22373     0.30127    
 0.31359     0.23340     0.15139     0.12892     0.16941     0.20949     0.32280     0.33632     0.25253     0.18507    
 0.23465     0.26938     0.27510     0.25672     0.22107     0.21351     0.25889     0.30834     0.31304     0.28844    
 0.34016     0.39443     0.28948     0.31217     0.36177     0.35398     0.32714     0.31707     0.33152     0.32794    
 0.26125     0.24448     0.25151     0.27706     0.45358     0.45750     0.42702     0.44011     0.44744     0.43605    
 0.39949     0.32605     0.20872     0.16092     0.16672     0.24135     0.28406     0.41371     0.49754     0.49219    
 0.47789     0.48034     0.43067     0.32555     0.21957     0.15404     0.12652     0.14245     0.23766     0.34451    
 0.42527     0.47824     0.48023     0.48756     0.44187     0.32868     0.26294     0.14959     0.83142E-01 0.84129E-01
 0.14801     0.24901     0.36846     0.44469     0.48916     0.47218     0.45514     0.34495     0.28044     0.16019    
 0.48858E-01 0.22315E-01 0.50294E-01 0.16213     0.27401     0.34634     0.44441     0.48601     0.44137     0.35071    
 0.25214     0.16012     0.40937E-01 0.96089E-02 0.86839E-02 0.41539E-01 0.15760     0.27203     0.31029     0.45646    
 0.40890     0.34593     0.22809     0.15151     0.49477E-01 0.86766E-02 0.50710E-02 0.90753E-02 0.49111E-01 0.14906    
 0.22661     0.31053     0.42043     0.30415     0.22118     0.14546     0.83275E-01 0.23460E-01 0.88373E-02 0.88592E-02
 0.23620E-01 0.81057E-01 0.15587     0.19703     0.35619     0.30904     0.23800     0.17966     0.12407     0.79783E-01
 0.50105E-01 0.42870E-01 0.47501E-01 0.82510E-01 0.12599     0.17410     0.23853     0.35750     0.31471     0.21738    
 0.16715     0.16304     0.14724     0.15447     0.16179     0.15402     0.15082     0.16175     0.23431     0.31259    
 0.42809     0.44585     0.29575     0.21028     0.21502     0.17535     0.15837     0.17240     0.19496     0.23456    
 0.32796     0.40959     0.41006     0.38157     0.47624     0.40825     0.21031     0.19019     0.18558     0.17618    
 0.19386     0.25099     0.35178     0.41953     0.33034     0.32025     0.29372     0.30701     0.41086     0.27370    
 0.20584     0.20485     0.22336     0.26855     0.32274     0.34923     0.23223     0.21973     0.24005     0.25357    
 0.20755     0.26491     0.28102     0.23844     0.23576     0.25923     0.26712     0.25367     0.19444     0.18825    
 0.17034     0.17904     0.21731     0.19617     0.20530     0.23942     0.23642     0.23929     0.22123     0.19459    
 0.17355     0.12237     0.77945E-01 0.77765E-01 0.11832     0.17056     0.18861     0.20036     0.24120     0.23321    
 0.20819     0.17450     0.16189     0.85077E-01 0.19086E-01 0.67419E-02 0.20173E-01 0.84734E-01 0.15685     0.17919    
 0.21849     0.26638     0.21638     0.17907     0.16861     0.84356E-01 0.93006E-02 0.34102E-03 0.27571E-03 0.94226E-02
 0.84121E-01 0.17801     0.18316     0.28758     0.25059     0.20369     0.20710     0.12199     0.19572E-01 0.27982E-03
 0.17408E-04 0.28703E-03 0.19607E-01 0.12086     0.20584     0.22885     0.36768     0.22580     0.23330     0.18254    
 0.77675E-01 0.70628E-02 0.27270E-03 0.31682E-03 0.70836E-02 0.75762E-01 0.18743     0.22703     0.36083     0.34717    
 0.29793     0.24739     0.16640     0.75256E-01 0.20206E-01 0.94840E-02 0.18672E-01 0.77544E-01 0.17202     0.23825    
 0.29729     0.46871     0.42330     0.27790     0.24216     0.19465     0.11818     0.82950E-01 0.86155E-01 0.12385    
 0.18573     0.22219     0.31025     0.40197     0.45433     0.46199     0.29711     0.23976     0.21806     0.15492    
 0.13753     0.15882     0.19436     0.24643     0.34870     0.43891     0.43151     0.41738     0.54077     0.37508    
 0.19729     0.17666     0.15208     0.14283     0.17022     0.24315     0.36451     0.44668     0.35295     0.33375    
 0.29790     0.36159     0.40521     0.21695     0.16240     0.15845     0.17483     0.23026     0.30903     0.36483    
 0.24540     0.24112     0.26836     0.24438     0.19826     0.24780     0.22264     0.17495     0.17926     0.20553    
 0.23104     0.24216     0.19470     0.20040     0.18363     0.19983     0.21741     0.16168     0.16271     0.18460    
 0.17616     0.17930     0.17427     0.17084     0.15724     0.12047     0.80310E-01 0.78037E-01 0.11486     0.16156    
 0.15285     0.14995     0.18084     0.17850     0.15611     0.14420     0.13986     0.73218E-01 0.15629E-01 0.55842E-02
 0.16974E-01 0.71593E-01 0.13575     0.15127     0.16837     0.21389     0.16771     0.14859     0.15619     0.72016E-01
 0.65724E-02 0.12528E-03 0.93207E-04 0.65989E-02 0.72873E-01 0.15808     0.16546     0.23944     0.22454     0.17274    
 0.20834     0.11818     0.16355E-01 0.97966E-04 0.51189E-04 0.98011E-04 0.16390E-01 0.11835     0.20874     0.21296    
 0.36458     0.21404     0.23135     0.20247     0.78962E-01 0.56687E-02 0.93741E-04 0.12939E-03 0.56195E-02 0.78237E-01
 0.19595     0.25419     0.34311     0.39354     0.32884     0.26063     0.18029     0.78454E-01 0.16904E-01 0.63760E-02
 0.15759E-01 0.79392E-01 0.18831     0.25520     0.32432     0.48700     0.45411     0.29785     0.27476     0.19975    
 0.11529     0.72699E-01 0.73890E-01 0.11981     0.20014     0.24139     0.33418     0.41703     0.38730     0.37551    