       N       E                     dE             d eps       ncg     rms          rms(c)
DAV:   1     0.873439114870E+02    0.87344E+02   -0.46800E+03   288   0.547E+02
DAV:   2    -0.148613955467E+02   -0.10221E+03   -0.97947E+02   430   0.159E+02
DAV:   3    -0.232041074644E+02   -0.83427E+01   -0.82519E+01   408   0.527E+01
DAV:   4    -0.233664006139E+02   -0.16229E+00   -0.16158E+00   348   0.820E+00
DAV:   5    -0.233704575366E+02   -0.40569E-02   -0.40552E-02   376   0.127E+00    0.691E+00
RMM:   6    -0.222123624927E+02    0.11581E+01   -0.53839E+00   292   0.116E+01    0.263E+00
RMM:   7    -0.218274107020E+02    0.38495E+00   -0.52958E-01   290   0.320E+00    0.151E+00
RMM:   8    -0.217678730448E+02    0.59538E-01   -0.23497E-01   304   0.242E+00    0.352E-01
RMM:   9    -0.217633320990E+02    0.45409E-02   -0.80125E-03   333   0.543E-01    0.963E-02
RMM:  10    -0.217626378023E+02    0.69430E-03   -0.17791E-03   332   0.217E-01    0.454E-02
RMM:  11    -0.217627090758E+02   -0.71274E-04   -0.23051E-03   312   0.212E-01    0.651E-02
RMM:  12    -0.217625608464E+02    0.14823E-03   -0.76045E-04   303   0.147E-01    0.166E-02
RMM:  13    -0.217629142349E+02   -0.35339E-03   -0.12468E-04   298   0.608E-02    0.181E-02
RMM:  14    -0.217629422152E+02   -0.27980E-04   -0.23440E-05   312   0.245E-02    0.544E-03
RMM:  15    -0.217630031913E+02   -0.60976E-04   -0.12768E-05   273   0.141E-02    0.385E-03
RMM:  16    -0.217630242223E+02   -0.21031E-04   -0.30326E-06   230   0.736E-03    0.319E-03
RMM:  17    -0.217630582396E+02   -0.34017E-04   -0.30454E-06   211   0.805E-03    0.283E-03
RMM:  18    -0.217630633177E+02   -0.50781E-05   -0.44085E-07   189   0.350E-03    0.237E-03
RMM:  19    -0.217630698548E+02   -0.65371E-05   -0.70776E-07   198   0.373E-03    0.234E-03
RMM:  20    -0.217630698550E+02   -0.17417E-09   -0.97191E-08   137   0.188E-03
   1 F= -.22354862E+02 E0= -.22354862E+02  d E =-.682616E-10
