 vasp.5.4.4.18Apr17-6-g9f103f2a35 (build Jun 30 2017 11:15:00) complex          
  
 executed on    STALLO_VASP_5.4.4 date 2019.11.08  11:44:55
 running on    4 total cores
 distrk:  each k-point on    4 cores,    1 groups
 distr:  one band on NCORES_PER_BAND=   2 cores,    2 groups


--------------------------------------------------------------------------------------------------------


 INCAR:
 POTCAR:   PAW_PBE Mo 08Apr2002                   
 POTCAR:    PAW_PBE S 17Jan2003                   
 POTCAR:   PAW_PBE Mo 08Apr2002                   
   VRHFIN =Mo: 4p5s4d                                                           
   LEXCH  = PE                                                                  
   EATOM  =   217.5180 eV,   15.9871 Ry                                         
                                                                                
   TITEL  = PAW_PBE Mo 08Apr2002                                                
   LULTRA =        F    use ultrasoft PP ?                                      
   IUNSCR =        1    unscreen: 0-lin 1-nonlin 2-no                           
   RPACOR =    2.200    partial core radius                                     
   POMASS =   95.940; ZVAL   =    6.000    mass and valenz                      
   RCORE  =    2.750    outmost cutoff radius                                   
   RWIGS  =    2.750; RWIGS  =    1.455    wigner-seitz radius (au A)           
   ENMAX  =  224.584; ENMIN  =  168.438 eV                                      
   RCLOC  =    2.111    cutoff for local pot                                    
   LCOR   =        T    correct aug charges                                     
   LPAW   =        T    paw PP                                                  
   EAUG   =  345.278                                                            
   DEXC   =    -.088                                                            
   RMAX   =    3.077    core radius for proj-oper                               
   RAUG   =    1.300    factor for augmentation sphere                          
   RDEP   =    2.815    radius for radial grids                                 
   QCUT   =   -4.063; QGAM   =    8.126    optimization parameters              
                                                                                
   Description                                                                  
     l     E      TYP  RCUT    TYP  RCUT                                        
     2   .000     23  2.500                                                     
     2   .000     23  2.500                                                     
     0   .000     23  2.600                                                     
     0  1.000     23  2.600                                                     
     1   .400     23  2.750                                                     
     1  2.000     23  2.750                                                     
     3   .000      7   .000                                                     
  local pseudopotential read in
  partial core-charges read in
  atomic valenz-charges read in
  non local Contribution for L=           2  read in
    real space projection operators read in
  non local Contribution for L=           2  read in
    real space projection operators read in
  non local Contribution for L=           0  read in
    real space projection operators read in
  non local Contribution for L=           0  read in
    real space projection operators read in
  non local Contribution for L=           1  read in
    real space projection operators read in
  non local Contribution for L=           1  read in
    real space projection operators read in
    PAW grid and wavefunctions read in
 
   number of l-projection  operators is LMAX  =           6
   number of lm-projection operators is LMMAX =          18
 
 POTCAR:    PAW_PBE S 17Jan2003                   
   VRHFIN =S : s2p4                                                             
   LEXCH  = PE                                                                  
   EATOM  =   276.8230 eV,   20.3459 Ry                                         
                                                                                
   TITEL  = PAW_PBE S 17Jan2003                                                 
   LULTRA =        F    use ultrasoft PP ?                                      
   IUNSCR =        1    unscreen: 0-lin 1-nonlin 2-no                           
   RPACOR =    1.500    partial core radius                                     
   POMASS =   32.066; ZVAL   =    6.000    mass and valenz                      
   RCORE  =    1.900    outmost cutoff radius                                   
   RWIGS  =    2.200; RWIGS  =    1.164    wigner-seitz radius (au A)           
   ENMAX  =  280.000; ENMIN  =  194.016 eV                                      
   ICORE  =        2    local potential                                         
   LCOR   =        T    correct aug charges                                     
   LPAW   =        T    paw PP                                                  
   EAUG   =  335.092                                                            
   DEXC   =     .000                                                            
   RMAX   =    2.867    core radius for proj-oper                               
   RAUG   =    1.300    factor for augmentation sphere                          
   RDEP   =    1.954    radius for radial grids                                 
   QCUT   =   -4.360; QGAM   =    8.721    optimization parameters              
                                                                                
   Description                                                                  
     l     E      TYP  RCUT    TYP  RCUT                                        
     0   .000     23  1.900                                                     
     0   .000     23  1.900                                                     
     1   .000     23  1.900                                                     
     1   .000     23  1.900                                                     
     2   .000     23  1.900                                                     
  local pseudopotential read in
  partial core-charges read in
  atomic valenz-charges read in
  non local Contribution for L=           0  read in
    real space projection operators read in
  non local Contribution for L=           0  read in
    real space projection operators read in
  non local Contribution for L=           1  read in
    real space projection operators read in
  non local Contribution for L=           1  read in
    real space projection operators read in
    PAW grid and wavefunctions read in
 
   number of l-projection  operators is LMAX  =           4
   number of lm-projection operators is LMMAX =           8
 

 ----------------------------------------------------------------------------- 
|                                                                             |
|  ADVICE TO THIS USER RUNNING 'VASP/VAMP'   (HEAR YOUR MASTER'S VOICE ...):  |
|                                                                             |
|      You have a (more or less) 'small supercell' and for smaller cells      |
|      it is recommended  to use the reciprocal-space projection scheme!      |
|      The real space optimization is not  efficient for small cells and it   |
|      is also less accurate ...                                              |
|      Therefore set LREAL=.FALSE. in the  INCAR file                         |
|                                                                             |
 ----------------------------------------------------------------------------- 

 Optimization of the real space projectors (new method)

 maximal supplied QI-value         = 13.61
 optimisation between [QCUT,QGAM] = [  8.03, 16.19] = [ 18.05, 73.41] Ry 
 Optimized for a Real-space Cutoff    1.97 Angstroem

   l    n(q)    QCUT    max X(q) W(low)/X(q) W(high)/X(q)  e(spline) 
   2      9     8.028     3.671    0.48E-05    0.25E-04    0.70E-07
   2      9     8.028    25.193    0.26E-03    0.70E-03    0.27E-06
   0     10     8.028    26.379    0.19E-04    0.25E-05    0.73E-08
   0     10     8.028    49.709    0.28E-04    0.49E-04    0.74E-07
   1      9     8.028     7.852    0.15E-04    0.15E-05    0.29E-07
   1      9     8.028    10.693    0.92E-04    0.27E-04    0.86E-07
 Optimization of the real space projectors (new method)

 maximal supplied QI-value         = 19.84
 optimisation between [QCUT,QGAM] = [  7.94, 16.07] = [ 17.64, 72.34] Ry 
 Optimized for a Real-space Cutoff    1.55 Angstroem

   l    n(q)    QCUT    max X(q) W(low)/X(q) W(high)/X(q)  e(spline) 
   0      7     7.937     5.487    0.27E-04    0.20E-04    0.12E-07
   0      7     7.937    85.627    0.10E-03    0.36E-03    0.16E-06
   1      7     7.937     3.530    0.15E-04    0.55E-04    0.56E-07
   1      7     7.937    42.714    0.49E-03    0.85E-03    0.12E-06
 PAW_PBE Mo 08Apr2002                   :
 energy of atom  1       EATOM= -217.5180
 kinetic energy error for atom=    0.0235 (will be added to EATOM!!)
  PAW_PBE S 17Jan2003                   :
 energy of atom  2       EATOM= -276.8230
 kinetic energy error for atom=    0.0359 (will be added to EATOM!!)
 
 
 POSCAR: MoS2_mp-2815_computed                   
  positions in cartesian coordinates
  velocities in cartesian coordinates
  No initial velocities read in
 exchange correlation table for  LEXCH =        8
   RHO(1)=    0.500       N(1)  =     2000
   RHO(2)=  100.500       N(2)  =     4000
 


--------------------------------------------------------------------------------------------------------


 ion  position               nearest neighbor table
   1  0.333  0.667  0.197-   3 2.42   2 2.42   2 2.42   3 2.42   3 2.42   2 2.42
   2  0.667  0.333  0.114-   1 2.42   1 2.42   1 2.42
   3  0.667  0.333  0.280-   1 2.42   1 2.42   1 2.42
 
  LATTYP: Found a hexagonal cell.
 ALAT       =     3.1903157300
 C/A-ratio  =     5.9175974724
  
  Lattice vectors:
  
 A1 = (   3.1903157300,   0.0000000000,   0.0000000000)
 A2 = (  -1.5951578650,   2.7628944683,   0.0000000000)
 A3 = (   0.0000000000,   0.0000000000,  18.8790043000)


Analysis of symmetry for initial positions (statically):
=====================================================================
 Subroutine PRICEL returns:
 Original cell was already a primitive cell.
 

 Routine SETGRP: Setting up the symmetry group for a 
 hexagonal supercell.


 Subroutine GETGRP returns: Found 12 space group operations
 (whereof  6 operations were pure point group operations)
 out of a pool of 24 trial point group operations.


The static configuration has the point symmetry C_3v.
 The point group associated with its full space group is D_3h.


Analysis of symmetry for dynamics (positions and initial velocities):
=====================================================================
 Subroutine PRICEL returns:
 Original cell was already a primitive cell.
 

 Routine SETGRP: Setting up the symmetry group for a 
 hexagonal supercell.


 Subroutine GETGRP returns: Found 12 space group operations
 (whereof  6 operations were pure point group operations)
 out of a pool of 24 trial point group operations.


The dynamic configuration has the point symmetry C_3v.
 The point group associated with its full space group is D_3h.


 Subroutine INISYM returns: Found 12 space group operations
 (whereof  6 operations are pure point group operations),
 and found     1 'primitive' translations

 
 
 KPOINTS: k-density: 4.0                          

Automatic generation of k-mesh.
Space group operators:
 irot       det(A)        alpha          n_x          n_y          n_z        tau_x        tau_y        tau_z
    1     1.000000     0.000000     1.000000     0.000000     0.000000     0.000000     0.000000     0.000000
    2     1.000000   120.000000     0.000000     0.000000    -1.000000     0.000000     0.000000     0.000000
    3     1.000000   120.000000     0.000000     0.000000     1.000000     0.000000     0.000000     0.000000
    4    -1.000000   180.000000     1.000000    -0.000000     0.000000     0.000000     0.000000     0.000000
    5    -1.000000   180.000000     0.500000    -0.866025     0.000000     0.000000     0.000000     0.000000
    6    -1.000000   180.000000    -0.500000    -0.866025     0.000000     0.000000     0.000000     0.000000
    7    -1.000000    60.000000     0.000000     0.000000    -1.000000     0.000000     0.000000     0.394062
    8    -1.000000   180.000000     0.000000     0.000000     1.000000     0.000000     0.000000     0.394062
    9    -1.000000    60.000000     0.000000     0.000000     1.000000     0.000000     0.000001     0.394062
   10     1.000000   180.000000     0.866025    -0.500000     0.000000     0.000000     0.000000     0.394062
   11     1.000000   180.000000     0.000000     1.000000     0.000000     0.000000     0.000000     0.394062
   12     1.000000   180.000000     0.866025     0.500000     0.000000     0.000000     0.000001     0.394062
 
 Subroutine IBZKPT returns following result:
 ===========================================
 
 Found     10 irreducible k-points:
 
 Following reciprocal coordinates:
            Coordinates               Weight
  0.000000  0.000000  0.000000      1.000000
  0.125000 -0.000000  0.000000      6.000000
  0.250000 -0.000000  0.000000      6.000000
  0.375000 -0.000000  0.000000      6.000000
  0.500000 -0.000000  0.000000      3.000000
  0.125000  0.125000  0.000000      6.000000
  0.250000  0.125000  0.000000     12.000000
  0.375000  0.125000  0.000000     12.000000
  0.250000  0.250000  0.000000      6.000000
  0.375000  0.250000  0.000000      6.000000
 
 Following cartesian coordinates:
            Coordinates               Weight
  0.000000  0.000000  0.000000      1.000000
  0.039181  0.022621  0.000000      6.000000
  0.078362  0.045242  0.000000      6.000000
  0.117543  0.067864  0.000000      6.000000
  0.156724  0.090485  0.000000      3.000000
  0.039181  0.067864  0.000000      6.000000
  0.078362  0.090485  0.000000     12.000000
  0.117543  0.113106  0.000000     12.000000
  0.078362  0.135727  0.000000      6.000000
  0.117543  0.158348  0.000000      6.000000
 


--------------------------------------------------------------------------------------------------------




 Dimension of arrays:
   k-points           NKPTS =     10   k-points in BZ     NKDIM =     10   number of bands    NBANDS=     14
   number of dos      NEDOS =   2401   number of ions     NIONS =      3
   non local maximal  LDIM  =      6   non local SUM 2l+1 LMDIM =     18
   total plane-waves  NPLWV =  11520
   max r-space proj   IRMAX =   2251   max aug-charges    IRDMAX=   4644
   dimension x,y,z NGX =    12 NGY =   12 NGZ =   80
   dimension x,y,z NGXF=    24 NGYF=   24 NGZF=  160
   support grid    NGXF=    24 NGYF=   24 NGZF=  160
   ions per type =               1   2
   NGX,Y,Z   is equivalent  to a cutoff of   6.25,  6.25,  7.04 a.u.
   NGXF,Y,Z  is equivalent  to a cutoff of  12.51, 12.51, 14.09 a.u.

 SYSTEM =  unknown system                          
 POSCAR =  MoS2_mp-2815_computed                   

 Startparameter for this run:
   NWRITE =      2    write-flag & timer
   PREC   = normal    normal or accurate (medium, high low for compatibility)
   ISTART =      0    job   : 0-new  1-cont  2-samecut
   ICHARG =      2    charge: 1-file 2-atom 10-const
   ISPIN  =      1    spin polarized calculation?
   LNONCOLLINEAR =      F non collinear calculations
   LSORBIT =      F    spin-orbit coupling
   INIWAV =      1    electr: 0-lowe 1-rand  2-diag
   LASPH  =      F    aspherical Exc in radial PAW
   METAGGA=      F    non-selfconsistent MetaGGA calc.

 Electronic Relaxation 1
   ENCUT  =  250.0 eV  18.37 Ry    4.29 a.u.   4.11  4.11 24.34*2*pi/ulx,y,z
   ENINI  =  250.0     initial cutoff
   ENAUG  =  345.3 eV  augmentation charge cutoff
   NELM   =     60;   NELMIN=  4; NELMDL= -5     # of ELM steps 
   EDIFF  = 0.1E-05   stopping-criterion for ELM
   LREAL  =      T    real-space projection
   NLSPLINE    = F    spline interpolate recip. space projectors
   LCOMPAT=      F    compatible to vasp.4.4
   GGA_COMPAT  = T    GGA compatible to vasp.4.4-vasp.4.6
   LMAXPAW     = -100 max onsite density
   LMAXMIX     =    2 max onsite mixed and CHGCAR
   VOSKOWN=      0    Vosko Wilk Nusair interpolation
   ROPT   =   -0.00050  -0.00050
 Ionic relaxation
   EDIFFG = 0.1E-04   stopping-criterion for IOM
   NSW    =      0    number of steps for IOM
   NBLOCK =      1;   KBLOCK =      1    inner block; outer block 
   IBRION =     -1    ionic relax: 0-MD 1-quasi-New 2-CG
   NFREE  =      0    steps in history (QN), initial steepest desc. (CG)
   ISIF   =      2    stress and relaxation
   IWAVPR =     10    prediction:  0-non 1-charg 2-wave 3-comb
   ISYM   =      2    0-nonsym 1-usesym 2-fastsym
   LCORR  =      T    Harris-Foulkes like correction to forces

   POTIM  = 0.5000    time-step for ionic-motion
   TEIN   =    0.0    initial temperature
   TEBEG  =    0.0;   TEEND  =   0.0 temperature during run
   SMASS  =  -3.00    Nose mass-parameter (am)
   estimated Nose-frequenzy (Omega)   =  0.10E-29 period in steps =****** mass=  -0.233E-27a.u.
   SCALEE = 1.0000    scale energy and forces
   NPACO  =    256;   APACO  = 16.0  distance and # of slots for P.C.
   PSTRESS=    0.0 pullay stress

  Mass of Ions in am
   POMASS =  95.94 32.07
  Ionic Valenz
   ZVAL   =   6.00  6.00
  Atomic Wigner-Seitz radii
   RWIGS  =  -1.00 -1.00
  virtual crystal weights 
   VCA    =   1.00  1.00
   NELECT =      18.0000    total number of electrons
   NUPDOWN=      -1.0000    fix difference up-down

 DOS related values:
   EMIN   = -12.00;   EMAX   = 12.00  energy-range for DOS
   EFERMI =   0.00
   ISMEAR =     0;   SIGMA  =   0.20  broadening in eV -4-tet -1-fermi 0-gaus

 Electronic relaxation 2 (details)
   IALGO  =     68    algorithm
   LDIAG  =      T    sub-space diagonalisation (order eigenvalues)
   LSUBROT=      F    optimize rotation matrix (better conditioning)
   TURBO    =      0    0=normal 1=particle mesh
   IRESTART =      0    0=no restart 2=restart with 2 vectors
   NREBOOT  =      0    no. of reboots
   NMIN     =      0    reboot dimension
   EREF     =   0.00    reference energy to select bands
   IMIX   =      4    mixing-type and parameters
     AMIX     =   0.40;   BMIX     =  1.00
     AMIX_MAG =   1.60;   BMIX_MAG =  1.00
     AMIN     =   0.10
     WC   =   100.;   INIMIX=   1;  MIXPRE=   1;  MAXMIX= -45

 Intra band minimization:
   WEIMIN = 0.0000     energy-eigenvalue tresh-hold
   EBREAK =  0.18E-07  absolut break condition
   DEPER  =   0.30     relativ break condition  

   TIME   =   0.40     timestep for ELM

  volume/ion in A,a.u.               =      55.47       374.33
  Fermi-wavevector in a.u.,A,eV,Ry     =   0.780022  1.474027  8.278244  0.608434
  Thomas-Fermi vector in A             =   1.883247
 
 Write flags
   LWAVE        =      F    write WAVECAR
   LDOWNSAMPLE  =      F    k-point downsampling of WAVECAR
   LCHARG       =      T    write CHGCAR
   LVTOT        =      F    write LOCPOT, total local potential
   LVHAR        =      F    write LOCPOT, Hartree potential only
   LELF         =      T    write electronic localiz. function (ELF)
   LORBIT       =     11    0 simple, 1 ext, 2 COOP (PROOUT), +10 PAW based schemes


 Dipole corrections
   LMONO  =      F    monopole corrections only (constant potential shift)
   LDIPOL =      F    correct potential (dipole corrections)
   IDIPOL =      0    1-x, 2-y, 3-z, 4-all directions 
   EPSILON=  1.0000000 bulk dielectric constant

 Exchange correlation treatment:
   GGA     =    --    GGA type
   LEXCH   =     8    internal setting for exchange type
   VOSKOWN=      0    Vosko Wilk Nusair interpolation
   LHFCALC =     F    Hartree Fock is set to
   LHFONE  =     F    Hartree Fock one center treatment
   AEXX    =    0.0000 exact exchange contribution

 Linear response parameters
   LEPSILON=     F    determine dielectric tensor
   LRPA    =     F    only Hartree local field effects (RPA)
   LNABLA  =     F    use nabla operator in PAW spheres
   LVEL    =     F    velocity operator in full k-point grid
   LINTERFAST=   F  fast interpolation
   KINTER  =     0    interpolate to denser k-point grid
   CSHIFT  =0.1000    complex shift for real part using Kramers Kronig
   OMEGAMAX=  -1.0    maximum frequency
   DEG_THRESHOLD= 0.2000000E-02 threshold for treating states as degnerate
   RTIME   =   -0.100 relaxation time in fs
  (WPLASMAI=    0.000 imaginary part of plasma frequency in eV, 0.658/RTIME)
   DFIELD  = 0.0000000 0.0000000 0.0000000 field for delta impulse in time
 
 Orbital magnetization related:
   ORBITALMAG=     F  switch on orbital magnetization
   LCHIMAG   =     F  perturbation theory with respect to B field
   DQ        =  0.001000  dq finite difference perturbation B field
   LLRAUG    =     F  two centre corrections for induced B field



--------------------------------------------------------------------------------------------------------


 Static calculation
 charge density and potential will be updated during run
 non-spin polarized calculation
 RMM-DIIS sequential band-by-band and
  variant of blocked Davidson during initial phase
 perform sub-space diagonalisation
    before iterative eigenvector-optimisation
 modified Broyden-mixing scheme, WC =      100.0
 initial mixing is a Kerker type mixing with AMIX =  0.4000 and BMIX =      1.0000
 Hartree-type preconditioning will be used
 using additional bands            5
 real space projection scheme for non local part
 use partial core corrections
 calculate Harris-corrections to forces 
   (improved forces if not selfconsistent)
 use gradient corrections 
 use of overlap-Matrix (Vanderbilt PP)
 Gauss-broadening in eV      SIGMA  =   0.20


--------------------------------------------------------------------------------------------------------


  energy-cutoff  :      250.00
  volume of cell :      166.41
      direct lattice vectors                 reciprocal lattice vectors
     3.190315730  0.000000000  0.000000000     0.313448600  0.180969634  0.000000000
    -1.595157865  2.762894468  0.000000000     0.000000000  0.361939267  0.000000000
     0.000000000  0.000000000 18.879004300     0.000000000  0.000000000  0.052968895

  length of vectors
     3.190315730  3.190315730 18.879004300     0.361939267  0.361939267  0.052968895


 
 k-points in units of 2pi/SCALE and weight: k-density: 4.0                          
   0.00000000  0.00000000  0.00000000       0.016
   0.03918108  0.02262120  0.00000000       0.094
   0.07836215  0.04524241  0.00000000       0.094
   0.11754323  0.06786361  0.00000000       0.094
   0.15672430  0.09048482  0.00000000       0.047
   0.03918108  0.06786361  0.00000000       0.094
   0.07836215  0.09048482  0.00000000       0.188
   0.11754323  0.11310602  0.00000000       0.188
   0.07836215  0.13572723  0.00000000       0.094
   0.11754323  0.15834843  0.00000000       0.094
 
 k-points in reciprocal lattice and weights: k-density: 4.0                          
   0.00000000  0.00000000  0.00000000       0.016
   0.12500000 -0.00000000  0.00000000       0.094
   0.25000000 -0.00000000  0.00000000       0.094
   0.37500000 -0.00000000  0.00000000       0.094
   0.50000000 -0.00000000  0.00000000       0.047
   0.12500000  0.12500000  0.00000000       0.094
   0.25000000  0.12500000  0.00000000       0.188
   0.37500000  0.12500000  0.00000000       0.188
   0.25000000  0.25000000  0.00000000       0.094
   0.37500000  0.25000000  0.00000000       0.094
 
 position of ions in fractional coordinates (direct lattice) 
   0.33333300  0.66666700  0.19703111
   0.66666700  0.33333300  0.11414091
   0.66666600  0.33333300  0.27992130
 
 position of ions in cartesian coordinates  (Angst):
  -0.00000160  1.84193057  3.71975108
   1.59515946  0.92096390  2.15486668
   1.59515627  0.92096390  5.28463547
 


--------------------------------------------------------------------------------------------------------


 k-point  1 :   0.0000 0.0000 0.0000  plane waves:    1459
 k-point  2 :   0.1250-0.0000 0.0000  plane waves:    1465
 k-point  3 :   0.2500-0.0000 0.0000  plane waves:    1495
 k-point  4 :   0.3750-0.0000 0.0000  plane waves:    1509
 k-point  5 :   0.5000-0.0000 0.0000  plane waves:    1512
 k-point  6 :   0.1250 0.1250 0.0000  plane waves:    1472
 k-point  7 :   0.2500 0.1250 0.0000  plane waves:    1489
 k-point  8 :   0.3750 0.1250 0.0000  plane waves:    1499
 k-point  9 :   0.2500 0.2500 0.0000  plane waves:    1504
 k-point 10 :   0.3750 0.2500 0.0000  plane waves:    1502

 maximum and minimum number of plane-waves per node :       770      714

 maximum number of plane-waves:      1512
 maximum index in each direction: 
   IXMAX=    4   IYMAX=    4   IZMAX=   24
   IXMIN=   -4   IYMIN=   -4   IZMIN=  -24


 real space projection operators:
  total allocation   :        434.42 KBytes
  max/ min on nodes  :        217.92        216.50


 parallel 3D FFT for wavefunctions:
    minimum data exchange during FFTs selected (reduces bandwidth)
 parallel 3D FFT for charge:
    minimum data exchange during FFTs selected (reduces bandwidth)


 total amount of memory used by VASP MPI-rank0    33788. kBytes
=======================================================================

   base      :      30000. kBytes
   nonlr-proj:        380. kBytes
   fftplans  :        953. kBytes
   grid      :       1533. kBytes
   one-center:         31. kBytes
   wavefun   :        891. kBytes
 
     INWAV:  cpu time    0.0000: real time    0.0000
 Broyden mixing: mesh for mixing (old mesh)
   NGX =  9   NGY =  9   NGZ = 49
  (NGX  = 24   NGY  = 24   NGZ  =160)
  gives a total of   3969 points

 initial charge density was supplied:
 charge density of overlapping atoms calculated
 number of electron      18.0000000 magnetization 
 keeping initial charge density in first step


--------------------------------------------------------------------------------------------------------


 Maximum index for non-local projection operator         1075
 Maximum index for augmentation-charges         1100 (set IRDMAX)


--------------------------------------------------------------------------------------------------------


 First call to EWALD:  gamma=   0.322
 Maximum number of real-space cells 5x 5x 1
 Maximum number of reciprocal cells 2x 2x 8

    FEWALD:  cpu time    0.0010: real time    0.0015


--------------------------------------- Iteration      1(   1)  ---------------------------------------


    POTLOK:  cpu time    0.0160: real time    0.0574
    SETDIJ:  cpu time    0.0020: real time    0.0027
     EDDAV:  cpu time    0.0830: real time    0.0858
       DOS:  cpu time    0.0010: real time    0.0018
    --------------------------------------------
      LOOP:  cpu time    0.1020: real time    0.1478

 eigenvalue-minimisations  :   288
 total energy-change (2. order) : 0.8734391E+02  (-0.4680025E+03)
 number of electron      18.0000000 magnetization 
 augmentation part       18.0000000 magnetization 

 Free energy of the ion-electron system (eV)
  ---------------------------------------------------
  alpha Z        PSCENC =        17.81669054
  Ewald energy   TEWEN  =      2154.71948718
  -Hartree energ DENC   =     -2862.05511697
  -exchange      EXHF   =         0.00000000
  -V(xc)+E(xc)   XCENC  =       -36.31054839
  PAW double counting   =       406.88651198     -329.34073203
  entropy T*S    EENTRO =        -0.01680556
  eigenvalues    EBANDS =       -35.42415101
  atomic energy  EATOM  =       771.06857575
  Solvation  Ediel_sol  =         0.00000000
  ---------------------------------------------------
  free energy    TOTEN  =        87.34391149 eV

  energy without entropy =       87.36071705  energy(sigma->0) =       87.35231427


--------------------------------------------------------------------------------------------------------




--------------------------------------- Iteration      1(   2)  ---------------------------------------


     EDDAV:  cpu time    0.1110: real time    0.1119
       DOS:  cpu time    0.0020: real time    0.0017
    --------------------------------------------
      LOOP:  cpu time    0.1130: real time    0.1136

 eigenvalue-minimisations  :   430
 total energy-change (2. order) :-0.1022053E+03  (-0.9794745E+02)
 number of electron      18.0000000 magnetization 
 augmentation part       18.0000000 magnetization 

 Free energy of the ion-electron system (eV)
  ---------------------------------------------------
  alpha Z        PSCENC =        17.81669054
  Ewald energy   TEWEN  =      2154.71948718
  -Hartree energ DENC   =     -2862.05511697
  -exchange      EXHF   =         0.00000000
  -V(xc)+E(xc)   XCENC  =       -36.31054839
  PAW double counting   =       406.88651198     -329.34073203
  entropy T*S    EENTRO =        -0.00000062
  eigenvalues    EBANDS =      -137.64626298
  atomic energy  EATOM  =       771.06857575
  Solvation  Ediel_sol  =         0.00000000
  ---------------------------------------------------
  free energy    TOTEN  =       -14.86139555 eV

  energy without entropy =      -14.86139493  energy(sigma->0) =      -14.86139524


--------------------------------------------------------------------------------------------------------




--------------------------------------- Iteration      1(   3)  ---------------------------------------


     EDDAV:  cpu time    0.1060: real time    0.1061
       DOS:  cpu time    0.0010: real time    0.0017
    --------------------------------------------
      LOOP:  cpu time    0.1070: real time    0.1078

 eigenvalue-minimisations  :   408
 total energy-change (2. order) :-0.8342712E+01  (-0.8251917E+01)
 number of electron      18.0000000 magnetization 
 augmentation part       18.0000000 magnetization 

 Free energy of the ion-electron system (eV)
  ---------------------------------------------------
  alpha Z        PSCENC =        17.81669054
  Ewald energy   TEWEN  =      2154.71948718
  -Hartree energ DENC   =     -2862.05511697
  -exchange      EXHF   =         0.00000000
  -V(xc)+E(xc)   XCENC  =       -36.31054839
  PAW double counting   =       406.88651198     -329.34073203
  entropy T*S    EENTRO =        -0.00000000
  eigenvalues    EBANDS =      -145.98897552
  atomic energy  EATOM  =       771.06857575
  Solvation  Ediel_sol  =         0.00000000
  ---------------------------------------------------
  free energy    TOTEN  =       -23.20410746 eV

  energy without entropy =      -23.20410746  energy(sigma->0) =      -23.20410746


--------------------------------------------------------------------------------------------------------




--------------------------------------- Iteration      1(   4)  ---------------------------------------


     EDDAV:  cpu time    0.0920: real time    0.0920
       DOS:  cpu time    0.0020: real time    0.0017
    --------------------------------------------
      LOOP:  cpu time    0.0940: real time    0.0937

 eigenvalue-minimisations  :   348
 total energy-change (2. order) :-0.1622931E+00  (-0.1615756E+00)
 number of electron      18.0000000 magnetization 
 augmentation part       18.0000000 magnetization 

 Free energy of the ion-electron system (eV)
  ---------------------------------------------------
  alpha Z        PSCENC =        17.81669054
  Ewald energy   TEWEN  =      2154.71948718
  -Hartree energ DENC   =     -2862.05511697
  -exchange      EXHF   =         0.00000000
  -V(xc)+E(xc)   XCENC  =       -36.31054839
  PAW double counting   =       406.88651198     -329.34073203
  entropy T*S    EENTRO =        -0.00000000
  eigenvalues    EBANDS =      -146.15126867
  atomic energy  EATOM  =       771.06857575
  Solvation  Ediel_sol  =         0.00000000
  ---------------------------------------------------
  free energy    TOTEN  =       -23.36640061 eV

  energy without entropy =      -23.36640061  energy(sigma->0) =      -23.36640061


--------------------------------------------------------------------------------------------------------




--------------------------------------- Iteration      1(   5)  ---------------------------------------


     EDDAV:  cpu time    0.0970: real time    0.0982
       DOS:  cpu time    0.0020: real time    0.0017
    CHARGE:  cpu time    0.0060: real time    0.0062
    MIXING:  cpu time    0.0010: real time    0.0008
    --------------------------------------------
      LOOP:  cpu time    0.1060: real time    0.1069

 eigenvalue-minimisations  :   376
 total energy-change (2. order) :-0.4056923E-02  (-0.4055219E-02)
 number of electron      17.9999944 magnetization 
 augmentation part       -0.9518008 magnetization 

 Broyden mixing:
  rms(total) = 0.69122E+00    rms(broyden)= 0.69106E+00
  rms(prec ) = 0.80239E+00
  weight for this iteration     100.00

 Free energy of the ion-electron system (eV)
  ---------------------------------------------------
  alpha Z        PSCENC =        17.81669054
  Ewald energy   TEWEN  =      2154.71948718
  -Hartree energ DENC   =     -2862.05511697
  -exchange      EXHF   =         0.00000000
  -V(xc)+E(xc)   XCENC  =       -36.31054839
  PAW double counting   =       406.88651198     -329.34073203
  entropy T*S    EENTRO =        -0.00000000
  eigenvalues    EBANDS =      -146.15532559
  atomic energy  EATOM  =       771.06857575
  Solvation  Ediel_sol  =         0.00000000
  ---------------------------------------------------
  free energy    TOTEN  =       -23.37045754 eV

  energy without entropy =      -23.37045754  energy(sigma->0) =      -23.37045754


--------------------------------------------------------------------------------------------------------




--------------------------------------- Iteration      1(   6)  ---------------------------------------


    POTLOK:  cpu time    0.0110: real time    0.0117
    SETDIJ:  cpu time    0.0030: real time    0.0019
    EDDIAG:  cpu time    0.0140: real time    0.0150
  RMM-DIIS:  cpu time    0.0500: real time    0.0496
    ORTHCH:  cpu time    0.0010: real time    0.0017
       DOS:  cpu time    0.0020: real time    0.0017
    CHARGE:  cpu time    0.0060: real time    0.0059
    MIXING:  cpu time    0.0010: real time    0.0008
    --------------------------------------------
      LOOP:  cpu time    0.0880: real time    0.0883

 eigenvalue-minimisations  :   292
 total energy-change (2. order) : 0.1158095E+01  (-0.5383854E+00)
 number of electron      17.9999942 magnetization 
 augmentation part       -0.4080775 magnetization 

 Broyden mixing:
  rms(total) = 0.26312E+00    rms(broyden)= 0.26294E+00
  rms(prec ) = 0.34928E+00
  weight for this iteration     100.00

 eigenvalues of (default mixing * dielectric matrix)
  average eigenvalue GAMMA=   0.8351
  0.8351

 Free energy of the ion-electron system (eV)
  ---------------------------------------------------
  alpha Z        PSCENC =        17.81669054
  Ewald energy   TEWEN  =      2154.71948718
  -Hartree energ DENC   =     -2860.52477639
  -exchange      EXHF   =         0.00000000
  -V(xc)+E(xc)   XCENC  =       -35.41272741
  PAW double counting   =       426.19618000     -349.54132038
  entropy T*S    EENTRO =        -0.00000003
  eigenvalues    EBANDS =      -146.53447175
  atomic energy  EATOM  =       771.06857575
  Solvation  Ediel_sol  =         0.00000000
  ---------------------------------------------------
  free energy    TOTEN  =       -22.21236249 eV

  energy without entropy =      -22.21236246  energy(sigma->0) =      -22.21236248


--------------------------------------------------------------------------------------------------------




--------------------------------------- Iteration      1(   7)  ---------------------------------------


    POTLOK:  cpu time    0.0100: real time    0.0110
    SETDIJ:  cpu time    0.0030: real time    0.0019
    EDDIAG:  cpu time    0.0140: real time    0.0146
  RMM-DIIS:  cpu time    0.0490: real time    0.0486
    ORTHCH:  cpu time    0.0010: real time    0.0017
       DOS:  cpu time    0.0020: real time    0.0017
    CHARGE:  cpu time    0.0050: real time    0.0059
    MIXING:  cpu time    0.0010: real time    0.0005
    --------------------------------------------
      LOOP:  cpu time    0.0850: real time    0.0859

 eigenvalue-minimisations  :   290
 total energy-change (2. order) : 0.3849518E+00  (-0.5295832E-01)
 number of electron      17.9999942 magnetization 
 augmentation part       -0.6049325 magnetization 

 Broyden mixing:
  rms(total) = 0.15076E+00    rms(broyden)= 0.15073E+00
  rms(prec ) = 0.16690E+00
  weight for this iteration     100.00

 eigenvalues of (default mixing * dielectric matrix)
  average eigenvalue GAMMA=   1.3734
  0.6642  2.0826

 Free energy of the ion-electron system (eV)
  ---------------------------------------------------
  alpha Z        PSCENC =        17.81669054
  Ewald energy   TEWEN  =      2154.71948718
  -Hartree energ DENC   =     -2865.22311604
  -exchange      EXHF   =         0.00000000
  -V(xc)+E(xc)   XCENC  =       -35.55088336
  PAW double counting   =       444.57758829     -368.14747000
  entropy T*S    EENTRO =        -0.00000000
  eigenvalues    EBANDS =      -141.08828306
  atomic energy  EATOM  =       771.06857575
  Solvation  Ediel_sol  =         0.00000000
  ---------------------------------------------------
  free energy    TOTEN  =       -21.82741070 eV

  energy without entropy =      -21.82741070  energy(sigma->0) =      -21.82741070


--------------------------------------------------------------------------------------------------------




--------------------------------------- Iteration      1(   8)  ---------------------------------------


    POTLOK:  cpu time    0.0110: real time    0.0112
    SETDIJ:  cpu time    0.0020: real time    0.0019
    EDDIAG:  cpu time    0.0150: real time    0.0145
  RMM-DIIS:  cpu time    0.0510: real time    0.0516
    ORTHCH:  cpu time    0.0020: real time    0.0018
       DOS:  cpu time    0.0020: real time    0.0017
    CHARGE:  cpu time    0.0060: real time    0.0058
    MIXING:  cpu time    0.0000: real time    0.0012
    --------------------------------------------
      LOOP:  cpu time    0.0890: real time    0.0897

 eigenvalue-minimisations  :   304
 total energy-change (2. order) : 0.5953766E-01  (-0.2349692E-01)
 number of electron      17.9999942 magnetization 
 augmentation part       -0.5624749 magnetization 

 Broyden mixing:
  rms(total) = 0.35249E-01    rms(broyden)= 0.35224E-01
  rms(prec ) = 0.39827E-01
  weight for this iteration     100.00

 eigenvalues of (default mixing * dielectric matrix)
  average eigenvalue GAMMA=   1.4924
  1.9072  1.9072  0.6628

 Free energy of the ion-electron system (eV)
  ---------------------------------------------------
  alpha Z        PSCENC =        17.81669054
  Ewald energy   TEWEN  =      2154.71948718
  -Hartree energ DENC   =     -2868.83945554
  -exchange      EXHF   =         0.00000000
  -V(xc)+E(xc)   XCENC  =       -35.27278189
  PAW double counting   =       470.98479792     -395.07668753
  entropy T*S    EENTRO =        -0.00000000
  eigenvalues    EBANDS =      -137.16849948
  atomic energy  EATOM  =       771.06857575
  Solvation  Ediel_sol  =         0.00000000
  ---------------------------------------------------
  free energy    TOTEN  =       -21.76787304 eV

  energy without entropy =      -21.76787304  energy(sigma->0) =      -21.76787304


--------------------------------------------------------------------------------------------------------




--------------------------------------- Iteration      1(   9)  ---------------------------------------


    POTLOK:  cpu time    0.0110: real time    0.0113
    SETDIJ:  cpu time    0.0020: real time    0.0019
    EDDIAG:  cpu time    0.0150: real time    0.0145
  RMM-DIIS:  cpu time    0.0570: real time    0.0570
    ORTHCH:  cpu time    0.0010: real time    0.0017
       DOS:  cpu time    0.0020: real time    0.0017
    CHARGE:  cpu time    0.0060: real time    0.0058
    MIXING:  cpu time    0.0000: real time    0.0006
    --------------------------------------------
      LOOP:  cpu time    0.0940: real time    0.0947

 eigenvalue-minimisations  :   333
 total energy-change (2. order) : 0.4540946E-02  (-0.8012524E-03)
 number of electron      17.9999942 magnetization 
 augmentation part       -0.5573544 magnetization 

 Broyden mixing:
  rms(total) = 0.96295E-02    rms(broyden)= 0.96222E-02
  rms(prec ) = 0.13728E-01
  weight for this iteration     100.00

 eigenvalues of (default mixing * dielectric matrix)
  average eigenvalue GAMMA=   1.5052
  0.6648  1.0464  2.4451  1.8647

 Free energy of the ion-electron system (eV)
  ---------------------------------------------------
  alpha Z        PSCENC =        17.81669054
  Ewald energy   TEWEN  =      2154.71948718
  -Hartree energ DENC   =     -2869.98009670
  -exchange      EXHF   =         0.00000000
  -V(xc)+E(xc)   XCENC  =       -35.21637313
  PAW double counting   =       476.78902603     -400.96037797
  entropy T*S    EENTRO =        -0.00000000
  eigenvalues    EBANDS =      -136.00026379
  atomic energy  EATOM  =       771.06857575
  Solvation  Ediel_sol  =         0.00000000
  ---------------------------------------------------
  free energy    TOTEN  =       -21.76333210 eV

  energy without entropy =      -21.76333210  energy(sigma->0) =      -21.76333210


--------------------------------------------------------------------------------------------------------




--------------------------------------- Iteration      1(  10)  ---------------------------------------


    POTLOK:  cpu time    0.0120: real time    0.0114
    SETDIJ:  cpu time    0.0020: real time    0.0019
    EDDIAG:  cpu time    0.0140: real time    0.0145
  RMM-DIIS:  cpu time    0.0580: real time    0.0571
    ORTHCH:  cpu time    0.0010: real time    0.0017
       DOS:  cpu time    0.0020: real time    0.0017
    CHARGE:  cpu time    0.0060: real time    0.0058
    MIXING:  cpu time    0.0000: real time    0.0006
    --------------------------------------------
      LOOP:  cpu time    0.0950: real time    0.0948

 eigenvalue-minimisations  :   332
 total energy-change (2. order) : 0.6942968E-03  (-0.1779133E-03)
 number of electron      17.9999942 magnetization 
 augmentation part       -0.5615919 magnetization 

 Broyden mixing:
  rms(total) = 0.45380E-02    rms(broyden)= 0.45307E-02
  rms(prec ) = 0.73226E-02
  weight for this iteration     100.00

 eigenvalues of (default mixing * dielectric matrix)
  average eigenvalue GAMMA=   1.6839
  0.6654  1.0310  2.2880  2.2880  2.1473

 Free energy of the ion-electron system (eV)
  ---------------------------------------------------
  alpha Z        PSCENC =        17.81669054
  Ewald energy   TEWEN  =      2154.71948718
  -Hartree energ DENC   =     -2871.01826944
  -exchange      EXHF   =         0.00000000
  -V(xc)+E(xc)   XCENC  =       -35.19208520
  PAW double counting   =       479.42867874     -403.63297191
  entropy T*S    EENTRO =        -0.00000000
  eigenvalues    EBANDS =      -134.95274346
  atomic energy  EATOM  =       771.06857575
  Solvation  Ediel_sol  =         0.00000000
  ---------------------------------------------------
  free energy    TOTEN  =       -21.76263780 eV

  energy without entropy =      -21.76263780  energy(sigma->0) =      -21.76263780


--------------------------------------------------------------------------------------------------------




--------------------------------------- Iteration      1(  11)  ---------------------------------------


    POTLOK:  cpu time    0.0120: real time    0.0151
    SETDIJ:  cpu time    0.0020: real time    0.0020
    EDDIAG:  cpu time    0.0150: real time    0.0145
  RMM-DIIS:  cpu time    0.0530: real time    0.0536
    ORTHCH:  cpu time    0.0020: real time    0.0017
       DOS:  cpu time    0.0020: real time    0.0017
    CHARGE:  cpu time    0.0060: real time    0.0059
    MIXING:  cpu time    0.0000: real time    0.0006
    --------------------------------------------
      LOOP:  cpu time    0.0920: real time    0.0952

 eigenvalue-minimisations  :   312
 total energy-change (2. order) :-0.7127351E-04  (-0.2305056E-03)
 number of electron      17.9999942 magnetization 
 augmentation part       -0.5578560 magnetization 

 Broyden mixing:
  rms(total) = 0.65115E-02    rms(broyden)= 0.65062E-02
  rms(prec ) = 0.78826E-02
  weight for this iteration     100.00

 eigenvalues of (default mixing * dielectric matrix)
  average eigenvalue GAMMA=   1.6665
  2.9108  2.7032  0.6658  1.4022  1.4022  0.9149

 Free energy of the ion-electron system (eV)
  ---------------------------------------------------
  alpha Z        PSCENC =        17.81669054
  Ewald energy   TEWEN  =      2154.71948718
  -Hartree energ DENC   =     -2872.18793872
  -exchange      EXHF   =         0.00000000
  -V(xc)+E(xc)   XCENC  =       -35.17733472
  PAW double counting   =       478.66815503     -402.85997118
  entropy T*S    EENTRO =        -0.00000000
  eigenvalues    EBANDS =      -133.81037295
  atomic energy  EATOM  =       771.06857575
  Solvation  Ediel_sol  =         0.00000000
  ---------------------------------------------------
  free energy    TOTEN  =       -21.76270908 eV

  energy without entropy =      -21.76270908  energy(sigma->0) =      -21.76270908


--------------------------------------------------------------------------------------------------------




--------------------------------------- Iteration      1(  12)  ---------------------------------------


    POTLOK:  cpu time    0.0110: real time    0.0117
    SETDIJ:  cpu time    0.0030: real time    0.0019
    EDDIAG:  cpu time    0.0140: real time    0.0145
  RMM-DIIS:  cpu time    0.0530: real time    0.0523
    ORTHCH:  cpu time    0.0000: real time    0.0017
       DOS:  cpu time    0.0030: real time    0.0017
    CHARGE:  cpu time    0.0050: real time    0.0059
    MIXING:  cpu time    0.0010: real time    0.0007
    --------------------------------------------
      LOOP:  cpu time    0.0900: real time    0.0905

 eigenvalue-minimisations  :   303
 total energy-change (2. order) : 0.1482294E-03  (-0.7604496E-04)
 number of electron      17.9999942 magnetization 
 augmentation part       -0.5605657 magnetization 

 Broyden mixing:
  rms(total) = 0.16551E-02    rms(broyden)= 0.16387E-02
  rms(prec ) = 0.24515E-02
  weight for this iteration     100.00

 eigenvalues of (default mixing * dielectric matrix)
  average eigenvalue GAMMA=   1.9623
  4.0262  2.7060  2.7060  0.6658  0.9695  1.3313  1.3313

 Free energy of the ion-electron system (eV)
  ---------------------------------------------------
  alpha Z        PSCENC =        17.81669054
  Ewald energy   TEWEN  =      2154.71948718
  -Hartree energ DENC   =     -2872.65930650
  -exchange      EXHF   =         0.00000000
  -V(xc)+E(xc)   XCENC  =       -35.17517580
  PAW double counting   =       478.84742367     -403.03677558
  entropy T*S    EENTRO =        -0.00000000
  eigenvalues    EBANDS =      -133.34348010
  atomic energy  EATOM  =       771.06857575
  Solvation  Ediel_sol  =         0.00000000
  ---------------------------------------------------
  free energy    TOTEN  =       -21.76256085 eV

  energy without entropy =      -21.76256085  energy(sigma->0) =      -21.76256085


--------------------------------------------------------------------------------------------------------




--------------------------------------- Iteration      1(  13)  ---------------------------------------


    POTLOK:  cpu time    0.0120: real time    0.0121
    SETDIJ:  cpu time    0.0020: real time    0.0019
    EDDIAG:  cpu time    0.0150: real time    0.0145
  RMM-DIIS:  cpu time    0.0490: real time    0.0495
    ORTHCH:  cpu time    0.0010: real time    0.0017
       DOS:  cpu time    0.0020: real time    0.0017
    CHARGE:  cpu time    0.0060: real time    0.0059
    MIXING:  cpu time    0.0010: real time    0.0007
    --------------------------------------------
      LOOP:  cpu time    0.0880: real time    0.0880

 eigenvalue-minimisations  :   298
 total energy-change (2. order) :-0.3533885E-03  (-0.1246830E-04)
 number of electron      17.9999942 magnetization 
 augmentation part       -0.5593402 magnetization 

 Broyden mixing:
  rms(total) = 0.18134E-02    rms(broyden)= 0.17991E-02
  rms(prec ) = 0.21748E-02
  weight for this iteration     100.00

 eigenvalues of (default mixing * dielectric matrix)
  average eigenvalue GAMMA=   1.9024
  4.7555  2.7033  2.3353  1.4191  1.4191  0.6659  0.9607  0.9607

 Free energy of the ion-electron system (eV)
  ---------------------------------------------------
  alpha Z        PSCENC =        17.81669054
  Ewald energy   TEWEN  =      2154.71948718
  -Hartree energ DENC   =     -2873.17877391
  -exchange      EXHF   =         0.00000000
  -V(xc)+E(xc)   XCENC  =       -35.17005788
  PAW double counting   =       478.78924891     -402.98349696
  entropy T*S    EENTRO =        -0.00000000
  eigenvalues    EBANDS =      -132.82458787
  atomic energy  EATOM  =       771.06857575
  Solvation  Ediel_sol  =         0.00000000
  ---------------------------------------------------
  free energy    TOTEN  =       -21.76291423 eV

  energy without entropy =      -21.76291423  energy(sigma->0) =      -21.76291423


--------------------------------------------------------------------------------------------------------




--------------------------------------- Iteration      1(  14)  ---------------------------------------


    POTLOK:  cpu time    0.0120: real time    0.0123
    SETDIJ:  cpu time    0.0030: real time    0.0019
    EDDIAG:  cpu time    0.0140: real time    0.0145
  RMM-DIIS:  cpu time    0.0530: real time    0.0527
    ORTHCH:  cpu time    0.0010: real time    0.0017
       DOS:  cpu time    0.0020: real time    0.0017
    CHARGE:  cpu time    0.0050: real time    0.0059
    MIXING:  cpu time    0.0010: real time    0.0008
    --------------------------------------------
      LOOP:  cpu time    0.0910: real time    0.0914

 eigenvalue-minimisations  :   312
 total energy-change (2. order) :-0.2798035E-04  (-0.2343966E-05)
 number of electron      17.9999942 magnetization 
 augmentation part       -0.5604814 magnetization 

 Broyden mixing:
  rms(total) = 0.54383E-03    rms(broyden)= 0.49422E-03
  rms(prec ) = 0.77461E-03
  weight for this iteration     100.00

 eigenvalues of (default mixing * dielectric matrix)
  average eigenvalue GAMMA=   2.1568
  6.4051  2.9960  2.3632  2.3632  1.5078  0.6659  1.1769  0.9663  0.9663

 Free energy of the ion-electron system (eV)
  ---------------------------------------------------
  alpha Z        PSCENC =        17.81669054
  Ewald energy   TEWEN  =      2154.71948718
  -Hartree energ DENC   =     -2873.26811692
  -exchange      EXHF   =         0.00000000
  -V(xc)+E(xc)   XCENC  =       -35.17248005
  PAW double counting   =       478.62798775     -402.81818821
  entropy T*S    EENTRO =        -0.00000000
  eigenvalues    EBANDS =      -132.73689827
  atomic energy  EATOM  =       771.06857575
  Solvation  Ediel_sol  =         0.00000000
  ---------------------------------------------------
  free energy    TOTEN  =       -21.76294222 eV

  energy without entropy =      -21.76294222  energy(sigma->0) =      -21.76294222


--------------------------------------------------------------------------------------------------------




--------------------------------------- Iteration      1(  15)  ---------------------------------------


    POTLOK:  cpu time    0.0120: real time    0.0121
    SETDIJ:  cpu time    0.0030: real time    0.0020
    EDDIAG:  cpu time    0.0140: real time    0.0145
  RMM-DIIS:  cpu time    0.0450: real time    0.0454
    ORTHCH:  cpu time    0.0020: real time    0.0017
       DOS:  cpu time    0.0010: real time    0.0017
    CHARGE:  cpu time    0.0060: real time    0.0059
    MIXING:  cpu time    0.0010: real time    0.0008
    --------------------------------------------
      LOOP:  cpu time    0.0840: real time    0.0840

 eigenvalue-minimisations  :   273
 total energy-change (2. order) :-0.6097607E-04  (-0.1276839E-05)
 number of electron      17.9999942 magnetization 
 augmentation part       -0.5600504 magnetization 

 Broyden mixing:
  rms(total) = 0.38476E-03    rms(broyden)= 0.31111E-03
  rms(prec ) = 0.46755E-03
  weight for this iteration     100.00
  WARNING: grid for Broyden might be to small

 eigenvalues of (default mixing * dielectric matrix)
  average eigenvalue GAMMA=   2.1122
  6.2408  3.4101  2.6017  1.7697  1.7697  1.6328  0.6659  1.0400  1.0400  0.9512

 Free energy of the ion-electron system (eV)
  ---------------------------------------------------
  alpha Z        PSCENC =        17.81669054
  Ewald energy   TEWEN  =      2154.71948718
  -Hartree energ DENC   =     -2873.36725504
  -exchange      EXHF   =         0.00000000
  -V(xc)+E(xc)   XCENC  =       -35.17216343
  PAW double counting   =       478.66466931     -402.85551790
  entropy T*S    EENTRO =        -0.00000000
  eigenvalues    EBANDS =      -132.63748961
  atomic energy  EATOM  =       771.06857575
  Solvation  Ediel_sol  =         0.00000000
  ---------------------------------------------------
  free energy    TOTEN  =       -21.76300319 eV

  energy without entropy =      -21.76300319  energy(sigma->0) =      -21.76300319


--------------------------------------------------------------------------------------------------------




--------------------------------------- Iteration      1(  16)  ---------------------------------------


    POTLOK:  cpu time    0.0120: real time    0.0119
    SETDIJ:  cpu time    0.0020: real time    0.0019
    EDDIAG:  cpu time    0.0140: real time    0.0145
  RMM-DIIS:  cpu time    0.0420: real time    0.0415
    ORTHCH:  cpu time    0.0020: real time    0.0017
       DOS:  cpu time    0.0010: real time    0.0017
    CHARGE:  cpu time    0.0060: real time    0.0059
    MIXING:  cpu time    0.0010: real time    0.0009
    --------------------------------------------
      LOOP:  cpu time    0.0800: real time    0.0800

 eigenvalue-minimisations  :   230
 total energy-change (2. order) :-0.2103106E-04  (-0.3032641E-06)
 number of electron      17.9999942 magnetization 
 augmentation part       -0.5603687 magnetization 

 Broyden mixing:
  rms(total) = 0.31947E-03    rms(broyden)= 0.22546E-03
  rms(prec ) = 0.31902E-03
  weight for this iteration     100.00
  WARNING: grid for Broyden might be to small

 eigenvalues of (default mixing * dielectric matrix)
  average eigenvalue GAMMA=   2.2707
  6.5036  4.5673  2.8747  2.5621  2.1891  1.4985  0.6659  1.2070  0.9880  0.9880
  0.9333

 Free energy of the ion-electron system (eV)
  ---------------------------------------------------
  alpha Z        PSCENC =        17.81669054
  Ewald energy   TEWEN  =      2154.71948718
  -Hartree energ DENC   =     -2873.41362422
  -exchange      EXHF   =         0.00000000
  -V(xc)+E(xc)   XCENC  =       -35.17222995
  PAW double counting   =       478.72108377     -402.91263105
  entropy T*S    EENTRO =        -0.00000000
  eigenvalues    EBANDS =      -132.59037625
  atomic energy  EATOM  =       771.06857575
  Solvation  Ediel_sol  =         0.00000000
  ---------------------------------------------------
  free energy    TOTEN  =       -21.76302422 eV

  energy without entropy =      -21.76302422  energy(sigma->0) =      -21.76302422


--------------------------------------------------------------------------------------------------------




--------------------------------------- Iteration      1(  17)  ---------------------------------------


    POTLOK:  cpu time    0.0110: real time    0.0114
    SETDIJ:  cpu time    0.0020: real time    0.0019
    EDDIAG:  cpu time    0.0150: real time    0.0145
  RMM-DIIS:  cpu time    0.0390: real time    0.0390
    ORTHCH:  cpu time    0.0020: real time    0.0017
       DOS:  cpu time    0.0010: real time    0.0017
    CHARGE:  cpu time    0.0050: real time    0.0059
    MIXING:  cpu time    0.0010: real time    0.0009
    --------------------------------------------
      LOOP:  cpu time    0.0760: real time    0.0772

 eigenvalue-minimisations  :   211
 total energy-change (2. order) :-0.3401730E-04  (-0.3045385E-06)
 number of electron      17.9999942 magnetization 
 augmentation part       -0.5602050 magnetization 

 Broyden mixing:
  rms(total) = 0.28343E-03    rms(broyden)= 0.17065E-03
  rms(prec ) = 0.20089E-03
  weight for this iteration     100.00
  WARNING: grid for Broyden might be to small

 eigenvalues of (default mixing * dielectric matrix)
  average eigenvalue GAMMA=   2.1900
  6.6964  4.8019  2.8964  2.4680  2.2082  1.4784  0.6659  1.3030  0.9726  0.9726
  0.9352  0.8812

 Free energy of the ion-electron system (eV)
  ---------------------------------------------------
  alpha Z        PSCENC =        17.81669054
  Ewald energy   TEWEN  =      2154.71948718
  -Hartree energ DENC   =     -2873.44954451
  -exchange      EXHF   =         0.00000000
  -V(xc)+E(xc)   XCENC  =       -35.17217067
  PAW double counting   =       478.67507421     -402.86568336
  entropy T*S    EENTRO =        -0.00000000
  eigenvalues    EBANDS =      -132.55548738
  atomic energy  EATOM  =       771.06857575
  Solvation  Ediel_sol  =         0.00000000
  ---------------------------------------------------
  free energy    TOTEN  =       -21.76305824 eV

  energy without entropy =      -21.76305824  energy(sigma->0) =      -21.76305824


--------------------------------------------------------------------------------------------------------




--------------------------------------- Iteration      1(  18)  ---------------------------------------


    POTLOK:  cpu time    0.0120: real time    0.0115
    SETDIJ:  cpu time    0.0020: real time    0.0019
    EDDIAG:  cpu time    0.0150: real time    0.0145
  RMM-DIIS:  cpu time    0.0390: real time    0.0391
    ORTHCH:  cpu time    0.0010: real time    0.0017
       DOS:  cpu time    0.0020: real time    0.0017
    CHARGE:  cpu time    0.0060: real time    0.0059
    MIXING:  cpu time    0.0010: real time    0.0010
    --------------------------------------------
      LOOP:  cpu time    0.0780: real time    0.0774

 eigenvalue-minimisations  :   189
 total energy-change (2. order) :-0.5078077E-05  (-0.4408480E-07)
 number of electron      17.9999942 magnetization 
 augmentation part       -0.5602057 magnetization 

 Broyden mixing:
  rms(total) = 0.23717E-03    rms(broyden)= 0.71030E-04
  rms(prec ) = 0.89612E-04
  weight for this iteration     100.00
  WARNING: grid for Broyden might be to small

 eigenvalues of (default mixing * dielectric matrix)
  average eigenvalue GAMMA=   2.3846
  6.7050  6.7050  2.9111  2.9111  2.3863  1.9784  1.6156  0.6659  1.1135  1.1135
  1.0585  0.9426  0.8927

 Free energy of the ion-electron system (eV)
  ---------------------------------------------------
  alpha Z        PSCENC =        17.81669054
  Ewald energy   TEWEN  =      2154.71948718
  -Hartree energ DENC   =     -2873.45075273
  -exchange      EXHF   =         0.00000000
  -V(xc)+E(xc)   XCENC  =       -35.17217074
  PAW double counting   =       478.68561793     -402.87646674
  entropy T*S    EENTRO =        -0.00000000
  eigenvalues    EBANDS =      -132.55404451
  atomic energy  EATOM  =       771.06857575
  Solvation  Ediel_sol  =         0.00000000
  ---------------------------------------------------
  free energy    TOTEN  =       -21.76306332 eV

  energy without entropy =      -21.76306332  energy(sigma->0) =      -21.76306332


--------------------------------------------------------------------------------------------------------




--------------------------------------- Iteration      1(  19)  ---------------------------------------


    POTLOK:  cpu time    0.0110: real time    0.0113
    SETDIJ:  cpu time    0.0020: real time    0.0019
    EDDIAG:  cpu time    0.0150: real time    0.0145
  RMM-DIIS:  cpu time    0.0390: real time    0.0387
    ORTHCH:  cpu time    0.0010: real time    0.0017
       DOS:  cpu time    0.0020: real time    0.0017
    CHARGE:  cpu time    0.0060: real time    0.0059
    MIXING:  cpu time    0.0010: real time    0.0010
    --------------------------------------------
      LOOP:  cpu time    0.0770: real time    0.0768

 eigenvalue-minimisations  :   198
 total energy-change (2. order) :-0.6537089E-05  (-0.7077640E-07)
 number of electron      17.9999942 magnetization 
 augmentation part       -0.5602514 magnetization 

 Broyden mixing:
  rms(total) = 0.23380E-03    rms(broyden)= 0.58820E-04
  rms(prec ) = 0.67650E-04
  weight for this iteration     100.00
  WARNING: grid for Broyden might be to small

 eigenvalues of (default mixing * dielectric matrix)
  average eigenvalue GAMMA=   2.5084
  8.3265  6.6802  3.8229  2.8090  2.4560  2.0289  1.6455  1.6455  0.6659  1.0979
  1.0979  0.9732  0.9343  0.9343

 Free energy of the ion-electron system (eV)
  ---------------------------------------------------
  alpha Z        PSCENC =        17.81669054
  Ewald energy   TEWEN  =      2154.71948718
  -Hartree energ DENC   =     -2873.45528176
  -exchange      EXHF   =         0.00000000
  -V(xc)+E(xc)   XCENC  =       -35.17223831
  PAW double counting   =       478.68956683     -402.88056944
  entropy T*S    EENTRO =        -0.00000000
  eigenvalues    EBANDS =      -132.54930064
  atomic energy  EATOM  =       771.06857575
  Solvation  Ediel_sol  =         0.00000000
  ---------------------------------------------------
  free energy    TOTEN  =       -21.76306985 eV

  energy without entropy =      -21.76306985  energy(sigma->0) =      -21.76306985


--------------------------------------------------------------------------------------------------------




--------------------------------------- Iteration      1(  20)  ---------------------------------------


    POTLOK:  cpu time    0.0110: real time    0.0113
    SETDIJ:  cpu time    0.0020: real time    0.0019
    EDDIAG:  cpu time    0.0140: real time    0.0145
  RMM-DIIS:  cpu time    0.0350: real time    0.0343
    ORTHCH:  cpu time    0.0010: real time    0.0017
       DOS:  cpu time    0.0020: real time    0.0017
    --------------------------------------------
      LOOP:  cpu time    0.0650: real time    0.0654

 eigenvalue-minimisations  :   137
 total energy-change (2. order) :-0.1741682E-09  (-0.9719076E-08)
 number of electron      17.9999942 magnetization 
 augmentation part       -0.5602514 magnetization 

 Free energy of the ion-electron system (eV)
  ---------------------------------------------------
  alpha Z        PSCENC =        17.81669054
  Ewald energy   TEWEN  =      2154.71948718
  -Hartree energ DENC   =     -2873.45968237
  -exchange      EXHF   =         0.00000000
  -V(xc)+E(xc)   XCENC  =       -35.17217920
  PAW double counting   =       478.68875604     -402.87975028
  entropy T*S    EENTRO =        -0.00000000
  eigenvalues    EBANDS =      -132.54496752
  atomic energy  EATOM  =       771.06857575
  Solvation  Ediel_sol  =         0.00000000
  ---------------------------------------------------
  free energy    TOTEN  =       -21.76306985 eV

  energy without entropy =      -21.76306985  energy(sigma->0) =      -21.76306985


--------------------------------------------------------------------------------------------------------




 average (electrostatic) potential at core
  the test charge radii are     1.2296  0.9698
  (the norm of the test charge is              1.0000)
       1 -45.8289       2 -93.6814       3 -93.6814
 
 
 
 E-fermi :  -1.5500     XC(G=0):  -4.0466     alpha+bet : -3.7975


 k-point     1 :       0.0000    0.0000    0.0000
  band No.  band energies     occupation 
      1     -16.4112      2.00000
      2     -15.2028      2.00000
      3      -7.9211      2.00000
      4      -4.9593      2.00000
      5      -4.9590      2.00000
      6      -4.0997      2.00000
      7      -3.8520      2.00000
      8      -3.8516      2.00000
      9      -2.3770      2.00000
     10       0.3968      0.00000
     11       0.3976      0.00000
     12       0.6197      0.00000
     13       0.6204      0.00000
     14       3.0012      0.00000

 k-point     2 :       0.1250   -0.0000    0.0000
  band No.  band energies     occupation 
      1     -16.1971      2.00000
      2     -15.1003      2.00000
      3      -7.6761      2.00000
      4      -5.4236      2.00000
      5      -4.9064      2.00000
      6      -4.7248      2.00000
      7      -4.1880      2.00000
      8      -3.4209      2.00000
      9      -2.5155      2.00000
     10       0.1143      0.00000
     11       0.1811      0.00000
     12       0.3827      0.00000
     13       0.7516      0.00000
     14       3.3640      0.00000

 k-point     3 :       0.2500   -0.0000    0.0000
  band No.  band energies     occupation 
      1     -15.6286      2.00000
      2     -14.8315      2.00000
      3      -7.3104      2.00000
      4      -6.1518      2.00000
      5      -5.8878      2.00000
      6      -4.8246      2.00000
      7      -4.1391      2.00000
      8      -3.6725      2.00000
      9      -3.0841      2.00000
     10      -0.2094      0.00000
     11      -0.0343      0.00000
     12       0.5086      0.00000
     13       1.3665      0.00000
     14       4.1920      0.00000

 k-point     4 :       0.3750   -0.0000    0.0000
  band No.  band energies     occupation 
      1     -14.9537      2.00000
      2     -14.5229      2.00000
      3      -7.7494      2.00000
      4      -6.7569      2.00000
      5      -6.2827      2.00000
      6      -5.3230      2.00000
      7      -4.0812      2.00000
      8      -3.5493      2.00000
      9      -3.2782      2.00000
     10      -0.2170      0.00000
     11       0.0629      0.00000
     12       1.2274      0.00000
     13       1.7593      0.00000
     14       4.7823      0.00000

 k-point     5 :       0.5000   -0.0000    0.0000
  band No.  band energies     occupation 
      1     -14.6254      2.00000
      2     -14.3796      2.00000
      3      -8.0822      2.00000
      4      -7.1230      2.00000
      5      -6.4082      2.00000
      6      -5.5042      2.00000
      7      -4.2198      2.00000
      8      -3.3217      2.00000
      9      -2.9966      2.00000
     10      -0.1953      0.00000
     11       0.3195      0.00000
     12       1.5272      0.00000
     13       1.8750      0.00000
     14       3.8286      0.00000

 k-point     6 :       0.1250    0.1250    0.0000
  band No.  band energies     occupation 
      1     -15.8045      2.00000
      2     -14.9132      2.00000
      3      -7.3282      2.00000
      4      -5.9887      2.00000
      5      -5.4689      2.00000
      6      -5.0023      2.00000
      7      -4.3863      2.00000
      8      -3.2855      2.00000
      9      -2.8881      2.00000
     10      -0.2844      0.00000
     11       0.0933      0.00000
     12       0.1049      0.00000
     13       1.3452      0.00000
     14       3.9571      0.00000

 k-point     7 :       0.2500    0.1250    0.0000
  band No.  band energies     occupation 
      1     -15.1711      2.00000
      2     -14.6146      2.00000
      3      -7.3927      2.00000
      4      -6.4149      2.00000
      5      -6.1516      2.00000
      6      -5.5076      2.00000
      7      -4.2871      2.00000
      8      -3.6484      2.00000
      9      -3.1720      2.00000
     10      -0.3682      0.00000
     11       0.0785      0.00000
     12       0.5754      0.00000
     13       1.8512      0.00000
     14       4.9546      0.00000

 k-point     8 :       0.3750    0.1250    0.0000
  band No.  band energies     occupation 
      1     -14.6407      2.00000
      2     -14.3707      2.00000
      3      -7.7948      2.00000
      4      -7.1788      2.00000
      5      -6.2805      2.00000
      6      -5.5253      2.00000
      7      -4.2722      2.00000
      8      -4.1297      2.00000
      9      -2.8453      2.00000
     10      -0.1762      0.00000
     11       0.3338      0.00000
     12       1.1990      0.00000
     13       1.8853      0.00000
     14       4.3550      0.00000

 k-point     9 :       0.2500    0.2500    0.0000
  band No.  band energies     occupation 
      1     -14.6557      2.00000
      2     -14.3618      2.00000
      3      -7.4342      2.00000
      4      -7.2289      2.00000
      5      -5.9541      2.00000
      6      -5.5739      2.00000
      7      -5.2545      2.00000
      8      -3.9972      2.00000
      9      -2.8750      2.00000
     10      -0.2270      0.00000
     11       0.3845      0.00000
     12       0.7006      0.00000
     13       2.1691      0.00000
     14       5.1846      0.00000

 k-point    10 :       0.3750    0.2500    0.0000
  band No.  band energies     occupation 
      1     -14.4207      2.00000
      2     -14.2427      2.00000
      3      -7.6135      2.00000
      4      -7.2647      2.00000
      5      -6.2379      2.00000
      6      -5.5758      2.00000
      7      -5.3476      2.00000
      8      -4.3824      2.00000
      9      -2.5077      2.00000
     10      -0.5532      0.00000
     11       0.7618      0.00000
     12       0.9337      0.00000
     13       2.3125      0.00000
     14       4.5986      0.00000


--------------------------------------------------------------------------------------------------------


 soft charge-density along one line, spin component           1
         0         1         2         3         4         5         6         7         8         9
 total charge-density along one line
 
 pseudopotential strength for first ion, spin component:           1
 -9.706  -0.000  -0.000   0.000  -0.000   0.074   0.000   0.000
 -0.000  -9.706  -0.000  -0.000  -0.000   0.000   0.074   0.000
 -0.000  -0.000  -9.685  -0.000   0.000   0.000   0.000   0.072
  0.000  -0.000  -0.000  -9.706   0.000  -0.000   0.000   0.000
 -0.000  -0.000   0.000   0.000  -9.706   0.000   0.000  -0.000
  0.074   0.000   0.000  -0.000   0.000   0.100  -0.000  -0.000
  0.000   0.074   0.000   0.000   0.000  -0.000   0.100  -0.000
  0.000   0.000   0.072   0.000  -0.000  -0.000  -0.000   0.100
 -0.000   0.000   0.000   0.074  -0.000   0.000   0.000  -0.000
  0.000   0.000  -0.000  -0.000   0.074  -0.000  -0.000   0.000
 -0.000  -0.000  -0.005  -0.000   0.000   0.000   0.000   0.000
  0.000   0.000   0.001   0.000  -0.000  -0.000  -0.000  -0.000
 -0.000  -0.000  -0.000  -0.000  -0.007   0.000  -0.000   0.000
 -0.000   0.000   0.000  -0.000  -0.000  -0.000  -0.000   0.000
 -0.007  -0.000   0.000  -0.000  -0.000  -0.000  -0.000  -0.000
  0.000   0.000   0.000   0.000   0.004  -0.000  -0.000  -0.000
  0.000  -0.000  -0.000   0.000   0.000  -0.000   0.000  -0.000
  0.004   0.000  -0.000   0.000   0.000   0.000  -0.000   0.000
 total augmentation occupancy for first ion, spin component:           1
  0.970  -0.000  -0.000   0.000  -0.000   0.662   0.000  -0.000   0.000   0.000  -0.000   0.000   0.000   0.000  -0.066  -0.000
  0.000   0.911   0.000   0.000   0.000  -0.000   0.897   0.000   0.000   0.000   0.000   0.000  -0.000   0.000   0.000   0.000
 -0.000   0.000   1.035   0.000   0.000  -0.000   0.000   0.566  -0.000   0.000   0.111  -0.019  -0.000   0.000   0.000   0.000
  0.000   0.000   0.000   0.911  -0.000   0.000   0.000   0.000   0.897   0.000   0.000   0.000   0.000   0.000   0.000  -0.000
 -0.000   0.000   0.000   0.000   0.970   0.000   0.000   0.000   0.000   0.662   0.000  -0.000  -0.066   0.000  -0.000   0.007
  0.662  -0.000  -0.000   0.000  -0.000   0.769   0.000  -0.000   0.000   0.000  -0.000   0.000   0.000   0.000  -0.143  -0.000
  0.000   0.897   0.000   0.000   0.000   0.000   1.205   0.000   0.000  -0.000  -0.000   0.000   0.000  -0.000   0.000   0.000
 -0.000  -0.000   0.566   0.000   0.000  -0.000   0.000   0.550   0.000   0.000   0.066  -0.023  -0.000  -0.000   0.000   0.000
  0.000   0.000  -0.000   0.897  -0.000  -0.000   0.000   0.000   1.205  -0.000   0.000   0.000  -0.000   0.000   0.000   0.000
 -0.000   0.000   0.000   0.000   0.662  -0.000  -0.000   0.000   0.000   0.769   0.000  -0.000  -0.143   0.000  -0.000   0.024
 -0.000   0.000   0.111   0.000   0.000  -0.000  -0.000   0.066   0.000   0.000   1.210  -0.183   0.000   0.000   0.000   0.000
  0.000   0.000  -0.019   0.000  -0.000   0.000   0.000  -0.023   0.000  -0.000  -0.183   0.041   0.000   0.000   0.000  -0.000
  0.000   0.000  -0.000   0.000  -0.066   0.000  -0.000  -0.000  -0.000  -0.143   0.000   0.000   0.217   0.000   0.000  -0.033
  0.000   0.000  -0.000   0.000  -0.000   0.000   0.000  -0.000  -0.000   0.000   0.000   0.000   0.000   0.265   0.000   0.000
 -0.066   0.000   0.000   0.000  -0.000  -0.143   0.000   0.000  -0.000  -0.000   0.000   0.000   0.000   0.000   0.217  -0.000
 -0.000  -0.000   0.000   0.000   0.007  -0.000  -0.000   0.000  -0.000   0.024  -0.000   0.000  -0.033   0.000  -0.000   0.005
  0.000  -0.000  -0.000  -0.000   0.000   0.000   0.000  -0.000   0.000   0.000   0.000  -0.000   0.000  -0.039   0.000   0.000
  0.007   0.000  -0.000  -0.000   0.000   0.024  -0.000  -0.000  -0.000   0.000  -0.000   0.000  -0.000   0.000  -0.033   0.000


------------------------ aborting loop because EDIFF is reached ----------------------------------------


 


 total charge     
 
# of ion       s       p       d       tot
------------------------------------------
    1        0.414   0.593   4.443   5.450
    2        1.366   2.356   0.000   3.722
    3        1.366   2.356   0.000   3.722
--------------------------------------------------
tot          3.145   5.305   4.443  12.894
 
    CHARGE:  cpu time    0.0060: real time    0.0064
    FORLOC:  cpu time    0.0010: real time    0.0011
    FORNL :  cpu time    0.0280: real time    0.0271
    STRESS:  cpu time    0.0820: real time    0.0826
    FORCOR:  cpu time    0.0120: real time    0.0125
    FORHAR:  cpu time    0.0030: real time    0.0027
    MIXING:  cpu time    0.0010: real time    0.0011
    OFIELD:  cpu time    0.0000: real time    0.0000

  DFT-D2 method for vdW energy calculation
  -------------------------------------------------------------------

  Parameters of vdW forcefield:
         C6(Jnm^6/mol)     R0(A)
   -----------------------------
   Mo      24.670          1.639
   S        5.570          1.683

  IVDW =   1
  VDW_RADIUS =    50.000 A
  VDW_S6 =     0.750
  VDW_SR =     1.000
  VDW_D =    20.000
  LVDW_EWALD = F

  Number of pair interactions contributing to vdW energy:   19043
  Edisp (eV):   -0.59179
    FORVDW:  cpu time    0.0150: real time    0.0186

  FORCE on cell =-STRESS in cart. coord.  units (eV):
  Direction    XX          YY          ZZ          XY          YZ          ZX
  --------------------------------------------------------------------------------------
  Alpha Z    17.81669    17.81669    17.81669
  Ewald    2721.58587  2721.58631 -3288.45269     0.00019     0.00000     0.00012
  Hartree  2835.21965  2835.21966 -2796.97858     0.00002     0.00000    -0.00000
  E(xc)     -70.33529   -70.33526   -70.93948     0.00003    -0.00002    -0.00002
  Local   -5843.54299 -5843.54457  5792.68547    -0.00129    -0.00029    -0.00022
  n-local   127.31707   125.93608   131.85468    -0.26481    -0.00004    -0.00003
  augment   -25.66743   -25.66698   -26.76892     0.00039    -0.00002    -0.00001
  Kinetic   236.13853   238.93226   240.01985    -7.43126     0.00007     0.00008
  Fock        0.00000     0.00000     0.00000     0.00000     0.00000     0.00000
  vdW         0.15955     0.15955    -0.13783     0.00000     0.00000    -0.00000
  -------------------------------------------------------------------------------------
  Total      -0.60231    -0.60231    -0.90082    -0.00000     0.00000     0.00000
  in kB      -5.79904    -5.79904    -8.67300    -0.00000     0.00000     0.00000
  external pressure =       -6.76 kB  Pullay stress =        0.00 kB


 VOLUME and BASIS-vectors are now :
 -----------------------------------------------------------------------------
  energy-cutoff  :      250.00
  volume of cell :      166.41
      direct lattice vectors                 reciprocal lattice vectors
     3.190315730  0.000000000  0.000000000     0.313448600  0.180969634  0.000000000
    -1.595157865  2.762894468  0.000000000     0.000000000  0.361939267  0.000000000
     0.000000000  0.000000000 18.879004300     0.000000000  0.000000000  0.052968895

  length of vectors
     3.190315730  3.190315730 18.879004300     0.361939267  0.361939267  0.052968895


 FORCES acting on ions
    electron-ion (+dipol)            ewald-force                    non-local-force                 convergence-correction
 -----------------------------------------------------------------------------------------------
   -.119E-04 -.373E-06 0.130E-04   0.931E-04 -.108E-03 0.191E-06   0.000E+00 -.208E-16 0.217E-18   0.171E-08 -.254E-08 -.315E-08
   -.121E-02 -.206E-05 0.524E+03   -.864E-04 0.538E-04 -.529E+03   -.260E-17 0.347E-17 0.496E+01   -.438E-08 0.325E-08 -.743E-03
   0.111E-02 0.105E-02 -.524E+03   -.674E-05 0.538E-04 0.529E+03   -.954E-17 0.000E+00 -.496E+01   0.240E-08 0.328E-08 0.743E-03
 -----------------------------------------------------------------------------------------------
   -.110E-03 0.105E-02 0.533E-04   -.161E-13 -.117E-13 0.000E+00   -.121E-16 -.173E-16 0.888E-15   -.266E-09 0.398E-08 -.779E-08
 
 
 POSITION                                       TOTAL-FORCE (eV/Angst)
 -----------------------------------------------------------------------------------
     -0.00000      1.84193      3.71975         0.000000     -0.000000     -0.000000
      1.59516      0.92096      2.15487        -0.000000      0.000000      0.101762
      1.59516      0.92096      5.28464        -0.000000      0.000000     -0.101762
 -----------------------------------------------------------------------------------
    total drift:                               -0.000110      0.001049      0.000053


--------------------------------------------------------------------------------------------------------



  FREE ENERGIE OF THE ION-ELECTRON SYSTEM (eV)
  ---------------------------------------------------
  free  energy   TOTEN  =       -22.35486162 eV

  energy  without entropy=      -22.35486162  energy(sigma->0) =      -22.35486162
 


--------------------------------------------------------------------------------------------------------


    POTLOK:  cpu time    0.0140: real time    0.0137


--------------------------------------------------------------------------------------------------------


     LOOP+:  cpu time    2.0577: real time    2.1738
    4ORBIT:  cpu time    0.0000: real time    0.0000
 


 total charge     
 
# of ion       s       p       d       tot
------------------------------------------
    1        0.414   0.593   4.443   5.450
    2        1.366   2.356   0.000   3.722
    3        1.366   2.356   0.000   3.722
--------------------------------------------------
tot          3.145   5.305   4.443  12.894
 

 total amount of memory used by VASP MPI-rank0    33788. kBytes
=======================================================================

   base      :      30000. kBytes
   nonlr-proj:        380. kBytes
   fftplans  :        953. kBytes
   grid      :       1533. kBytes
   one-center:         31. kBytes
   wavefun   :        891. kBytes
 
  
  
 General timing and accounting informations for this job:
 ========================================================
  
                  Total CPU time used (sec):        3.084
                            User time (sec):        3.007
                          System time (sec):        0.077
                         Elapsed time (sec):        5.056
  
                   Maximum memory used (kb):       25468.
                   Average memory used (kb):           0.
  
                          Minor page faults:         6454
                          Major page faults:          165
                 Voluntary context switches:         2438
