<?xml version="1.0" encoding="ISO-8859-1"?>
<modeling>
 <generator>
  <i name="program" type="string">vasp </i>
  <i name="version" type="string">5.4.4.18Apr17-6-g9f103f2a35  </i>
  <i name="subversion" type="string">(build Jun 30 2017 11:15:00) complex            parallel </i>
  <i name="platform" type="string">STALLO_VASP_5.4.4 </i>
  <i name="date" type="string">2019 11 08 </i>
  <i name="time" type="string">11:44:55 </i>
 </generator>
 <incar>
  <i type="string" name="PREC">normal    ! low/normal/accurate</i>
  <i type="string" name="ALGO"> Fast      ! Algorithm for electronic re</i>
  <i type="int" name="ISPIN">     1</i>
  <i type="int" name="NELMIN">     4</i>
  <i name="EDIFF">      0.00000100</i>
  <i type="int" name="NSW">     0</i>
  <i name="ENCUT">    250.00000000</i>
  <i type="int" name="NEDOS">  2401</i>
  <i type="string" name="LREAL"> Auto      ! Projection in reciprocal sp</i>
  <i name="EMIN">    -12.00000000</i>
  <i name="EMAX">     12.00000000</i>
  <i type="int" name="ISMEAR">     0</i>
  <i name="SIGMA">      0.20000000</i>
  <i type="logical" name="LWAVE"> F  </i>
  <i type="int" name="LORBIT">    11</i>
  <i type="logical" name="LELF"> T  </i>
  <v type="int" name="KPOINT_BSE">    -1     0     0     0</v>
 </incar>
 <structure name="primitive_cell" >
  <crystal>
   <varray name="basis" >
    <v>       3.19031573       0.00000000       0.00000000 </v>
    <v>      -1.59515786       2.76289447       0.00000000 </v>
    <v>       0.00000000       0.00000000      18.87900430 </v>
   </varray>
   <i name="volume">    166.40909068 </i>
   <varray name="rec_basis" >
    <v>       0.31344860       0.18096963       0.00000000 </v>
    <v>       0.00000000       0.36193927       0.00000000 </v>
    <v>       0.00000000       0.00000000       0.05296890 </v>
   </varray>
  </crystal>
  <varray name="positions" >
   <v>       0.33333300      -0.33333300       0.19703111 </v>
   <v>      -0.33333400       0.33333300       0.27992130 </v>
   <v>      -0.33333300       0.33333300       0.11414091 </v>
  </varray>
 </structure>
 <varray name="primitive_index" >
  <v type="int" >        1 </v>
  <v type="int" >        3 </v>
  <v type="int" >        2 </v>
 </varray>
 <kpoints>
  <generation param="Gamma">
   <v type="int" name="divisions">       8        8        1 </v>
   <v name="usershift">      0.00000000       0.00000000       0.00000000 </v>
   <v name="genvec1">      0.12500000       0.00000000       0.00000000 </v>
   <v name="genvec2">      0.00000000       0.12500000       0.00000000 </v>
   <v name="genvec3">      0.00000000       0.00000000       1.00000000 </v>
   <v name="shift">      0.00000000       0.00000000       0.00000000 </v>
  </generation>
  <varray name="kpointlist" >
   <v>       0.00000000       0.00000000       0.00000000 </v>
   <v>       0.12500000      -0.00000000       0.00000000 </v>
   <v>       0.25000000      -0.00000000       0.00000000 </v>
   <v>       0.37500000      -0.00000000       0.00000000 </v>
   <v>       0.50000000      -0.00000000       0.00000000 </v>
   <v>       0.12500000       0.12500000       0.00000000 </v>
   <v>       0.25000000       0.12500000       0.00000000 </v>
   <v>       0.37500000       0.12500000       0.00000000 </v>
   <v>       0.25000000       0.25000000       0.00000000 </v>
   <v>       0.37500000       0.25000000       0.00000000 </v>
  </varray>
  <varray name="weights" >
   <v>       0.01562500 </v>
   <v>       0.09375000 </v>
   <v>       0.09375000 </v>
   <v>       0.09375000 </v>
   <v>       0.04687500 </v>
   <v>       0.09375000 </v>
   <v>       0.18750000 </v>
   <v>       0.18750000 </v>
   <v>       0.09375000 </v>
   <v>       0.09375000 </v>
  </varray>
 </kpoints>
 <parameters>
  <separator name="general" >
   <i type="string" name="SYSTEM">unknown system</i>
   <i type="logical" name="LCOMPAT"> F  </i>
  </separator>
  <separator name="electronic" >
   <i type="string" name="PREC">normal</i>
   <i name="ENMAX">    250.00000000</i>
   <i name="ENAUG">    345.27800000</i>
   <i name="EDIFF">      0.00000100</i>
   <i type="int" name="IALGO">    68</i>
   <i type="int" name="IWAVPR">    10</i>
   <i type="int" name="NBANDS">    14</i>
   <i name="NELECT">     18.00000000</i>
   <i type="int" name="TURBO">     0</i>
   <i type="int" name="IRESTART">     0</i>
   <i type="int" name="NREBOOT">     0</i>
   <i type="int" name="NMIN">     0</i>
   <i name="EREF">      0.00000000</i>
   <separator name="electronic smearing" >
    <i type="int" name="ISMEAR">     0</i>
    <i name="SIGMA">      0.20000000</i>
    <i name="KSPACING">      0.50000000</i>
    <i type="logical" name="KGAMMA"> T  </i>
   </separator>
   <separator name="electronic projectors" >
    <i type="logical" name="LREAL"> T  </i>
    <v name="ROPT">     -0.00050000     -0.00050000</v>
    <i type="int" name="LMAXPAW">  -100</i>
    <i type="int" name="LMAXMIX">     2</i>
    <i type="logical" name="NLSPLINE"> F  </i>
   </separator>
   <separator name="electronic startup" >
    <i type="int" name="ISTART">     0</i>
    <i type="int" name="ICHARG">     2</i>
    <i type="int" name="INIWAV">     1</i>
   </separator>
   <separator name="electronic spin" >
    <i type="int" name="ISPIN">     1</i>
    <i type="logical" name="LNONCOLLINEAR"> F  </i>
    <v name="MAGMOM">      1.00000000      1.00000000      1.00000000</v>
    <i name="NUPDOWN">     -1.00000000</i>
    <i type="logical" name="LSORBIT"> F  </i>
    <v name="SAXIS">      0.00000000      0.00000000      1.00000000</v>
    <i type="logical" name="LSPIRAL"> F  </i>
    <v name="QSPIRAL">      0.00000000      0.00000000      0.00000000</v>
    <i type="logical" name="LZEROZ"> F  </i>
   </separator>
   <separator name="electronic exchange-correlation" >
    <i type="logical" name="LASPH"> F  </i>
    <i type="logical" name="LMETAGGA"> F  </i>
   </separator>
   <separator name="electronic convergence" >
    <i type="int" name="NELM">    60</i>
    <i type="int" name="NELMDL">    -5</i>
    <i type="int" name="NELMIN">     4</i>
    <i name="ENINI">    250.00000000</i>
    <separator name="electronic convergence detail" >
     <i type="logical" name="LDIAG"> T  </i>
     <i type="logical" name="LSUBROT"> F  </i>
     <i name="WEIMIN">      0.00000000</i>
     <i name="EBREAK">      0.00000002</i>
     <i name="DEPER">      0.30000000</i>
     <i type="int" name="NRMM">     4</i>
     <i name="TIME">      0.40000000</i>
    </separator>
   </separator>
   <separator name="electronic mixer" >
    <i name="AMIX">      0.40000000</i>
    <i name="BMIX">      1.00000000</i>
    <i name="AMIN">      0.10000000</i>
    <i name="AMIX_MAG">      1.60000000</i>
    <i name="BMIX_MAG">      1.00000000</i>
    <separator name="electronic mixer details" >
     <i type="int" name="IMIX">     4</i>
     <i type="logical" name="MIXFIRST"> F  </i>
     <i type="int" name="MAXMIX">   -45</i>
     <i name="WC">    100.00000000</i>
     <i type="int" name="INIMIX">     1</i>
     <i type="int" name="MIXPRE">     1</i>
     <i type="int" name="MREMOVE">     5</i>
    </separator>
   </separator>
   <separator name="electronic dipolcorrection" >
    <i type="logical" name="LDIPOL"> F  </i>
    <i type="logical" name="LMONO"> F  </i>
    <i type="int" name="IDIPOL">     0</i>
    <i name="EPSILON">      1.00000000</i>
    <v name="DIPOL">   -100.00000000   -100.00000000   -100.00000000</v>
    <i name="EFIELD">      0.00000000</i>
   </separator>
  </separator>
  <separator name="grids" >
   <i type="int" name="NGX">    12</i>
   <i type="int" name="NGY">    12</i>
   <i type="int" name="NGZ">    80</i>
   <i type="int" name="NGXF">    24</i>
   <i type="int" name="NGYF">    24</i>
   <i type="int" name="NGZF">   160</i>
   <i type="logical" name="ADDGRID"> F  </i>
  </separator>
  <separator name="ionic" >
   <i type="int" name="NSW">     0</i>
   <i type="int" name="IBRION">    -1</i>
   <i type="int" name="MDALGO">     0</i>
   <i type="int" name="ISIF">     2</i>
   <i name="PSTRESS">      0.00000000</i>
   <i name="EDIFFG">      0.00001000</i>
   <i type="int" name="NFREE">     0</i>
   <i name="POTIM">      0.50000000</i>
   <i name="SMASS">     -3.00000000</i>
   <i name="SCALEE">      1.00000000</i>
  </separator>
  <separator name="ionic md" >
   <i name="TEBEG">      0.00010000</i>
   <i name="TEEND">      0.00010000</i>
   <i type="int" name="NBLOCK">     1</i>
   <i type="int" name="KBLOCK">     1</i>
   <i type="int" name="NPACO">   256</i>
   <i name="APACO">     16.00000000</i>
  </separator>
  <separator name="symmetry" >
   <i type="int" name="ISYM">     2</i>
   <i name="SYMPREC">      0.00001000</i>
  </separator>
  <separator name="dos" >
   <i type="int" name="LORBIT">    11</i>
   <v name="RWIGS">     -1.00000000     -1.00000000</v>
   <i type="int" name="NEDOS">  2401</i>
   <i name="EMIN">    -12.00000000</i>
   <i name="EMAX">     12.00000000</i>
   <i name="EFERMI">      0.00000000</i>
  </separator>
  <separator name="writing" >
   <i type="int" name="NWRITE">     2</i>
   <i type="logical" name="LWAVE"> F  </i>
   <i type="logical" name="LDOWNSAMPLE"> F  </i>
   <i type="logical" name="LCHARG"> T  </i>
   <i type="logical" name="LPARD"> F  </i>
   <i type="logical" name="LVTOT"> F  </i>
   <i type="logical" name="LVHAR"> F  </i>
   <i type="logical" name="LELF"> T  </i>
   <i type="logical" name="LOPTICS"> F  </i>
   <v name="STM">      0.00000000      0.00000000      0.00000000      0.00000000      0.00000000      0.00000000      0.00000000</v>
  </separator>
  <separator name="performance" >
   <i type="int" name="NPAR">     2</i>
   <i type="int" name="NSIM">     4</i>
   <i type="int" name="NBLK">    -1</i>
   <i type="logical" name="LPLANE"> T  </i>
   <i type="logical" name="LSCALAPACK"> T  </i>
   <i type="logical" name="LSCAAWARE"> F  </i>
   <i type="logical" name="LSCALU"> F  </i>
   <i type="logical" name="LASYNC"> F  </i>
   <i type="logical" name="LORBITALREAL"> F  </i>
  </separator>
  <separator name="miscellaneous" >
   <i type="int" name="IDIOT">     3</i>
   <i type="int" name="ISPECIAL">     0</i>
   <i type="logical" name="LMUSIC"> F  </i>
   <v name="POMASS">     95.94000000     32.06600000</v>
   <v name="DARWINR">      0.00000000      0.00000000</v>
   <v name="DARWINV">      1.00000000      1.00000000</v>
   <i type="logical" name="LCORR"> T  </i>
  </separator>
  <i type="logical" name="GGA_COMPAT"> T  </i>
  <i type="logical" name="LBERRY"> F  </i>
  <i type="int" name="ICORELEVEL">     0</i>
  <i type="logical" name="LDAU"> F  </i>
  <i type="int" name="I_CONSTRAINED_M">     0</i>
  <separator name="electronic exchange-correlation" >
   <i type="string" name="GGA">--</i>
   <i type="int" name="VOSKOWN">     0</i>
   <i type="logical" name="LHFCALC"> F  </i>
   <i type="string" name="PRECFOCK"></i>
   <i type="logical" name="LSYMGRAD"> F  </i>
   <i type="logical" name="LHFONE"> F  </i>
   <i type="logical" name="LRHFCALC"> F  </i>
   <i type="logical" name="LTHOMAS"> F  </i>
   <i type="logical" name="LMODELHF"> F  </i>
   <i name="ENCUT4O">     -1.00000000</i>
   <i type="int" name="EXXOEP">     0</i>
   <i type="int" name="FOURORBIT">     0</i>
   <i name="AEXX">      0.00000000</i>
   <i name="HFALPHA">      0.00000000</i>
   <i name="MCALPHA">      0.00000000</i>
   <i name="ALDAX">      1.00000000</i>
   <i name="AGGAX">      1.00000000</i>
   <i name="ALDAC">      1.00000000</i>
   <i name="AGGAC">      1.00000000</i>
   <i type="int" name="NKREDX">     1</i>
   <i type="int" name="NKREDY">     1</i>
   <i type="int" name="NKREDZ">     1</i>
   <i type="logical" name="SHIFTRED"> F  </i>
   <i type="logical" name="ODDONLY"> F  </i>
   <i type="logical" name="EVENONLY"> F  </i>
   <i type="int" name="LMAXFOCK">     0</i>
   <i type="int" name="NMAXFOCKAE">     0</i>
   <i type="logical" name="LFOCKAEDFT"> F  </i>
   <i name="HFSCREEN">      0.00000000</i>
   <i name="HFSCREENC">      0.00000000</i>
   <i type="int" name="NBANDSGWLOW">     0</i>
  </separator>
  <separator name="vdW DFT" >
   <i type="logical" name="LUSE_VDW"> F  </i>
   <i name="Zab_VDW">     -0.84910000</i>
   <i name="PARAM1">      0.12340000</i>
   <i name="PARAM2">      1.00000000</i>
   <i name="PARAM3">      0.00000000</i>
  </separator>
  <separator name="model GW" >
   <i type="int" name="MODEL_GW">     0</i>
   <i name="MODEL_EPS0">     33.28181814</i>
   <i name="MODEL_ALPHA">      1.00000000</i>
  </separator>
  <separator name="linear response parameters" >
   <i type="logical" name="LEPSILON"> F  </i>
   <i type="logical" name="LRPA"> F  </i>
   <i type="logical" name="LNABLA"> F  </i>
   <i type="logical" name="LVEL"> F  </i>
   <i type="int" name="KINTER">     0</i>
   <i name="CSHIFT">      0.10000000</i>
   <i name="OMEGAMAX">     -1.00000000</i>
   <i name="DEG_THRESHOLD">      0.00200000</i>
   <i name="RTIME">     -0.10000000</i>
   <i name="WPLASMAI">      0.00000000</i>
   <v name="DFIELD">      0.00000000      0.00000000      0.00000000</v>
   <v name="WPLASMA">      0.00000000      0.00000000      0.00000000      0.00000000      0.00000000      0.00000000      0.00000000      0.00000000      0.00000000</v>
  </separator>
  <separator name="orbital magnetization" >
   <i type="logical" name="NUCIND"> F  </i>
   <v name="MAGPOS">      0.00000000      0.00000000      0.00000000</v>
   <i type="logical" name="LNICSALL"> T  </i>
   <i type="logical" name="ORBITALMAG"> F  </i>
   <i type="logical" name="LMAGBLOCH"> F  </i>
   <i type="logical" name="LCHIMAG"> F  </i>
   <i type="logical" name="LGAUGE"> T  </i>
   <i type="int" name="MAGATOM">     0</i>
   <v name="MAGDIPOL">      0.00000000      0.00000000      0.00000000</v>
   <v name="AVECCONST">      0.00000000      0.00000000      0.00000000</v>
  </separator>
  <separator name="response functions" >
   <i type="logical" name="LADDER"> F  </i>
   <i type="logical" name="LRPAFORCE"> F  </i>
   <i type="logical" name="LFXC"> F  </i>
   <i type="logical" name="LHARTREE"> T  </i>
   <i type="int" name="IBSE">     0</i>
   <v type="int" name="KPOINT">    -1     0     0     0</v>
   <i type="logical" name="LTCTE"> F  </i>
   <i type="logical" name="LTETE"> F  </i>
   <i type="logical" name="LTRIPLET"> F  </i>
   <i type="logical" name="LFXCEPS"> F  </i>
   <i type="logical" name="LFXHEG"> F  </i>
   <i type="int" name="NATURALO">     2</i>
   <i type="logical" name="L2ORDER"> F  </i>
   <i type="logical" name="LMP2LT"> F  </i>
   <i type="logical" name="LUSEW"> F  </i>
   <i name="ENCUTGW">     -2.00000000</i>
   <i name="ENCUTGWSOFT">     -2.00000000</i>
   <i name="ENCUTLF">     -1.00000000</i>
   <i type="int" name="LMAXMP2">    -1</i>
   <i name="SCISSOR">      0.00000000</i>
   <i type="int" name="NOMEGA">     0</i>
   <i type="int" name="NOMEGAR">     0</i>
   <i type="int" name="NBANDSGW">    -1</i>
   <i type="int" name="NBANDSO">    -1</i>
   <i type="int" name="NBANDSV">    -1</i>
   <i type="int" name="NELM">     1</i>
   <i type="int" name="NELMHF">     1</i>
   <i type="int" name="DIM">     3</i>
   <i type="int" name="ANTIRES">     0</i>
   <i name="OMEGAMAX">    -30.00000000</i>
   <i name="OMEGAMIN">    -30.00000000</i>
   <i name="OMEGATL">   -200.00000000</i>
   <i type="int" name="OMEGAGRID">   140</i>
   <i name="CSHIFT">     -0.10000000</i>
   <i type="logical" name="SELFENERGY"> F  </i>
   <i type="logical" name="LSPECTRAL"> F  </i>
   <i type="logical" name="LSPECTRALGW"> F  </i>
   <i type="logical" name="LSINGLES"> F  </i>
   <i type="logical" name="LFERMIGW"> F  </i>
   <i type="logical" name="ODDONLYGW"> F  </i>
   <i type="logical" name="EVENONLYGW"> F  </i>
   <i type="int" name="NKREDLFX">     1</i>
   <i type="int" name="NKREDLFY">     1</i>
   <i type="int" name="NKREDLFZ">     1</i>
   <i type="int" name="MAXMEM">  2800</i>
   <i type="int" name="TELESCOPE">     0</i>
   <i type="int" name="TAUPAR">     1</i>
   <i type="int" name="OMEGAPAR">    -1</i>
   <i name="LAMBDA">      1.00000000</i>
  </separator>
  <separator name="External order field" >
   <i name="OFIELD_KAPPA">      0.00000000</i>
   <v name="OFIELD_K">      0.00000000      0.00000000      0.00000000</v>
   <i name="OFIELD_Q6_NEAR">      0.00000000</i>
   <i name="OFIELD_Q6_FAR">      0.00000000</i>
   <i name="OFIELD_A">      0.00000000</i>
  </separator>
 </parameters>
 <atominfo>
  <atoms>       3 </atoms>
  <types>       2 </types>
  <array name="atoms" >
   <dimension dim="1">ion</dimension>
   <field type="string">element</field>
   <field type="int">atomtype</field>
   <set>
    <rc><c>Mo</c><c>   1</c></rc>
    <rc><c>S </c><c>   2</c></rc>
    <rc><c>S </c><c>   2</c></rc>
   </set>
  </array>
  <array name="atomtypes" >
   <dimension dim="1">type</dimension>
   <field type="int">atomspertype</field>
   <field type="string">element</field>
   <field>mass</field>
   <field>valence</field>
   <field type="string">pseudopotential</field>
   <set>
    <rc><c>   1</c><c>Mo</c><c>     95.94000000</c><c>      6.00000000</c><c> PAW_PBE Mo 08Apr2002                   </c></rc>
    <rc><c>   2</c><c>S </c><c>     32.06600000</c><c>      6.00000000</c><c>  PAW_PBE S 17Jan2003                   </c></rc>
   </set>
  </array>
 </atominfo>
 <structure name="initialpos" >
  <crystal>
   <varray name="basis" >
    <v>       3.19031573       0.00000000       0.00000000 </v>
    <v>      -1.59515786       2.76289447       0.00000000 </v>
    <v>       0.00000000       0.00000000      18.87900430 </v>
   </varray>
   <i name="volume">    166.40909068 </i>
   <varray name="rec_basis" >
    <v>       0.31344860       0.18096963       0.00000000 </v>
    <v>       0.00000000       0.36193927       0.00000000 </v>
    <v>       0.00000000       0.00000000       0.05296890 </v>
   </varray>
  </crystal>
  <varray name="positions" >
   <v>       0.33333300       0.66666700       0.19703111 </v>
   <v>       0.66666700       0.33333300       0.11414091 </v>
   <v>       0.66666600       0.33333300       0.27992130 </v>
  </varray>
 </structure>
 <calculation>
  <scstep>
   <time name="dav">    0.08    0.09</time>
   <time name="total">    0.10    0.15</time>
   <energy>
    <i name="alphaZ">     17.81669054 </i>
    <i name="ewald">   2154.71948718 </i>
    <i name="hartreedc">  -2862.05511697 </i>
    <i name="XCdc">    -36.31054839 </i>
    <i name="pawpsdc">    406.88651198 </i>
    <i name="pawaedc">   -329.34073203 </i>
    <i name="eentropy">     -0.01680556 </i>
    <i name="bandstr">    -35.42415101 </i>
    <i name="atom">    771.06857575 </i>
    <i name="e_fr_energy">     87.34391149 </i>
    <i name="e_wo_entrp">     87.36071705 </i>
    <i name="e_0_energy">     87.35231427 </i>
   </energy>
  </scstep>
  <scstep>
   <time name="dav">    0.11    0.11</time>
   <time name="total">    0.11    0.11</time>
   <energy>
    <i name="e_fr_energy">    -14.86139555 </i>
    <i name="e_wo_entrp">    -14.86139493 </i>
    <i name="e_0_energy">    -14.86139524 </i>
   </energy>
  </scstep>
  <scstep>
   <time name="dav">    0.11    0.11</time>
   <time name="total">    0.11    0.11</time>
   <energy>
    <i name="e_fr_energy">    -23.20410746 </i>
    <i name="e_wo_entrp">    -23.20410746 </i>
    <i name="e_0_energy">    -23.20410746 </i>
   </energy>
  </scstep>
  <scstep>
   <time name="dav">    0.09    0.09</time>
   <time name="total">    0.09    0.09</time>
   <energy>
    <i name="e_fr_energy">    -23.36640061 </i>
    <i name="e_wo_entrp">    -23.36640061 </i>
    <i name="e_0_energy">    -23.36640061 </i>
   </energy>
  </scstep>
  <scstep>
   <time name="dav">    0.10    0.10</time>
   <time name="total">    0.11    0.11</time>
   <energy>
    <i name="e_fr_energy">    -23.37045754 </i>
    <i name="e_wo_entrp">    -23.37045754 </i>
    <i name="e_0_energy">    -23.37045754 </i>
   </energy>
  </scstep>
  <scstep>
   <time name="diag">    0.01    0.01</time>
   <time name="diis">    0.05    0.05</time>
   <time name="orth">    0.00    0.00</time>
   <time name="total">    0.09    0.09</time>
   <energy>
    <i name="e_fr_energy">    -22.21236249 </i>
    <i name="e_wo_entrp">    -22.21236246 </i>
    <i name="e_0_energy">    -22.21236248 </i>
   </energy>
  </scstep>
  <scstep>
   <time name="diag">    0.01    0.01</time>
   <time name="diis">    0.05    0.05</time>
   <time name="orth">    0.00    0.00</time>
   <time name="total">    0.08    0.09</time>
   <energy>
    <i name="e_fr_energy">    -21.82741070 </i>
    <i name="e_wo_entrp">    -21.82741070 </i>
    <i name="e_0_energy">    -21.82741070 </i>
   </energy>
  </scstep>
  <scstep>
   <time name="diag">    0.01    0.01</time>
   <time name="diis">    0.05    0.05</time>
   <time name="orth">    0.00    0.00</time>
   <time name="total">    0.09    0.09</time>
   <energy>
    <i name="e_fr_energy">    -21.76787304 </i>
    <i name="e_wo_entrp">    -21.76787304 </i>
    <i name="e_0_energy">    -21.76787304 </i>
   </energy>
  </scstep>
  <scstep>
   <time name="diag">    0.01    0.01</time>
   <time name="diis">    0.06    0.06</time>
   <time name="orth">    0.00    0.00</time>
   <time name="total">    0.09    0.09</time>
   <energy>
    <i name="e_fr_energy">    -21.76333210 </i>
    <i name="e_wo_entrp">    -21.76333210 </i>
    <i name="e_0_energy">    -21.76333210 </i>
   </energy>
  </scstep>
  <scstep>
   <time name="diag">    0.01    0.01</time>
   <time name="diis">    0.06    0.06</time>
   <time name="orth">    0.00    0.00</time>
   <time name="total">    0.09    0.09</time>
   <energy>
    <i name="e_fr_energy">    -21.76263780 </i>
    <i name="e_wo_entrp">    -21.76263780 </i>
    <i name="e_0_energy">    -21.76263780 </i>
   </energy>
  </scstep>
  <scstep>
   <time name="diag">    0.01    0.01</time>
   <time name="diis">    0.05    0.05</time>
   <time name="orth">    0.00    0.00</time>
   <time name="total">    0.09    0.10</time>
   <energy>
    <i name="e_fr_energy">    -21.76270908 </i>
    <i name="e_wo_entrp">    -21.76270908 </i>
    <i name="e_0_energy">    -21.76270908 </i>
   </energy>
  </scstep>
  <scstep>
   <time name="diag">    0.01    0.01</time>
   <time name="diis">    0.05    0.05</time>
   <time name="orth">    0.00    0.00</time>
   <time name="total">    0.09    0.09</time>
   <energy>
    <i name="e_fr_energy">    -21.76256085 </i>
    <i name="e_wo_entrp">    -21.76256085 </i>
    <i name="e_0_energy">    -21.76256085 </i>
   </energy>
  </scstep>
  <scstep>
   <time name="diag">    0.01    0.01</time>
   <time name="diis">    0.05    0.05</time>
   <time name="orth">    0.00    0.00</time>
   <time name="total">    0.09    0.09</time>
   <energy>
    <i name="e_fr_energy">    -21.76291423 </i>
    <i name="e_wo_entrp">    -21.76291423 </i>
    <i name="e_0_energy">    -21.76291423 </i>
   </energy>
  </scstep>
  <scstep>
   <time name="diag">    0.01    0.01</time>
   <time name="diis">    0.05    0.05</time>
   <time name="orth">    0.00    0.00</time>
   <time name="total">    0.09    0.09</time>
   <energy>
    <i name="e_fr_energy">    -21.76294222 </i>
    <i name="e_wo_entrp">    -21.76294222 </i>
    <i name="e_0_energy">    -21.76294222 </i>
   </energy>
  </scstep>
  <scstep>
   <time name="diag">    0.01    0.01</time>
   <time name="diis">    0.04    0.05</time>
   <time name="orth">    0.00    0.00</time>
   <time name="total">    0.08    0.08</time>
   <energy>
    <i name="e_fr_energy">    -21.76300319 </i>
    <i name="e_wo_entrp">    -21.76300319 </i>
    <i name="e_0_energy">    -21.76300319 </i>
   </energy>
  </scstep>
  <scstep>
   <time name="diag">    0.01    0.01</time>
   <time name="diis">    0.04    0.04</time>
   <time name="orth">    0.00    0.00</time>
   <time name="total">    0.08    0.08</time>
   <energy>
    <i name="e_fr_energy">    -21.76302422 </i>
    <i name="e_wo_entrp">    -21.76302422 </i>
    <i name="e_0_energy">    -21.76302422 </i>
   </energy>
  </scstep>
  <scstep>
   <time name="diag">    0.01    0.01</time>
   <time name="diis">    0.04    0.04</time>
   <time name="orth">    0.00    0.00</time>
   <time name="total">    0.08    0.08</time>
   <energy>
    <i name="e_fr_energy">    -21.76305824 </i>
    <i name="e_wo_entrp">    -21.76305824 </i>
    <i name="e_0_energy">    -21.76305824 </i>
   </energy>
  </scstep>
  <scstep>
   <time name="diag">    0.01    0.01</time>
   <time name="diis">    0.04    0.04</time>
   <time name="orth">    0.00    0.00</time>
   <time name="total">    0.08    0.08</time>
   <energy>
    <i name="e_fr_energy">    -21.76306332 </i>
    <i name="e_wo_entrp">    -21.76306332 </i>
    <i name="e_0_energy">    -21.76306332 </i>
   </energy>
  </scstep>
  <scstep>
   <time name="diag">    0.01    0.01</time>
   <time name="diis">    0.04    0.04</time>
   <time name="orth">    0.00    0.00</time>
   <time name="total">    0.08    0.08</time>
   <energy>
    <i name="e_fr_energy">    -21.76306985 </i>
    <i name="e_wo_entrp">    -21.76306985 </i>
    <i name="e_0_energy">    -21.76306985 </i>
   </energy>
  </scstep>
  <scstep>
   <time name="diag">    0.01    0.01</time>
   <time name="diis">    0.03    0.03</time>
   <time name="orth">    0.00    0.00</time>
   <time name="total">    0.06    0.07</time>
   <energy>
    <i name="alphaZ">     17.81669054 </i>
    <i name="ewald">   2154.71948718 </i>
    <i name="hartreedc">  -2873.45968237 </i>
    <i name="XCdc">    -35.17217920 </i>
    <i name="pawpsdc">    478.68875604 </i>
    <i name="pawaedc">   -402.87975028 </i>
    <i name="eentropy">     -0.00000000 </i>
    <i name="bandstr">   -132.54496752 </i>
    <i name="atom">    771.06857575 </i>
    <i name="e_fr_energy">    -21.76306985 </i>
    <i name="e_wo_entrp">    -21.76306985 </i>
    <i name="e_0_energy">    -21.76306985 </i>
   </energy>
  </scstep>
  <structure>
   <crystal>
    <varray name="basis" >
     <v>       3.19031573       0.00000000       0.00000000 </v>
     <v>      -1.59515786       2.76289447       0.00000000 </v>
     <v>       0.00000000       0.00000000      18.87900430 </v>
    </varray>
    <i name="volume">    166.40909068 </i>
    <varray name="rec_basis" >
     <v>       0.31344860       0.18096963       0.00000000 </v>
     <v>       0.00000000       0.36193927       0.00000000 </v>
     <v>       0.00000000       0.00000000       0.05296890 </v>
    </varray>
   </crystal>
   <varray name="positions" >
    <v>       0.33333300       0.66666700       0.19703111 </v>
    <v>       0.66666700       0.33333300       0.11414091 </v>
    <v>       0.66666600       0.33333300       0.27992130 </v>
   </varray>
  </structure>
  <varray name="forces" >
   <v>       0.00000000      -0.00000000      -0.00000000 </v>
   <v>      -0.00000000       0.00000000       0.10176209 </v>
   <v>      -0.00000000       0.00000000      -0.10176209 </v>
  </varray>
  <varray name="stress" >
   <v>      -5.79904355      -0.00000000       0.00000000 </v>
   <v>      -0.00000000      -5.79904355      -0.00000000 </v>
   <v>       0.00000000       0.00000000      -8.67299863 </v>
  </varray>
  <energy>
   <i name="e_fr_energy">    -22.35486162 </i>
   <i name="e_wo_entrp">    -22.35486162 </i>
   <i name="e_0_energy">     -0.00000000 </i>
  </energy>
  <time name="totalsc">    2.06    2.17</time>
  <eigenvalues>
   <array>
    <dimension dim="1">band</dimension>
    <dimension dim="2">kpoint</dimension>
    <dimension dim="3">spin</dimension>
    <field>eigene</field>
    <field>occ</field>
    <set>
     <set comment="spin 1">
      <set comment="kpoint 1">
       <r>  -16.4112    1.0000 </r>
       <r>  -15.2028    1.0000 </r>
       <r>   -7.9211    1.0000 </r>
       <r>   -4.9593    1.0000 </r>
       <r>   -4.9590    1.0000 </r>
       <r>   -4.0997    1.0000 </r>
       <r>   -3.8520    1.0000 </r>
       <r>   -3.8516    1.0000 </r>
       <r>   -2.3770    1.0000 </r>
       <r>    0.3968    0.0000 </r>
       <r>    0.3976    0.0000 </r>
       <r>    0.6197    0.0000 </r>
       <r>    0.6204    0.0000 </r>
       <r>    3.0012    0.0000 </r>
      </set>
      <set comment="kpoint 2">
       <r>  -16.1971    1.0000 </r>
       <r>  -15.1003    1.0000 </r>
       <r>   -7.6761    1.0000 </r>
       <r>   -5.4236    1.0000 </r>
       <r>   -4.9064    1.0000 </r>
       <r>   -4.7248    1.0000 </r>
       <r>   -4.1880    1.0000 </r>
       <r>   -3.4209    1.0000 </r>
       <r>   -2.5155    1.0000 </r>
       <r>    0.1143    0.0000 </r>
       <r>    0.1811    0.0000 </r>
       <r>    0.3827    0.0000 </r>
       <r>    0.7516    0.0000 </r>
       <r>    3.3640    0.0000 </r>
      </set>
      <set comment="kpoint 3">
       <r>  -15.6286    1.0000 </r>
       <r>  -14.8315    1.0000 </r>
       <r>   -7.3104    1.0000 </r>
       <r>   -6.1518    1.0000 </r>
       <r>   -5.8878    1.0000 </r>
       <r>   -4.8246    1.0000 </r>
       <r>   -4.1391    1.0000 </r>
       <r>   -3.6725    1.0000 </r>
       <r>   -3.0841    1.0000 </r>
       <r>   -0.2094    0.0000 </r>
       <r>   -0.0343    0.0000 </r>
       <r>    0.5086    0.0000 </r>
       <r>    1.3665    0.0000 </r>
       <r>    4.1920    0.0000 </r>
      </set>
      <set comment="kpoint 4">
       <r>  -14.9537    1.0000 </r>
       <r>  -14.5229    1.0000 </r>
       <r>   -7.7494    1.0000 </r>
       <r>   -6.7569    1.0000 </r>
       <r>   -6.2827    1.0000 </r>
       <r>   -5.3230    1.0000 </r>
       <r>   -4.0812    1.0000 </r>
       <r>   -3.5493    1.0000 </r>
       <r>   -3.2782    1.0000 </r>
       <r>   -0.2170    0.0000 </r>
       <r>    0.0629    0.0000 </r>
       <r>    1.2274    0.0000 </r>
       <r>    1.7593    0.0000 </r>
       <r>    4.7823    0.0000 </r>
      </set>
      <set comment="kpoint 5">
       <r>  -14.6254    1.0000 </r>
       <r>  -14.3796    1.0000 </r>
       <r>   -8.0822    1.0000 </r>
       <r>   -7.1230    1.0000 </r>
       <r>   -6.4082    1.0000 </r>
       <r>   -5.5042    1.0000 </r>
       <r>   -4.2198    1.0000 </r>
       <r>   -3.3217    1.0000 </r>
       <r>   -2.9966    1.0000 </r>
       <r>   -0.1953    0.0000 </r>
       <r>    0.3195    0.0000 </r>
       <r>    1.5272    0.0000 </r>
       <r>    1.8750    0.0000 </r>
       <r>    3.8286    0.0000 </r>
      </set>
      <set comment="kpoint 6">
       <r>  -15.8045    1.0000 </r>
       <r>  -14.9132    1.0000 </r>
       <r>   -7.3282    1.0000 </r>
       <r>   -5.9887    1.0000 </r>
       <r>   -5.4689    1.0000 </r>
       <r>   -5.0023    1.0000 </r>
       <r>   -4.3863    1.0000 </r>
       <r>   -3.2855    1.0000 </r>
       <r>   -2.8881    1.0000 </r>
       <r>   -0.2844    0.0000 </r>
       <r>    0.0933    0.0000 </r>
       <r>    0.1049    0.0000 </r>
       <r>    1.3452    0.0000 </r>
       <r>    3.9571    0.0000 </r>
      </set>
      <set comment="kpoint 7">
       <r>  -15.1711    1.0000 </r>
       <r>  -14.6146    1.0000 </r>
       <r>   -7.3927    1.0000 </r>
       <r>   -6.4149    1.0000 </r>
       <r>   -6.1516    1.0000 </r>
       <r>   -5.5076    1.0000 </r>
       <r>   -4.2871    1.0000 </r>
       <r>   -3.6484    1.0000 </r>
       <r>   -3.1720    1.0000 </r>
       <r>   -0.3682    0.0000 </r>
       <r>    0.0785    0.0000 </r>
       <r>    0.5754    0.0000 </r>
       <r>    1.8512    0.0000 </r>
       <r>    4.9546    0.0000 </r>
      </set>
      <set comment="kpoint 8">
       <r>  -14.6407    1.0000 </r>
       <r>  -14.3707    1.0000 </r>
       <r>   -7.7948    1.0000 </r>
       <r>   -7.1788    1.0000 </r>
       <r>   -6.2805    1.0000 </r>
       <r>   -5.5253    1.0000 </r>
       <r>   -4.2722    1.0000 </r>
       <r>   -4.1297    1.0000 </r>
       <r>   -2.8453    1.0000 </r>
       <r>   -0.1762    0.0000 </r>
       <r>    0.3338    0.0000 </r>
       <r>    1.1990    0.0000 </r>
       <r>    1.8853    0.0000 </r>
       <r>    4.3550    0.0000 </r>
      </set>
      <set comment="kpoint 9">
       <r>  -14.6557    1.0000 </r>
       <r>  -14.3618    1.0000 </r>
       <r>   -7.4342    1.0000 </r>
       <r>   -7.2289    1.0000 </r>
       <r>   -5.9541    1.0000 </r>
       <r>   -5.5739    1.0000 </r>
       <r>   -5.2545    1.0000 </r>
       <r>   -3.9972    1.0000 </r>
       <r>   -2.8750    1.0000 </r>
       <r>   -0.2270    0.0000 </r>
       <r>    0.3845    0.0000 </r>
       <r>    0.7006    0.0000 </r>
       <r>    2.1691    0.0000 </r>
       <r>    5.1846    0.0000 </r>
      </set>
      <set comment="kpoint 10">
       <r>  -14.4207    1.0000 </r>
       <r>  -14.2427    1.0000 </r>
       <r>   -7.6135    1.0000 </r>
       <r>   -7.2647    1.0000 </r>
       <r>   -6.2379    1.0000 </r>
       <r>   -5.5758    1.0000 </r>
       <r>   -5.3476    1.0000 </r>
       <r>   -4.3824    1.0000 </r>
       <r>   -2.5077    1.0000 </r>
       <r>   -0.5532    0.0000 </r>
       <r>    0.7618    0.0000 </r>
       <r>    0.9337    0.0000 </r>
       <r>    2.3125    0.0000 </r>
       <r>    4.5986    0.0000 </r>
      </set>
     </set>
    </set>
   </array>
  </eigenvalues>
  <separator name="orbital magnetization" >
   <v name="MAGDIPOLOUT">      0.00000000      0.00000000      0.00000000</v>
  </separator>
  <dos>
   <i name="efermi">     -1.55000000 </i>
   <total>
    <array>
     <dimension dim="1">gridpoints</dimension>
     <dimension dim="2">spin</dimension>
     <field>energy</field>
     <field>total</field>
     <field>integrated</field>
     <set>
      <set comment="spin 1">
       <r>   -12.0000   400.0000     4.0000 </r>
       <r>   -11.9900     0.0000     4.0000 </r>
       <r>   -11.9800     0.0000     4.0000 </r>
       <r>   -11.9700     0.0000     4.0000 </r>
       <r>   -11.9600     0.0000     4.0000 </r>
       <r>   -11.9500     0.0000     4.0000 </r>
       <r>   -11.9400     0.0000     4.0000 </r>
       <r>   -11.9300     0.0000     4.0000 </r>
       <r>   -11.9200     0.0000     4.0000 </r>
       <r>   -11.9100     0.0000     4.0000 </r>
       <r>   -11.9000     0.0000     4.0000 </r>
       <r>   -11.8900     0.0000     4.0000 </r>
       <r>   -11.8800     0.0000     4.0000 </r>
       <r>   -11.8700     0.0000     4.0000 </r>
       <r>   -11.8600     0.0000     4.0000 </r>
       <r>   -11.8500     0.0000     4.0000 </r>
       <r>   -11.8400     0.0000     4.0000 </r>
       <r>   -11.8300     0.0000     4.0000 </r>
       <r>   -11.8200     0.0000     4.0000 </r>
       <r>   -11.8100     0.0000     4.0000 </r>
       <r>   -11.8000     0.0000     4.0000 </r>
       <r>   -11.7900     0.0000     4.0000 </r>
       <r>   -11.7800     0.0000     4.0000 </r>
       <r>   -11.7700     0.0000     4.0000 </r>
       <r>   -11.7600     0.0000     4.0000 </r>
       <r>   -11.7500     0.0000     4.0000 </r>
       <r>   -11.7400     0.0000     4.0000 </r>
       <r>   -11.7300     0.0000     4.0000 </r>
       <r>   -11.7200     0.0000     4.0000 </r>
       <r>   -11.7100     0.0000     4.0000 </r>
       <r>   -11.7000     0.0000     4.0000 </r>
       <r>   -11.6900     0.0000     4.0000 </r>
       <r>   -11.6800     0.0000     4.0000 </r>
       <r>   -11.6700     0.0000     4.0000 </r>
       <r>   -11.6600     0.0000     4.0000 </r>
       <r>   -11.6500     0.0000     4.0000 </r>
       <r>   -11.6400     0.0000     4.0000 </r>
       <r>   -11.6300     0.0000     4.0000 </r>
       <r>   -11.6200     0.0000     4.0000 </r>
       <r>   -11.6100     0.0000     4.0000 </r>
       <r>   -11.6000     0.0000     4.0000 </r>
       <r>   -11.5900     0.0000     4.0000 </r>
       <r>   -11.5800     0.0000     4.0000 </r>
       <r>   -11.5700     0.0000     4.0000 </r>
       <r>   -11.5600     0.0000     4.0000 </r>
       <r>   -11.5500     0.0000     4.0000 </r>
       <r>   -11.5400     0.0000     4.0000 </r>
       <r>   -11.5300     0.0000     4.0000 </r>
       <r>   -11.5200     0.0000     4.0000 </r>
       <r>   -11.5100     0.0000     4.0000 </r>
       <r>   -11.5000     0.0000     4.0000 </r>
       <r>   -11.4900     0.0000     4.0000 </r>
       <r>   -11.4800     0.0000     4.0000 </r>
       <r>   -11.4700     0.0000     4.0000 </r>
       <r>   -11.4600     0.0000     4.0000 </r>
       <r>   -11.4500     0.0000     4.0000 </r>
       <r>   -11.4400     0.0000     4.0000 </r>
       <r>   -11.4300     0.0000     4.0000 </r>
       <r>   -11.4200     0.0000     4.0000 </r>
       <r>   -11.4100     0.0000     4.0000 </r>
       <r>   -11.4000     0.0000     4.0000 </r>
       <r>   -11.3900     0.0000     4.0000 </r>
       <r>   -11.3800     0.0000     4.0000 </r>
       <r>   -11.3700     0.0000     4.0000 </r>
       <r>   -11.3600     0.0000     4.0000 </r>
       <r>   -11.3500     0.0000     4.0000 </r>
       <r>   -11.3400     0.0000     4.0000 </r>
       <r>   -11.3300     0.0000     4.0000 </r>
       <r>   -11.3200     0.0000     4.0000 </r>
       <r>   -11.3100     0.0000     4.0000 </r>
       <r>   -11.3000     0.0000     4.0000 </r>
       <r>   -11.2900     0.0000     4.0000 </r>
       <r>   -11.2800     0.0000     4.0000 </r>
       <r>   -11.2700     0.0000     4.0000 </r>
       <r>   -11.2600     0.0000     4.0000 </r>
       <r>   -11.2500     0.0000     4.0000 </r>
       <r>   -11.2400     0.0000     4.0000 </r>
       <r>   -11.2300     0.0000     4.0000 </r>
       <r>   -11.2200     0.0000     4.0000 </r>
       <r>   -11.2100     0.0000     4.0000 </r>
       <r>   -11.2000     0.0000     4.0000 </r>
       <r>   -11.1900     0.0000     4.0000 </r>
       <r>   -11.1800     0.0000     4.0000 </r>
       <r>   -11.1700     0.0000     4.0000 </r>
       <r>   -11.1600     0.0000     4.0000 </r>
       <r>   -11.1500     0.0000     4.0000 </r>
       <r>   -11.1400     0.0000     4.0000 </r>
       <r>   -11.1300     0.0000     4.0000 </r>
       <r>   -11.1200     0.0000     4.0000 </r>
       <r>   -11.1100     0.0000     4.0000 </r>
       <r>   -11.1000     0.0000     4.0000 </r>
       <r>   -11.0900     0.0000     4.0000 </r>
       <r>   -11.0800     0.0000     4.0000 </r>
       <r>   -11.0700     0.0000     4.0000 </r>
       <r>   -11.0600     0.0000     4.0000 </r>
       <r>   -11.0500     0.0000     4.0000 </r>
       <r>   -11.0400     0.0000     4.0000 </r>
       <r>   -11.0300     0.0000     4.0000 </r>
       <r>   -11.0200     0.0000     4.0000 </r>
       <r>   -11.0100     0.0000     4.0000 </r>
       <r>   -11.0000     0.0000     4.0000 </r>
       <r>   -10.9900     0.0000     4.0000 </r>
       <r>   -10.9800     0.0000     4.0000 </r>
       <r>   -10.9700     0.0000     4.0000 </r>
       <r>   -10.9600     0.0000     4.0000 </r>
       <r>   -10.9500     0.0000     4.0000 </r>
       <r>   -10.9400     0.0000     4.0000 </r>
       <r>   -10.9300     0.0000     4.0000 </r>
       <r>   -10.9200     0.0000     4.0000 </r>
       <r>   -10.9100     0.0000     4.0000 </r>
       <r>   -10.9000     0.0000     4.0000 </r>
       <r>   -10.8900     0.0000     4.0000 </r>
       <r>   -10.8800     0.0000     4.0000 </r>
       <r>   -10.8700     0.0000     4.0000 </r>
       <r>   -10.8600     0.0000     4.0000 </r>
       <r>   -10.8500     0.0000     4.0000 </r>
       <r>   -10.8400     0.0000     4.0000 </r>
       <r>   -10.8300     0.0000     4.0000 </r>
       <r>   -10.8200     0.0000     4.0000 </r>
       <r>   -10.8100     0.0000     4.0000 </r>
       <r>   -10.8000     0.0000     4.0000 </r>
       <r>   -10.7900     0.0000     4.0000 </r>
       <r>   -10.7800     0.0000     4.0000 </r>
       <r>   -10.7700     0.0000     4.0000 </r>
       <r>   -10.7600     0.0000     4.0000 </r>
       <r>   -10.7500     0.0000     4.0000 </r>
       <r>   -10.7400     0.0000     4.0000 </r>
       <r>   -10.7300     0.0000     4.0000 </r>
       <r>   -10.7200     0.0000     4.0000 </r>
       <r>   -10.7100     0.0000     4.0000 </r>
       <r>   -10.7000     0.0000     4.0000 </r>
       <r>   -10.6900     0.0000     4.0000 </r>
       <r>   -10.6800     0.0000     4.0000 </r>
       <r>   -10.6700     0.0000     4.0000 </r>
       <r>   -10.6600     0.0000     4.0000 </r>
       <r>   -10.6500     0.0000     4.0000 </r>
       <r>   -10.6400     0.0000     4.0000 </r>
       <r>   -10.6300     0.0000     4.0000 </r>
       <r>   -10.6200     0.0000     4.0000 </r>
       <r>   -10.6100     0.0000     4.0000 </r>
       <r>   -10.6000     0.0000     4.0000 </r>
       <r>   -10.5900     0.0000     4.0000 </r>
       <r>   -10.5800     0.0000     4.0000 </r>
       <r>   -10.5700     0.0000     4.0000 </r>
       <r>   -10.5600     0.0000     4.0000 </r>
       <r>   -10.5500     0.0000     4.0000 </r>
       <r>   -10.5400     0.0000     4.0000 </r>
       <r>   -10.5300     0.0000     4.0000 </r>
       <r>   -10.5200     0.0000     4.0000 </r>
       <r>   -10.5100     0.0000     4.0000 </r>
       <r>   -10.5000     0.0000     4.0000 </r>
       <r>   -10.4900     0.0000     4.0000 </r>
       <r>   -10.4800     0.0000     4.0000 </r>
       <r>   -10.4700     0.0000     4.0000 </r>
       <r>   -10.4600     0.0000     4.0000 </r>
       <r>   -10.4500     0.0000     4.0000 </r>
       <r>   -10.4400     0.0000     4.0000 </r>
       <r>   -10.4300     0.0000     4.0000 </r>
       <r>   -10.4200     0.0000     4.0000 </r>
       <r>   -10.4100     0.0000     4.0000 </r>
       <r>   -10.4000     0.0000     4.0000 </r>
       <r>   -10.3900     0.0000     4.0000 </r>
       <r>   -10.3800     0.0000     4.0000 </r>
       <r>   -10.3700     0.0000     4.0000 </r>
       <r>   -10.3600     0.0000     4.0000 </r>
       <r>   -10.3500     0.0000     4.0000 </r>
       <r>   -10.3400     0.0000     4.0000 </r>
       <r>   -10.3300     0.0000     4.0000 </r>
       <r>   -10.3200     0.0000     4.0000 </r>
       <r>   -10.3100     0.0000     4.0000 </r>
       <r>   -10.3000     0.0000     4.0000 </r>
       <r>   -10.2900     0.0000     4.0000 </r>
       <r>   -10.2800     0.0000     4.0000 </r>
       <r>   -10.2700     0.0000     4.0000 </r>
       <r>   -10.2600     0.0000     4.0000 </r>
       <r>   -10.2500     0.0000     4.0000 </r>
       <r>   -10.2400     0.0000     4.0000 </r>
       <r>   -10.2300     0.0000     4.0000 </r>
       <r>   -10.2200     0.0000     4.0000 </r>
       <r>   -10.2100     0.0000     4.0000 </r>
       <r>   -10.2000     0.0000     4.0000 </r>
       <r>   -10.1900     0.0000     4.0000 </r>
       <r>   -10.1800     0.0000     4.0000 </r>
       <r>   -10.1700     0.0000     4.0000 </r>
       <r>   -10.1600     0.0000     4.0000 </r>
       <r>   -10.1500     0.0000     4.0000 </r>
       <r>   -10.1400     0.0000     4.0000 </r>
       <r>   -10.1300     0.0000     4.0000 </r>
       <r>   -10.1200     0.0000     4.0000 </r>
       <r>   -10.1100     0.0000     4.0000 </r>
       <r>   -10.1000     0.0000     4.0000 </r>
       <r>   -10.0900     0.0000     4.0000 </r>
       <r>   -10.0800     0.0000     4.0000 </r>
       <r>   -10.0700     0.0000     4.0000 </r>
       <r>   -10.0600     0.0000     4.0000 </r>
       <r>   -10.0500     0.0000     4.0000 </r>
       <r>   -10.0400     0.0000     4.0000 </r>
       <r>   -10.0300     0.0000     4.0000 </r>
       <r>   -10.0200     0.0000     4.0000 </r>
       <r>   -10.0100     0.0000     4.0000 </r>
       <r>   -10.0000     0.0000     4.0000 </r>
       <r>    -9.9900     0.0000     4.0000 </r>
       <r>    -9.9800     0.0000     4.0000 </r>
       <r>    -9.9700     0.0000     4.0000 </r>
       <r>    -9.9600     0.0000     4.0000 </r>
       <r>    -9.9500     0.0000     4.0000 </r>
       <r>    -9.9400     0.0000     4.0000 </r>
       <r>    -9.9300     0.0000     4.0000 </r>
       <r>    -9.9200     0.0000     4.0000 </r>
       <r>    -9.9100     0.0000     4.0000 </r>
       <r>    -9.9000     0.0000     4.0000 </r>
       <r>    -9.8900     0.0000     4.0000 </r>
       <r>    -9.8800     0.0000     4.0000 </r>
       <r>    -9.8700     0.0000     4.0000 </r>
       <r>    -9.8600     0.0000     4.0000 </r>
       <r>    -9.8500     0.0000     4.0000 </r>
       <r>    -9.8400     0.0000     4.0000 </r>
       <r>    -9.8300     0.0000     4.0000 </r>
       <r>    -9.8200     0.0000     4.0000 </r>
       <r>    -9.8100     0.0000     4.0000 </r>
       <r>    -9.8000     0.0000     4.0000 </r>
       <r>    -9.7900     0.0000     4.0000 </r>
       <r>    -9.7800     0.0000     4.0000 </r>
       <r>    -9.7700     0.0000     4.0000 </r>
       <r>    -9.7600     0.0000     4.0000 </r>
       <r>    -9.7500     0.0000     4.0000 </r>
       <r>    -9.7400     0.0000     4.0000 </r>
       <r>    -9.7300     0.0000     4.0000 </r>
       <r>    -9.7200     0.0000     4.0000 </r>
       <r>    -9.7100     0.0000     4.0000 </r>
       <r>    -9.7000     0.0000     4.0000 </r>
       <r>    -9.6900     0.0000     4.0000 </r>
       <r>    -9.6800     0.0000     4.0000 </r>
       <r>    -9.6700     0.0000     4.0000 </r>
       <r>    -9.6600     0.0000     4.0000 </r>
       <r>    -9.6500     0.0000     4.0000 </r>
       <r>    -9.6400     0.0000     4.0000 </r>
       <r>    -9.6300     0.0000     4.0000 </r>
       <r>    -9.6200     0.0000     4.0000 </r>
       <r>    -9.6100     0.0000     4.0000 </r>
       <r>    -9.6000     0.0000     4.0000 </r>
       <r>    -9.5900     0.0000     4.0000 </r>
       <r>    -9.5800     0.0000     4.0000 </r>
       <r>    -9.5700     0.0000     4.0000 </r>
       <r>    -9.5600     0.0000     4.0000 </r>
       <r>    -9.5500     0.0000     4.0000 </r>
       <r>    -9.5400     0.0000     4.0000 </r>
       <r>    -9.5300     0.0000     4.0000 </r>
       <r>    -9.5200     0.0000     4.0000 </r>
       <r>    -9.5100     0.0000     4.0000 </r>
       <r>    -9.5000     0.0000     4.0000 </r>
       <r>    -9.4900     0.0000     4.0000 </r>
       <r>    -9.4800     0.0000     4.0000 </r>
       <r>    -9.4700     0.0000     4.0000 </r>
       <r>    -9.4600     0.0000     4.0000 </r>
       <r>    -9.4500     0.0000     4.0000 </r>
       <r>    -9.4400     0.0000     4.0000 </r>
       <r>    -9.4300     0.0000     4.0000 </r>
       <r>    -9.4200     0.0000     4.0000 </r>
       <r>    -9.4100     0.0000     4.0000 </r>
       <r>    -9.4000     0.0000     4.0000 </r>
       <r>    -9.3900     0.0000     4.0000 </r>
       <r>    -9.3800     0.0000     4.0000 </r>
       <r>    -9.3700     0.0000     4.0000 </r>
       <r>    -9.3600     0.0000     4.0000 </r>
       <r>    -9.3500     0.0000     4.0000 </r>
       <r>    -9.3400     0.0000     4.0000 </r>
       <r>    -9.3300     0.0000     4.0000 </r>
       <r>    -9.3200     0.0000     4.0000 </r>
       <r>    -9.3100     0.0000     4.0000 </r>
       <r>    -9.3000     0.0000     4.0000 </r>
       <r>    -9.2900     0.0000     4.0000 </r>
       <r>    -9.2800     0.0000     4.0000 </r>
       <r>    -9.2700     0.0000     4.0000 </r>
       <r>    -9.2600     0.0000     4.0000 </r>
       <r>    -9.2500     0.0000     4.0000 </r>
       <r>    -9.2400     0.0000     4.0000 </r>
       <r>    -9.2300     0.0000     4.0000 </r>
       <r>    -9.2200     0.0000     4.0000 </r>
       <r>    -9.2100     0.0000     4.0000 </r>
       <r>    -9.2000     0.0000     4.0000 </r>
       <r>    -9.1900     0.0000     4.0000 </r>
       <r>    -9.1800     0.0000     4.0000 </r>
       <r>    -9.1700     0.0000     4.0000 </r>
       <r>    -9.1600     0.0000     4.0000 </r>
       <r>    -9.1500     0.0000     4.0000 </r>
       <r>    -9.1400     0.0000     4.0000 </r>
       <r>    -9.1300     0.0000     4.0000 </r>
       <r>    -9.1200     0.0000     4.0000 </r>
       <r>    -9.1100     0.0000     4.0000 </r>
       <r>    -9.1000     0.0000     4.0000 </r>
       <r>    -9.0900     0.0000     4.0000 </r>
       <r>    -9.0800     0.0000     4.0000 </r>
       <r>    -9.0700     0.0000     4.0000 </r>
       <r>    -9.0600     0.0000     4.0000 </r>
       <r>    -9.0500     0.0000     4.0000 </r>
       <r>    -9.0400     0.0000     4.0000 </r>
       <r>    -9.0300     0.0000     4.0000 </r>
       <r>    -9.0200     0.0000     4.0000 </r>
       <r>    -9.0100     0.0000     4.0000 </r>
       <r>    -9.0000     0.0000     4.0000 </r>
       <r>    -8.9900     0.0000     4.0000 </r>
       <r>    -8.9800     0.0000     4.0000 </r>
       <r>    -8.9700     0.0000     4.0000 </r>
       <r>    -8.9600     0.0000     4.0000 </r>
       <r>    -8.9500     0.0000     4.0000 </r>
       <r>    -8.9400     0.0000     4.0000 </r>
       <r>    -8.9300     0.0000     4.0000 </r>
       <r>    -8.9200     0.0000     4.0000 </r>
       <r>    -8.9100     0.0000     4.0000 </r>
       <r>    -8.9000     0.0000     4.0000 </r>
       <r>    -8.8900     0.0000     4.0000 </r>
       <r>    -8.8800     0.0000     4.0000 </r>
       <r>    -8.8700     0.0000     4.0000 </r>
       <r>    -8.8600     0.0000     4.0000 </r>
       <r>    -8.8500     0.0000     4.0000 </r>
       <r>    -8.8400     0.0000     4.0000 </r>
       <r>    -8.8300     0.0000     4.0000 </r>
       <r>    -8.8200     0.0000     4.0000 </r>
       <r>    -8.8100     0.0000     4.0000 </r>
       <r>    -8.8000     0.0000     4.0000 </r>
       <r>    -8.7900     0.0000     4.0000 </r>
       <r>    -8.7800     0.0000     4.0000 </r>
       <r>    -8.7700     0.0000     4.0000 </r>
       <r>    -8.7600     0.0000     4.0000 </r>
       <r>    -8.7500     0.0000     4.0000 </r>
       <r>    -8.7400     0.0000     4.0000 </r>
       <r>    -8.7300     0.0000     4.0000 </r>
       <r>    -8.7200     0.0000     4.0000 </r>
       <r>    -8.7100     0.0000     4.0000 </r>
       <r>    -8.7000     0.0000     4.0000 </r>
       <r>    -8.6900     0.0000     4.0000 </r>
       <r>    -8.6800     0.0000     4.0000 </r>
       <r>    -8.6700     0.0000     4.0000 </r>
       <r>    -8.6600     0.0001     4.0000 </r>
       <r>    -8.6500     0.0001     4.0000 </r>
       <r>    -8.6400     0.0001     4.0000 </r>
       <r>    -8.6300     0.0001     4.0000 </r>
       <r>    -8.6200     0.0002     4.0000 </r>
       <r>    -8.6100     0.0002     4.0000 </r>
       <r>    -8.6000     0.0003     4.0000 </r>
       <r>    -8.5900     0.0004     4.0000 </r>
       <r>    -8.5800     0.0005     4.0000 </r>
       <r>    -8.5700     0.0006     4.0000 </r>
       <r>    -8.5600     0.0008     4.0000 </r>
       <r>    -8.5500     0.0010     4.0000 </r>
       <r>    -8.5400     0.0013     4.0001 </r>
       <r>    -8.5300     0.0016     4.0001 </r>
       <r>    -8.5200     0.0020     4.0001 </r>
       <r>    -8.5100     0.0025     4.0001 </r>
       <r>    -8.5000     0.0031     4.0001 </r>
       <r>    -8.4900     0.0038     4.0002 </r>
       <r>    -8.4800     0.0046     4.0002 </r>
       <r>    -8.4700     0.0056     4.0003 </r>
       <r>    -8.4600     0.0069     4.0004 </r>
       <r>    -8.4500     0.0083     4.0004 </r>
       <r>    -8.4400     0.0100     4.0005 </r>
       <r>    -8.4300     0.0120     4.0007 </r>
       <r>    -8.4200     0.0142     4.0008 </r>
       <r>    -8.4100     0.0169     4.0010 </r>
       <r>    -8.4000     0.0199     4.0012 </r>
       <r>    -8.3900     0.0234     4.0014 </r>
       <r>    -8.3800     0.0274     4.0017 </r>
       <r>    -8.3700     0.0318     4.0020 </r>
       <r>    -8.3600     0.0368     4.0024 </r>
       <r>    -8.3500     0.0425     4.0028 </r>
       <r>    -8.3400     0.0487     4.0033 </r>
       <r>    -8.3300     0.0556     4.0038 </r>
       <r>    -8.3200     0.0632     4.0045 </r>
       <r>    -8.3100     0.0715     4.0052 </r>
       <r>    -8.3000     0.0806     4.0060 </r>
       <r>    -8.2900     0.0904     4.0069 </r>
       <r>    -8.2800     0.1009     4.0079 </r>
       <r>    -8.2700     0.1123     4.0090 </r>
       <r>    -8.2600     0.1243     4.0103 </r>
       <r>    -8.2500     0.1372     4.0116 </r>
       <r>    -8.2400     0.1508     4.0131 </r>
       <r>    -8.2300     0.1651     4.0148 </r>
       <r>    -8.2200     0.1802     4.0166 </r>
       <r>    -8.2100     0.1960     4.0186 </r>
       <r>    -8.2000     0.2125     4.0207 </r>
       <r>    -8.1900     0.2297     4.0230 </r>
       <r>    -8.1800     0.2477     4.0255 </r>
       <r>    -8.1700     0.2664     4.0281 </r>
       <r>    -8.1600     0.2858     4.0310 </r>
       <r>    -8.1500     0.3062     4.0340 </r>
       <r>    -8.1400     0.3274     4.0373 </r>
       <r>    -8.1300     0.3496     4.0408 </r>
       <r>    -8.1200     0.3729     4.0445 </r>
       <r>    -8.1100     0.3975     4.0485 </r>
       <r>    -8.1000     0.4234     4.0527 </r>
       <r>    -8.0900     0.4509     4.0573 </r>
       <r>    -8.0800     0.4802     4.0621 </r>
       <r>    -8.0700     0.5115     4.0672 </r>
       <r>    -8.0600     0.5449     4.0726 </r>
       <r>    -8.0500     0.5807     4.0784 </r>
       <r>    -8.0400     0.6191     4.0846 </r>
       <r>    -8.0300     0.6604     4.0912 </r>
       <r>    -8.0200     0.7046     4.0983 </r>
       <r>    -8.0100     0.7521     4.1058 </r>
       <r>    -8.0000     0.8029     4.1138 </r>
       <r>    -7.9900     0.8571     4.1224 </r>
       <r>    -7.9800     0.9148     4.1315 </r>
       <r>    -7.9700     0.9759     4.1413 </r>
       <r>    -7.9600     1.0405     4.1517 </r>
       <r>    -7.9500     1.1084     4.1628 </r>
       <r>    -7.9400     1.1794     4.1746 </r>
       <r>    -7.9300     1.2531     4.1871 </r>
       <r>    -7.9200     1.3294     4.2004 </r>
       <r>    -7.9100     1.4077     4.2145 </r>
       <r>    -7.9000     1.4876     4.2294 </r>
       <r>    -7.8900     1.5687     4.2450 </r>
       <r>    -7.8800     1.6502     4.2615 </r>
       <r>    -7.8700     1.7315     4.2789 </r>
       <r>    -7.8600     1.8121     4.2970 </r>
       <r>    -7.8500     1.8912     4.3159 </r>
       <r>    -7.8400     1.9683     4.3356 </r>
       <r>    -7.8300     2.0425     4.3560 </r>
       <r>    -7.8200     2.1133     4.3771 </r>
       <r>    -7.8100     2.1801     4.3989 </r>
       <r>    -7.8000     2.2424     4.4214 </r>
       <r>    -7.7900     2.2996     4.4444 </r>
       <r>    -7.7800     2.3515     4.4679 </r>
       <r>    -7.7700     2.3977     4.4919 </r>
       <r>    -7.7600     2.4380     4.5162 </r>
       <r>    -7.7500     2.4724     4.5410 </r>
       <r>    -7.7400     2.5008     4.5660 </r>
       <r>    -7.7300     2.5235     4.5912 </r>
       <r>    -7.7200     2.5406     4.6166 </r>
       <r>    -7.7100     2.5527     4.6421 </r>
       <r>    -7.7000     2.5601     4.6677 </r>
       <r>    -7.6900     2.5634     4.6934 </r>
       <r>    -7.6800     2.5633     4.7190 </r>
       <r>    -7.6700     2.5606     4.7446 </r>
       <r>    -7.6600     2.5561     4.7702 </r>
       <r>    -7.6500     2.5506     4.7957 </r>
       <r>    -7.6400     2.5450     4.8211 </r>
       <r>    -7.6300     2.5402     4.8465 </r>
       <r>    -7.6200     2.5371     4.8719 </r>
       <r>    -7.6100     2.5365     4.8973 </r>
       <r>    -7.6000     2.5393     4.9227 </r>
       <r>    -7.5900     2.5462     4.9481 </r>
       <r>    -7.5800     2.5578     4.9737 </r>
       <r>    -7.5700     2.5749     4.9994 </r>
       <r>    -7.5600     2.5977     5.0254 </r>
       <r>    -7.5500     2.6268     5.0517 </r>
       <r>    -7.5400     2.6623     5.0783 </r>
       <r>    -7.5300     2.7043     5.1054 </r>
       <r>    -7.5200     2.7528     5.1329 </r>
       <r>    -7.5100     2.8077     5.1610 </r>
       <r>    -7.5000     2.8685     5.1896 </r>
       <r>    -7.4900     2.9350     5.2190 </r>
       <r>    -7.4800     3.0065     5.2491 </r>
       <r>    -7.4700     3.0823     5.2799 </r>
       <r>    -7.4600     3.1618     5.3115 </r>
       <r>    -7.4500     3.2440     5.3439 </r>
       <r>    -7.4400     3.3280     5.3772 </r>
       <r>    -7.4300     3.4129     5.4113 </r>
       <r>    -7.4200     3.4975     5.4463 </r>
       <r>    -7.4100     3.5809     5.4821 </r>
       <r>    -7.4000     3.6620     5.5188 </r>
       <r>    -7.3900     3.7397     5.5561 </r>
       <r>    -7.3800     3.8130     5.5943 </r>
       <r>    -7.3700     3.8810     5.6331 </r>
       <r>    -7.3600     3.9425     5.6725 </r>
       <r>    -7.3500     3.9969     5.7125 </r>
       <r>    -7.3400     4.0432     5.7529 </r>
       <r>    -7.3300     4.0808     5.7937 </r>
       <r>    -7.3200     4.1090     5.8348 </r>
       <r>    -7.3100     4.1273     5.8761 </r>
       <r>    -7.3000     4.1352     5.9174 </r>
       <r>    -7.2900     4.1324     5.9588 </r>
       <r>    -7.2800     4.1187     5.9999 </r>
       <r>    -7.2700     4.0940     6.0409 </r>
       <r>    -7.2600     4.0583     6.0815 </r>
       <r>    -7.2500     4.0116     6.1216 </r>
       <r>    -7.2400     3.9543     6.1611 </r>
       <r>    -7.2300     3.8865     6.2000 </r>
       <r>    -7.2200     3.8088     6.2381 </r>
       <r>    -7.2100     3.7217     6.2753 </r>
       <r>    -7.2000     3.6257     6.3116 </r>
       <r>    -7.1900     3.5215     6.3468 </r>
       <r>    -7.1800     3.4099     6.3809 </r>
       <r>    -7.1700     3.2917     6.4138 </r>
       <r>    -7.1600     3.1678     6.4455 </r>
       <r>    -7.1500     3.0390     6.4759 </r>
       <r>    -7.1400     2.9065     6.5049 </r>
       <r>    -7.1300     2.7710     6.5326 </r>
       <r>    -7.1200     2.6337     6.5590 </r>
       <r>    -7.1100     2.4954     6.5839 </r>
       <r>    -7.1000     2.3573     6.6075 </r>
       <r>    -7.0900     2.2203     6.6297 </r>
       <r>    -7.0800     2.0852     6.6505 </r>
       <r>    -7.0700     1.9529     6.6701 </r>
       <r>    -7.0600     1.8244     6.6883 </r>
       <r>    -7.0500     1.7003     6.7053 </r>
       <r>    -7.0400     1.5813     6.7211 </r>
       <r>    -7.0300     1.4680     6.7358 </r>
       <r>    -7.0200     1.3609     6.7494 </r>
       <r>    -7.0100     1.2606     6.7620 </r>
       <r>    -7.0000     1.1673     6.7737 </r>
       <r>    -6.9900     1.0812     6.7845 </r>
       <r>    -6.9800     1.0025     6.7945 </r>
       <r>    -6.9700     0.9313     6.8039 </r>
       <r>    -6.9600     0.8675     6.8125 </r>
       <r>    -6.9500     0.8111     6.8206 </r>
       <r>    -6.9400     0.7617     6.8283 </r>
       <r>    -6.9300     0.7193     6.8355 </r>
       <r>    -6.9200     0.6833     6.8423 </r>
       <r>    -6.9100     0.6535     6.8488 </r>
       <r>    -6.9000     0.6294     6.8551 </r>
       <r>    -6.8900     0.6106     6.8612 </r>
       <r>    -6.8800     0.5965     6.8672 </r>
       <r>    -6.8700     0.5866     6.8730 </r>
       <r>    -6.8600     0.5804     6.8789 </r>
       <r>    -6.8500     0.5773     6.8846 </r>
       <r>    -6.8400     0.5770     6.8904 </r>
       <r>    -6.8300     0.5788     6.8962 </r>
       <r>    -6.8200     0.5825     6.9020 </r>
       <r>    -6.8100     0.5874     6.9079 </r>
       <r>    -6.8000     0.5935     6.9138 </r>
       <r>    -6.7900     0.6002     6.9198 </r>
       <r>    -6.7800     0.6075     6.9259 </r>
       <r>    -6.7700     0.6151     6.9320 </r>
       <r>    -6.7600     0.6231     6.9383 </r>
       <r>    -6.7500     0.6313     6.9446 </r>
       <r>    -6.7400     0.6399     6.9510 </r>
       <r>    -6.7300     0.6490     6.9575 </r>
       <r>    -6.7200     0.6588     6.9641 </r>
       <r>    -6.7100     0.6696     6.9708 </r>
       <r>    -6.7000     0.6817     6.9776 </r>
       <r>    -6.6900     0.6955     6.9845 </r>
       <r>    -6.6800     0.7114     6.9916 </r>
       <r>    -6.6700     0.7299     6.9989 </r>
       <r>    -6.6600     0.7515     7.0065 </r>
       <r>    -6.6500     0.7765     7.0142 </r>
       <r>    -6.6400     0.8055     7.0223 </r>
       <r>    -6.6300     0.8390     7.0307 </r>
       <r>    -6.6200     0.8773     7.0394 </r>
       <r>    -6.6100     0.9209     7.0487 </r>
       <r>    -6.6000     0.9700     7.0584 </r>
       <r>    -6.5900     1.0251     7.0686 </r>
       <r>    -6.5800     1.0862     7.0795 </r>
       <r>    -6.5700     1.1536     7.0910 </r>
       <r>    -6.5600     1.2272     7.1033 </r>
       <r>    -6.5500     1.3072     7.1163 </r>
       <r>    -6.5400     1.3933     7.1303 </r>
       <r>    -6.5300     1.4855     7.1451 </r>
       <r>    -6.5200     1.5834     7.1610 </r>
       <r>    -6.5100     1.6867     7.1778 </r>
       <r>    -6.5000     1.7950     7.1958 </r>
       <r>    -6.4900     1.9078     7.2149 </r>
       <r>    -6.4800     2.0245     7.2351 </r>
       <r>    -6.4700     2.1446     7.2566 </r>
       <r>    -6.4600     2.2673     7.2792 </r>
       <r>    -6.4500     2.3921     7.3031 </r>
       <r>    -6.4400     2.5180     7.3283 </r>
       <r>    -6.4300     2.6444     7.3548 </r>
       <r>    -6.4200     2.7704     7.3825 </r>
       <r>    -6.4100     2.8954     7.4114 </r>
       <r>    -6.4000     3.0184     7.4416 </r>
       <r>    -6.3900     3.1387     7.4730 </r>
       <r>    -6.3800     3.2555     7.5056 </r>
       <r>    -6.3700     3.3681     7.5392 </r>
       <r>    -6.3600     3.4756     7.5740 </r>
       <r>    -6.3500     3.5775     7.6098 </r>
       <r>    -6.3400     3.6731     7.6465 </r>
       <r>    -6.3300     3.7617     7.6841 </r>
       <r>    -6.3200     3.8428     7.7225 </r>
       <r>    -6.3100     3.9160     7.7617 </r>
       <r>    -6.3000     3.9807     7.8015 </r>
       <r>    -6.2900     4.0367     7.8419 </r>
       <r>    -6.2800     4.0836     7.8827 </r>
       <r>    -6.2700     4.1213     7.9239 </r>
       <r>    -6.2600     4.1496     7.9654 </r>
       <r>    -6.2500     4.1685     8.0071 </r>
       <r>    -6.2400     4.1781     8.0489 </r>
       <r>    -6.2300     4.1785     8.0907 </r>
       <r>    -6.2200     4.1699     8.1324 </r>
       <r>    -6.2100     4.1527     8.1739 </r>
       <r>    -6.2000     4.1271     8.2152 </r>
       <r>    -6.1900     4.0937     8.2561 </r>
       <r>    -6.1800     4.0530     8.2966 </r>
       <r>    -6.1700     4.0055     8.3367 </r>
       <r>    -6.1600     3.9518     8.3762 </r>
       <r>    -6.1500     3.8925     8.4151 </r>
       <r>    -6.1400     3.8283     8.4534 </r>
       <r>    -6.1300     3.7599     8.4910 </r>
       <r>    -6.1200     3.6880     8.5279 </r>
       <r>    -6.1100     3.6130     8.5640 </r>
       <r>    -6.1000     3.5357     8.5994 </r>
       <r>    -6.0900     3.4566     8.6340 </r>
       <r>    -6.0800     3.3763     8.6677 </r>
       <r>    -6.0700     3.2952     8.7007 </r>
       <r>    -6.0600     3.2136     8.7328 </r>
       <r>    -6.0500     3.1321     8.7641 </r>
       <r>    -6.0400     3.0508     8.7946 </r>
       <r>    -6.0300     2.9700     8.8243 </r>
       <r>    -6.0200     2.8899     8.8532 </r>
       <r>    -6.0100     2.8107     8.8813 </r>
       <r>    -6.0000     2.7324     8.9087 </r>
       <r>    -5.9900     2.6551     8.9352 </r>
       <r>    -5.9800     2.5790     8.9610 </r>
       <r>    -5.9700     2.5040     8.9860 </r>
       <r>    -5.9600     2.4303     9.0103 </r>
       <r>    -5.9500     2.3580     9.0339 </r>
       <r>    -5.9400     2.2873     9.0568 </r>
       <r>    -5.9300     2.2183     9.0790 </r>
       <r>    -5.9200     2.1513     9.1005 </r>
       <r>    -5.9100     2.0867     9.1214 </r>
       <r>    -5.9000     2.0249     9.1416 </r>
       <r>    -5.8900     1.9662     9.1613 </r>
       <r>    -5.8800     1.9114     9.1804 </r>
       <r>    -5.8700     1.8609     9.1990 </r>
       <r>    -5.8600     1.8154     9.2172 </r>
       <r>    -5.8500     1.7757     9.2349 </r>
       <r>    -5.8400     1.7425     9.2523 </r>
       <r>    -5.8300     1.7167     9.2695 </r>
       <r>    -5.8200     1.6989     9.2865 </r>
       <r>    -5.8100     1.6900     9.3034 </r>
       <r>    -5.8000     1.6907     9.3203 </r>
       <r>    -5.7900     1.7018     9.3373 </r>
       <r>    -5.7800     1.7237     9.3546 </r>
       <r>    -5.7700     1.7572     9.3721 </r>
       <r>    -5.7600     1.8025     9.3901 </r>
       <r>    -5.7500     1.8600     9.4087 </r>
       <r>    -5.7400     1.9297     9.4280 </r>
       <r>    -5.7300     2.0117     9.4482 </r>
       <r>    -5.7200     2.1058     9.4692 </r>
       <r>    -5.7100     2.2114     9.4913 </r>
       <r>    -5.7000     2.3281     9.5146 </r>
       <r>    -5.6900     2.4551     9.5392 </r>
       <r>    -5.6800     2.5913     9.5651 </r>
       <r>    -5.6700     2.7358     9.5924 </r>
       <r>    -5.6600     2.8871     9.6213 </r>
       <r>    -5.6500     3.0438     9.6517 </r>
       <r>    -5.6400     3.2044     9.6838 </r>
       <r>    -5.6300     3.3671     9.7175 </r>
       <r>    -5.6200     3.5302     9.7528 </r>
       <r>    -5.6100     3.6920     9.7897 </r>
       <r>    -5.6000     3.8506     9.8282 </r>
       <r>    -5.5900     4.0041     9.8682 </r>
       <r>    -5.5800     4.1509     9.9097 </r>
       <r>    -5.5700     4.2893     9.9526 </r>
       <r>    -5.5600     4.4178     9.9968 </r>
       <r>    -5.5500     4.5348    10.0422 </r>
       <r>    -5.5400     4.6391    10.0885 </r>
       <r>    -5.5300     4.7297    10.1358 </r>
       <r>    -5.5200     4.8055    10.1839 </r>
       <r>    -5.5100     4.8661    10.2326 </r>
       <r>    -5.5000     4.9107    10.2817 </r>
       <r>    -5.4900     4.9392    10.3311 </r>
       <r>    -5.4800     4.9516    10.3806 </r>
       <r>    -5.4700     4.9479    10.4301 </r>
       <r>    -5.4600     4.9285    10.4793 </r>
       <r>    -5.4500     4.8938    10.5283 </r>
       <r>    -5.4400     4.8446    10.5767 </r>
       <r>    -5.4300     4.7817    10.6245 </r>
       <r>    -5.4200     4.7060    10.6716 </r>
       <r>    -5.4100     4.6184    10.7178 </r>
       <r>    -5.4000     4.5202    10.7630 </r>
       <r>    -5.3900     4.4124    10.8071 </r>
       <r>    -5.3800     4.2962    10.8501 </r>
       <r>    -5.3700     4.1729    10.8918 </r>
       <r>    -5.3600     4.0435    10.9322 </r>
       <r>    -5.3500     3.9094    10.9713 </r>
       <r>    -5.3400     3.7716    11.0090 </r>
       <r>    -5.3300     3.6313    11.0454 </r>
       <r>    -5.3200     3.4895    11.0803 </r>
       <r>    -5.3100     3.3473    11.1137 </r>
       <r>    -5.3000     3.2057    11.1458 </r>
       <r>    -5.2900     3.0655    11.1764 </r>
       <r>    -5.2800     2.9277    11.2057 </r>
       <r>    -5.2700     2.7931    11.2336 </r>
       <r>    -5.2600     2.6623    11.2603 </r>
       <r>    -5.2500     2.5362    11.2856 </r>
       <r>    -5.2400     2.4152    11.3098 </r>
       <r>    -5.2300     2.3001    11.3328 </r>
       <r>    -5.2200     2.1914    11.3547 </r>
       <r>    -5.2100     2.0894    11.3756 </r>
       <r>    -5.2000     1.9946    11.3955 </r>
       <r>    -5.1900     1.9074    11.4146 </r>
       <r>    -5.1800     1.8279    11.4329 </r>
       <r>    -5.1700     1.7565    11.4505 </r>
       <r>    -5.1600     1.6932    11.4674 </r>
       <r>    -5.1500     1.6382    11.4838 </r>
       <r>    -5.1400     1.5913    11.4997 </r>
       <r>    -5.1300     1.5524    11.5152 </r>
       <r>    -5.1200     1.5215    11.5304 </r>
       <r>    -5.1100     1.4983    11.5454 </r>
       <r>    -5.1000     1.4824    11.5602 </r>
       <r>    -5.0900     1.4734    11.5750 </r>
       <r>    -5.0800     1.4709    11.5897 </r>
       <r>    -5.0700     1.4745    11.6044 </r>
       <r>    -5.0600     1.4834    11.6193 </r>
       <r>    -5.0500     1.4971    11.6342 </r>
       <r>    -5.0400     1.5150    11.6494 </r>
       <r>    -5.0300     1.5364    11.6647 </r>
       <r>    -5.0200     1.5606    11.6803 </r>
       <r>    -5.0100     1.5869    11.6962 </r>
       <r>    -5.0000     1.6145    11.7124 </r>
       <r>    -4.9900     1.6429    11.7288 </r>
       <r>    -4.9800     1.6713    11.7455 </r>
       <r>    -4.9700     1.6991    11.7625 </r>
       <r>    -4.9600     1.7258    11.7798 </r>
       <r>    -4.9500     1.7507    11.7973 </r>
       <r>    -4.9400     1.7733    11.8150 </r>
       <r>    -4.9300     1.7932    11.8329 </r>
       <r>    -4.9200     1.8100    11.8510 </r>
       <r>    -4.9100     1.8233    11.8693 </r>
       <r>    -4.9000     1.8328    11.8876 </r>
       <r>    -4.8900     1.8383    11.9060 </r>
       <r>    -4.8800     1.8397    11.9244 </r>
       <r>    -4.8700     1.8368    11.9427 </r>
       <r>    -4.8600     1.8296    11.9610 </r>
       <r>    -4.8500     1.8181    11.9792 </r>
       <r>    -4.8400     1.8023    11.9972 </r>
       <r>    -4.8300     1.7824    12.0151 </r>
       <r>    -4.8200     1.7585    12.0326 </r>
       <r>    -4.8100     1.7309    12.0499 </r>
       <r>    -4.8000     1.6998    12.0669 </r>
       <r>    -4.7900     1.6655    12.0836 </r>
       <r>    -4.7800     1.6283    12.0999 </r>
       <r>    -4.7700     1.5888    12.1158 </r>
       <r>    -4.7600     1.5472    12.1312 </r>
       <r>    -4.7500     1.5042    12.1463 </r>
       <r>    -4.7400     1.4601    12.1609 </r>
       <r>    -4.7300     1.4156    12.1750 </r>
       <r>    -4.7200     1.3712    12.1888 </r>
       <r>    -4.7100     1.3276    12.2020 </r>
       <r>    -4.7000     1.2853    12.2149 </r>
       <r>    -4.6900     1.2451    12.2273 </r>
       <r>    -4.6800     1.2075    12.2394 </r>
       <r>    -4.6700     1.1733    12.2511 </r>
       <r>    -4.6600     1.1432    12.2626 </r>
       <r>    -4.6500     1.1179    12.2738 </r>
       <r>    -4.6400     1.0979    12.2847 </r>
       <r>    -4.6300     1.0841    12.2956 </r>
       <r>    -4.6200     1.0770    12.3063 </r>
       <r>    -4.6100     1.0772    12.3171 </r>
       <r>    -4.6000     1.0853    12.3280 </r>
       <r>    -4.5900     1.1018    12.3390 </r>
       <r>    -4.5800     1.1272    12.3503 </r>
       <r>    -4.5700     1.1618    12.3619 </r>
       <r>    -4.5600     1.2059    12.3739 </r>
       <r>    -4.5500     1.2599    12.3865 </r>
       <r>    -4.5400     1.3238    12.3998 </r>
       <r>    -4.5300     1.3976    12.4137 </r>
       <r>    -4.5200     1.4814    12.4286 </r>
       <r>    -4.5100     1.5750    12.4443 </r>
       <r>    -4.5000     1.6780    12.4611 </r>
       <r>    -4.4900     1.7902    12.4790 </r>
       <r>    -4.4800     1.9111    12.4981 </r>
       <r>    -4.4700     2.0401    12.5185 </r>
       <r>    -4.4600     2.1766    12.5403 </r>
       <r>    -4.4500     2.3197    12.5635 </r>
       <r>    -4.4400     2.4687    12.5882 </r>
       <r>    -4.4300     2.6226    12.6144 </r>
       <r>    -4.4200     2.7805    12.6422 </r>
       <r>    -4.4100     2.9412    12.6716 </r>
       <r>    -4.4000     3.1037    12.7026 </r>
       <r>    -4.3900     3.2668    12.7353 </r>
       <r>    -4.3800     3.4295    12.7696 </r>
       <r>    -4.3700     3.5904    12.8055 </r>
       <r>    -4.3600     3.7485    12.8430 </r>
       <r>    -4.3500     3.9027    12.8820 </r>
       <r>    -4.3400     4.0516    12.9225 </r>
       <r>    -4.3300     4.1944    12.9645 </r>
       <r>    -4.3200     4.3299    13.0078 </r>
       <r>    -4.3100     4.4571    13.0523 </r>
       <r>    -4.3000     4.5752    13.0981 </r>
       <r>    -4.2900     4.6833    13.1449 </r>
       <r>    -4.2800     4.7805    13.1927 </r>
       <r>    -4.2700     4.8663    13.2414 </r>
       <r>    -4.2600     4.9401    13.2908 </r>
       <r>    -4.2500     5.0013    13.3408 </r>
       <r>    -4.2400     5.0495    13.3913 </r>
       <r>    -4.2300     5.0845    13.4422 </r>
       <r>    -4.2200     5.1061    13.4932 </r>
       <r>    -4.2100     5.1141    13.5444 </r>
       <r>    -4.2000     5.1086    13.5954 </r>
       <r>    -4.1900     5.0897    13.6463 </r>
       <r>    -4.1800     5.0575    13.6969 </r>
       <r>    -4.1700     5.0125    13.7470 </r>
       <r>    -4.1600     4.9549    13.7966 </r>
       <r>    -4.1500     4.8853    13.8454 </r>
       <r>    -4.1400     4.8043    13.8935 </r>
       <r>    -4.1300     4.7124    13.9406 </r>
       <r>    -4.1200     4.6106    13.9867 </r>
       <r>    -4.1100     4.4995    14.0317 </r>
       <r>    -4.1000     4.3800    14.0755 </r>
       <r>    -4.0900     4.2531    14.1180 </r>
       <r>    -4.0800     4.1199    14.1592 </r>
       <r>    -4.0700     3.9812    14.1990 </r>
       <r>    -4.0600     3.8382    14.2374 </r>
       <r>    -4.0500     3.6921    14.2744 </r>
       <r>    -4.0400     3.5438    14.3098 </r>
       <r>    -4.0300     3.3946    14.3437 </r>
       <r>    -4.0200     3.2455    14.3762 </r>
       <r>    -4.0100     3.0978    14.4072 </r>
       <r>    -4.0000     2.9523    14.4367 </r>
       <r>    -3.9900     2.8103    14.4648 </r>
       <r>    -3.9800     2.6726    14.4915 </r>
       <r>    -3.9700     2.5403    14.5169 </r>
       <r>    -3.9600     2.4143    14.5411 </r>
       <r>    -3.9500     2.2953    14.5640 </r>
       <r>    -3.9400     2.1841    14.5859 </r>
       <r>    -3.9300     2.0813    14.6067 </r>
       <r>    -3.9200     1.9876    14.6266 </r>
       <r>    -3.9100     1.9034    14.6456 </r>
       <r>    -3.9000     1.8291    14.6639 </r>
       <r>    -3.8900     1.7648    14.6815 </r>
       <r>    -3.8800     1.7109    14.6986 </r>
       <r>    -3.8700     1.6672    14.7153 </r>
       <r>    -3.8600     1.6338    14.7316 </r>
       <r>    -3.8500     1.6105    14.7477 </r>
       <r>    -3.8400     1.5969    14.7637 </r>
       <r>    -3.8300     1.5928    14.7796 </r>
       <r>    -3.8200     1.5975    14.7956 </r>
       <r>    -3.8100     1.6106    14.8117 </r>
       <r>    -3.8000     1.6313    14.8280 </r>
       <r>    -3.7900     1.6589    14.8446 </r>
       <r>    -3.7800     1.6926    14.8616 </r>
       <r>    -3.7700     1.7315    14.8789 </r>
       <r>    -3.7600     1.7747    14.8966 </r>
       <r>    -3.7500     1.8213    14.9148 </r>
       <r>    -3.7400     1.8702    14.9335 </r>
       <r>    -3.7300     1.9206    14.9527 </r>
       <r>    -3.7200     1.9715    14.9725 </r>
       <r>    -3.7100     2.0221    14.9927 </r>
       <r>    -3.7000     2.0714    15.0134 </r>
       <r>    -3.6900     2.1187    15.0346 </r>
       <r>    -3.6800     2.1633    15.0562 </r>
       <r>    -3.6700     2.2047    15.0783 </r>
       <r>    -3.6600     2.2422    15.1007 </r>
       <r>    -3.6500     2.2756    15.1234 </r>
       <r>    -3.6400     2.3045    15.1465 </r>
       <r>    -3.6300     2.3288    15.1698 </r>
       <r>    -3.6200     2.3485    15.1932 </r>
       <r>    -3.6100     2.3636    15.2169 </r>
       <r>    -3.6000     2.3744    15.2406 </r>
       <r>    -3.5900     2.3811    15.2644 </r>
       <r>    -3.5800     2.3842    15.2883 </r>
       <r>    -3.5700     2.3840    15.3121 </r>
       <r>    -3.5600     2.3813    15.3359 </r>
       <r>    -3.5500     2.3765    15.3597 </r>
       <r>    -3.5400     2.3703    15.3834 </r>
       <r>    -3.5300     2.3633    15.4070 </r>
       <r>    -3.5200     2.3562    15.4306 </r>
       <r>    -3.5100     2.3495    15.4541 </r>
       <r>    -3.5000     2.3440    15.4775 </r>
       <r>    -3.4900     2.3402    15.5009 </r>
       <r>    -3.4800     2.3384    15.5243 </r>
       <r>    -3.4700     2.3393    15.5477 </r>
       <r>    -3.4600     2.3430    15.5711 </r>
       <r>    -3.4500     2.3500    15.5946 </r>
       <r>    -3.4400     2.3603    15.6182 </r>
       <r>    -3.4300     2.3740    15.6420 </r>
       <r>    -3.4200     2.3911    15.6659 </r>
       <r>    -3.4100     2.4115    15.6900 </r>
       <r>    -3.4000     2.4350    15.7144 </r>
       <r>    -3.3900     2.4614    15.7390 </r>
       <r>    -3.3800     2.4902    15.7639 </r>
       <r>    -3.3700     2.5212    15.7891 </r>
       <r>    -3.3600     2.5538    15.8146 </r>
       <r>    -3.3500     2.5876    15.8405 </r>
       <r>    -3.3400     2.6219    15.8667 </r>
       <r>    -3.3300     2.6564    15.8933 </r>
       <r>    -3.3200     2.6904    15.9202 </r>
       <r>    -3.3100     2.7234    15.9474 </r>
       <r>    -3.3000     2.7549    15.9750 </r>
       <r>    -3.2900     2.7844    16.0028 </r>
       <r>    -3.2800     2.8114    16.0309 </r>
       <r>    -3.2700     2.8357    16.0593 </r>
       <r>    -3.2600     2.8568    16.0879 </r>
       <r>    -3.2500     2.8744    16.1166 </r>
       <r>    -3.2400     2.8885    16.1455 </r>
       <r>    -3.2300     2.8989    16.1745 </r>
       <r>    -3.2200     2.9056    16.2035 </r>
       <r>    -3.2100     2.9086    16.2326 </r>
       <r>    -3.2000     2.9080    16.2617 </r>
       <r>    -3.1900     2.9041    16.2907 </r>
       <r>    -3.1800     2.8972    16.3197 </r>
       <r>    -3.1700     2.8874    16.3486 </r>
       <r>    -3.1600     2.8754    16.3773 </r>
       <r>    -3.1500     2.8614    16.4059 </r>
       <r>    -3.1400     2.8461    16.4344 </r>
       <r>    -3.1300     2.8297    16.4627 </r>
       <r>    -3.1200     2.8130    16.4908 </r>
       <r>    -3.1100     2.7963    16.5188 </r>
       <r>    -3.1000     2.7801    16.5466 </r>
       <r>    -3.0900     2.7649    16.5743 </r>
       <r>    -3.0800     2.7511    16.6018 </r>
       <r>    -3.0700     2.7390    16.6292 </r>
       <r>    -3.0600     2.7288    16.6564 </r>
       <r>    -3.0500     2.7207    16.6836 </r>
       <r>    -3.0400     2.7148    16.7108 </r>
       <r>    -3.0300     2.7112    16.7379 </r>
       <r>    -3.0200     2.7096    16.7650 </r>
       <r>    -3.0100     2.7098    16.7921 </r>
       <r>    -3.0000     2.7116    16.8192 </r>
       <r>    -2.9900     2.7145    16.8464 </r>
       <r>    -2.9800     2.7181    16.8735 </r>
       <r>    -2.9700     2.7217    16.9008 </r>
       <r>    -2.9600     2.7248    16.9280 </r>
       <r>    -2.9500     2.7268    16.9553 </r>
       <r>    -2.9400     2.7269    16.9825 </r>
       <r>    -2.9300     2.7245    17.0098 </r>
       <r>    -2.9200     2.7189    17.0370 </r>
       <r>    -2.9100     2.7096    17.0641 </r>
       <r>    -2.9000     2.6959    17.0910 </r>
       <r>    -2.8900     2.6774    17.1178 </r>
       <r>    -2.8800     2.6538    17.1443 </r>
       <r>    -2.8700     2.6248    17.1706 </r>
       <r>    -2.8600     2.5902    17.1965 </r>
       <r>    -2.8500     2.5500    17.2220 </r>
       <r>    -2.8400     2.5043    17.2470 </r>
       <r>    -2.8300     2.4535    17.2716 </r>
       <r>    -2.8200     2.3978    17.2956 </r>
       <r>    -2.8100     2.3378    17.3189 </r>
       <r>    -2.8000     2.2741    17.3417 </r>
       <r>    -2.7900     2.2074    17.3637 </r>
       <r>    -2.7800     2.1384    17.3851 </r>
       <r>    -2.7700     2.0680    17.4058 </r>
       <r>    -2.7600     1.9970    17.4258 </r>
       <r>    -2.7500     1.9263    17.4450 </r>
       <r>    -2.7400     1.8567    17.4636 </r>
       <r>    -2.7300     1.7890    17.4815 </r>
       <r>    -2.7200     1.7241    17.4987 </r>
       <r>    -2.7100     1.6625    17.5154 </r>
       <r>    -2.7000     1.6048    17.5314 </r>
       <r>    -2.6900     1.5516    17.5469 </r>
       <r>    -2.6800     1.5031    17.5620 </r>
       <r>    -2.6700     1.4597    17.5766 </r>
       <r>    -2.6600     1.4214    17.5908 </r>
       <r>    -2.6500     1.3881    17.6047 </r>
       <r>    -2.6400     1.3598    17.6182 </r>
       <r>    -2.6300     1.3361    17.6316 </r>
       <r>    -2.6200     1.3167    17.6448 </r>
       <r>    -2.6100     1.3012    17.6578 </r>
       <r>    -2.6000     1.2889    17.6707 </r>
       <r>    -2.5900     1.2792    17.6835 </r>
       <r>    -2.5800     1.2716    17.6962 </r>
       <r>    -2.5700     1.2652    17.7088 </r>
       <r>    -2.5600     1.2596    17.7214 </r>
       <r>    -2.5500     1.2539    17.7340 </r>
       <r>    -2.5400     1.2476    17.7464 </r>
       <r>    -2.5300     1.2400    17.7588 </r>
       <r>    -2.5200     1.2306    17.7712 </r>
[...]
        <r>  0.0072  0.0713  0.0134  0.0405  0.0000  0.0000  0.0000  0.0000  0.0000 </r>
        <r>  0.0072  0.0713  0.0134  0.0405  0.0000  0.0000  0.0000  0.0000  0.0000 </r>
       </set>
       <set comment="band 11">
        <r>  0.0059  0.0061  0.0000  0.0055  0.2851  0.0000  0.0990  0.0000  0.1012 </r>
        <r>  0.0007  0.0397  0.0048  0.0956  0.0000  0.0000  0.0000  0.0000  0.0000 </r>
        <r>  0.0007  0.0397  0.0049  0.0957  0.0000  0.0000  0.0000  0.0000  0.0000 </r>
       </set>
       <set comment="band 12">
        <r>  0.0000  0.0000  0.0002  0.0000  0.0000  0.2432  0.0000  0.3035  0.0000 </r>
        <r>  0.0257  0.0395  0.0134  0.0145  0.0000  0.0000  0.0000  0.0000  0.0000 </r>
        <r>  0.0257  0.0395  0.0134  0.0145  0.0000  0.0000  0.0000  0.0000  0.0000 </r>
       </set>
       <set comment="band 13">
        <r>  0.0000  0.0000  0.0027  0.0000  0.0000  0.2525  0.0000  0.1916  0.0000 </r>
        <r>  0.0025  0.0405  0.0086  0.1195  0.0000  0.0000  0.0000  0.0000  0.0000 </r>
        <r>  0.0025  0.0405  0.0086  0.1195  0.0000  0.0000  0.0000  0.0000  0.0000 </r>
       </set>
       <set comment="band 14">
        <r>  0.0075  0.0037  0.0000  0.0018  0.0014  0.0000  0.0209  0.0000  0.0035 </r>
        <r>  0.0068  0.0053  0.0047  0.0019  0.0000  0.0000  0.0000  0.0000  0.0000 </r>
        <r>  0.0069  0.0054  0.0051  0.0019  0.0000  0.0000  0.0000  0.0000  0.0000 </r>
       </set>
      </set>
      <set comment="kpoint 7">
       <set comment="band 1">
        <r>  0.0576  0.0184  0.0000  0.0166  0.0142  0.0000  0.0008  0.0000  0.0116 </r>
        <r>  0.3024  0.0013  0.0053  0.0010  0.0000  0.0000  0.0000  0.0000  0.0000 </r>
        <r>  0.3024  0.0013  0.0053  0.0010  0.0000  0.0000  0.0000  0.0000  0.0000 </r>
       </set>
       <set comment="band 2">
        <r>  0.0000  0.0000  0.0239  0.0000  0.0000  0.0400  0.0000  0.0372  0.0000 </r>
        <r>  0.3250  0.0007  0.0018  0.0006  0.0000  0.0000  0.0000  0.0000  0.0000 </r>
        <r>  0.3250  0.0007  0.0018  0.0006  0.0000  0.0000  0.0000  0.0000  0.0000 </r>
       </set>
       <set comment="band 3">
        <r>  0.0219  0.0058  0.0000  0.0251  0.1217  0.0000  0.0656  0.0000  0.1287 </r>
        <r>  0.0017  0.0523  0.0478  0.0482  0.0000  0.0000  0.0000  0.0000  0.0000 </r>
        <r>  0.0017  0.0523  0.0478  0.0482  0.0000  0.0000  0.0000  0.0000  0.0000 </r>
       </set>
       <set comment="band 4">
        <r>  0.0000  0.0000  0.0208  0.0000  0.0000  0.0062  0.0000  0.2846  0.0000 </r>
        <r>  0.0062  0.0662  0.0150  0.0979  0.0000  0.0000  0.0000  0.0000  0.0000 </r>
        <r>  0.0062  0.0662  0.0150  0.0979  0.0000  0.0000  0.0000  0.0000  0.0000 </r>
       </set>
       <set comment="band 5">
        <r>  0.1216  0.0191  0.0000  0.0235  0.0287  0.0000  0.0522  0.0000  0.0057 </r>
        <r>  0.0328  0.0238  0.1107  0.0311  0.0000  0.0000  0.0000  0.0000  0.0000 </r>
        <r>  0.0328  0.0238  0.1107  0.0311  0.0000  0.0000  0.0000  0.0000  0.0000 </r>
       </set>
       <set comment="band 6">
        <r>  0.0000  0.0000  0.0056  0.0000  0.0000  0.3934  0.0000  0.0047  0.0000 </r>
        <r>  0.0029  0.0869  0.0506  0.0342  0.0000  0.0000  0.0000  0.0000  0.0000 </r>
        <r>  0.0029  0.0869  0.0506  0.0342  0.0000  0.0000  0.0000  0.0000  0.0000 </r>
       </set>
       <set comment="band 7">
        <r>  0.0135  0.0434  0.0000  0.0225  0.0265  0.0000  0.1133  0.0000  0.1178 </r>
        <r>  0.0016  0.0794  0.0035  0.0967  0.0000  0.0000  0.0000  0.0000  0.0000 </r>
        <r>  0.0016  0.0794  0.0035  0.0967  0.0000  0.0000  0.0000  0.0000  0.0000 </r>
       </set>
       <set comment="band 8">
        <r>  0.0000  0.0000  0.0647  0.0000  0.0000  0.0064  0.0000  0.0674  0.0000 </r>
        <r>  0.0087  0.0384  0.1533  0.0652  0.0000  0.0000  0.0000  0.0000  0.0000 </r>
        <r>  0.0087  0.0384  0.1533  0.0652  0.0000  0.0000  0.0000  0.0000  0.0000 </r>
       </set>
       <set comment="band 9">
        <r>  0.0025  0.0077  0.0000  0.0016  0.2466  0.0000  0.2341  0.0000  0.1593 </r>
        <r>  0.0043  0.0375  0.0216  0.0219  0.0000  0.0000  0.0000  0.0000  0.0000 </r>
        <r>  0.0043  0.0375  0.0216  0.0219  0.0000  0.0000  0.0000  0.0000  0.0000 </r>
       </set>
       <set comment="band 10">
        <r>  0.0080  0.0088  0.0000  0.0051  0.1226  0.0000  0.0881  0.0000  0.3459 </r>
        <r>  0.0034  0.0444  0.0233  0.0137  0.0000  0.0000  0.0000  0.0000  0.0000 </r>
        <r>  0.0034  0.0444  0.0233  0.0137  0.0000  0.0000  0.0000  0.0000  0.0000 </r>
       </set>
       <set comment="band 11">
        <r>  0.0114  0.0028  0.0000  0.0006  0.3142  0.0000  0.3113  0.0000  0.0885 </r>
        <r>  0.0004  0.0205  0.0071  0.0398  0.0000  0.0000  0.0000  0.0000  0.0000 </r>
        <r>  0.0004  0.0205  0.0071  0.0398  0.0000  0.0000  0.0000  0.0000  0.0000 </r>
       </set>
       <set comment="band 12">
        <r>  0.0000  0.0000  0.0065  0.0000  0.0000  0.1057  0.0000  0.4327  0.0000 </r>
        <r>  0.0211  0.0366  0.0268  0.0058  0.0000  0.0000  0.0000  0.0000  0.0000 </r>
        <r>  0.0211  0.0366  0.0268  0.0058  0.0000  0.0000  0.0000  0.0000  0.0000 </r>
       </set>
       <set comment="band 13">
        <r>  0.0000  0.0000  0.0026  0.0000  0.0000  0.3984  0.0000  0.0885  0.0000 </r>
        <r>  0.0083  0.0430  0.0288  0.0702  0.0000  0.0000  0.0000  0.0000  0.0000 </r>
        <r>  0.0083  0.0430  0.0288  0.0702  0.0000  0.0000  0.0000  0.0000  0.0000 </r>
       </set>
       <set comment="band 14">
        <r>  0.0019  0.0103  0.0000  0.0151  0.0048  0.0000  0.0139  0.0000  0.0085 </r>
        <r>  0.0085  0.0051  0.0058  0.0012  0.0000  0.0000  0.0000  0.0000  0.0000 </r>
        <r>  0.0086  0.0051  0.0061  0.0012  0.0000  0.0000  0.0000  0.0000  0.0000 </r>
       </set>
      </set>
      <set comment="kpoint 8">
       <set comment="band 1">
        <r>  0.0208  0.0185  0.0000  0.0307  0.0314  0.0000  0.0003  0.0000  0.0158 </r>
        <r>  0.3195  0.0004  0.0059  0.0003  0.0000  0.0000  0.0000  0.0000  0.0000 </r>
        <r>  0.3194  0.0004  0.0059  0.0003  0.0000  0.0000  0.0000  0.0000  0.0000 </r>
       </set>
       <set comment="band 2">
        <r>  0.0000  0.0000  0.0071  0.0000  0.0000  0.0407  0.0000  0.0721  0.0000 </r>
        <r>  0.3310  0.0003  0.0027  0.0003  0.0000  0.0000  0.0000  0.0000  0.0000 </r>
        <r>  0.3311  0.0003  0.0027  0.0003  0.0000  0.0000  0.0000  0.0000  0.0000 </r>
       </set>
       <set comment="band 3">
        <r>  0.1026  0.0023  0.0000  0.0266  0.0645  0.0000  0.0342  0.0000  0.0433 </r>
        <r>  0.0043  0.0508  0.0087  0.1019  0.0000  0.0000  0.0000  0.0000  0.0000 </r>
        <r>  0.0043  0.0508  0.0087  0.1019  0.0000  0.0000  0.0000  0.0000  0.0000 </r>
       </set>
       <set comment="band 4">
        <r>  0.0000  0.0000  0.0350  0.0000  0.0000  0.0692  0.0000  0.1795  0.0000 </r>
        <r>  0.0071  0.0573  0.0054  0.1112  0.0000  0.0000  0.0000  0.0000  0.0000 </r>
        <r>  0.0071  0.0573  0.0054  0.1113  0.0000  0.0000  0.0000  0.0000  0.0000 </r>
       </set>
       <set comment="band 5">
        <r>  0.0162  0.0240  0.0000  0.0179  0.1402  0.0000  0.0903  0.0000  0.0527 </r>
        <r>  0.0206  0.0058  0.1295  0.0199  0.0000  0.0000  0.0000  0.0000  0.0000 </r>
        <r>  0.0206  0.0058  0.1295  0.0199  0.0000  0.0000  0.0000  0.0000  0.0000 </r>
       </set>
       <set comment="band 6">
        <r>  0.0000  0.0000  0.0257  0.0000  0.0000  0.3184  0.0000  0.0261  0.0000 </r>
        <r>  0.0020  0.1085  0.0279  0.0475  0.0000  0.0000  0.0000  0.0000  0.0000 </r>
        <r>  0.0020  0.1085  0.0279  0.0475  0.0000  0.0000  0.0000  0.0000  0.0000 </r>
       </set>
       <set comment="band 7">
        <r>  0.0233  0.0416  0.0000  0.0489  0.0014  0.0000  0.0710  0.0000  0.0230 </r>
        <r>  0.0063  0.1215  0.0320  0.0561  0.0000  0.0000  0.0000  0.0000  0.0000 </r>
        <r>  0.0063  0.1215  0.0320  0.0561  0.0000  0.0000  0.0000  0.0000  0.0000 </r>
       </set>
       <set comment="band 8">
        <r>  0.0000  0.0000  0.0363  0.0000  0.0000  0.0160  0.0000  0.1501  0.0000 </r>
        <r>  0.0118  0.0171  0.1757  0.0390  0.0000  0.0000  0.0000  0.0000  0.0000 </r>
        <r>  0.0118  0.0171  0.1757  0.0390  0.0000  0.0000  0.0000  0.0000  0.0000 </r>
       </set>
       <set comment="band 9">
        <r>  0.0034  0.0196  0.0000  0.0198  0.1840  0.0000  0.1603  0.0000  0.1971 </r>
        <r>  0.0008  0.0478  0.0258  0.0261  0.0000  0.0000  0.0000  0.0000  0.0000 </r>
        <r>  0.0008  0.0478  0.0258  0.0261  0.0000  0.0000  0.0000  0.0000  0.0000 </r>
       </set>
       <set comment="band 10">
        <r>  0.0051  0.0091  0.0000  0.0018  0.0649  0.0000  0.3341  0.0000  0.3775 </r>
        <r>  0.0002  0.0266  0.0149  0.0068  0.0000  0.0000  0.0000  0.0000  0.0000 </r>
        <r>  0.0002  0.0266  0.0149  0.0068  0.0000  0.0000  0.0000  0.0000  0.0000 </r>
       </set>
       <set comment="band 11">
        <r>  0.0154  0.0057  0.0000  0.0107  0.3790  0.0000  0.2184  0.0000  0.1807 </r>
        <r>  0.0021  0.0014  0.0171  0.0181  0.0000  0.0000  0.0000  0.0000  0.0000 </r>
        <r>  0.0021  0.0014  0.0171  0.0181  0.0000  0.0000  0.0000  0.0000  0.0000 </r>
       </set>
       <set comment="band 12">
        <r>  0.0000  0.0000  0.0063  0.0000  0.0000  0.1640  0.0000  0.3325  0.0000 </r>
        <r>  0.0091  0.0683  0.0151  0.0162  0.0000  0.0000  0.0000  0.0000  0.0000 </r>
        <r>  0.0091  0.0683  0.0151  0.0162  0.0000  0.0000  0.0000  0.0000  0.0000 </r>
       </set>
       <set comment="band 13">
        <r>  0.0000  0.0000  0.0004  0.0000  0.0000  0.3332  0.0000  0.1444  0.0000 </r>
        <r>  0.0189  0.0144  0.0665  0.0290  0.0000  0.0000  0.0000  0.0000  0.0000 </r>
        <r>  0.0189  0.0144  0.0665  0.0290  0.0000  0.0000  0.0000  0.0000  0.0000 </r>
       </set>
       <set comment="band 14">
        <r>  0.1877  0.0089  0.0000  0.0533  0.0403  0.0000  0.0061  0.0000  0.0387 </r>
        <r>  0.0001  0.0013  0.0115  0.0051  0.0000  0.0000  0.0000  0.0000  0.0000 </r>
        <r>  0.0001  0.0013  0.0115  0.0051  0.0000  0.0000  0.0000  0.0000  0.0000 </r>
       </set>
      </set>
      <set comment="kpoint 9">
       <set comment="band 1">
        <r>  0.0218  0.0321  0.0000  0.0178  0.0177  0.0000  0.0004  0.0000  0.0266 </r>
        <r>  0.3183  0.0009  0.0058  0.0003  0.0000  0.0000  0.0000  0.0000  0.0000 </r>
        <r>  0.3182  0.0009  0.0058  0.0003  0.0000  0.0000  0.0000  0.0000  0.0000 </r>
       </set>
       <set comment="band 2">
        <r>  0.0000  0.0000  0.0084  0.0000  0.0000  0.0705  0.0000  0.0375  0.0000 </r>
        <r>  0.3319  0.0005  0.0027  0.0002  0.0000  0.0000  0.0000  0.0000  0.0000 </r>
        <r>  0.3319  0.0005  0.0027  0.0002  0.0000  0.0000  0.0000  0.0000  0.0000 </r>
       </set>
       <set comment="band 3">
        <r>  0.0650  0.0098  0.0000  0.0293  0.0359  0.0000  0.0616  0.0000  0.1071 </r>
        <r>  0.0004  0.1066  0.0170  0.0360  0.0000  0.0000  0.0000  0.0000  0.0000 </r>
        <r>  0.0004  0.1066  0.0170  0.0360  0.0000  0.0000  0.0000  0.0000  0.0000 </r>
       </set>
       <set comment="band 4">
        <r>  0.0000  0.0000  0.0084  0.0000  0.0000  0.1284  0.0000  0.2208  0.0000 </r>
        <r>  0.0041  0.0958  0.0001  0.0665  0.0000  0.0000  0.0000  0.0000  0.0000 </r>
        <r>  0.0041  0.0958  0.0001  0.0665  0.0000  0.0000  0.0000  0.0000  0.0000 </r>
       </set>
       <set comment="band 5">
        <r>  0.0785  0.0205  0.0000  0.0103  0.0692  0.0000  0.0001  0.0000  0.0673 </r>
        <r>  0.0340  0.0203  0.1496  0.0151  0.0000  0.0000  0.0000  0.0000  0.0000 </r>
        <r>  0.0340  0.0203  0.1496  0.0151  0.0000  0.0000  0.0000  0.0000  0.0000 </r>
       </set>
       <set comment="band 6">
        <r>  0.0000  0.0000  0.0471  0.0000  0.0000  0.1650  0.0000  0.0582  0.0000 </r>
        <r>  0.0039  0.0671  0.0535  0.0781  0.0000  0.0000  0.0000  0.0000  0.0000 </r>
        <r>  0.0039  0.0671  0.0535  0.0781  0.0000  0.0000  0.0000  0.0000  0.0000 </r>
       </set>
       <set comment="band 7">
        <r>  0.0102  0.0636  0.0000  0.0362  0.0089  0.0000  0.1207  0.0000  0.0185 </r>
        <r>  0.0005  0.0419  0.0089  0.1233  0.0000  0.0000  0.0000  0.0000  0.0000 </r>
        <r>  0.0005  0.0419  0.0089  0.1233  0.0000  0.0000  0.0000  0.0000  0.0000 </r>
       </set>
       <set comment="band 8">
        <r>  0.0000  0.0000  0.0523  0.0000  0.0000  0.0593  0.0000  0.0753  0.0000 </r>
        <r>  0.0130  0.0383  0.1559  0.0459  0.0000  0.0000  0.0000  0.0000  0.0000 </r>
        <r>  0.0130  0.0383  0.1559  0.0459  0.0000  0.0000  0.0000  0.0000  0.0000 </r>
       </set>
       <set comment="band 9">
        <r>  0.0074  0.0001  0.0000  0.0000  0.2535  0.0000  0.1474  0.0000  0.2690 </r>
        <r>  0.0010  0.0277  0.0016  0.0449  0.0000  0.0000  0.0000  0.0000  0.0000 </r>
        <r>  0.0010  0.0277  0.0016  0.0449  0.0000  0.0000  0.0000  0.0000  0.0000 </r>
       </set>
       <set comment="band 10">
        <r>  0.0074  0.0139  0.0000  0.0052  0.0463  0.0000  0.5213  0.0000  0.1099 </r>
        <r>  0.0006  0.0275  0.0274  0.0128  0.0000  0.0000  0.0000  0.0000  0.0000 </r>
        <r>  0.0006  0.0275  0.0274  0.0128  0.0000  0.0000  0.0000  0.0000  0.0000 </r>
       </set>
       <set comment="band 11">
        <r>  0.0246  0.0117  0.0000  0.0045  0.4757  0.0000  0.0544  0.0000  0.2307 </r>
        <r>  0.0023  0.0029  0.0261  0.0081  0.0000  0.0000  0.0000  0.0000  0.0000 </r>
        <r>  0.0023  0.0029  0.0262  0.0081  0.0000  0.0000  0.0000  0.0000  0.0000 </r>
       </set>
       <set comment="band 12">
        <r>  0.0000  0.0000  0.0020  0.0000  0.0000  0.1394  0.0000  0.3941  0.0000 </r>
        <r>  0.0076  0.0257  0.0088  0.0394  0.0000  0.0000  0.0000  0.0000  0.0000 </r>
        <r>  0.0076  0.0257  0.0088  0.0394  0.0000  0.0000  0.0000  0.0000  0.0000 </r>
       </set>
       <set comment="band 13">
        <r>  0.0000  0.0000  0.0016  0.0000  0.0000  0.3946  0.0000  0.1490  0.0000 </r>
        <r>  0.0208  0.0094  0.0754  0.0248  0.0000  0.0000  0.0000  0.0000  0.0000 </r>
        <r>  0.0208  0.0094  0.0755  0.0248  0.0000  0.0000  0.0000  0.0000  0.0000 </r>
       </set>
       <set comment="band 14">
        <r>  0.1319  0.0177  0.0000  0.0491  0.0233  0.0000  0.0105  0.0000  0.0694 </r>
        <r>  0.0001  0.0023  0.0278  0.0034  0.0000  0.0000  0.0000  0.0000  0.0000 </r>
        <r>  0.0001  0.0023  0.0278  0.0034  0.0000  0.0000  0.0000  0.0000  0.0000 </r>
       </set>
      </set>
      <set comment="kpoint 10">
       <set comment="band 1">
        <r>  0.0037  0.0239  0.0000  0.0333  0.0320  0.0000  0.0001  0.0000  0.0232 </r>
        <r>  0.3269  0.0001  0.0062  0.0000  0.0000  0.0000  0.0000  0.0000  0.0000 </r>
        <r>  0.3267  0.0001  0.0062  0.0000  0.0000  0.0000  0.0000  0.0000  0.0000 </r>
       </set>
       <set comment="band 2">
        <r>  0.0000  0.0000  0.0012  0.0000  0.0000  0.0490  0.0000  0.0725  0.0000 </r>
        <r>  0.3360  0.0001  0.0031  0.0001  0.0000  0.0000  0.0000  0.0000  0.0000 </r>
        <r>  0.3361  0.0001  0.0031  0.0001  0.0000  0.0000  0.0000  0.0000  0.0000 </r>
       </set>
       <set comment="band 3">
        <r>  0.0000  0.0000  0.0052  0.0000  0.0000  0.1909  0.0000  0.1715  0.0000 </r>
        <r>  0.0014  0.0682  0.0002  0.0892  0.0000  0.0000  0.0000  0.0000  0.0000 </r>
        <r>  0.0014  0.0682  0.0002  0.0892  0.0000  0.0000  0.0000  0.0000  0.0000 </r>
       </set>
       <set comment="band 4">
        <r>  0.1158  0.0140  0.0000  0.0182  0.0234  0.0000  0.0697  0.0000  0.0120 </r>
        <r>  0.0010  0.0456  0.0008  0.1278  0.0000  0.0000  0.0000  0.0000  0.0000 </r>
        <r>  0.0010  0.0457  0.0008  0.1278  0.0000  0.0000  0.0000  0.0000  0.0000 </r>
       </set>
       <set comment="band 5">
        <r>  0.0099  0.0425  0.0000  0.0147  0.1350  0.0000  0.0571  0.0000  0.0583 </r>
        <r>  0.0128  0.0514  0.0918  0.0171  0.0000  0.0000  0.0000  0.0000  0.0000 </r>
        <r>  0.0128  0.0514  0.0918  0.0171  0.0000  0.0000  0.0000  0.0000  0.0000 </r>
       </set>
       <set comment="band 6">
        <r>  0.0254  0.0245  0.0000  0.0604  0.0232  0.0000  0.0166  0.0000  0.0499 </r>
        <r>  0.0174  0.0805  0.0843  0.0298  0.0000  0.0000  0.0000  0.0000  0.0000 </r>
        <r>  0.0174  0.0805  0.0843  0.0298  0.0000  0.0000  0.0000  0.0000  0.0000 </r>
       </set>
       <set comment="band 7">
        <r>  0.0000  0.0000  0.0880  0.0000  0.0000  0.0674  0.0000  0.0295  0.0000 </r>
        <r>  0.0021  0.1084  0.0205  0.0916  0.0000  0.0000  0.0000  0.0000  0.0000 </r>
        <r>  0.0021  0.1084  0.0205  0.0916  0.0000  0.0000  0.0000  0.0000  0.0000 </r>
       </set>
       <set comment="band 8">
        <r>  0.0000  0.0000  0.0202  0.0000  0.0000  0.0930  0.0000  0.1433  0.0000 </r>
        <r>  0.0174  0.0142  0.1843  0.0175  0.0000  0.0000  0.0000  0.0000  0.0000 </r>
        <r>  0.0174  0.0142  0.1843  0.0175  0.0000  0.0000  0.0000  0.0000  0.0000 </r>
       </set>
       <set comment="band 9">
        <r>  0.0039  0.0023  0.0000  0.0065  0.3005  0.0000  0.0597  0.0000  0.3201 </r>
        <r>  0.0000  0.0395  0.0037  0.0253  0.0000  0.0000  0.0000  0.0000  0.0000 </r>
        <r>  0.0000  0.0395  0.0037  0.0253  0.0000  0.0000  0.0000  0.0000  0.0000 </r>
       </set>
       <set comment="band 10">
        <r>  0.0367  0.0018  0.0000  0.0007  0.0402  0.0000  0.7004  0.0000  0.0491 </r>
        <r>  0.0000  0.0133  0.0025  0.0204  0.0000  0.0000  0.0000  0.0000  0.0000 </r>
        <r>  0.0000  0.0133  0.0025  0.0204  0.0000  0.0000  0.0000  0.0000  0.0000 </r>
       </set>
       <set comment="band 11">
        <r>  0.0000  0.0000  0.0013  0.0000  0.0000  0.3130  0.0000  0.1959  0.0000 </r>
        <r>  0.0008  0.0487  0.0001  0.0299  0.0000  0.0000  0.0000  0.0000  0.0000 </r>
        <r>  0.0008  0.0487  0.0001  0.0299  0.0000  0.0000  0.0000  0.0000  0.0000 </r>
       </set>
       <set comment="band 12">
        <r>  0.0025  0.0104  0.0000  0.0214  0.2945  0.0000  0.0103  0.0000  0.3826 </r>
        <r>  0.0037  0.0009  0.0672  0.0012  0.0000  0.0000  0.0000  0.0000  0.0000 </r>
        <r>  0.0037  0.0009  0.0672  0.0012  0.0000  0.0000  0.0000  0.0000  0.0000 </r>
       </set>
       <set comment="band 13">
        <r>  0.0000  0.0000  0.0003  0.0000  0.0000  0.2357  0.0000  0.3392  0.0000 </r>
        <r>  0.0266  0.0010  0.0995  0.0019  0.0000  0.0000  0.0000  0.0000  0.0000 </r>
        <r>  0.0266  0.0010  0.0995  0.0019  0.0000  0.0000  0.0000  0.0000  0.0000 </r>
       </set>
       <set comment="band 14">
        <r>  0.1175  0.0533  0.0000  0.0640  0.0537  0.0000  0.0084  0.0000  0.0326 </r>
        <r>  0.0003  0.0020  0.0027  0.0043  0.0000  0.0000  0.0000  0.0000  0.0000 </r>
        <r>  0.0003  0.0020  0.0027  0.0043  0.0000  0.0000  0.0000  0.0000  0.0000 </r>
       </set>
      </set>
     </set>
    </set>
   </array>
  </projected>
 </calculation>
 <structure name="finalpos" >
  <crystal>
   <varray name="basis" >
    <v>       3.19031573       0.00000000       0.00000000 </v>
    <v>      -1.59515786       2.76289447       0.00000000 </v>
    <v>       0.00000000       0.00000000      18.87900430 </v>
   </varray>
   <i name="volume">    166.40909068 </i>
   <varray name="rec_basis" >
    <v>       0.31344860       0.18096963       0.00000000 </v>
    <v>       0.00000000       0.36193927       0.00000000 </v>
    <v>       0.00000000       0.00000000       0.05296890 </v>
   </varray>
  </crystal>
  <varray name="positions" >
   <v>       0.33333300       0.66666700       0.19703111 </v>
   <v>       0.66666700       0.33333300       0.11414091 </v>
   <v>       0.66666600       0.33333300       0.27992130 </v>
  </varray>
 </structure>
</modeling>
