       N       E                     dE             d eps       ncg     rms          rms(c)
DAV:   1     0.199426965681E+03    0.19943E+03   -0.14755E+04  1232   0.126E+03
DAV:   2    -0.289104731540E+02   -0.22834E+03   -0.22245E+03  1690   0.262E+02
DAV:   3    -0.462640139230E+02   -0.17354E+02   -0.17278E+02  1608   0.737E+01
DAV:   4    -0.468070955336E+02   -0.54308E+00   -0.54240E+00  1714   0.136E+01
DAV:   5    -0.468219156641E+02   -0.14820E-01   -0.14815E-01  1636   0.212E+00    0.974E+00
DAV:   6    -0.444286336801E+02    0.23933E+01   -0.24816E+01  1654   0.233E+01    0.394E+00
DAV:   7    -0.437255938944E+02    0.70304E+00   -0.53437E+00  1666   0.134E+01    0.219E+00
DAV:   8    -0.436060498177E+02    0.11954E+00   -0.50525E-01  1592   0.407E+00    0.487E-01
DAV:   9    -0.436067863806E+02   -0.73656E-03   -0.69640E-02  1720   0.138E+00    0.279E-01
DAV:  10    -0.436053293372E+02    0.14570E-02   -0.23335E-02  1856   0.785E-01    0.108E-01
DAV:  11    -0.436049909060E+02    0.33843E-03   -0.24368E-03  1640   0.291E-01    0.258E-02
DAV:  12    -0.436051117446E+02   -0.12084E-03   -0.48849E-04  1562   0.131E-01    0.160E-02
DAV:  13    -0.436051137910E+02   -0.20465E-05   -0.97675E-05  1850   0.559E-02    0.119E-02
DAV:  14    -0.436051103883E+02    0.34027E-05   -0.39913E-05  1722   0.342E-02    0.219E-03
DAV:  15    -0.436051102453E+02    0.14298E-06   -0.21344E-06  1168   0.930E-03
   1 F= -.44954732E+02 E0= -.44954732E+02  d E =-.449547E+02
       N       E                     dE             d eps       ncg     rms          rms(c)
DAV:   1    -0.436236237904E+02   -0.18513E-01   -0.87781E-01  1286   0.564E+00    0.718E-01
DAV:   2    -0.436036630406E+02    0.19961E-01   -0.35147E-02  1382   0.108E+00    0.412E-01
DAV:   3    -0.435952932337E+02    0.83698E-02   -0.31638E-02  1418   0.860E-01    0.140E-01
DAV:   4    -0.435950045547E+02    0.28868E-03   -0.25542E-03  1460   0.321E-01    0.708E-02
DAV:   5    -0.435949802510E+02    0.24304E-04   -0.12563E-03  1688   0.175E-01    0.199E-02
DAV:   6    -0.435949795187E+02    0.73231E-06   -0.18205E-04  1496   0.777E-02    0.559E-03
DAV:   7    -0.435949812802E+02   -0.17616E-05   -0.15806E-05  1832   0.221E-02    0.231E-03
DAV:   8    -0.435949817018E+02   -0.42154E-06   -0.11523E-06   998   0.694E-03
   2 F= -.44951585E+02 E0= -.44951585E+02  d E =0.314708E-02
       N       E                     dE             d eps       ncg     rms          rms(c)
DAV:   1    -0.436162142399E+02   -0.21233E-01   -0.58039E-01  1232   0.464E+00    0.494E-01
DAV:   2    -0.436058450331E+02    0.10369E-01   -0.51179E-02  1256   0.124E+00    0.758E-02
DAV:   3    -0.436057883809E+02    0.56652E-04   -0.14313E-03  1778   0.224E-01    0.519E-02
DAV:   4    -0.436057029022E+02    0.85479E-04   -0.51054E-04  1540   0.117E-01    0.837E-03
DAV:   5    -0.436057077667E+02   -0.48645E-05   -0.99572E-05  1452   0.578E-02    0.108E-02
DAV:   6    -0.436057006457E+02    0.71210E-05   -0.17729E-05  1400   0.245E-02    0.381E-03
DAV:   7    -0.436057006791E+02   -0.33450E-07   -0.22821E-06  1000   0.887E-03
   3 F= -.44958843E+02 E0= -.44958842E+02  d E =-.725775E-02
       N       E                     dE             d eps       ncg     rms          rms(c)
DAV:   1    -0.436063243270E+02   -0.62368E-03   -0.11986E-01  1232   0.172E+00    0.131E-01
DAV:   2    -0.436056450344E+02    0.67929E-03   -0.83312E-03  1292   0.590E-01    0.207E-02
DAV:   3    -0.436056577413E+02   -0.12707E-04   -0.28956E-04  1606   0.107E-01    0.151E-02
DAV:   4    -0.436056515977E+02    0.61435E-05   -0.53003E-05  1810   0.398E-02    0.376E-03
DAV:   5    -0.436056550423E+02   -0.34445E-05   -0.25340E-05  1570   0.272E-02    0.755E-03
DAV:   6    -0.436056520168E+02    0.30255E-05   -0.48313E-06  1396   0.123E-02    0.314E-03
DAV:   7    -0.436056512712E+02    0.74554E-06   -0.19162E-06   926   0.730E-03
   4 F= -.44960777E+02 E0= -.44960777E+02  d E =-.193500E-02
       N       E                     dE             d eps       ncg     rms          rms(c)
DAV:   1    -0.440169620729E+02   -0.41131E+00   -0.10624E+02  1232   0.527E+01    0.385E+00
DAV:   2    -0.435877007655E+02    0.42926E+00   -0.65031E+00  1286   0.170E+01    0.768E-01
DAV:   3    -0.436135632651E+02   -0.25862E-01   -0.42042E-01  1570   0.340E+00    0.596E-01
DAV:   4    -0.436054034457E+02    0.81598E-02   -0.19386E-02  1436   0.840E-01    0.358E-01
DAV:   5    -0.436016239573E+02    0.37795E-02   -0.33796E-02  1494   0.864E-01    0.132E-01
DAV:   6    -0.436016811770E+02   -0.57220E-04   -0.16605E-03  1562   0.256E-01    0.124E-01
DAV:   7    -0.436011244287E+02    0.55675E-03   -0.21854E-03  1472   0.229E-01    0.286E-02
DAV:   8    -0.436011478330E+02   -0.23404E-04   -0.57017E-04  1698   0.119E-01    0.282E-02
DAV:   9    -0.436011302504E+02    0.17583E-04   -0.29102E-05  1588   0.313E-02    0.170E-02
DAV:  10    -0.436011235212E+02    0.67292E-05   -0.91685E-05  1664   0.448E-02    0.758E-03
DAV:  11    -0.436011214922E+02    0.20290E-05   -0.37797E-06  1146   0.132E-02    0.443E-03
DAV:  12    -0.436011211473E+02    0.34490E-06   -0.16261E-06   914   0.665E-03
   5 F= -.44906179E+02 E0= -.44906179E+02  d E =0.545990E-01
       N       E                     dE             d eps       ncg     rms          rms(c)
DAV:   1    -0.436058463709E+02   -0.47249E-02   -0.21846E+00  1232   0.720E+00    0.441E-01
DAV:   2    -0.436124740379E+02   -0.66277E-02   -0.16920E-01  1248   0.234E+00    0.491E-01
DAV:   3    -0.436309993530E+02   -0.18525E-01   -0.40815E-02  1622   0.886E-01    0.887E-01
DAV:   4    -0.436045566393E+02    0.26443E-01   -0.75958E-02  1460   0.133E+00    0.245E-01
DAV:   5    -0.436032326117E+02    0.13240E-02   -0.12540E-02  1690   0.566E-01    0.379E-02
DAV:   6    -0.436031953548E+02    0.37257E-04   -0.55269E-04  1654   0.127E-01    0.309E-02
DAV:   7    -0.436031728202E+02    0.22535E-04   -0.68279E-05  1386   0.516E-02    0.185E-02
DAV:   8    -0.436031630708E+02    0.97494E-05   -0.30806E-05  1436   0.284E-02    0.464E-03
DAV:   9    -0.436031620001E+02    0.10707E-05   -0.24710E-06  1160   0.880E-03    0.348E-03
DAV:  10    -0.436031624662E+02   -0.46610E-06   -0.77119E-06  1512   0.131E-02
   6 F= -.44912419E+02 E0= -.44912419E+02  d E =-.624094E-02
       N       E                     dE             d eps       ncg     rms          rms(c)
DAV:   1    -0.436077687886E+02   -0.46068E-02   -0.92218E-01  1232   0.476E+00    0.366E-01
DAV:   2    -0.436033914264E+02    0.43774E-02   -0.65705E-02  1268   0.155E+00    0.145E-01
DAV:   3    -0.436028367708E+02    0.55466E-03   -0.19968E-03  1576   0.266E-01    0.712E-02
DAV:   4    -0.436026559149E+02    0.18086E-03   -0.13282E-03  1452   0.180E-01    0.139E-02
DAV:   5    -0.436026639335E+02   -0.80186E-05   -0.14512E-04  1404   0.780E-02    0.123E-02
DAV:   6    -0.436026618079E+02    0.21256E-05   -0.19034E-05  1424   0.226E-02    0.316E-03
DAV:   7    -0.436026615931E+02    0.21474E-06   -0.37301E-06  1116   0.111E-02
   7 F= -.44908168E+02 E0= -.44908168E+02  d E =0.425185E-02
       N       E                     dE             d eps       ncg     rms          rms(c)
DAV:   1    -0.438665060328E+02   -0.26384E+00   -0.59245E+01  1232   0.389E+01    0.291E+00
DAV:   2    -0.441126828743E+02   -0.24618E+00   -0.64269E+00  1296   0.139E+01    0.379E+00
DAV:   3    -0.442298026888E+02   -0.11712E+00   -0.25306E-01  1820   0.258E+00    0.421E+00
DAV:   4    -0.500378439843E+02   -0.58080E+01   -0.51105E+01  1604   0.342E+01    0.124E+01
DAV:   5    -0.438315253590E+02    0.62063E+01   -0.17117E+01  1476   0.222E+01    0.306E+00
DAV:   6    -0.436196425019E+02    0.21188E+00   -0.36279E+00  1718   0.967E+00    0.141E+00
DAV:   7    -0.436306859157E+02   -0.11043E-01   -0.33219E-01  1352   0.328E+00    0.101E+00
DAV:   8    -0.436101150623E+02    0.20571E-01   -0.28954E-01  1584   0.270E+00    0.628E-01
DAV:   9    -0.436031990293E+02    0.69160E-02   -0.26210E-02  1442   0.111E+00    0.476E-01
DAV:  10    -0.435993504678E+02    0.38486E-02   -0.80576E-03  1600   0.414E-01    0.325E-01
DAV:  11    -0.435987730605E+02    0.57741E-03   -0.48853E-04  1730   0.134E-01    0.280E-01
DAV:  12    -0.435969549722E+02    0.18181E-02   -0.33482E-03  1462   0.285E-01    0.152E-01
DAV:  13    -0.435965054693E+02    0.44950E-03   -0.28374E-03  1708   0.267E-01    0.425E-02
DAV:  14    -0.435965329276E+02   -0.27458E-04   -0.16213E-04  1606   0.719E-02    0.424E-02
DAV:  15    -0.435965413050E+02   -0.83774E-05   -0.74909E-06  1472   0.146E-02    0.457E-02
DAV:  16    -0.435966217851E+02   -0.80480E-04   -0.16941E-03  1582   0.203E-01    0.678E-02
DAV:  17    -0.435970911177E+02   -0.46933E-03   -0.98625E-04  1768   0.159E-01    0.146E-01
DAV:  18    -0.435969427342E+02    0.14838E-03   -0.77642E-05  1528   0.530E-02    0.129E-01
DAV:  19    -0.435968685541E+02    0.74180E-04   -0.22902E-05  1720   0.232E-02    0.118E-01
DAV:  20    -0.435964707225E+02    0.39783E-03   -0.17254E-03  1598   0.205E-01    0.743E-03
DAV:  21    -0.435964765559E+02   -0.58334E-05   -0.59605E-05  1314   0.550E-02    0.606E-03
DAV:  22    -0.435964767148E+02   -0.15887E-06   -0.10441E-06   704   0.632E-03
   8 F= -.44875914E+02 E0= -.44875914E+02  d E =0.322536E-01
       N       E                     dE             d eps       ncg     rms          rms(c)
DAV:   1    -0.435992792229E+02   -0.28027E-02   -0.55783E-02  1232   0.135E+00    0.122E-01
DAV:   2    -0.435998824563E+02   -0.60323E-03   -0.11542E-02  1672   0.615E-01    0.230E-01
DAV:   3    -0.435983842654E+02    0.14982E-02   -0.40387E-03  1648   0.349E-01    0.100E-01
DAV:   4    -0.435984220196E+02   -0.37754E-04   -0.27463E-03  1618   0.252E-01    0.124E-01
DAV:   5    -0.435983115670E+02    0.11045E-03   -0.98131E-05  1652   0.641E-02    0.113E-01
DAV:   6    -0.435980047814E+02    0.30679E-03   -0.15344E-03  1624   0.211E-01    0.322E-02
DAV:   7    -0.435980042972E+02    0.48411E-06   -0.11969E-04  1316   0.700E-02    0.277E-02
DAV:   8    -0.435979934471E+02    0.10850E-04   -0.19770E-05  1632   0.226E-02    0.154E-02
DAV:   9    -0.435979880419E+02    0.54052E-05   -0.10985E-05  1418   0.165E-02    0.947E-03
DAV:  10    -0.435979862329E+02    0.18090E-05   -0.15485E-05  1408   0.181E-02    0.246E-03
DAV:  11    -0.435979859103E+02    0.32262E-06   -0.93393E-07   718   0.634E-03
   9 F= -.44875537E+02 E0= -.44875537E+02  d E =0.376826E-03
       N       E                     dE             d eps       ncg     rms          rms(c)
DAV:   1    -0.435994532751E+02   -0.14670E-02   -0.18052E-01  1244   0.210E+00    0.166E-01
DAV:   2    -0.435989502085E+02    0.50307E-03   -0.16477E-02  1268   0.710E-01    0.130E-01
DAV:   3    -0.435983741895E+02    0.57602E-03   -0.32292E-03  1564   0.321E-01    0.509E-02
DAV:   4    -0.435983278599E+02    0.46330E-04   -0.29737E-04  1298   0.121E-01    0.102E-02
DAV:   5    -0.435983278048E+02    0.55108E-07   -0.24763E-05  1568   0.271E-02    0.533E-03
DAV:   6    -0.435983267150E+02    0.10898E-05   -0.18082E-06   848   0.773E-03    0.314E-03
DAV:   7    -0.435983262925E+02    0.42247E-06   -0.25015E-06  1032   0.765E-03
  10 F= -.44877124E+02 E0= -.44877124E+02  d E =-.158677E-02
       N       E                     dE             d eps       ncg     rms          rms(c)
DAV:   1    -0.441397066927E+02   -0.54138E+00   -0.15435E+02  1232   0.635E+01    0.468E+00
DAV:   2    -0.437719249953E+02    0.36778E+00   -0.13140E+01  1334   0.237E+01    0.218E+00
DAV:   3    -0.435992860117E+02    0.17264E+00   -0.68234E-01  1302   0.630E+00    0.101E+00
DAV:   4    -0.435895121472E+02    0.97739E-02   -0.12768E-01  1618   0.171E+00    0.433E-01
DAV:   5    -0.435863722242E+02    0.31399E-02   -0.75712E-03  1430   0.552E-01    0.288E-01
DAV:   6    -0.435836438239E+02    0.27284E-02   -0.26668E-03  1532   0.233E-01    0.206E-01
DAV:   7    -0.435810634408E+02    0.25804E-02   -0.91240E-03  1552   0.458E-01    0.605E-02
DAV:   8    -0.435807201576E+02    0.34328E-03   -0.13134E-03  1610   0.190E-01    0.483E-02
DAV:   9    -0.435806564230E+02    0.63735E-04   -0.26184E-04  1768   0.797E-02    0.406E-02
DAV:  10    -0.435805992847E+02    0.57138E-04   -0.29585E-04  1622   0.833E-02    0.143E-02
DAV:  11    -0.435805926978E+02    0.65869E-05   -0.20286E-05  1558   0.281E-02    0.101E-02
DAV:  12    -0.435805883751E+02    0.43227E-05   -0.10972E-05  1436   0.166E-02    0.506E-03
DAV:  13    -0.435805881377E+02    0.23736E-06   -0.66126E-06  1332   0.123E-02
  11 F= -.44829792E+02 E0= -.44829792E+02  d E =0.473319E-01
       N       E                     dE             d eps       ncg     rms          rms(c)
DAV:   1    -0.440925437169E+02   -0.51196E+00   -0.85945E+01  1256   0.445E+01    0.353E+00
DAV:   2    -0.435978576598E+02    0.49469E+00   -0.77825E+00  1262   0.162E+01    0.841E-01
DAV:   3    -0.435970977450E+02    0.75991E-03   -0.32950E-01  1420   0.362E+00    0.425E-01
DAV:   4    -0.435964307256E+02    0.66702E-03   -0.17275E-02  1676   0.697E-01    0.232E-01
DAV:   5    -0.435965344981E+02   -0.10377E-03   -0.63168E-04  1800   0.129E-01    0.240E-01
DAV:   6    -0.435961652742E+02    0.36922E-03   -0.16689E-02  1624   0.626E-01    0.134E-01
DAV:   7    -0.435955660781E+02    0.59920E-03   -0.57431E-03  1346   0.361E-01    0.977E-02
DAV:   8    -0.435954203526E+02    0.14573E-03   -0.11720E-03  1488   0.155E-01    0.710E-02
DAV:   9    -0.435954568864E+02   -0.36534E-04   -0.51533E-04  1738   0.115E-01    0.584E-02
DAV:  10    -0.435954361444E+02    0.20742E-04   -0.15778E-05  1446   0.255E-02    0.527E-02
DAV:  11    -0.435953535094E+02    0.82635E-04   -0.22680E-04  1580   0.700E-02    0.169E-02
DAV:  12    -0.435953449068E+02    0.86025E-05   -0.61213E-05  1720   0.383E-02    0.397E-03
DAV:  13    -0.435953445434E+02    0.36345E-06   -0.18747E-06   768   0.900E-03
  12 F= -.44862360E+02 E0= -.44862360E+02  d E =-.325674E-01
       N       E                     dE             d eps       ncg     rms          rms(c)
DAV:   1    -0.436761891597E+02   -0.80844E-01   -0.15175E+01  1232   0.194E+01    0.150E+00
DAV:   2    -0.435910412663E+02    0.85148E-01   -0.95817E-01  1238   0.642E+00    0.203E-01
DAV:   3    -0.435926812381E+02   -0.16400E-02   -0.41892E-02  1630   0.116E+00    0.158E-01
DAV:   4    -0.435920156073E+02    0.66563E-03   -0.23671E-03  1400   0.264E-01    0.788E-02
DAV:   5    -0.435919307667E+02    0.84841E-04   -0.15072E-03  1708   0.175E-01    0.338E-02
DAV:   6    -0.435918948467E+02    0.35920E-04   -0.12168E-04  1468   0.659E-02    0.129E-02
DAV:   7    -0.435918891983E+02    0.56484E-05   -0.61006E-05  1662   0.342E-02    0.484E-03
DAV:   8    -0.435918885865E+02    0.61187E-06   -0.23742E-06   930   0.100E-02
  13 F= -.44849288E+02 E0= -.44849288E+02  d E =0.130717E-01
       N       E                     dE             d eps       ncg     rms          rms(c)
DAV:   1    -0.441510521900E+02   -0.55916E+00   -0.26531E+02  1232   0.837E+01    0.610E+00
DAV:   2    -0.438694497954E+02    0.28160E+00   -0.20864E+01  1232   0.285E+01    0.465E+00
DAV:   3    -0.435732255800E+02    0.29622E+00   -0.11645E+00  1388   0.667E+00    0.149E+00
DAV:   4    -0.435399225058E+02    0.33303E-01   -0.21359E-01  1492   0.240E+00    0.351E-01
DAV:   5    -0.435432294047E+02   -0.33069E-02   -0.30588E-02  1616   0.110E+00    0.535E-01
DAV:   6    -0.435444900153E+02   -0.12606E-02   -0.28811E-03  1740   0.279E-01    0.500E-01
DAV:   7    -0.435413384501E+02    0.31516E-02   -0.13366E-02  1532   0.630E-01    0.920E-02
DAV:   8    -0.435415626432E+02   -0.22419E-03   -0.42992E-03  1516   0.309E-01    0.121E-01
DAV:   9    -0.435411861802E+02    0.37646E-03   -0.12267E-03  1662   0.194E-01    0.528E-02
DAV:  10    -0.435412158259E+02   -0.29646E-04   -0.93842E-04  1646   0.145E-01    0.522E-02
DAV:  11    -0.435411456557E+02    0.70170E-04   -0.20645E-04  1466   0.774E-02    0.106E-02
DAV:  12    -0.435411441264E+02    0.15293E-05   -0.22036E-05  1654   0.250E-02    0.503E-03
DAV:  13    -0.435411436804E+02    0.44602E-06   -0.27312E-06   996   0.922E-03
  14 F= -.44773916E+02 E0= -.44773916E+02  d E =0.753715E-01
       N       E                     dE             d eps       ncg     rms          rms(c)
DAV:   1    -0.447718510267E+02   -0.12307E+01   -0.20537E+02  1280   0.682E+01    0.558E+00
DAV:   2    -0.435230997149E+02    0.12488E+01   -0.20951E+01  1280   0.264E+01    0.111E+00
DAV:   3    -0.436208809023E+02   -0.97781E-01   -0.11604E+00  1388   0.689E+00    0.112E+00
DAV:   4    -0.436159592100E+02    0.49217E-02   -0.53436E-02  1678   0.128E+00    0.995E-01
DAV:   5    -0.448788745100E+02   -0.12629E+01   -0.55981E+00  1604   0.115E+01    0.721E+00
DAV:   6    -0.435584518886E+02    0.13204E+01   -0.75987E+00  1642   0.145E+01    0.404E-01
DAV:   7    -0.436037397630E+02   -0.45288E-01   -0.52393E-01  1344   0.401E+00    0.640E-01
DAV:   8    -0.436037653312E+02   -0.25568E-04   -0.15831E-02  1844   0.716E-01    0.658E-01
DAV:   9    -0.436025402709E+02    0.12251E-02   -0.37058E-04  1624   0.109E-01    0.637E-01
DAV:  10    -0.435987310971E+02    0.38092E-02   -0.16263E-03  1578   0.183E-01    0.544E-01
DAV:  11    -0.435887312578E+02    0.99998E-02   -0.72721E-02  1488   0.124E+00    0.953E-02
DAV:  12    -0.435885662853E+02    0.16497E-03   -0.44569E-03  1432   0.448E-01    0.320E-02
DAV:  13    -0.435885293561E+02    0.36929E-04   -0.64763E-04  1916   0.142E-01    0.612E-02
DAV:  14    -0.435888435243E+02   -0.31417E-03   -0.15323E-03  1636   0.186E-01    0.109E-01
DAV:  15    -0.435885208851E+02    0.32264E-03   -0.53249E-03  1492   0.345E-01    0.630E-02
DAV:  16    -0.435892227150E+02   -0.70183E-03   -0.22785E-03  1712   0.222E-01    0.156E-01
DAV:  17    -0.435884152612E+02    0.80745E-03   -0.27028E-03  1492   0.250E-01    0.365E-02
DAV:  18    -0.435884154685E+02   -0.20725E-06   -0.14532E-04  1652   0.753E-02    0.286E-02
DAV:  19    -0.435883880248E+02    0.27444E-04   -0.18690E-04  1556   0.617E-02    0.556E-03
DAV:  20    -0.435883951599E+02   -0.71351E-05   -0.50877E-05  1594   0.383E-02    0.146E-02
DAV:  21    -0.435884237403E+02   -0.28580E-04   -0.60470E-05  1580   0.358E-02    0.333E-02
DAV:  22    -0.435883862116E+02    0.37529E-04   -0.16177E-04  1454   0.619E-02    0.166E-03
DAV:  23    -0.435883870810E+02   -0.86940E-06   -0.10901E-05  1546   0.203E-02    0.138E-03
DAV:  24    -0.435883870601E+02    0.20825E-07   -0.34246E-07   760   0.356E-03
  15 F= -.44838081E+02 E0= -.44838081E+02  d E =-.641643E-01
       N       E                     dE             d eps       ncg     rms          rms(c)
DAV:   1    -0.436446927024E+02   -0.56306E-01   -0.10480E+01  1232   0.161E+01    0.125E+00
DAV:   2    -0.435914059695E+02    0.53287E-01   -0.56368E-01  1232   0.497E+00    0.706E-01
DAV:   3    -0.436112087495E+02   -0.19803E-01   -0.11207E-01  1718   0.199E+00    0.920E-01
DAV:   4    -0.436452935741E+02   -0.34085E-01   -0.65423E-01  1588   0.393E+00    0.136E+00
DAV:   5    -0.436398919789E+02    0.54016E-02   -0.25427E-02  1320   0.104E+00    0.130E+00
DAV:   6    -0.435915764082E+02    0.48316E-01   -0.14004E-01  1520   0.185E+00    0.615E-01
DAV:   7    -0.435862153200E+02    0.53611E-02   -0.25986E-02  1700   0.822E-01    0.359E-01
DAV:   8    -0.435841520126E+02    0.20633E-02   -0.11696E-02  1668   0.521E-01    0.154E-01
DAV:   9    -0.435849163256E+02   -0.76431E-03   -0.49223E-03  1690   0.333E-01    0.156E-01
DAV:  10    -0.435852065837E+02   -0.29026E-03   -0.17372E-02  1612   0.653E-01    0.166E-01
DAV:  11    -0.436172558214E+02   -0.32049E-01   -0.12591E-01  1628   0.168E+00    0.984E-01
DAV:  12    -0.436248437119E+02   -0.75879E-02   -0.52521E-03  1680   0.441E-01    0.109E+00
DAV:  13    -0.435943247372E+02    0.30519E-01   -0.52614E-02  1604   0.110E+00    0.562E-01
DAV:  14    -0.435841480234E+02    0.10177E-01   -0.65564E-02  1638   0.120E+00    0.416E-02
DAV:  15    -0.435842260939E+02   -0.78070E-04   -0.15684E-03  1540   0.296E-01    0.108E-02
DAV:  16    -0.435842487768E+02   -0.22683E-04   -0.18564E-04  1704   0.765E-02    0.255E-02
DAV:  17    -0.435842316128E+02    0.17164E-04   -0.36449E-05  1660   0.343E-02    0.116E-02
DAV:  18    -0.435842273614E+02    0.42515E-05   -0.28985E-05  1682   0.251E-02    0.187E-03
DAV:  19    -0.435842277105E+02   -0.34915E-06   -0.20975E-06  1038   0.916E-03
  16 F= -.44827642E+02 E0= -.44827642E+02  d E =0.104390E-01
       N       E                     dE             d eps       ncg     rms          rms(c)
DAV:   1    -0.408885092119E+02    0.26957E+01   -0.10012E+03  1232   0.167E+02    0.130E+01
DAV:   2    -0.510447332968E+02   -0.10156E+02   -0.12815E+02  1464   0.625E+01    0.831E+00
DAV:   3    -0.540321430541E+02   -0.29874E+01   -0.46086E+01  1624   0.362E+01    0.181E+01
DAV:   4    -0.538646785697E+02    0.16746E+00   -0.19002E+00  1540   0.933E+00    0.179E+01
DAV:   5    -0.550558949793E+02   -0.11912E+01   -0.27214E-01  1830   0.269E+00    0.191E+01
DAV:   6    -0.469923688359E+02    0.80635E+01   -0.36058E+01  1648   0.307E+01    0.513E+00
DAV:   7    -0.465923886449E+02    0.39998E+00   -0.27089E+00  1470   0.102E+01    0.587E+00
DAV:   8    -0.465978531017E+02   -0.54645E-02   -0.18053E-01  1872   0.232E+00    0.627E+00
DAV:   9    -0.456443096056E+02    0.95354E+00   -0.43173E-01  1400   0.339E+00    0.542E+00
DAV:  10    -0.434955090193E+02    0.21488E+01   -0.72970E+00  1464   0.128E+01    0.195E+00
DAV:  11    -0.435590527098E+02   -0.63544E-01   -0.93165E-01  1604   0.557E+00    0.212E+00
DAV:  12    -0.435640098423E+02   -0.49571E-02   -0.20358E-01  1660   0.218E+00    0.254E+00
DAV:  13    -0.433925947193E+02    0.17142E+00   -0.13667E-01  1462   0.200E+00    0.232E+00
DAV:  14    -0.431618020482E+02    0.23079E+00   -0.12631E+00  1446   0.529E+00    0.102E+00
DAV:  15    -0.431431417132E+02    0.18660E-01   -0.16487E-01  1572   0.234E+00    0.996E-01
DAV:  16    -0.431205692928E+02    0.22572E-01   -0.39718E-01  1600   0.325E+00    0.788E-01
DAV:  17    -0.431268800031E+02   -0.63107E-02   -0.25552E-02  1688   0.963E-01    0.810E-01
DAV:  18    -0.431405447354E+02   -0.13665E-01   -0.15054E-02  1538   0.585E-01    0.100E+00
DAV:  19    -0.431103496149E+02    0.30195E-01   -0.94027E-02  1514   0.146E+00    0.294E-01
DAV:  20    -0.431253964827E+02   -0.15047E-01   -0.37445E-02  1422   0.993E-01    0.690E-01
DAV:  21    -0.431109716676E+02    0.14425E-01   -0.32704E-02  1508   0.908E-01    0.267E-01
DAV:  22    -0.431089872054E+02    0.19845E-02   -0.22286E-02  1588   0.690E-01    0.575E-02
DAV:  23    -0.431090558070E+02   -0.68602E-04   -0.29903E-03  1590   0.304E-01    0.568E-02
DAV:  24    -0.431090259634E+02    0.29844E-04   -0.27927E-03  1528   0.265E-01    0.545E-02
DAV:  25    -0.431089243322E+02    0.10163E-03   -0.33602E-04  1610   0.109E-01    0.321E-02
DAV:  26    -0.431088980351E+02    0.26297E-04   -0.62128E-04  1514   0.113E-01    0.231E-02
DAV:  27    -0.431088856996E+02    0.12335E-04   -0.49261E-05  1738   0.481E-02    0.135E-02
DAV:  28    -0.431088898330E+02   -0.41334E-05   -0.11172E-05  1608   0.191E-02    0.167E-02
DAV:  29    -0.431088976068E+02   -0.77738E-05   -0.67184E-06  1574   0.126E-02    0.224E-02
DAV:  30    -0.431088924287E+02    0.51781E-05   -0.29317E-06  1240   0.912E-03    0.197E-02
DAV:  31    -0.431089582313E+02   -0.65803E-04   -0.18834E-04  1410   0.616E-02    0.353E-02
DAV:  32    -0.431088779163E+02    0.80315E-04   -0.35213E-04  1492   0.910E-02    0.381E-03
DAV:  33    -0.431088795915E+02   -0.16753E-05   -0.25302E-05  1664   0.271E-02    0.133E-03
DAV:  34    -0.431088795406E+02    0.50927E-07   -0.50884E-07   796   0.484E-03
  17 F= -.44333418E+02 E0= -.44333417E+02  d E =0.494223E+00
       N       E                     dE             d eps       ncg     rms          rms(c)
DAV:   1    -0.498801737188E+02   -0.67713E+01   -0.13049E+03  1528   0.175E+02    0.155E+01
DAV:   2    -0.588452023235E+02   -0.89650E+01   -0.40614E+02  1392   0.109E+02    0.200E+01
DAV:   3    -0.527630779654E+02    0.60821E+01   -0.45247E+01  1292   0.421E+01    0.153E+01
DAV:   4    -0.449108377049E+02    0.78522E+01   -0.21692E+01  1732   0.261E+01    0.625E+00
DAV:   5    -0.437581124566E+02    0.11527E+01   -0.78959E+00  1484   0.132E+01    0.463E+00
DAV:   6    -0.441904475036E+02   -0.43234E+00   -0.11236E+00  1560   0.550E+00    0.432E+00
DAV:   7    -0.443808945272E+02   -0.19045E+00   -0.23109E-01  1710   0.253E+00    0.446E+00
DAV:   8    -0.437493909462E+02    0.63150E+00   -0.14801E+00  1388   0.530E+00    0.307E+00
DAV:   9    -0.437504147565E+02   -0.10238E-02   -0.76513E-02  1556   0.149E+00    0.291E+00
DAV:  10    -0.438562141875E+02   -0.10580E+00   -0.64902E-01  1586   0.395E+00    0.288E+00
DAV:  11    -0.436378617601E+02    0.21835E+00   -0.48978E-01  1570   0.337E+00    0.186E+00
DAV:  12    -0.436785217138E+02   -0.40660E-01   -0.19527E-01  1398   0.235E+00    0.203E+00
DAV:  13    -0.436166161174E+02    0.61906E-01   -0.20624E-01  1464   0.240E+00    0.129E+00
DAV:  14    -0.436049808288E+02    0.11635E-01   -0.31243E-02  1704   0.834E-01    0.104E+00
DAV:  15    -0.435963133515E+02    0.86675E-02   -0.20408E-02  1476   0.627E-01    0.710E-01
DAV:  16    -0.435826873743E+02    0.13626E-01   -0.48945E-02  1390   0.102E+00    0.351E-01
DAV:  17    -0.435851330203E+02   -0.24456E-02   -0.23394E-02  1388   0.726E-01    0.337E-01
DAV:  18    -0.435824006153E+02    0.27324E-02   -0.43861E-03  1458   0.321E-01    0.217E-01
DAV:  19    -0.435810375965E+02    0.13630E-02   -0.56364E-03  1410   0.338E-01    0.855E-02
DAV:  20    -0.435810855817E+02   -0.47985E-04   -0.68773E-04  1594   0.131E-01    0.608E-02
DAV:  21    -0.435810077302E+02    0.77852E-04   -0.17851E-04  1560   0.616E-02    0.268E-02
DAV:  22    -0.435809889438E+02    0.18786E-04   -0.84824E-05  1624   0.430E-02    0.120E-02
DAV:  23    -0.435809878998E+02    0.10440E-05   -0.14475E-05  1600   0.190E-02    0.563E-03
DAV:  24    -0.435809876758E+02    0.22408E-06   -0.62183E-06  1364   0.121E-02
  18 F= -.44820506E+02 E0= -.44820506E+02  d E =-.487088E+00
       N       E                     dE             d eps       ncg     rms          rms(c)
DAV:   1    -0.436152760219E+02   -0.34288E-01   -0.60227E+00  1232   0.122E+01    0.967E-01
DAV:   2    -0.444517258400E+02   -0.83645E+00   -0.35855E+00  1444   0.875E+00    0.592E+00
DAV:   3    -0.444741140025E+02   -0.22388E-01   -0.26766E-01  1520   0.317E+00    0.595E+00
DAV:   4    -0.444737377231E+02    0.37628E-03   -0.21123E-02  1880   0.655E-01    0.601E+00
DAV:   5    -0.155703203605E+04   -0.15126E+04   -0.34966E+03  1444   0.408E+02    0.150E+02
DAV:   6    -0.170779706740E+05   -0.15521E+05   -0.12702E+05  1338   0.335E+03    0.212E+02
DAV:   7     0.261062291347E+02    0.17104E+05   -0.16073E+04  1608   0.742E+02    0.523E+01
DAV:   8    -0.943045498042E+02   -0.12041E+03   -0.14650E+03  1824   0.219E+02    0.367E+01
DAV:   9    -0.445370110297E+02    0.49768E+02   -0.46511E+02  1372   0.102E+02    0.944E+00
DAV:  10    -0.438923814999E+02    0.64463E+00   -0.71919E+01  1582   0.452E+01    0.558E+00
DAV:  11    -0.436517181302E+02    0.24066E+00   -0.82408E+00  1626   0.161E+01    0.184E+00
DAV:  12    -0.436118312500E+02    0.39887E-01   -0.83263E-01  1700   0.480E+00    0.899E-01
DAV:  13    -0.435989226950E+02    0.12909E-01   -0.48111E-01  1534   0.401E+00    0.197E+00
DAV:  14    -0.436203160597E+02   -0.21393E-01   -0.58816E-01  1454   0.442E+00    0.909E-01
DAV:  15    -0.435966817839E+02    0.23634E-01   -0.84758E-02  1514   0.147E+00    0.833E-01
DAV:  16    -0.435898067043E+02    0.68751E-02   -0.15498E-02  1544   0.690E-01    0.662E-01
DAV:  17    -0.435868071882E+02    0.29995E-02   -0.16784E-02  1614   0.592E-01    0.638E-01
DAV:  18    -0.435868111533E+02   -0.39651E-05   -0.25860E-03  1716   0.297E-01    0.602E-01
DAV:  19    -0.435874931346E+02   -0.68198E-03   -0.72320E-04  1858   0.128E-01    0.615E-01
DAV:  20    -0.435881073161E+02   -0.61418E-03   -0.70245E-05  1728   0.458E-02    0.627E-01
DAV:  21    -0.435877738914E+02    0.33342E-03   -0.25359E-04  1490   0.752E-02    0.618E-01
DAV:  22    -0.435858435557E+02    0.19303E-02   -0.62564E-04  1436   0.134E-01    0.576E-01
DAV:  23    -0.435845492715E+02    0.12943E-02   -0.62124E-04  1500   0.126E-01    0.549E-01
DAV:  24    -0.435820164169E+02    0.25329E-02   -0.24085E-03  1358   0.262E-01    0.503E-01
DAV:  25    -0.435806169421E+02    0.13995E-02   -0.72366E-03  1322   0.452E-01    0.484E-01
DAV:  26    -0.435810510846E+02   -0.43414E-03   -0.11334E-03  1566   0.181E-01    0.503E-01
DAV:  27    -0.435809612703E+02    0.89814E-04   -0.81630E-04  1352   0.159E-01    0.505E-01
DAV:  28    -0.435819896213E+02   -0.10284E-02   -0.91732E-04  1396   0.156E-01    0.536E-01
DAV:  29    -0.435821019537E+02   -0.11233E-03   -0.78251E-05  1632   0.503E-02    0.541E-01
DAV:  30    -0.435819759056E+02    0.12605E-03   -0.94045E-06  1512   0.178E-02    0.536E-01
DAV:  31    -0.435819679286E+02    0.79770E-05   -0.13833E-06   898   0.667E-03    0.535E-01
DAV:  32    -0.435817448918E+02    0.22304E-03   -0.17315E-05  1570   0.206E-02    0.531E-01
DAV:  33    -0.435817085501E+02    0.36342E-04   -0.25766E-06   972   0.909E-03    0.529E-01
DAV:  34    -0.435817054974E+02    0.30527E-05   -0.45979E-07   838   0.392E-03    0.529E-01
DAV:  35    -0.435810350572E+02    0.67044E-03   -0.18227E-04  1678   0.655E-02    0.512E-01
DAV:  36    -0.435814158938E+02   -0.38084E-03   -0.35357E-05  1364   0.361E-02    0.518E-01
DAV:  37    -0.435813711347E+02    0.44759E-04   -0.99632E-06  1494   0.146E-02    0.512E-01
DAV:  38    -0.435808586914E+02    0.51244E-03   -0.52771E-05  1398   0.365E-02    0.485E-01
DAV:  39    -0.435805873056E+02    0.27139E-03   -0.37408E-05  1412   0.319E-02    0.463E-01
DAV:  40    -0.435800007489E+02    0.58656E-03   -0.13605E-04  1406   0.582E-02    0.414E-01
DAV:  41    -0.435792276962E+02    0.77305E-03   -0.25476E-04  1458   0.758E-02    0.354E-01
DAV:  42    -0.435787533292E+02    0.47437E-03   -0.15170E-04  1588   0.567E-02    0.317E-01
DAV:  43    -0.435784608404E+02    0.29249E-03   -0.81367E-05  1606   0.416E-02    0.295E-01
DAV:  44    -0.435782408511E+02    0.21999E-03   -0.54546E-05  1596   0.348E-02    0.277E-01
DAV:  45    -0.435780502837E+02    0.19057E-03   -0.91044E-05  1584   0.457E-02    0.262E-01
DAV:  46    -0.435780304602E+02    0.19823E-04   -0.65201E-06  1244   0.157E-02    0.260E-01
DAV:  47    -0.435779940063E+02    0.36454E-04   -0.35548E-06  1204   0.106E-02    0.256E-01
DAV:  48    -0.435779807988E+02    0.13207E-04   -0.11534E-05  1376   0.185E-02    0.254E-01
DAV:  49    -0.435775702883E+02    0.41051E-03   -0.14791E-04  1488   0.568E-02    0.217E-01
DAV:  50    -0.435770589313E+02    0.51136E-03   -0.52046E-04  1430   0.105E-01    0.159E-01
DAV:  51    -0.435768481020E+02    0.21083E-03   -0.29558E-04  1766   0.801E-02    0.125E-01
DAV:  52    -0.435767578135E+02    0.90288E-04   -0.88594E-05  1608   0.453E-02    0.108E-01
DAV:  53    -0.435767014658E+02    0.56348E-04   -0.42401E-05  1758   0.324E-02    0.924E-02
DAV:  54    -0.435766586625E+02    0.42803E-04   -0.21034E-05  1424   0.246E-02    0.749E-02
DAV:  55    -0.435766159426E+02    0.42720E-04   -0.21082E-05  1330   0.271E-02    0.495E-02
DAV:  56    -0.435765916418E+02    0.24301E-04   -0.18542E-05  1384   0.254E-02    0.269E-02
DAV:  57    -0.435765830057E+02    0.86361E-05   -0.98147E-06  1418   0.180E-02    0.123E-02
DAV:  58    -0.435765810406E+02    0.19651E-05   -0.25547E-06   700   0.990E-03    0.471E-03
DAV:  59    -0.435765809441E+02    0.96514E-07   -0.12302E-06   664   0.618E-03
  19 F= -.44811768E+02 E0= -.44811768E+02  d E =0.873778E-02
       N       E                     dE             d eps       ncg     rms          rms(c)
DAV:   1    -0.496175301463E+02   -0.60409E+01   -0.61301E+02  1316   0.120E+02    0.117E+01
DAV:   2    -0.500233810053E+02   -0.40585E+00   -0.20150E+02  1244   0.796E+01    0.744E+00
DAV:   3    -0.447681555734E+02    0.52552E+01   -0.22456E+01  1232   0.319E+01    0.521E+00
DAV:   4    -0.455944240947E+02   -0.82627E+00   -0.36829E+01  1550   0.327E+01    0.998E+00
DAV:   5    -0.443301980965E+02    0.12642E+01   -0.59725E+00  1528   0.153E+01    0.497E+00
DAV:   6    -0.436315689081E+02    0.69863E+00   -0.67949E+00  1496   0.130E+01    0.217E+00
DAV:   7    -0.436563748607E+02   -0.24806E-01   -0.11966E+00  1574   0.671E+00    0.212E+00
DAV:   8    -0.487216261817E+02   -0.50653E+01   -0.21789E+01  1488   0.258E+01    0.174E+01
DAV:   9    -0.433930265464E+02    0.53286E+01   -0.17472E+01  1308   0.250E+01    0.219E+00
DAV:  10    -0.437741277628E+02   -0.38110E+00   -0.39554E+00  1656   0.103E+01    0.243E+00
DAV:  11    -0.437417907205E+02    0.32337E-01   -0.25993E-01  1368   0.310E+00    0.201E+00
DAV:  12    -0.436162824575E+02    0.12551E+00   -0.24300E+00  1418   0.749E+00    0.143E+00
DAV:  13    -0.436221822435E+02   -0.58998E-02   -0.22765E-01  1358   0.282E+00    0.157E+00
DAV:  14    -0.436125679261E+02    0.96143E-02   -0.95260E-03  1742   0.571E-01    0.153E+00
DAV:  15    -0.436118355825E+02    0.73234E-03   -0.37639E-04  1578   0.128E-01    0.153E+00
DAV:  16    -0.435656471381E+02    0.46188E-01   -0.69387E-01  1402   0.397E+00    0.765E-01
DAV:  17    -0.441026552067E+02   -0.53701E+00   -0.17676E+00  1274   0.708E+00    0.600E+00
DAV:  18    -0.435611046729E+02    0.54155E+00   -0.12324E+00  1250   0.671E+00    0.731E-01
DAV:  19    -0.435864695915E+02   -0.25365E-01   -0.15570E-01  1274   0.228E+00    0.779E-01
DAV:  20    -0.435831140576E+02    0.33555E-02   -0.53930E-03  1674   0.397E-01    0.738E-01
DAV:  21    -0.435661201677E+02    0.16994E-01   -0.51315E-02  1360   0.126E+00    0.599E-01
DAV:  22    -0.435713177019E+02   -0.51975E-02   -0.62331E-02  1340   0.116E+00    0.945E-01
DAV:  23    -0.435541743634E+02    0.17143E-01   -0.27331E-02  1592   0.854E-01    0.437E-01
DAV:  24    -0.435508585494E+02    0.33158E-02   -0.10351E-02  1666   0.499E-01    0.214E-01
DAV:  25    -0.435498521669E+02    0.10064E-02   -0.40510E-03  1594   0.314E-01    0.125E-01
DAV:  26    -0.435499671139E+02   -0.11495E-03   -0.12428E-03  1798   0.190E-01    0.122E-01
DAV:  27    -0.435500511259E+02   -0.84012E-04   -0.58652E-04  1640   0.128E-01    0.113E-01
DAV:  28    -0.435494767306E+02    0.57440E-03   -0.24583E-03  1404   0.259E-01    0.376E-02
DAV:  29    -0.435499227011E+02   -0.44597E-03   -0.29431E-03  1504   0.305E-01    0.190E-01
DAV:  30    -0.435499041593E+02    0.18542E-04   -0.42322E-04  1454   0.120E-01    0.175E-01
DAV:  31    -0.435494998645E+02    0.40429E-03   -0.19394E-03  1628   0.250E-01    0.293E-02
DAV:  32    -0.435494924362E+02    0.74283E-05   -0.19451E-04  1400   0.927E-02    0.193E-02
DAV:  33    -0.435496725804E+02   -0.18014E-03   -0.59059E-04  1388   0.126E-01    0.723E-02
DAV:  34    -0.435494787100E+02    0.19387E-03   -0.76913E-04  1352   0.151E-01    0.966E-03
DAV:  35    -0.435494861080E+02   -0.73980E-05   -0.11140E-04  1516   0.526E-02    0.682E-03
DAV:  36    -0.435494851371E+02    0.97097E-06   -0.42102E-06  1304   0.136E-02
  20 F= -.44855543E+02 E0= -.44855543E+02  d E =-.437745E-01
       N       E                     dE             d eps       ncg     rms          rms(c)
DAV:   1    -0.456240746294E+02   -0.20746E+01   -0.27326E+02  1232   0.859E+01    0.701E+00
DAV:   2    -0.477136925380E+02   -0.20896E+01   -0.28445E+01  1376   0.340E+01    0.158E+01
DAV:   3    -0.475724546596E+02    0.14124E+00   -0.27684E+00  1410   0.949E+00    0.155E+01
DAV:   4    -0.459135977856E+02    0.16589E+01   -0.10209E+00  1328   0.627E+00    0.124E+01
DAV:   5    -0.445806707275E+02    0.13329E+01   -0.49547E+00  1296   0.125E+01    0.637E+00
DAV:   6    -0.440403227222E+02    0.54035E+00   -0.10512E+00  1454   0.541E+00    0.433E+00
DAV:   7    -0.438618979441E+02    0.17842E+00   -0.46852E+00  1316   0.113E+01    0.292E+00
DAV:   8    -0.436378917511E+02    0.22401E+00   -0.71051E-01  1262   0.533E+00    0.132E+00
DAV:   9    -0.436045873556E+02    0.33304E-01   -0.16705E-01  1456   0.208E+00    0.725E-01
DAV:  10    -0.435904027020E+02    0.14185E-01   -0.48388E-02  1540   0.117E+00    0.444E-01
DAV:  11    -0.435901816126E+02    0.22109E-03   -0.75802E-02  1376   0.142E+00    0.525E-01
DAV:  12    -0.435872638597E+02    0.29178E-02   -0.15825E-02  1418   0.733E-01    0.477E-01
DAV:  13    -0.435862447271E+02    0.10191E-02   -0.11316E-03  1724   0.187E-01    0.392E-01
DAV:  14    -0.435837146285E+02    0.25301E-02   -0.10228E-02  1312   0.528E-01    0.898E-02
DAV:  15    -0.435836497627E+02    0.64866E-04   -0.11807E-03  1476   0.217E-01    0.374E-02
DAV:  16    -0.435836063533E+02    0.43409E-04   -0.34368E-04  1808   0.972E-02    0.283E-02
DAV:  17    -0.435835983628E+02    0.79905E-05   -0.73866E-05  1584   0.527E-02    0.165E-02
DAV:  18    -0.435835957208E+02    0.26420E-05   -0.23745E-05  1610   0.277E-02    0.867E-03
DAV:  19    -0.435835933971E+02    0.23237E-05   -0.20562E-05  1496   0.214E-02    0.671E-03
DAV:  20    -0.435835927183E+02    0.67875E-06   -0.37108E-06  1208   0.978E-03
  21 F= -.44829485E+02 E0= -.44829485E+02  d E =0.260577E-01
       N       E                     dE             d eps       ncg     rms          rms(c)
DAV:   1    -0.438743726115E+02   -0.29078E+00   -0.36744E+01  1250   0.296E+01    0.249E+00
DAV:   2    -0.435895489059E+02    0.28482E+00   -0.29259E+00  1250   0.104E+01    0.639E-01
DAV:   3    -0.435976184700E+02   -0.80696E-02   -0.16957E-01  1564   0.231E+00    0.420E-01
DAV:   4    -0.435976565665E+02   -0.38097E-04   -0.62696E-03  1460   0.496E-01    0.422E-01
DAV:   5    -0.435976558343E+02    0.73219E-06   -0.16322E-04  1844   0.640E-02    0.425E-01
DAV:   6    -0.436249483520E+02   -0.27293E-01   -0.28624E-01  1460   0.273E+00    0.109E+00
DAV:   7    -0.436404199338E+02   -0.15472E-01   -0.43774E-02  1382   0.114E+00    0.126E+00
DAV:   8    -0.435998965562E+02    0.40523E-01   -0.20926E-01  1388   0.225E+00    0.712E-01
DAV:   9    -0.435958565286E+02    0.40400E-02   -0.35877E-02  1280   0.996E-01    0.399E-01
DAV:  10    -0.435947316167E+02    0.11249E-02   -0.68034E-02  1460   0.121E+00    0.283E-01
DAV:  11    -0.435920532510E+02    0.26784E-02   -0.11939E-02  1572   0.651E-01    0.918E-02
DAV:  12    -0.435923632056E+02   -0.30995E-03   -0.62266E-03  1552   0.370E-01    0.156E-01
DAV:  13    -0.435918204289E+02    0.54278E-03   -0.22799E-03  1532   0.242E-01    0.854E-02
DAV:  14    -0.435918337609E+02   -0.13332E-04   -0.10233E-04  1638   0.635E-02    0.873E-02
DAV:  15    -0.435918126623E+02    0.21099E-04   -0.66912E-04  1504   0.135E-01    0.640E-02
DAV:  16    -0.435918246279E+02   -0.11966E-04   -0.14510E-04  1530   0.648E-02    0.513E-02
DAV:  17    -0.435917818004E+02    0.42827E-04   -0.59433E-05  1388   0.353E-02    0.357E-02
DAV:  18    -0.435917431873E+02    0.38613E-04   -0.73485E-05  1400   0.375E-02    0.271E-02
DAV:  19    -0.435917317745E+02    0.11413E-04   -0.15199E-05  1666   0.177E-02    0.222E-02
DAV:  20    -0.435917225838E+02    0.91907E-05   -0.15234E-05  1406   0.173E-02    0.173E-02
DAV:  21    -0.435917173214E+02    0.52624E-05   -0.18660E-05  1792   0.190E-02    0.983E-03
DAV:  22    -0.435917159109E+02    0.14105E-05   -0.28217E-06   994   0.867E-03    0.668E-03
DAV:  23    -0.435917143764E+02    0.15345E-05   -0.46232E-06  1182   0.928E-03    0.254E-03
DAV:  24    -0.435917139208E+02    0.45560E-06   -0.43232E-07   664   0.409E-03
  22 F= -.44851430E+02 E0= -.44851430E+02  d E =-.219447E-01
       N       E                     dE             d eps       ncg     rms          rms(c)
DAV:   1    -0.476791998627E+02   -0.40875E+01   -0.39677E+02  1274   0.969E+01    0.933E+00
DAV:   2    -0.442919856751E+02    0.33872E+01   -0.79294E+01  1292   0.500E+01    0.310E+00
DAV:   3    -0.435048056077E+02    0.78718E+00   -0.74060E+00  1328   0.190E+01    0.941E-01
DAV:   4    -0.435924339848E+02   -0.87628E-01   -0.63139E-01  1458   0.453E+00    0.117E+00
DAV:   5    -0.436557302057E+02   -0.63296E-01   -0.12468E-01  1464   0.181E+00    0.139E+00
DAV:   6    -0.437136382560E+02   -0.57908E-01   -0.68363E-02  1528   0.131E+00    0.175E+00
DAV:   7    -0.436990474264E+02    0.14591E-01   -0.24655E+00  1344   0.737E+00    0.332E+00
DAV:   8    -0.435689158795E+02    0.13013E+00   -0.49560E-01  1272   0.379E+00    0.811E-01
DAV:   9    -0.435621783709E+02    0.67375E-02   -0.38480E-02  1786   0.980E-01    0.483E-01
DAV:  10    -0.435669704156E+02   -0.47920E-02   -0.12582E-02  1572   0.609E-01    0.644E-01
DAV:  11    -0.435656221016E+02    0.13483E-02   -0.30961E-02  1328   0.774E-01    0.430E-01
DAV:  12    -0.435681861183E+02   -0.25640E-02   -0.21049E-02  1316   0.693E-01    0.630E-01
DAV:  13    -0.435680598082E+02    0.12631E-03   -0.52307E-04  1646   0.136E-01    0.636E-01
DAV:  14    -0.435816871494E+02   -0.13627E-01   -0.15786E-02  1514   0.614E-01    0.853E-01
DAV:  15    -0.435669262835E+02    0.14761E-01   -0.17148E-02  1518   0.670E-01    0.606E-01
DAV:  16    -0.435664766283E+02    0.44966E-03   -0.61411E-03  1632   0.402E-01    0.671E-01
DAV:  17    -0.439640302201E+02   -0.39755E+00   -0.25017E+00  1426   0.750E+00    0.366E+00
DAV:  18    -0.435540669511E+02    0.40996E+00   -0.24668E+00  1420   0.811E+00    0.429E-01
DAV:  19    -0.435703382722E+02   -0.16271E-01   -0.13862E-01  1244   0.235E+00    0.725E-01
DAV:  20    -0.435826198115E+02   -0.12282E-01   -0.62204E-02  1624   0.118E+00    0.866E-01
DAV:  21    -0.435584220938E+02    0.24198E-01   -0.80018E-02  1490   0.137E+00    0.198E-01
DAV:  22    -0.435580508128E+02    0.37128E-03   -0.68893E-03  1420   0.465E-01    0.112E-01
DAV:  23    -0.435587156018E+02   -0.66479E-03   -0.17836E-03  1412   0.207E-01    0.167E-01
DAV:  24    -0.435588922266E+02   -0.17662E-03   -0.74080E-04  1562   0.133E-01    0.184E-01
DAV:  25    -0.435585278328E+02    0.36439E-03   -0.16248E-02  1456   0.603E-01    0.151E-01
DAV:  26    -0.435605976962E+02   -0.20699E-02   -0.44297E-03  1718   0.319E-01    0.302E-01
DAV:  27    -0.435582695422E+02    0.23282E-02   -0.49957E-03  1450   0.339E-01    0.127E-01
DAV:  28    -0.435578684744E+02    0.40107E-03   -0.18835E-03  1652   0.208E-01    0.246E-02
DAV:  29    -0.435578592261E+02    0.92483E-05   -0.28748E-04  1662   0.839E-02    0.199E-02
DAV:  30    -0.435578649065E+02   -0.56804E-05   -0.63031E-05  1400   0.419E-02    0.221E-02
DAV:  31    -0.435578650094E+02   -0.10288E-06   -0.44284E-06  1286   0.129E-02
  23 F= -.44897525E+02 E0= -.44897525E+02  d E =-.460955E-01
       N       E                     dE             d eps       ncg     rms          rms(c)
DAV:   1    -0.450194215167E+02   -0.14616E+01   -0.16371E+02  1232   0.664E+01    0.550E+00
DAV:   2    -0.438748856461E+02    0.11445E+01   -0.10436E+01  1232   0.213E+01    0.243E+00
DAV:   3    -0.444543841771E+02   -0.57950E+00   -0.17651E+00  1310   0.678E+00    0.312E+00
DAV:   4    -0.440138914848E+02    0.44049E+00   -0.16356E+00  1628   0.618E+00    0.288E+00
DAV:   5    -0.441204560441E+02   -0.10656E+00   -0.28380E-01  1482   0.287E+00    0.287E+00
DAV:   6    -0.448286322502E+02   -0.70818E+00   -0.57006E-01  1412   0.334E+00    0.454E+00
DAV:   7    -0.482155894852E+02   -0.33870E+01   -0.94646E+00  1606   0.144E+01    0.870E+00
DAV:   8    -0.494612774153E+02   -0.12457E+01   -0.77665E-01  1840   0.475E+00    0.986E+00
DAV:   9    -0.586795826762E+02   -0.92183E+01   -0.69499E+00  1666   0.122E+01    0.165E+01
DAV:  10    -0.434384967936E+02    0.15241E+02   -0.50031E+01  1634   0.324E+01    0.633E-01
DAV:  11    -0.436519623722E+02   -0.21347E+00   -0.20919E+00  1704   0.841E+00    0.138E+00
DAV:  12    -0.436423568661E+02    0.96055E-02   -0.17759E-01  1534   0.211E+00    0.131E+00
DAV:  13    -0.436354638420E+02    0.68930E-02   -0.15771E-02  1752   0.680E-01    0.132E+00
DAV:  14    -0.436099037429E+02    0.25560E-01   -0.77324E-02  1544   0.131E+00    0.102E+00
DAV:  15    -0.437270977707E+02   -0.11719E+00   -0.78111E-01  1600   0.414E+00    0.184E+00
DAV:  16    -0.436398711422E+02    0.87227E-01   -0.18594E-01  1636   0.245E+00    0.107E+00
DAV:  17    -0.436289285210E+02    0.10943E-01   -0.50130E-01  1622   0.340E+00    0.134E+00
DAV:  18    -0.436474781919E+02   -0.18550E-01   -0.43579E-02  1536   0.119E+00    0.159E+00
DAV:  19    -0.436465839714E+02    0.89422E-03   -0.11850E-02  1586   0.501E-01    0.163E+00
DAV:  20    -0.438073330915E+02   -0.16075E+00   -0.14034E+00  1462   0.608E+00    0.303E+00
DAV:  21    -0.436077999055E+02    0.19953E+00   -0.63838E-01  1404   0.464E+00    0.656E-01
DAV:  22    -0.436073004616E+02    0.49944E-03   -0.72013E-02  1628   0.124E+00    0.692E-01
DAV:  23    -0.436073293832E+02   -0.28922E-04   -0.22269E-03  1582   0.293E-01    0.702E-01
DAV:  24    -0.436079756436E+02   -0.64626E-03   -0.11345E-03  1812   0.172E-01    0.676E-01
DAV:  25    -0.436017582354E+02    0.62174E-02   -0.18632E-02  1298   0.565E-01    0.509E-01
DAV:  26    -0.436010243439E+02    0.73389E-03   -0.37691E-03  1472   0.323E-01    0.400E-01
DAV:  27    -0.436039065229E+02   -0.28822E-02   -0.55067E-03  1600   0.333E-01    0.465E-01
DAV:  28    -0.435970684543E+02    0.68381E-02   -0.19486E-02  1554   0.678E-01    0.149E-01
DAV:  29    -0.435972302671E+02   -0.16181E-03   -0.20287E-03  1394   0.260E-01    0.147E-01
DAV:  30    -0.435967418675E+02    0.48840E-03   -0.32010E-03  1634   0.269E-01    0.804E-02
DAV:  31    -0.435966407650E+02    0.10110E-03   -0.40405E-04  1576   0.110E-01    0.698E-02
DAV:  32    -0.435965226394E+02    0.11813E-03   -0.14614E-04  1394   0.572E-02    0.356E-02
DAV:  33    -0.435964896287E+02    0.33011E-04   -0.66032E-05  1524   0.356E-02    0.100E-02
DAV:  34    -0.435964860032E+02    0.36255E-05   -0.11214E-05  1536   0.149E-02    0.372E-03
DAV:  35    -0.435964857154E+02    0.28783E-06   -0.45359E-07   826   0.569E-03
  24 F= -.44872109E+02 E0= -.44872109E+02  d E =0.254162E-01
       N       E                     dE             d eps       ncg     rms          rms(c)
DAV:   1    -0.437437406702E+02   -0.14725E+00   -0.18529E+01  1250   0.211E+01    0.177E+00
DAV:   2    -0.436047431935E+02    0.13900E+00   -0.15355E+00  1262   0.737E+00    0.520E-01
DAV:   3    -0.436007622331E+02    0.39810E-02   -0.79068E-02  1652   0.151E+00    0.122E-01
DAV:   4    -0.436004678714E+02    0.29436E-03   -0.65557E-03  1400   0.432E-01    0.118E-01
DAV:   5    -0.436005987756E+02   -0.13090E-03   -0.26378E-03  1328   0.242E-01    0.722E-02
DAV:   6    -0.436001922670E+02    0.40651E-03   -0.15364E-03  1594   0.192E-01    0.268E-02
DAV:   7    -0.436001756707E+02    0.16596E-04   -0.15746E-04  1466   0.713E-02    0.161E-02
DAV:   8    -0.436001752978E+02    0.37293E-06   -0.79315E-06  1526   0.183E-02
  25 F= -.44890375E+02 E0= -.44890375E+02  d E =-.182660E-01
       N       E                     dE             d eps       ncg     rms          rms(c)
DAV:   1    -0.444577239076E+02   -0.85755E+00   -0.93271E+01  1280   0.472E+01    0.421E+00
DAV:   2    -0.436616267671E+02    0.79610E+00   -0.11141E+01  1274   0.188E+01    0.126E+00
DAV:   3    -0.436072527073E+02    0.54374E-01   -0.41805E-01  1250   0.435E+00    0.595E-01
DAV:   4    -0.436167880821E+02   -0.95354E-02   -0.31274E-01  1616   0.251E+00    0.677E-01
DAV:   5    -0.436018576226E+02    0.14930E-01   -0.89982E-02  1472   0.155E+00    0.182E-01
DAV:   6    -0.436078462769E+02   -0.59887E-02   -0.36151E-02  1454   0.960E-01    0.441E-01
DAV:   7    -0.436020671065E+02    0.57792E-02   -0.12448E-02  1498   0.604E-01    0.163E-01
DAV:   8    -0.436787960106E+02   -0.76729E-01   -0.31311E-01  1472   0.275E+00    0.151E+00
DAV:   9    -0.435997152277E+02    0.79081E-01   -0.39501E-01  1474   0.321E+00    0.158E-01
DAV:  10    -0.436021398988E+02   -0.24247E-02   -0.27479E-02  1388   0.966E-01    0.126E-01
DAV:  11    -0.436016372240E+02    0.50267E-03   -0.13794E-03  1504   0.191E-01    0.856E-02
DAV:  12    -0.436013666248E+02    0.27060E-03   -0.11803E-03  1488   0.162E-01    0.166E-02
DAV:  13    -0.436013692666E+02   -0.26418E-05   -0.40047E-05  1700   0.421E-02    0.124E-02
DAV:  14    -0.436013676680E+02    0.15987E-05   -0.37155E-06  1232   0.118E-02    0.760E-03
DAV:  15    -0.436013750035E+02   -0.73356E-05   -0.16470E-05  1568   0.192E-02    0.170E-02
DAV:  16    -0.436013834208E+02   -0.84173E-05   -0.25061E-04  1534   0.750E-02    0.220E-02
DAV:  17    -0.436013904863E+02   -0.70655E-05   -0.13168E-05  1526   0.222E-02    0.263E-02
DAV:  18    -0.436013720454E+02    0.18441E-04   -0.28288E-05  1578   0.253E-02    0.142E-02
DAV:  19    -0.436013655948E+02    0.64506E-05   -0.26888E-05  1634   0.237E-02    0.287E-03
DAV:  20    -0.436013654629E+02    0.13190E-06   -0.90839E-07   682   0.615E-03
  26 F= -.44934879E+02 E0= -.44934879E+02  d E =-.445037E-01
       N       E                     dE             d eps       ncg     rms          rms(c)
DAV:   1    -0.436827665086E+02   -0.81401E-01   -0.65751E+00  1232   0.132E+01    0.120E+00
DAV:   2    -0.436056296991E+02    0.77137E-01   -0.52035E-01  1316   0.460E+00    0.272E-01
DAV:   3    -0.436055874167E+02    0.42282E-04   -0.16434E-02  1292   0.962E-01    0.193E-01
DAV:   4    -0.436047082863E+02    0.87913E-03   -0.21413E-02  1334   0.667E-01    0.118E-01
DAV:   5    -0.436048655410E+02   -0.15725E-03   -0.84901E-03  1510   0.468E-01    0.144E-01
DAV:   6    -0.436049462093E+02   -0.80668E-04   -0.43322E-04  1522   0.130E-01    0.163E-01
DAV:   7    -0.436041399158E+02    0.80629E-03   -0.52160E-03  1516   0.346E-01    0.326E-02
DAV:   8    -0.436041007484E+02    0.39167E-04   -0.48027E-04  1464   0.129E-01    0.162E-02
DAV:   9    -0.436041042025E+02   -0.34541E-05   -0.25633E-05  1832   0.285E-02    0.198E-02
DAV:  10    -0.436040958707E+02    0.83319E-05   -0.95201E-05  1630   0.471E-02    0.780E-03
DAV:  11    -0.436040936738E+02    0.21969E-05   -0.15865E-05  1448   0.206E-02    0.583E-03
DAV:  12    -0.436040927510E+02    0.92276E-06   -0.12294E-06   782   0.841E-03
  27 F= -.44922232E+02 E0= -.44922232E+02  d E =0.126470E-01
       N       E                     dE             d eps       ncg     rms          rms(c)
DAV:   1    -0.436374768594E+02   -0.33383E-01   -0.44071E+00  1244   0.104E+01    0.850E-01
DAV:   2    -0.436041061861E+02    0.33371E-01   -0.34760E-01  1274   0.363E+00    0.837E-02
DAV:   3    -0.436053048515E+02   -0.11987E-02   -0.96168E-03  1376   0.637E-01    0.911E-02
DAV:   4    -0.436050917566E+02    0.21309E-03   -0.50133E-03  1460   0.318E-01    0.769E-02
DAV:   5    -0.436050165325E+02    0.75224E-04   -0.19092E-03  1374   0.213E-01    0.403E-02
DAV:   6    -0.436049862607E+02    0.30272E-04   -0.10753E-04  1530   0.600E-02    0.348E-02
DAV:   7    -0.436049853852E+02    0.87543E-06   -0.76889E-06  1476   0.157E-02
  28 F= -.44933344E+02 E0= -.44933344E+02  d E =-.111120E-01
       N       E                     dE             d eps       ncg     rms          rms(c)
DAV:   1    -0.447102001480E+02   -0.11052E+01   -0.13601E+02  1250   0.567E+01    0.484E+00
DAV:   2    -0.441393096456E+02    0.57089E+00   -0.21779E+01  1256   0.253E+01    0.331E+00
DAV:   3    -0.442248315767E+02   -0.85522E-01   -0.20715E+00  1488   0.875E+00    0.430E+00
DAV:   4    -0.442273958862E+02   -0.25643E-02   -0.94761E+00  1626   0.150E+01    0.771E+00
DAV:   5    -0.444388910915E+02   -0.21150E+00   -0.80400E-01  1758   0.520E+00    0.781E+00
DAV:   6    -0.436016686643E+02    0.83722E+00   -0.34433E+00  1792   0.949E+00    0.991E-01
DAV:   7    -0.436122855428E+02   -0.10617E-01   -0.78468E-01  1406   0.470E+00    0.657E-01
DAV:   8    -0.436567269464E+02   -0.44441E-01   -0.29810E-01  1698   0.271E+00    0.142E+00
DAV:   9    -0.435980758017E+02    0.58651E-01   -0.17836E-01  1624   0.212E+00    0.333E-01
DAV:  10    -0.435962652415E+02    0.18106E-02   -0.31218E-02  1864   0.894E-01    0.204E-01
DAV:  11    -0.436033262602E+02   -0.70610E-02   -0.39566E-02  1640   0.992E-01    0.578E-01
DAV:  12    -0.435961409891E+02    0.71853E-02   -0.37858E-02  1640   0.993E-01    0.229E-01
DAV:  13    -0.435960262658E+02    0.11472E-03   -0.36062E-03  1430   0.320E-01    0.800E-02
DAV:  14    -0.435958428861E+02    0.18338E-03   -0.89134E-04  1436   0.163E-01    0.862E-02
DAV:  15    -0.435958150804E+02    0.27806E-04   -0.29242E-04  1652   0.881E-02    0.852E-02
DAV:  16    -0.436005138045E+02   -0.46987E-02   -0.26743E-02  1594   0.777E-01    0.366E-01
DAV:  17    -0.436474899953E+02   -0.46976E-01   -0.14679E-01  1556   0.185E+00    0.120E+00
DAV:  18    -0.435969800256E+02    0.50510E-01   -0.31127E-01  1526   0.275E+00    0.464E-01
DAV:  19    -0.435973354217E+02   -0.35540E-03   -0.12636E-02  1296   0.712E-01    0.370E-01
DAV:  20    -0.435967706860E+02    0.56474E-03   -0.11216E-02  1414   0.546E-01    0.173E-01
DAV:  21    -0.436009533121E+02   -0.41826E-02   -0.62796E-02  1488   0.126E+00    0.340E-01
DAV:  22    -0.436049750009E+02   -0.40217E-02   -0.94834E-03  1728   0.498E-01    0.465E-01
DAV:  23    -0.435961766264E+02    0.87984E-02   -0.28373E-02  1488   0.822E-01    0.142E-01
DAV:  24    -0.435962087606E+02   -0.32134E-04   -0.20187E-03  1390   0.262E-01    0.115E-01
DAV:  25    -0.435965539405E+02   -0.34518E-03   -0.26119E-04  1554   0.963E-02    0.137E-01
DAV:  26    -0.435977577249E+02   -0.12038E-02   -0.19176E-03  1404   0.217E-01    0.190E-01
DAV:  27    -0.436017283370E+02   -0.39706E-02   -0.67079E-03  1482   0.389E-01    0.313E-01
DAV:  28    -0.435956356488E+02    0.60927E-02   -0.36752E-02  1394   0.947E-01    0.653E-02
DAV:  29    -0.435970565141E+02   -0.14209E-02   -0.59798E-03  1508   0.467E-01    0.197E-01
DAV:  30    -0.435976575024E+02   -0.60099E-03   -0.27426E-02  1588   0.820E-01    0.198E-01
DAV:  31    -0.435974828848E+02    0.17462E-03   -0.21930E-03  1392   0.270E-01    0.212E-01
DAV:  32    -0.435957114993E+02    0.17714E-02   -0.99834E-03  1528   0.487E-01    0.254E-02
DAV:  33    -0.435957458171E+02   -0.34318E-04   -0.57837E-04  1396   0.150E-01    0.177E-02
DAV:  34    -0.435957524243E+02   -0.66072E-05   -0.35025E-05  1586   0.318E-02    0.179E-02
DAV:  35    -0.435971910389E+02   -0.14386E-02   -0.10984E-02  1622   0.529E-01    0.190E-01
DAV:  36    -0.435957021296E+02    0.14889E-02   -0.10388E-02  1628   0.539E-01    0.118E-02
DAV:  37    -0.435957514361E+02   -0.49306E-04   -0.44961E-04  1348   0.121E-01    0.238E-02
DAV:  38    -0.435957289063E+02    0.22530E-04   -0.76252E-05  1660   0.498E-02    0.923E-03
DAV:  39    -0.435957289556E+02   -0.49302E-07   -0.11486E-05  1684   0.182E-02    0.850E-03
DAV:  40    -0.435957293056E+02   -0.35002E-06   -0.59848E-07   880   0.522E-03
  29 F= -.44998392E+02 E0= -.44998392E+02  d E =-.650486E-01
       N       E                     dE             d eps       ncg     rms          rms(c)
DAV:   1    -0.436719306102E+02   -0.76202E-01   -0.67156E+00  1310   0.133E+01    0.135E+00
DAV:   2    -0.437217417698E+02   -0.49811E-01   -0.65495E-01  1798   0.413E+00    0.139E+00
DAV:   3    -0.436588778998E+02    0.62864E-01   -0.13010E-01  1328   0.187E+00    0.109E+00
DAV:   4    -0.436390617152E+02    0.19816E-01   -0.28547E-02  1496   0.781E-01    0.953E-01
DAV:   5    -0.664603778825E+02   -0.22821E+02   -0.13781E+02  1232   0.608E+01    0.202E+01
DAV:   6    -0.439147192813E+02    0.22546E+02   -0.75289E+01  1268   0.458E+01    0.557E+00
DAV:   7    -0.439741794459E+02   -0.59460E-01   -0.13524E+01  1536   0.176E+01    0.337E+00
DAV:   8    -0.440355398696E+02   -0.61360E-01   -0.95856E-01  1542   0.536E+00    0.307E+00
DAV:   9    -0.440321617592E+02    0.33781E-02   -0.45842E+00  1328   0.986E+00    0.445E+00
DAV:  10    -0.440032268141E+02    0.28935E-01   -0.16997E+00  1590   0.631E+00    0.448E+00
DAV:  11    -0.441295444994E+02   -0.12632E+00   -0.40297E+00  1428   0.960E+00    0.356E+00
DAV:  12    -0.444422001427E+02   -0.31266E+00   -0.63315E-01  1412   0.465E+00    0.482E+00
DAV:  13    -0.441574575819E+02    0.28474E+00   -0.16261E-01  1358   0.223E+00    0.425E+00
DAV:  14    -0.436218644125E+02    0.53559E+00   -0.32500E+00  1310   0.893E+00    0.154E+00
DAV:  15    -0.436140436710E+02    0.78207E-02   -0.66308E-01  1310   0.457E+00    0.734E-01
DAV:  16    -0.436460157837E+02   -0.31972E-01   -0.16356E-01  1328   0.189E+00    0.119E+00
DAV:  17    -0.436528766327E+02   -0.68608E-02   -0.14598E-02  1756   0.612E-01    0.125E+00
DAV:  18    -0.436560734058E+02   -0.31968E-02   -0.28099E-02  1394   0.891E-01    0.121E+00
DAV:  19    -0.436154941828E+02    0.40579E-01   -0.82062E-02  1274   0.131E+00    0.794E-01
DAV:  20    -0.435998828421E+02    0.15611E-01   -0.72605E-02  1550   0.123E+00    0.350E-01
DAV:  21    -0.436005900971E+02   -0.70726E-03   -0.32023E-02  1680   0.832E-01    0.277E-01
DAV:  22    -0.436019505545E+02   -0.13605E-02   -0.92805E-03  1544   0.544E-01    0.252E-01
DAV:  23    -0.435983367184E+02    0.36138E-02   -0.83760E-03  1406   0.455E-01    0.130E-01
DAV:  24    -0.435984292272E+02   -0.92509E-04   -0.12944E-02  1418   0.569E-01    0.234E-01
DAV:  25    -0.435978239036E+02    0.60532E-03   -0.17553E-03  1412   0.269E-01    0.142E-01
DAV:  26    -0.435977938352E+02    0.30068E-04   -0.12897E-03  1512   0.191E-01    0.974E-02
DAV:  27    -0.435977906228E+02    0.32124E-05   -0.39897E-04  1484   0.109E-01    0.108E-01
DAV:  28    -0.435977950921E+02   -0.44693E-05   -0.38688E-05  1510   0.370E-02    0.111E-01
DAV:  29    -0.435978821355E+02   -0.87043E-04   -0.19961E-04  1628   0.742E-02    0.136E-01
DAV:  30    -0.435977056381E+02    0.17650E-03   -0.86745E-04  1362   0.148E-01    0.116E-01
DAV:  31    -0.435977224528E+02   -0.16815E-04   -0.90746E-05  1476   0.569E-02    0.114E-01
DAV:  32    -0.435977398578E+02   -0.17405E-04   -0.53835E-06  1390   0.129E-02    0.119E-01
DAV:  33    -0.435978479247E+02   -0.10807E-03   -0.47984E-04  1646   0.114E-01    0.147E-01
DAV:  34    -0.435978003142E+02    0.47610E-04   -0.20852E-04  1452   0.766E-02    0.136E-01
DAV:  35    -0.435978281227E+02   -0.27809E-04   -0.21297E-05  1586   0.265E-02    0.142E-01
DAV:  36    -0.435978731681E+02   -0.45045E-04   -0.21347E-05  1370   0.235E-02    0.147E-01
DAV:  37    -0.435977303241E+02    0.14284E-03   -0.47131E-05  1454   0.393E-02    0.117E-01
DAV:  38    -0.435976686584E+02    0.61666E-04   -0.38214E-05  1400   0.293E-02    0.976E-02
DAV:  39    -0.435975422996E+02    0.12636E-03   -0.10831E-04  1340   0.557E-02    0.583E-02
DAV:  40    -0.435974920017E+02    0.50298E-04   -0.11946E-04  1552   0.539E-02    0.184E-02
DAV:  41    -0.435974835096E+02    0.84922E-05   -0.22206E-05  1634   0.253E-02    0.334E-03
DAV:  42    -0.435974840117E+02   -0.50211E-06   -0.10153E-05  1434   0.159E-02    0.656E-03
DAV:  43    -0.435974832265E+02    0.78515E-06   -0.12494E-06   812   0.572E-03
  30 F= -.45017958E+02 E0= -.45017958E+02  d E =-.195656E-01
       N       E                     dE             d eps       ncg     rms          rms(c)
DAV:   1    -0.436251136948E+02   -0.27630E-01   -0.10548E+00  1232   0.554E+00    0.625E-01
DAV:   2    -0.436036400660E+02    0.21474E-01   -0.10919E-01  1238   0.187E+00    0.154E-01
DAV:   3    -0.436038293113E+02   -0.18925E-03   -0.50407E-03  1696   0.366E-01    0.864E-02
DAV:   4    -0.436037814083E+02    0.47903E-04   -0.57367E-04  1460   0.127E-01    0.102E-01
DAV:   5    -0.436036048871E+02    0.17652E-03   -0.18172E-04  1542   0.745E-02    0.670E-02
DAV:   6    -0.436034830828E+02    0.12180E-03   -0.41124E-04  1442   0.111E-01    0.936E-03
DAV:   7    -0.436034860492E+02   -0.29664E-05   -0.76413E-05  1540   0.491E-02    0.716E-03
DAV:   8    -0.436034847134E+02    0.13358E-05   -0.29832E-06  1118   0.997E-03    0.130E-03
DAV:   9    -0.436034845165E+02    0.19688E-06   -0.80658E-07   808   0.502E-03
  31 F= -.45013381E+02 E0= -.45013381E+02  d E =0.457666E-02
       N       E                     dE             d eps       ncg     rms          rms(c)
DAV:   1    -0.436034660450E+02    0.18668E-04   -0.16149E-01  1232   0.199E+00    0.135E-01
DAV:   2    -0.436033408233E+02    0.12522E-03   -0.11893E-02  1262   0.695E-01    0.127E-01
DAV:   3    -0.436029195004E+02    0.42132E-03   -0.89171E-04  1536   0.173E-01    0.470E-02
DAV:   4    -0.436029261835E+02   -0.66831E-05   -0.13839E-04  1470   0.619E-02    0.382E-02
DAV:   5    -0.436029108816E+02    0.15302E-04   -0.60067E-04  1388   0.117E-01    0.263E-02
DAV:   6    -0.436029004797E+02    0.10402E-04   -0.21879E-04  1322   0.761E-02    0.209E-02
DAV:   7    -0.436028985895E+02    0.18902E-05   -0.13375E-05  1442   0.230E-02    0.214E-02
DAV:   8    -0.436028884770E+02    0.10113E-04   -0.40411E-05  1388   0.333E-02    0.645E-03
DAV:   9    -0.436028881932E+02    0.28385E-06   -0.92354E-06  1280   0.155E-02
  32 F= -.45015780E+02 E0= -.45015780E+02  d E =-.239912E-02
       N       E                     dE             d eps       ncg     rms          rms(c)
DAV:   1    -0.436485342984E+02   -0.45646E-01   -0.57962E+00  1232   0.122E+01    0.103E+00
DAV:   2    -0.436786130248E+02   -0.30079E-01   -0.78965E-01  1590   0.548E+00    0.173E+00
DAV:   3    -0.436025927568E+02    0.76020E-01   -0.34336E-01  1596   0.308E+00    0.170E-01
DAV:   4    -0.436044540481E+02   -0.18613E-02   -0.30742E-02  1422   0.998E-01    0.210E-01
DAV:   5    -0.436034424127E+02    0.10116E-02   -0.47485E-03  1468   0.401E-01    0.103E-01
DAV:   6    -0.436035511225E+02   -0.10871E-03   -0.18255E-04  1476   0.100E-01    0.119E-01
DAV:   7    -0.436034830406E+02    0.68082E-04   -0.92058E-05  1736   0.445E-02    0.102E-01
DAV:   8    -0.436034569932E+02    0.26047E-04   -0.57593E-06  1376   0.181E-02    0.948E-02
DAV:   9    -0.436031990431E+02    0.25795E-03   -0.74391E-04  1316   0.141E-01    0.181E-02
DAV:  10    -0.436032247474E+02   -0.25704E-04   -0.11858E-04  1566   0.630E-02    0.339E-02
DAV:  11    -0.436032386244E+02   -0.13877E-04   -0.21818E-05  1666   0.270E-02    0.453E-02
DAV:  12    -0.436032331635E+02    0.54609E-05   -0.26787E-06   932   0.121E-02    0.425E-02
DAV:  13    -0.436032288163E+02    0.43472E-05   -0.16223E-06   860   0.795E-03    0.380E-02
DAV:  14    -0.436032280392E+02    0.77709E-06   -0.31233E-07   754   0.376E-03
  33 F= -.44996845E+02 E0= -.44996845E+02  d E =0.189353E-01
       N       E                     dE             d eps       ncg     rms          rms(c)
DAV:   1    -0.440105665090E+02   -0.40734E+00   -0.54960E+01  1238   0.363E+01    0.307E+00
DAV:   2    -0.435834484076E+02    0.42712E+00   -0.45765E+00  1238   0.130E+01    0.498E-01
DAV:   3    -0.436093747762E+02   -0.25926E-01   -0.18347E-01  1600   0.271E+00    0.865E-01
DAV:   4    -0.436043677771E+02    0.50070E-02   -0.14740E-02  1492   0.734E-01    0.729E-01
DAV:   5    -0.435966357013E+02    0.77321E-02   -0.10277E-02  1398   0.526E-01    0.296E-01
DAV:   6    -0.435943646201E+02    0.22711E-02   -0.99276E-03  1390   0.538E-01    0.795E-02
DAV:   7    -0.435945555870E+02   -0.19097E-03   -0.19089E-03  1534   0.231E-01    0.104E-01
DAV:   8    -0.436002307244E+02   -0.56751E-02   -0.34224E-02  1410   0.942E-01    0.324E-01
DAV:   9    -0.435944434337E+02    0.57873E-02   -0.35883E-02  1388   0.104E+00    0.128E-01
DAV:  10    -0.435945169830E+02   -0.73549E-04   -0.33714E-03  1328   0.317E-01    0.688E-02
DAV:  11    -0.435945372535E+02   -0.20271E-04   -0.12074E-04  1498   0.724E-02    0.737E-02
DAV:  12    -0.435946271123E+02   -0.89859E-04   -0.16500E-03  1360   0.197E-01    0.121E-01
DAV:  13    -0.435945203505E+02    0.10676E-03   -0.11255E-04  1370   0.710E-02    0.930E-02
DAV:  14    -0.435945261412E+02   -0.57907E-05   -0.99001E-04  1374   0.152E-01    0.659E-02
DAV:  15    -0.435944637141E+02    0.62427E-04   -0.65765E-05  1358   0.520E-02    0.535E-02
DAV:  16    -0.435944260576E+02    0.37657E-04   -0.74124E-05  1488   0.453E-02    0.512E-02
DAV:  17    -0.435943671170E+02    0.58941E-04   -0.51751E-04  1564   0.104E-01    0.357E-02
DAV:  18    -0.435943542966E+02    0.12820E-04   -0.27427E-05  1452   0.351E-02    0.235E-02
DAV:  19    -0.435943445625E+02    0.97341E-05   -0.39983E-05  1524   0.307E-02    0.482E-03
DAV:  20    -0.435943437845E+02    0.77801E-06   -0.26615E-06  1090   0.112E-02
  34 F= -.45050203E+02 E0= -.45050203E+02  d E =-.533578E-01
       N       E                     dE             d eps       ncg     rms          rms(c)
DAV:   1    -0.454895559555E+02   -0.18952E+01   -0.24793E+02  1238   0.774E+01    0.701E+00
DAV:   2    -0.472644884317E+02   -0.17749E+01   -0.46400E+01  1438   0.412E+01    0.110E+01
DAV:   3    -0.460600903914E+02    0.12044E+01   -0.36193E+00  1316   0.131E+01    0.941E+00
DAV:   4    -0.446522810098E+02    0.14078E+01   -0.16921E+01  1352   0.220E+01    0.967E+00
DAV:   5    -0.446269517965E+02    0.25329E-01   -0.12535E+00  1384   0.757E+00    0.918E+00
DAV:   6    -0.459348856395E+02   -0.13079E+01   -0.25462E+00  1460   0.893E+00    0.134E+01
DAV:   7    -0.455418135446E+02    0.39307E+00   -0.22012E-01  1354   0.354E+00    0.124E+01
DAV:   8    -0.466668395065E+02   -0.11250E+01   -0.11104E+00  1518   0.723E+00    0.163E+01
DAV:   9    -0.444611991339E+02    0.22056E+01   -0.50601E+00  1422   0.157E+01    0.749E+00
DAV:  10    -0.445619920779E+02   -0.10079E+00   -0.53355E+00  1516   0.124E+01    0.571E+00
DAV:  11    -0.440452930040E+02    0.51670E+00   -0.12902E+00  1394   0.661E+00    0.447E+00
DAV:  12    -0.436390590542E+02    0.40623E+00   -0.11706E+00  1564   0.557E+00    0.281E+00
DAV:  13    -0.443348825376E+02   -0.69582E+00   -0.38407E+00  1438   0.107E+01    0.705E+00
DAV:  14    -0.434943942135E+02    0.84049E+00   -0.15579E+00  1350   0.776E+00    0.231E+00
DAV:  15    -0.514581380017E+02   -0.79637E+01   -0.34718E+01  1294   0.325E+01    0.226E+01
