 vasp.5.4.4.18Apr17-6-g9f103f2a35 (build Jun 30 2017 11:15:00) complex          
  
 executed on    STALLO_VASP_5.4.4 date 2019.11.08  14:32:26
 running on    4 total cores
 distrk:  each k-point on    4 cores,    1 groups
 distr:  one band on NCORES_PER_BAND=   2 cores,    2 groups


--------------------------------------------------------------------------------------------------------


 INCAR:
 POTCAR:   PAW_PBE Mo 08Apr2002                   
 POTCAR:    PAW_PBE S 17Jan2003                   
 POTCAR:   PAW_PBE Mo 08Apr2002                   
  local pseudopotential read in
  partial core-charges read in
  atomic valenz-charges read in
  non local Contribution for L=           2  read in
    real space projection operators read in
  non local Contribution for L=           2  read in
    real space projection operators read in
  non local Contribution for L=           0  read in
    real space projection operators read in
  non local Contribution for L=           0  read in
    real space projection operators read in
  non local Contribution for L=           1  read in
    real space projection operators read in
  non local Contribution for L=           1  read in
    real space projection operators read in
    PAW grid and wavefunctions read in
 
   number of l-projection  operators is LMAX  =           6
   number of lm-projection operators is LMMAX =          18
 
 POTCAR:    PAW_PBE S 17Jan2003                   
  local pseudopotential read in
  partial core-charges read in
  atomic valenz-charges read in
  non local Contribution for L=           0  read in
    real space projection operators read in
  non local Contribution for L=           0  read in
    real space projection operators read in
  non local Contribution for L=           1  read in
    real space projection operators read in
  non local Contribution for L=           1  read in
    real space projection operators read in
    PAW grid and wavefunctions read in
 
   number of l-projection  operators is LMAX  =           4
   number of lm-projection operators is LMMAX =           8
 
 PAW_PBE Mo 08Apr2002                   :
 energy of atom  1       EATOM= -217.5180
 kinetic energy error for atom=    0.0023 (will be added to EATOM!!)
  PAW_PBE S 17Jan2003                   :
 energy of atom  2       EATOM= -276.8230
 kinetic energy error for atom=    0.0033 (will be added to EATOM!!)
 
 
 POSCAR: unknown system                          
  positions in direct lattice
  No initial velocities read in
 exchange correlation table for  LEXCH =        8
   RHO(1)=    0.500       N(1)  =     2000
   RHO(2)=  100.500       N(2)  =     4000
 


--------------------------------------------------------------------------------------------------------


 ion  position               nearest neighbor table
   1  0.333  0.667  0.250-   4 2.42   5 2.42   4 2.42   5 2.42   5 2.42   4 2.42
   2  0.667  0.333  0.750-   3 2.42   6 2.42   3 2.42   6 2.42   6 2.42   3 2.42
   3  0.333  0.667  0.857-   2 2.42   2 2.42   2 2.42
   4  0.667  0.333  0.143-   1 2.42   1 2.42   1 2.42
   5  0.667  0.333  0.357-   1 2.42   1 2.42   1 2.42
   6  0.333  0.667  0.643-   2 2.42   2 2.42   2 2.42
 
  LATTYP: Found a hexagonal cell.
 ALAT       =     3.1940921611
 C/A-ratio  =     4.5592588647
  
  Lattice vectors:
  
 A1 = (   3.1940920000,   0.0000000000,   0.0000000000)
 A2 = (  -1.5970460000,   2.7661650000,   0.0000000000)
 A3 = (   0.0000000000,   0.0000000000,  14.5626930000)


Analysis of symmetry for initial positions (statically):
=====================================================================
 Subroutine PRICEL returns:
 Original cell was already a primitive cell.
 

 Routine SETGRP: Setting up the symmetry group for a 
 hexagonal supercell.


 Subroutine GETGRP returns: Found 24 space group operations
 (whereof 12 operations were pure point group operations)
 out of a pool of 24 trial point group operations.


The static configuration has the point symmetry D_3d.
 The point group associated with its full space group is D_6h.


Analysis of symmetry for dynamics (positions and initial velocities):
=====================================================================
 Subroutine PRICEL returns:
 Original cell was already a primitive cell.
 

 Routine SETGRP: Setting up the symmetry group for a 
 hexagonal supercell.


 Subroutine GETGRP returns: Found 24 space group operations
 (whereof 12 operations were pure point group operations)
 out of a pool of 24 trial point group operations.


The dynamic configuration has the point symmetry D_3d.
 The point group associated with its full space group is D_6h.


 Subroutine INISYM returns: Found 24 space group operations
 (whereof 12 operations are pure point group operations),
 and found     1 'primitive' translations

 
 
 KPOINTS: k-density: 5.0                          

Automatic generation of k-mesh.
Space group operators:
 irot       det(A)        alpha          n_x          n_y          n_z        tau_x        tau_y        tau_z
    1     1.000000     0.000000     1.000000     0.000000     0.000000     0.000000     0.000000     0.000000
    2    -1.000000     0.000000     1.000000     0.000000     0.000000     0.000000     0.000000     0.000000
    3     1.000000   120.000000     0.000000     0.000000    -1.000000     0.000000     0.000000     0.000000
    4    -1.000000   120.000000     0.000000     0.000000    -1.000000     0.000000     0.000000     0.000000
    5     1.000000   120.000000     0.000000     0.000000     1.000000     0.000000     0.000000     0.000000
    6    -1.000000   120.000000     0.000000     0.000000     1.000000     0.000000     0.000000     0.000000
    7     1.000000   180.000000     1.000000     0.000000     0.000000     0.000000     0.000000     0.000000
    8    -1.000000   180.000000     1.000000     0.000000     0.000000     0.000000     0.000000     0.000000
    9     1.000000   180.000000     0.500000    -0.866025     0.000000     0.000000     0.000000     0.000000
   10    -1.000000   180.000000     0.500000    -0.866025     0.000000     0.000000     0.000000     0.000000
   11     1.000000   180.000000    -0.500000    -0.866025     0.000000     0.000000     0.000000     0.000000
   12    -1.000000   180.000000    -0.500000    -0.866025     0.000000     0.000000     0.000000     0.000000
   13     1.000000    60.000000     0.000000     0.000000    -1.000000     0.000001     0.000000     0.500000
   14    -1.000000    60.000000     0.000000     0.000000    -1.000000     0.000001     0.000000     0.500000
   15     1.000000   180.000000     0.000000     0.000000     1.000000     0.000000     0.000000     0.500000
   16    -1.000000   180.000000     0.000000     0.000000     1.000000     0.000000     0.000000     0.500000
   17     1.000000    60.000000     0.000000     0.000000     1.000000     0.000000     0.000000     0.500000
   18    -1.000000    60.000000     0.000000     0.000000     1.000000     0.000000     0.000000     0.500000
   19     1.000000   180.000000     0.866025    -0.500000     0.000000     0.000000     0.000000     0.500000
   20    -1.000000   180.000000     0.866025    -0.500000     0.000000     0.000000     0.000000     0.500000
   21     1.000000   180.000000     0.000000     1.000000     0.000000     0.000001     0.000000     0.500000
   22    -1.000000   180.000000     0.000000     1.000000     0.000000     0.000001     0.000000     0.500000
   23     1.000000   180.000000     0.866025     0.500000     0.000000     0.000000     0.000000     0.500000
   24    -1.000000   180.000000     0.866025     0.500000     0.000000     0.000000     0.000000     0.500000
 
 Subroutine IBZKPT returns following result:
 ===========================================
 
 Found     28 irreducible k-points:
 
 Following reciprocal coordinates:
            Coordinates               Weight
  0.000000  0.000000  0.000000      1.000000
  0.100000  0.000000  0.000000      6.000000
  0.200000  0.000000  0.000000      6.000000
  0.300000  0.000000  0.000000      6.000000
  0.400000  0.000000  0.000000      6.000000
  0.500000  0.000000  0.000000      3.000000
  0.100000  0.100000  0.000000      6.000000
  0.200000  0.100000  0.000000     12.000000
  0.300000  0.100000  0.000000     12.000000
  0.400000  0.100000  0.000000     12.000000
  0.200000  0.200000  0.000000      6.000000
  0.300000  0.200000  0.000000     12.000000
  0.400000  0.200000  0.000000      6.000000
  0.300000  0.300000  0.000000      6.000000
  0.000000  0.000000  0.333333      2.000000
  0.100000  0.000000  0.333333     12.000000
  0.200000  0.000000  0.333333     12.000000
  0.300000  0.000000  0.333333     12.000000
  0.400000  0.000000  0.333333     12.000000
  0.500000  0.000000  0.333333      6.000000
  0.100000  0.100000  0.333333     12.000000
  0.200000  0.100000  0.333333     24.000000
  0.300000  0.100000  0.333333     24.000000
  0.400000  0.100000  0.333333     24.000000
  0.200000  0.200000  0.333333     12.000000
  0.300000  0.200000  0.333333     24.000000
  0.400000  0.200000  0.333333     12.000000
  0.300000  0.300000  0.333333     12.000000
 
 Following cartesian coordinates:
            Coordinates               Weight
  0.000000  0.000000  0.000000      1.000000
  0.031308  0.018076  0.000000      6.000000
  0.062616  0.036151  0.000000      6.000000
  0.093923  0.054227  0.000000      6.000000
  0.125231  0.072302  0.000000      6.000000
  0.156539  0.090378  0.000000      3.000000
  0.031308  0.054227  0.000000      6.000000
  0.062616  0.072302  0.000000     12.000000
  0.093923  0.090378  0.000000     12.000000
  0.125231  0.108453  0.000000     12.000000
  0.062616  0.108453  0.000000      6.000000
  0.093923  0.126529  0.000000     12.000000
  0.125231  0.144605  0.000000      6.000000
  0.093923  0.162680  0.000000      6.000000
  0.000000  0.000000  0.022890      2.000000
  0.031308  0.018076  0.022890     12.000000
  0.062616  0.036151  0.022890     12.000000
  0.093923  0.054227  0.022890     12.000000
  0.125231  0.072302  0.022890     12.000000
  0.156539  0.090378  0.022890      6.000000
  0.031308  0.054227  0.022890     12.000000
  0.062616  0.072302  0.022890     24.000000
  0.093923  0.090378  0.022890     24.000000
  0.125231  0.108453  0.022890     24.000000
  0.062616  0.108453  0.022890     12.000000
  0.093923  0.126529  0.022890     24.000000
  0.125231  0.144605  0.022890     12.000000
  0.093923  0.162680  0.022890     12.000000
 


--------------------------------------------------------------------------------------------------------




 Dimension of arrays:
   k-points           NKPTS =     28   k-points in BZ     NKDIM =     28   number of bands    NBANDS=     22
   number of dos      NEDOS =    301   number of ions     NIONS =      6
   non local maximal  LDIM  =      6   non local SUM 2l+1 LMDIM =     18
   total plane-waves  NPLWV =  62208
   max r-space proj   IRMAX =      1   max aug-charges    IRDMAX=  31237
   dimension x,y,z NGX =    24 NGY =   24 NGZ =  108
   dimension x,y,z NGXF=    48 NGYF=   48 NGZF=  216
   support grid    NGXF=    48 NGYF=   48 NGZF=  216
   ions per type =               2   4
   NGX,Y,Z   is equivalent  to a cutoff of  12.49, 12.49, 12.33 a.u.
   NGXF,Y,Z  is equivalent  to a cutoff of  24.98, 24.98, 24.66 a.u.

 SYSTEM =  unknown system                          
 POSCAR =  unknown system                          

 Startparameter for this run:
   NWRITE =      1    write-flag & timer
   PREC   = accura    normal or accurate (medium, high low for compatibility)
   ISTART =      0    job   : 0-new  1-cont  2-samecut
   ICHARG =      2    charge: 1-file 2-atom 10-const
   ISPIN  =      1    spin polarized calculation?
   LNONCOLLINEAR =      F non collinear calculations
   LSORBIT =      F    spin-orbit coupling
   INIWAV =      1    electr: 0-lowe 1-rand  2-diag
   LASPH  =      F    aspherical Exc in radial PAW
   METAGGA=      F    non-selfconsistent MetaGGA calc.

 Electronic Relaxation 1
   ENCUT  =  450.0 eV  33.07 Ry    5.75 a.u.   5.52  5.52 25.19*2*pi/ulx,y,z
   ENINI  =  450.0     initial cutoff
   ENAUG  =  345.3 eV  augmentation charge cutoff
   NELM   =    200;   NELMIN=  4; NELMDL= -5     # of ELM steps 
   EDIFF  = 0.1E-05   stopping-criterion for ELM
   LREAL  =      F    real-space projection
   NLSPLINE    = F    spline interpolate recip. space projectors
   LCOMPAT=      F    compatible to vasp.4.4
   GGA_COMPAT  = T    GGA compatible to vasp.4.4-vasp.4.6
   LMAXPAW     = -100 max onsite density
   LMAXMIX     =    2 max onsite mixed and CHGCAR
   VOSKOWN=      0    Vosko Wilk Nusair interpolation
   ROPT   =    0.00000   0.00000
 Ionic relaxation
   EDIFFG = -.1E-01   stopping-criterion for IOM
   NSW    =     80    number of steps for IOM
   NBLOCK =      1;   KBLOCK =     80    inner block; outer block 
   IBRION =      1    ionic relax: 0-MD 1-quasi-New 2-CG
   NFREE  =      0    steps in history (QN), initial steepest desc. (CG)
   ISIF   =      3    stress and relaxation
   IWAVPR =     11    prediction:  0-non 1-charg 2-wave 3-comb
   ISYM   =      2    0-nonsym 1-usesym 2-fastsym
   LCORR  =      T    Harris-Foulkes like correction to forces

   POTIM  = 0.5000    time-step for ionic-motion
   TEIN   =    0.0    initial temperature
   TEBEG  =    0.0;   TEEND  =   0.0 temperature during run
   SMASS  =  -3.00    Nose mass-parameter (am)
   estimated Nose-frequenzy (Omega)   =  0.10E-29 period in steps =****** mass=  -0.233E-27a.u.
   SCALEE = 1.0000    scale energy and forces
   NPACO  =    256;   APACO  = 16.0  distance and # of slots for P.C.
   PSTRESS=    0.0 pullay stress

  Mass of Ions in am
   POMASS =  95.94 32.07
  Ionic Valenz
   ZVAL   =   6.00  6.00
  Atomic Wigner-Seitz radii
   RWIGS  =  -1.00 -1.00
  virtual crystal weights 
   VCA    =   1.00  1.00
   NELECT =      36.0000    total number of electrons
   NUPDOWN=      -1.0000    fix difference up-down

 DOS related values:
   EMIN   =  10.00;   EMAX   =-10.00  energy-range for DOS
   EFERMI =   0.00
   ISMEAR =     0;   SIGMA  =   0.20  broadening in eV -4-tet -1-fermi 0-gaus

 Electronic relaxation 2 (details)
   IALGO  =     38    algorithm
   LDIAG  =      T    sub-space diagonalisation (order eigenvalues)
   LSUBROT=      F    optimize rotation matrix (better conditioning)
   TURBO    =      0    0=normal 1=particle mesh
   IRESTART =      0    0=no restart 2=restart with 2 vectors
   NREBOOT  =      0    no. of reboots
   NMIN     =      0    reboot dimension
   EREF     =   0.00    reference energy to select bands
   IMIX   =      4    mixing-type and parameters
     AMIX     =   0.40;   BMIX     =  1.00
     AMIX_MAG =   1.60;   BMIX_MAG =  1.00
     AMIN     =   0.10
     WC   =   100.;   INIMIX=   1;  MIXPRE=   1;  MAXMIX=  80

 Intra band minimization:
   WEIMIN = 0.0010     energy-eigenvalue tresh-hold
   EBREAK =  0.11E-07  absolut break condition
   DEPER  =   0.30     relativ break condition  

   TIME   =   0.40     timestep for ELM

  volume/ion in A,a.u.               =      21.44       144.71
  Fermi-wavevector in a.u.,A,eV,Ry     =   1.070746  2.023417 15.599049  1.146498
  Thomas-Fermi vector in A             =   2.206466
 
 Write flags
   LWAVE        =      T    write WAVECAR
   LDOWNSAMPLE  =      F    k-point downsampling of WAVECAR
   LCHARG       =      T    write CHGCAR
   LVTOT        =      F    write LOCPOT, total local potential
   LVHAR        =      F    write LOCPOT, Hartree potential only
   LELF         =      F    write electronic localiz. function (ELF)
   LORBIT       =      0    0 simple, 1 ext, 2 COOP (PROOUT), +10 PAW based schemes


 Dipole corrections
   LMONO  =      F    monopole corrections only (constant potential shift)
   LDIPOL =      F    correct potential (dipole corrections)
   IDIPOL =      0    1-x, 2-y, 3-z, 4-all directions 
   EPSILON=  1.0000000 bulk dielectric constant

 Exchange correlation treatment:
   GGA     =    --    GGA type
   LEXCH   =     8    internal setting for exchange type
   VOSKOWN=      0    Vosko Wilk Nusair interpolation
   LHFCALC =     F    Hartree Fock is set to
   LHFONE  =     F    Hartree Fock one center treatment
   AEXX    =    0.0000 exact exchange contribution

 Linear response parameters
   LEPSILON=     F    determine dielectric tensor
   LRPA    =     F    only Hartree local field effects (RPA)
   LNABLA  =     F    use nabla operator in PAW spheres
   LVEL    =     F    velocity operator in full k-point grid
   LINTERFAST=   F  fast interpolation
   KINTER  =     0    interpolate to denser k-point grid
   CSHIFT  =0.1000    complex shift for real part using Kramers Kronig
   OMEGAMAX=  -1.0    maximum frequency
   DEG_THRESHOLD= 0.2000000E-02 threshold for treating states as degnerate
   RTIME   =   -0.100 relaxation time in fs
  (WPLASMAI=    0.000 imaginary part of plasma frequency in eV, 0.658/RTIME)
   DFIELD  = 0.0000000 0.0000000 0.0000000 field for delta impulse in time
 
 Orbital magnetization related:
   ORBITALMAG=     F  switch on orbital magnetization
   LCHIMAG   =     F  perturbation theory with respect to B field
   DQ        =  0.001000  dq finite difference perturbation B field
   LLRAUG    =     F  two centre corrections for induced B field



--------------------------------------------------------------------------------------------------------


 quasi-Newton-method for relaxation of ions
 charge density and potential will be updated during run
 non-spin polarized calculation
 Variant of blocked Davidson
 Davidson routine will perform the subspace rotation
 perform sub-space diagonalisation
    after iterative eigenvector-optimisation
 modified Broyden-mixing scheme, WC =      100.0
 initial mixing is a Kerker type mixing with AMIX =  0.4000 and BMIX =      1.0000
 Hartree-type preconditioning will be used
 using additional bands            4
 reciprocal scheme for non local part
 use partial core corrections
 calculate Harris-corrections to forces 
   (improved forces if not selfconsistent)
 use gradient corrections 
 use of overlap-Matrix (Vanderbilt PP)
 Gauss-broadening in eV      SIGMA  =   0.20


--------------------------------------------------------------------------------------------------------


  energy-cutoff  :      450.00
  volume of cell :      128.67
      direct lattice vectors                 reciprocal lattice vectors
     3.194092000  0.000000000  0.000000000     0.313078020  0.180755667  0.000000000
    -1.597046000  2.766165000  0.000000000     0.000000000  0.361511334  0.000000000
     0.000000000  0.000000000 14.562693000     0.000000000  0.000000000  0.068668618

  length of vectors
     3.194092000  3.194092161 14.562693000     0.361511353  0.361511334  0.068668618


 
 k-points in units of 2pi/SCALE and weight: k-density: 5.0                          
   0.00000000  0.00000000  0.00000000       0.003
   0.03130780  0.01807557  0.00000000       0.020
   0.06261560  0.03615113  0.00000000       0.020
   0.09392341  0.05422670  0.00000000       0.020
   0.12523121  0.07230227  0.00000000       0.020
   0.15653901  0.09037783  0.00000000       0.010
   0.03130780  0.05422670  0.00000000       0.020
   0.06261560  0.07230227  0.00000000       0.040
   0.09392341  0.09037783  0.00000000       0.040
   0.12523121  0.10845340  0.00000000       0.040
   0.06261560  0.10845340  0.00000000       0.020
   0.09392341  0.12652897  0.00000000       0.040
   0.12523121  0.14460453  0.00000000       0.020
   0.09392341  0.16268010  0.00000000       0.020
   0.00000000  0.00000000  0.02288954       0.007
   0.03130780  0.01807557  0.02288954       0.040
   0.06261560  0.03615113  0.02288954       0.040
   0.09392341  0.05422670  0.02288954       0.040
   0.12523121  0.07230227  0.02288954       0.040
   0.15653901  0.09037783  0.02288954       0.020
   0.03130780  0.05422670  0.02288954       0.040
   0.06261560  0.07230227  0.02288954       0.080
   0.09392341  0.09037783  0.02288954       0.080
   0.12523121  0.10845340  0.02288954       0.080
   0.06261560  0.10845340  0.02288954       0.040
   0.09392341  0.12652897  0.02288954       0.080
   0.12523121  0.14460453  0.02288954       0.040
   0.09392341  0.16268010  0.02288954       0.040
 
 k-points in reciprocal lattice and weights: k-density: 5.0                          
   0.00000000  0.00000000  0.00000000       0.003
   0.10000000  0.00000000  0.00000000       0.020
   0.20000000  0.00000000  0.00000000       0.020
   0.30000000  0.00000000  0.00000000       0.020
   0.40000000  0.00000000  0.00000000       0.020
   0.50000000  0.00000000  0.00000000       0.010
   0.10000000  0.10000000  0.00000000       0.020
   0.20000000  0.10000000  0.00000000       0.040
   0.30000000  0.10000000  0.00000000       0.040
   0.40000000  0.10000000  0.00000000       0.040
   0.20000000  0.20000000  0.00000000       0.020
   0.30000000  0.20000000  0.00000000       0.040
   0.40000000  0.20000000  0.00000000       0.020
   0.30000000  0.30000000  0.00000000       0.020
   0.00000000  0.00000000  0.33333333       0.007
   0.10000000  0.00000000  0.33333333       0.040
   0.20000000  0.00000000  0.33333333       0.040
   0.30000000  0.00000000  0.33333333       0.040
   0.40000000  0.00000000  0.33333333       0.040
   0.50000000  0.00000000  0.33333333       0.020
   0.10000000  0.10000000  0.33333333       0.040
   0.20000000  0.10000000  0.33333333       0.080
   0.30000000  0.10000000  0.33333333       0.080
   0.40000000  0.10000000  0.33333333       0.080
   0.20000000  0.20000000  0.33333333       0.040
   0.30000000  0.20000000  0.33333333       0.080
   0.40000000  0.20000000  0.33333333       0.040
   0.30000000  0.30000000  0.33333333       0.040
 
 position of ions in fractional coordinates (direct lattice) 
   0.33333300  0.66666700  0.25000000
   0.66666700  0.33333300  0.75000000
   0.33333300  0.66666700  0.85716135
   0.66666700  0.33333300  0.14283865
   0.66666600  0.33333300  0.35716135
   0.33333400  0.66666700  0.64283865
 
 position of ions in cartesian coordinates  (Angst):
  -0.00000160  1.84411092  3.64067325
   1.59704760  0.92205408 10.92201975
  -0.00000160  1.84411092 12.48257759
   1.59704760  0.92205408  2.08011541
   1.59704440  0.92205408  5.20123109
   0.00000160  1.84411092  9.36146191
 


--------------------------------------------------------------------------------------------------------


 k-point  1 :   0.0000 0.0000 0.0000  plane waves:    2823
 k-point  2 :   0.1000 0.0000 0.0000  plane waves:    2827
 k-point  3 :   0.2000 0.0000 0.0000  plane waves:    2823
 k-point  4 :   0.3000 0.0000 0.0000  plane waves:    2776
 k-point  5 :   0.4000 0.0000 0.0000  plane waves:    2778
 k-point  6 :   0.5000 0.0000 0.0000  plane waves:    2776
 k-point  7 :   0.1000 0.1000 0.0000  plane waves:    2819
 k-point  8 :   0.2000 0.1000 0.0000  plane waves:    2791
 k-point  9 :   0.3000 0.1000 0.0000  plane waves:    2777
 k-point 10 :   0.4000 0.1000 0.0000  plane waves:    2770
 k-point 11 :   0.2000 0.2000 0.0000  plane waves:    2793
 k-point 12 :   0.3000 0.2000 0.0000  plane waves:    2781
 k-point 13 :   0.4000 0.2000 0.0000  plane waves:    2772
 k-point 14 :   0.3000 0.3000 0.0000  plane waves:    2784
 k-point 15 :   0.0000 0.0000 0.3333  plane waves:    2834
 k-point 16 :   0.1000 0.0000 0.3333  plane waves:    2829
 k-point 17 :   0.2000 0.0000 0.3333  plane waves:    2800
 k-point 18 :   0.3000 0.0000 0.3333  plane waves:    2791
 k-point 19 :   0.4000 0.0000 0.3333  plane waves:    2773
 k-point 20 :   0.5000 0.0000 0.3333  plane waves:    2752
 k-point 21 :   0.1000 0.1000 0.3333  plane waves:    2813
 k-point 22 :   0.2000 0.1000 0.3333  plane waves:    2800
 k-point 23 :   0.3000 0.1000 0.3333  plane waves:    2786
 k-point 24 :   0.4000 0.1000 0.3333  plane waves:    2767
 k-point 25 :   0.2000 0.2000 0.3333  plane waves:    2798
 k-point 26 :   0.3000 0.2000 0.3333  plane waves:    2781
 k-point 27 :   0.4000 0.2000 0.3333  plane waves:    2778
 k-point 28 :   0.3000 0.3000 0.3333  plane waves:    2785

 maximum and minimum number of plane-waves per node :      1426     1362

 maximum number of plane-waves:      2834
 maximum index in each direction: 
   IXMAX=    5   IYMAX=    5   IZMAX=   25
   IXMIN=   -6   IYMIN=   -5   IZMIN=  -25


 parallel 3D FFT for wavefunctions:
    minimum data exchange during FFTs selected (reduces bandwidth)
 parallel 3D FFT for charge:
    minimum data exchange during FFTs selected (reduces bandwidth)


 total amount of memory used by VASP MPI-rank0    62047. kBytes
=======================================================================

   base      :      30000. kBytes
   nonl-proj :      11505. kBytes
   fftplans  :       5118. kBytes
   grid      :       8262. kBytes
   one-center:         46. kBytes
   wavefun   :       7116. kBytes
 
     INWAV:  cpu time    0.0000: real time    0.0004
 Broyden mixing: mesh for mixing (old mesh)
   NGX = 11   NGY = 11   NGZ = 51
  (NGX  = 48   NGY  = 48   NGZ  =216)
  gives a total of   6171 points

 initial charge density was supplied:
 charge density of overlapping atoms calculated
 number of electron      36.0000000 magnetization 
 keeping initial charge density in first step


--------------------------------------------------------------------------------------------------------


 Maximum index for augmentation-charges         7571 (set IRDMAX)


--------------------------------------------------------------------------------------------------------


 First call to EWALD:  gamma=   0.351
 Maximum number of real-space cells 5x 5x 1
 Maximum number of reciprocal cells 2x 2x 7

    FEWALD:  cpu time    0.0010: real time    0.0015


--------------------------------------- Iteration      1(   1)  ---------------------------------------


    POTLOK:  cpu time    0.0710: real time    0.2751
    SETDIJ:  cpu time    0.0070: real time    0.0075
     EDDAV:  cpu time    0.9968: real time    1.0019
       DOS:  cpu time    0.0020: real time    0.0014
    --------------------------------------------
      LOOP:  cpu time    1.0768: real time    1.2859

 eigenvalue-minimisations  :  1232
 total energy-change (2. order) : 0.1994270E+03  (-0.1475491E+04)
 number of electron      36.0000000 magnetization 
 augmentation part       36.0000000 magnetization 

 Free energy of the ion-electron system (eV)
  ---------------------------------------------------
  alpha Z        PSCENC =        92.17154737
  Ewald energy   TEWEN  =     -1198.61356286
  -Hartree energ DENC   =      -491.81669997
  -exchange      EXHF   =         0.00000000
  -V(xc)+E(xc)   XCENC  =       -72.58376375
  PAW double counting   =       813.77302396     -658.68146406
  entropy T*S    EENTRO =        -0.04237507
  eigenvalues    EBANDS =       172.91003207
  atomic energy  EATOM  =      1542.31022798
  Solvation  Ediel_sol  =         0.00000000
  ---------------------------------------------------
  free energy    TOTEN  =       199.42696568 eV

  energy without entropy =      199.46934075  energy(sigma->0) =      199.44815321


--------------------------------------------------------------------------------------------------------




--------------------------------------- Iteration      1(   2)  ---------------------------------------


     EDDAV:  cpu time    1.2528: real time    1.2571
       DOS:  cpu time    0.0010: real time    0.0013
    --------------------------------------------
      LOOP:  cpu time    1.2538: real time    1.2584

 eigenvalue-minimisations  :  1690
 total energy-change (2. order) :-0.2283374E+03  (-0.2224538E+03)
 number of electron      36.0000000 magnetization 
 augmentation part       36.0000000 magnetization 

 Free energy of the ion-electron system (eV)
  ---------------------------------------------------
  alpha Z        PSCENC =        92.17154737
  Ewald energy   TEWEN  =     -1198.61356286
  -Hartree energ DENC   =      -491.81669997
  -exchange      EXHF   =         0.00000000
  -V(xc)+E(xc)   XCENC  =       -72.58376375
  PAW double counting   =       813.77302396     -658.68146406
  entropy T*S    EENTRO =        -0.00161428
  eigenvalues    EBANDS =       -55.46816754
  atomic energy  EATOM  =      1542.31022798
  Solvation  Ediel_sol  =         0.00000000
  ---------------------------------------------------
  free energy    TOTEN  =       -28.91047315 eV

  energy without entropy =      -28.90885887  energy(sigma->0) =      -28.90966601


--------------------------------------------------------------------------------------------------------




--------------------------------------- Iteration      1(   3)  ---------------------------------------


     EDDAV:  cpu time    1.2078: real time    1.2094
       DOS:  cpu time    0.0010: real time    0.0012
    --------------------------------------------
      LOOP:  cpu time    1.2088: real time    1.2106

 eigenvalue-minimisations  :  1608
 total energy-change (2. order) :-0.1735354E+02  (-0.1727778E+02)
 number of electron      36.0000000 magnetization 
 augmentation part       36.0000000 magnetization 

 Free energy of the ion-electron system (eV)
  ---------------------------------------------------
  alpha Z        PSCENC =        92.17154737
  Ewald energy   TEWEN  =     -1198.61356286
  -Hartree energ DENC   =      -491.81669997
  -exchange      EXHF   =         0.00000000
  -V(xc)+E(xc)   XCENC  =       -72.58376375
  PAW double counting   =       813.77302396     -658.68146406
  entropy T*S    EENTRO =        -0.00000000
  eigenvalues    EBANDS =       -72.82332260
  atomic energy  EATOM  =      1542.31022798
  Solvation  Ediel_sol  =         0.00000000
  ---------------------------------------------------
  free energy    TOTEN  =       -46.26401392 eV

  energy without entropy =      -46.26401392  energy(sigma->0) =      -46.26401392


--------------------------------------------------------------------------------------------------------




--------------------------------------- Iteration      1(   4)  ---------------------------------------


     EDDAV:  cpu time    1.2668: real time    1.2687
       DOS:  cpu time    0.0010: real time    0.0012
    --------------------------------------------
      LOOP:  cpu time    1.2678: real time    1.2699

 eigenvalue-minimisations  :  1714
 total energy-change (2. order) :-0.5430816E+00  (-0.5423976E+00)
 number of electron      36.0000000 magnetization 
 augmentation part       36.0000000 magnetization 

 Free energy of the ion-electron system (eV)
  ---------------------------------------------------
  alpha Z        PSCENC =        92.17154737
  Ewald energy   TEWEN  =     -1198.61356286
  -Hartree energ DENC   =      -491.81669997
  -exchange      EXHF   =         0.00000000
  -V(xc)+E(xc)   XCENC  =       -72.58376375
  PAW double counting   =       813.77302396     -658.68146406
  entropy T*S    EENTRO =        -0.00000000
  eigenvalues    EBANDS =       -73.36640421
  atomic energy  EATOM  =      1542.31022798
  Solvation  Ediel_sol  =         0.00000000
  ---------------------------------------------------
  free energy    TOTEN  =       -46.80709553 eV

  energy without entropy =      -46.80709553  energy(sigma->0) =      -46.80709553


--------------------------------------------------------------------------------------------------------




--------------------------------------- Iteration      1(   5)  ---------------------------------------


     EDDAV:  cpu time    1.2198: real time    1.2218
       DOS:  cpu time    0.0010: real time    0.0012
    CHARGE:  cpu time    0.1090: real time    0.1095
    MIXING:  cpu time    0.0030: real time    0.0022
    --------------------------------------------
      LOOP:  cpu time    1.3328: real time    1.3347

 eigenvalue-minimisations  :  1636
 total energy-change (2. order) :-0.1482013E-01  (-0.1481546E-01)
 number of electron      36.0000004 magnetization 
 augmentation part       -1.8910017 magnetization 

 Broyden mixing:
  rms(total) = 0.97399E+00    rms(broyden)= 0.97398E+00
  rms(prec ) = 0.12284E+01
  weight for this iteration     100.00

 Free energy of the ion-electron system (eV)
  ---------------------------------------------------
  alpha Z        PSCENC =        92.17154737
  Ewald energy   TEWEN  =     -1198.61356286
  -Hartree energ DENC   =      -491.81669997
  -exchange      EXHF   =         0.00000000
  -V(xc)+E(xc)   XCENC  =       -72.58376375
  PAW double counting   =       813.77302396     -658.68146406
  entropy T*S    EENTRO =        -0.00000000
  eigenvalues    EBANDS =       -73.38122434
  atomic energy  EATOM  =      1542.31022798
  Solvation  Ediel_sol  =         0.00000000
  ---------------------------------------------------
  free energy    TOTEN  =       -46.82191566 eV

  energy without entropy =      -46.82191566  energy(sigma->0) =      -46.82191566


--------------------------------------------------------------------------------------------------------




--------------------------------------- Iteration      1(   6)  ---------------------------------------


    POTLOK:  cpu time    0.0650: real time    0.0673
    SETDIJ:  cpu time    0.0070: real time    0.0067
     EDDAV:  cpu time    1.2348: real time    1.2349
       DOS:  cpu time    0.0020: real time    0.0014
    CHARGE:  cpu time    0.1100: real time    0.1101
    MIXING:  cpu time    0.0020: real time    0.0018
    --------------------------------------------
      LOOP:  cpu time    1.4208: real time    1.4222

 eigenvalue-minimisations  :  1654
 total energy-change (2. order) : 0.2393282E+01  (-0.2481576E+01)
 number of electron      36.0000005 magnetization 
 augmentation part       -0.7473223 magnetization 

 Broyden mixing:
  rms(total) = 0.39354E+00    rms(broyden)= 0.39353E+00
  rms(prec ) = 0.59394E+00
  weight for this iteration     100.00

 eigenvalues of (default mixing * dielectric matrix)
  average eigenvalue GAMMA=   0.8028
  0.8028

 Free energy of the ion-electron system (eV)
  ---------------------------------------------------
  alpha Z        PSCENC =        92.17154737
  Ewald energy   TEWEN  =     -1198.61356286
  -Hartree energ DENC   =      -490.29219548
  -exchange      EXHF   =         0.00000000
  -V(xc)+E(xc)   XCENC  =       -70.81589423
  PAW double counting   =       847.96011329     -694.64957870
  entropy T*S    EENTRO =        -0.00000153
  eigenvalues    EBANDS =       -72.49928953
  atomic energy  EATOM  =      1542.31022798
  Solvation  Ediel_sol  =         0.00000000
  ---------------------------------------------------
  free energy    TOTEN  =       -44.42863368 eV

  energy without entropy =      -44.42863215  energy(sigma->0) =      -44.42863292


--------------------------------------------------------------------------------------------------------




--------------------------------------- Iteration      1(   7)  ---------------------------------------


    POTLOK:  cpu time    0.0650: real time    0.0679
    SETDIJ:  cpu time    0.0070: real time    0.0066
     EDDAV:  cpu time    1.2398: real time    1.2402
       DOS:  cpu time    0.0020: real time    0.0013
    CHARGE:  cpu time    0.1100: real time    0.1102
    MIXING:  cpu time    0.0020: real time    0.0018
    --------------------------------------------
      LOOP:  cpu time    1.4258: real time    1.4280

 eigenvalue-minimisations  :  1666
 total energy-change (2. order) : 0.7030398E+00  (-0.5343657E+00)
 number of electron      36.0000005 magnetization 
 augmentation part       -1.1734034 magnetization 

 Broyden mixing:
  rms(total) = 0.21940E+00    rms(broyden)= 0.21940E+00
  rms(prec ) = 0.25553E+00
  weight for this iteration     100.00

 eigenvalues of (default mixing * dielectric matrix)
  average eigenvalue GAMMA=   1.3979
  2.1566  0.6392

 Free energy of the ion-electron system (eV)
  ---------------------------------------------------
  alpha Z        PSCENC =        92.17154737
  Ewald energy   TEWEN  =     -1198.61356286
  -Hartree energ DENC   =      -494.99857949
  -exchange      EXHF   =         0.00000000
  -V(xc)+E(xc)   XCENC  =       -71.11186858
  PAW double counting   =       880.90073637     -728.01237135
  entropy T*S    EENTRO =        -0.00000000
  eigenvalues    EBANDS =       -66.37172334
  atomic energy  EATOM  =      1542.31022798
  Solvation  Ediel_sol  =         0.00000000
  ---------------------------------------------------
  free energy    TOTEN  =       -43.72559389 eV

  energy without entropy =      -43.72559389  energy(sigma->0) =      -43.72559389


--------------------------------------------------------------------------------------------------------




--------------------------------------- Iteration      1(   8)  ---------------------------------------


    POTLOK:  cpu time    0.0640: real time    0.0678
    SETDIJ:  cpu time    0.0080: real time    0.0066
     EDDAV:  cpu time    1.1928: real time    1.1926
       DOS:  cpu time    0.0010: real time    0.0013
    CHARGE:  cpu time    0.1100: real time    0.1103
    MIXING:  cpu time    0.0020: real time    0.0019
    --------------------------------------------
      LOOP:  cpu time    1.3778: real time    1.3804

 eigenvalue-minimisations  :  1592
 total energy-change (2. order) : 0.1195441E+00  (-0.5052493E-01)
 number of electron      36.0000005 magnetization 
 augmentation part       -1.1189149 magnetization 

 Broyden mixing:
  rms(total) = 0.48688E-01    rms(broyden)= 0.48687E-01
  rms(prec ) = 0.58453E-01
  weight for this iteration     100.00

 eigenvalues of (default mixing * dielectric matrix)
  average eigenvalue GAMMA=   1.3172
  0.6413  1.2290  2.0813

 Free energy of the ion-electron system (eV)
  ---------------------------------------------------
  alpha Z        PSCENC =        92.17154737
  Ewald energy   TEWEN  =     -1198.61356286
  -Hartree energ DENC   =      -497.24164911
  -exchange      EXHF   =         0.00000000
  -V(xc)+E(xc)   XCENC  =       -70.57315424
  PAW double counting   =       927.95950028     -776.11780368
  entropy T*S    EENTRO =        -0.00000000
  eigenvalues    EBANDS =       -63.50115556
  atomic energy  EATOM  =      1542.31022798
  Solvation  Ediel_sol  =         0.00000000
  ---------------------------------------------------
  free energy    TOTEN  =       -43.60604982 eV

  energy without entropy =      -43.60604982  energy(sigma->0) =      -43.60604982


--------------------------------------------------------------------------------------------------------




--------------------------------------- Iteration      1(   9)  ---------------------------------------


    POTLOK:  cpu time    0.0660: real time    0.0674
    SETDIJ:  cpu time    0.0060: real time    0.0066
     EDDAV:  cpu time    1.2688: real time    1.2692
       DOS:  cpu time    0.0020: real time    0.0013
    CHARGE:  cpu time    0.1100: real time    0.1107
    MIXING:  cpu time    0.0030: real time    0.0025
    --------------------------------------------
      LOOP:  cpu time    1.4558: real time    1.4577

 eigenvalue-minimisations  :  1720
 total energy-change (2. order) :-0.7365629E-03  (-0.6964039E-02)
 number of electron      36.0000005 magnetization 
 augmentation part       -1.0834291 magnetization 

 Broyden mixing:
  rms(total) = 0.27917E-01    rms(broyden)= 0.27917E-01
  rms(prec ) = 0.36349E-01
  weight for this iteration     100.00

 eigenvalues of (default mixing * dielectric matrix)
  average eigenvalue GAMMA=   1.5078
  2.6701  0.6523  0.9661  1.7427

 Free energy of the ion-electron system (eV)
  ---------------------------------------------------
  alpha Z        PSCENC =        92.17154737
  Ewald energy   TEWEN  =     -1198.61356286
  -Hartree energ DENC   =      -497.85102986
  -exchange      EXHF   =         0.00000000
  -V(xc)+E(xc)   XCENC  =       -70.45137618
  PAW double counting   =       938.11884405     -786.44511811
  entropy T*S    EENTRO =        -0.00000000
  eigenvalues    EBANDS =       -62.84631878
  atomic energy  EATOM  =      1542.31022798
  Solvation  Ediel_sol  =         0.00000000
  ---------------------------------------------------
  free energy    TOTEN  =       -43.60678638 eV

  energy without entropy =      -43.60678638  energy(sigma->0) =      -43.60678638


--------------------------------------------------------------------------------------------------------




--------------------------------------- Iteration      1(  10)  ---------------------------------------


    POTLOK:  cpu time    0.0650: real time    0.0677
    SETDIJ:  cpu time    0.0070: real time    0.0066
     EDDAV:  cpu time    1.3468: real time    1.3468
       DOS:  cpu time    0.0010: real time    0.0013
    CHARGE:  cpu time    0.1110: real time    0.1111
    MIXING:  cpu time    0.0020: real time    0.0020
    --------------------------------------------
      LOOP:  cpu time    1.5328: real time    1.5355

 eigenvalue-minimisations  :  1856
 total energy-change (2. order) : 0.1457043E-02  (-0.2333547E-02)
 number of electron      36.0000005 magnetization 
 augmentation part       -1.1098802 magnetization 

 Broyden mixing:
  rms(total) = 0.10823E-01    rms(broyden)= 0.10823E-01
  rms(prec ) = 0.14476E-01
  weight for this iteration     100.00

 eigenvalues of (default mixing * dielectric matrix)
  average eigenvalue GAMMA=   1.3829
  2.4292  1.7796  0.6578  0.9513  1.0966

 Free energy of the ion-electron system (eV)
  ---------------------------------------------------
  alpha Z        PSCENC =        92.17154737
  Ewald energy   TEWEN  =     -1198.61356286
  -Hartree energ DENC   =      -498.90891085
  -exchange      EXHF   =         0.00000000
  -V(xc)+E(xc)   XCENC  =       -70.40141835
  PAW double counting   =       947.19451127     -795.62633133
  entropy T*S    EENTRO =        -0.00000000
  eigenvalues    EBANDS =       -61.73139257
  atomic energy  EATOM  =      1542.31022798
  Solvation  Ediel_sol  =         0.00000000
  ---------------------------------------------------
  free energy    TOTEN  =       -43.60532934 eV

  energy without entropy =      -43.60532933  energy(sigma->0) =      -43.60532934


--------------------------------------------------------------------------------------------------------




--------------------------------------- Iteration      1(  11)  ---------------------------------------


    POTLOK:  cpu time    0.0650: real time    0.0686
    SETDIJ:  cpu time    0.0070: real time    0.0066
     EDDAV:  cpu time    1.2208: real time    1.2201
       DOS:  cpu time    0.0010: real time    0.0013
    CHARGE:  cpu time    0.1110: real time    0.1110
    MIXING:  cpu time    0.0020: real time    0.0020
    --------------------------------------------
      LOOP:  cpu time    1.4068: real time    1.4095

 eigenvalue-minimisations  :  1640
 total energy-change (2. order) : 0.3384312E-03  (-0.2436844E-03)
 number of electron      36.0000005 magnetization 
 augmentation part       -1.1004787 magnetization 

 Broyden mixing:
  rms(total) = 0.25755E-02    rms(broyden)= 0.25754E-02
  rms(prec ) = 0.36281E-02
  weight for this iteration     100.00

 eigenvalues of (default mixing * dielectric matrix)
  average eigenvalue GAMMA=   1.5979
  2.8742  2.4257  1.6633  0.6579  0.9195  1.0467

 Free energy of the ion-electron system (eV)
  ---------------------------------------------------
  alpha Z        PSCENC =        92.17154737
  Ewald energy   TEWEN  =     -1198.61356286
  -Hartree energ DENC   =      -498.87711364
  -exchange      EXHF   =         0.00000000
  -V(xc)+E(xc)   XCENC  =       -70.39580751
  PAW double counting   =       945.30290867     -793.70497983
  entropy T*S    EENTRO =        -0.00000000
  eigenvalues    EBANDS =       -61.79821109
  atomic energy  EATOM  =      1542.31022798
  Solvation  Ediel_sol  =         0.00000000
  ---------------------------------------------------
  free energy    TOTEN  =       -43.60499091 eV

  energy without entropy =      -43.60499090  energy(sigma->0) =      -43.60499090


--------------------------------------------------------------------------------------------------------




--------------------------------------- Iteration      1(  12)  ---------------------------------------


    POTLOK:  cpu time    0.0640: real time    0.0666
    SETDIJ:  cpu time    0.0080: real time    0.0066
     EDDAV:  cpu time    1.1698: real time    1.1704
       DOS:  cpu time    0.0010: real time    0.0013
    CHARGE:  cpu time    0.1110: real time    0.1109
    MIXING:  cpu time    0.0030: real time    0.0020
    --------------------------------------------
      LOOP:  cpu time    1.3568: real time    1.3579

 eigenvalue-minimisations  :  1562
 total energy-change (2. order) :-0.1208385E-03  (-0.4884896E-04)
 number of electron      36.0000005 magnetization 
 augmentation part       -1.0985475 magnetization 

 Broyden mixing:
  rms(total) = 0.15965E-02    rms(broyden)= 0.15965E-02
  rms(prec ) = 0.19314E-02
  weight for this iteration     100.00

 eigenvalues of (default mixing * dielectric matrix)
  average eigenvalue GAMMA=   1.6384
  2.9347  2.5701  1.7290  1.7290  0.6577  0.9242  0.9242

 Free energy of the ion-electron system (eV)
  ---------------------------------------------------
  alpha Z        PSCENC =        92.17154737
  Ewald energy   TEWEN  =     -1198.61356286
  -Hartree energ DENC   =      -499.15874151
  -exchange      EXHF   =         0.00000000
  -V(xc)+E(xc)   XCENC  =       -70.38284332
  PAW double counting   =       944.99488486     -793.38251527
  entropy T*S    EENTRO =        -0.00000000
  eigenvalues    EBANDS =       -61.54410899
  atomic energy  EATOM  =      1542.31022798
  Solvation  Ediel_sol  =         0.00000000
  ---------------------------------------------------
  free energy    TOTEN  =       -43.60511174 eV

  energy without entropy =      -43.60511174  energy(sigma->0) =      -43.60511174


--------------------------------------------------------------------------------------------------------




--------------------------------------- Iteration      1(  13)  ---------------------------------------


    POTLOK:  cpu time    0.0640: real time    0.0678
    SETDIJ:  cpu time    0.0080: real time    0.0066
     EDDAV:  cpu time    1.3428: real time    1.3426
       DOS:  cpu time    0.0010: real time    0.0013
    CHARGE:  cpu time    0.1110: real time    0.1110
    MIXING:  cpu time    0.0020: real time    0.0021
    --------------------------------------------
      LOOP:  cpu time    1.5288: real time    1.5314

 eigenvalue-minimisations  :  1850
 total energy-change (2. order) :-0.2046461E-05  (-0.9767474E-05)
 number of electron      36.0000005 magnetization 
 augmentation part       -1.1008186 magnetization 

 Broyden mixing:
  rms(total) = 0.11942E-02    rms(broyden)= 0.11942E-02
  rms(prec ) = 0.16387E-02
  weight for this iteration     100.00

 eigenvalues of (default mixing * dielectric matrix)
  average eigenvalue GAMMA=   1.6562
  3.1494  2.4345  2.4345  1.6657  0.6573  1.1019  0.9033  0.9033

 Free energy of the ion-electron system (eV)
  ---------------------------------------------------
  alpha Z        PSCENC =        92.17154737
  Ewald energy   TEWEN  =     -1198.61356286
  -Hartree energ DENC   =      -499.15411351
  -exchange      EXHF   =         0.00000000
  -V(xc)+E(xc)   XCENC  =       -70.38594136
  PAW double counting   =       944.84895608     -793.23478053
  entropy T*S    EENTRO =        -0.00000000
  eigenvalues    EBANDS =       -61.54744695
  atomic energy  EATOM  =      1542.31022798
  Solvation  Ediel_sol  =         0.00000000
  ---------------------------------------------------
  free energy    TOTEN  =       -43.60511379 eV

  energy without entropy =      -43.60511379  energy(sigma->0) =      -43.60511379


--------------------------------------------------------------------------------------------------------




--------------------------------------- Iteration      1(  14)  ---------------------------------------


    POTLOK:  cpu time    0.0650: real time    0.0678
    SETDIJ:  cpu time    0.0070: real time    0.0066
     EDDAV:  cpu time    1.2668: real time    1.2670
       DOS:  cpu time    0.0020: real time    0.0013
    CHARGE:  cpu time    0.1110: real time    0.1112
    MIXING:  cpu time    0.0020: real time    0.0021
    --------------------------------------------
      LOOP:  cpu time    1.4538: real time    1.4560

 eigenvalue-minimisations  :  1722
 total energy-change (2. order) : 0.3402727E-05  (-0.3991317E-05)
 number of electron      36.0000005 magnetization 
 augmentation part       -1.0995207 magnetization 

 Broyden mixing:
  rms(total) = 0.21900E-03    rms(broyden)= 0.21899E-03
  rms(prec ) = 0.33317E-03
  weight for this iteration     100.00

 eigenvalues of (default mixing * dielectric matrix)
  average eigenvalue GAMMA=   1.6388
  3.2413  2.4790  2.4790  1.5458  1.5458  0.6573  0.9882  0.9066  0.9066

 Free energy of the ion-electron system (eV)
  ---------------------------------------------------
  alpha Z        PSCENC =        92.17154737
  Ewald energy   TEWEN  =     -1198.61356286
  -Hartree energ DENC   =      -499.13944439
  -exchange      EXHF   =         0.00000000
  -V(xc)+E(xc)   XCENC  =       -70.38411012
  PAW double counting   =       944.78315576     -793.17015180
  entropy T*S    EENTRO =        -0.00000000
  eigenvalues    EBANDS =       -61.56277233
  atomic energy  EATOM  =      1542.31022798
  Solvation  Ediel_sol  =         0.00000000
  ---------------------------------------------------
  free energy    TOTEN  =       -43.60511039 eV

  energy without entropy =      -43.60511039  energy(sigma->0) =      -43.60511039


--------------------------------------------------------------------------------------------------------




--------------------------------------- Iteration      1(  15)  ---------------------------------------


    POTLOK:  cpu time    0.0650: real time    0.0672
    SETDIJ:  cpu time    0.0070: real time    0.0066
     EDDAV:  cpu time    0.9559: real time    0.9553
       DOS:  cpu time    0.0010: real time    0.0013
    --------------------------------------------
      LOOP:  cpu time    1.0288: real time    1.0304

 eigenvalue-minimisations  :  1168
 total energy-change (2. order) : 0.1429755E-06  (-0.2134418E-06)
 number of electron      36.0000005 magnetization 
 augmentation part       -1.0995207 magnetization 

 Free energy of the ion-electron system (eV)
  ---------------------------------------------------
  alpha Z        PSCENC =        92.17154737
  Ewald energy   TEWEN  =     -1198.61356286
  -Hartree energ DENC   =      -499.14491936
  -exchange      EXHF   =         0.00000000
  -V(xc)+E(xc)   XCENC  =       -70.38416868
  PAW double counting   =       944.76895668     -793.15573180
  entropy T*S    EENTRO =        -0.00000000
  eigenvalues    EBANDS =       -61.55745958
  atomic energy  EATOM  =      1542.31022798
  Solvation  Ediel_sol  =         0.00000000
  ---------------------------------------------------
  free energy    TOTEN  =       -43.60511025 eV

  energy without entropy =      -43.60511024  energy(sigma->0) =      -43.60511024


--------------------------------------------------------------------------------------------------------




 average (electrostatic) potential at core
  the test charge radii are     1.2296  0.9698
  (the norm of the test charge is              1.0000)
       1 -40.1591       2 -40.1591       3 -87.9965       4 -87.9965       5 -87.9965
       6 -87.9965
 
 
 
 E-fermi :   4.2408     XC(G=0):  -9.4598     alpha+bet : -9.8228


 k-point     1 :       0.0000    0.0000    0.0000
  band No.  band energies     occupation 
      1     -10.7596      2.00000
      2     -10.7336      2.00000
      3      -9.5495      2.00000
      4      -9.5033      2.00000
      5      -2.3697      2.00000
      6      -2.1669      2.00000
      7       0.6695      2.00000
      8       0.6695      2.00000
      9       0.6703      2.00000
     10       0.6703      2.00000
     11       1.2508      2.00000
     12       1.7775      2.00000
     13       1.7775      2.00000
     14       1.7803      2.00000
     15       1.7803      2.00000
     16       1.9287      2.00000
     17       3.0958      2.00000
     18       3.5284      2.00000
     19       6.0401      0.00000
     20       6.0411      0.00000
     21       6.0431      0.00000
     22       6.1319      0.00000

 k-point     2 :       0.1000    0.0000    0.0000
  band No.  band energies     occupation 
      1     -10.6216      2.00000
      2     -10.5960      2.00000
      3      -9.4831      2.00000
      4      -9.4391      2.00000
      5      -2.2086      2.00000
      6      -2.0074      2.00000
      7       0.3592      2.00000
      8       0.3612      2.00000
      9       0.7797      2.00000
     10       0.8209      2.00000
     11       0.8224      2.00000
     12       1.0694      2.00000
     13       1.5525      2.00000
     14       1.5560      2.00000
     15       2.0449      2.00000
     16       2.3825      2.00000
     17       3.0556      2.00000
     18       3.3861      2.00000
     19       5.8477      0.00000
     20       5.8572      0.00000
     21       5.8961      0.00000
     22       5.9985      0.00000

 k-point     3 :       0.2000    0.0000    0.0000
  band No.  band energies     occupation 
      1     -10.2371      2.00000
      2     -10.2129      2.00000
      3      -9.2992      2.00000
      4      -9.2614      2.00000
      5      -1.8441      2.00000
      6      -1.6631      2.00000
      7      -0.2835      2.00000
      8      -0.2637      2.00000
      9       0.0700      2.00000
     10       0.2396      2.00000
     11       1.0637      2.00000
     12       1.0682      2.00000
     13       1.2290      2.00000
     14       1.2324      2.00000
     15       2.0225      2.00000
     16       2.3187      2.00000
     17       2.7856      2.00000
     18       2.9007      2.00000
     19       5.3379      0.00000
     20       5.6823      0.00000
     21       5.7703      0.00000
     22       5.7876      0.00000

 k-point     4 :       0.3000    0.0000    0.0000
  band No.  band energies     occupation 
      1      -9.7013      2.00000
      2      -9.6805      2.00000
      3      -9.0475      2.00000
      4      -9.0193      2.00000
      5      -1.8049      2.00000
      6      -1.7200      2.00000
      7      -0.6570      2.00000
      8      -0.6334      2.00000
      9      -0.5668      2.00000
     10      -0.5362      2.00000
     11       0.5802      2.00000
     12       0.5856      2.00000
     13       1.7079      2.00000
     14       1.7483      2.00000
     15       1.7557      2.00000
     16       1.9088      2.00000
     17       2.3562      2.00000
     18       2.4030      2.00000
     19       5.3700      0.00000
     20       5.4946      0.00000
     21       5.5131      0.00000
     22       5.6920      0.00000

 k-point     5 :       0.4000    0.0000    0.0000
  band No.  band energies     occupation 
      1      -9.1955      2.00000
      2      -9.1810      2.00000
      3      -8.8174      2.00000
      4      -8.8007      2.00000
      5      -2.2248      2.00000
      6      -2.1837      2.00000
      7      -1.2435      2.00000
      8      -1.1966      2.00000
      9      -0.7179      2.00000
     10      -0.6115      2.00000
     11       0.2492      2.00000
     12       0.2550      2.00000
     13       1.4826      2.00000
     14       1.5883      2.00000
     15       2.1590      2.00000
     16       2.1725      2.00000
     17       2.4133      2.00000
     18       2.4728      2.00000
     19       5.4217      0.00000
     20       5.4319      0.00000
     21       5.7103      0.00000
     22       5.8740      0.00000

 k-point     6 :       0.5000    0.0000    0.0000
  band No.  band energies     occupation 
      1      -8.9767      2.00000
      2      -8.9676      2.00000
      3      -8.7206      2.00000
      4      -8.7116      2.00000
      5      -2.4409      2.00000
      6      -2.4047      2.00000
      7      -1.4723      2.00000
      8      -1.4402      2.00000
      9      -0.8082      2.00000
     10      -0.7089      2.00000
     11       0.1332      2.00000
     12       0.1391      2.00000
     13       1.4340      2.00000
     14       1.4607      2.00000
     15       2.3054      2.00000
     16       2.3222      2.00000
     17       2.6521      2.00000
     18       2.6595      2.00000
     19       5.4425      0.00000
     20       5.4476      0.00000
     21       5.9326      0.00000
     22       5.9968      0.00000

 k-point     7 :       0.1000    0.1000    0.0000
  band No.  band energies     occupation 
      1     -10.3600      2.00000
      2     -10.3353      2.00000
      3      -9.3575      2.00000
      4      -9.3177      2.00000
      5      -1.9361      2.00000
      6      -1.7434      2.00000
      7      -0.0995      2.00000
      8      -0.0954      2.00000
      9       0.3341      2.00000
     10       0.5514      2.00000
     11       1.0118      2.00000
     12       1.0266      2.00000
     13       1.0805      2.00000
     14       1.0825      2.00000
     15       2.2312      2.00000
     16       2.5255      2.00000
     17       2.8983      2.00000
     18       3.0664      2.00000
     19       5.4170      0.00000
     20       5.6787      0.00000
     21       5.6974      0.00000
     22       5.8151      0.00000

 k-point     8 :       0.2000    0.1000    0.0000
  band No.  band energies     occupation 
      1      -9.8969      2.00000
      2      -9.8746      2.00000
      3      -9.1369      2.00000
      4      -9.1050      2.00000
      5      -1.6846      2.00000
      6      -1.5539      2.00000
      7      -0.5405      2.00000
      8      -0.4866      2.00000
      9      -0.2769      2.00000
     10      -0.1764      2.00000
     11       0.3846      2.00000
     12       0.4467      2.00000
     13       1.4046      2.00000
     14       1.4078      2.00000
     15       2.1247      2.00000
     16       2.3072      2.00000
     17       2.5347      2.00000
     18       2.5680      2.00000
     19       5.1540      0.00000
     20       5.4183      0.00000
     21       5.6429      0.00000
     22       5.7915      0.00000

 k-point     9 :       0.3000    0.1000    0.0000
  band No.  band energies     occupation 
      1      -9.3660      2.00000
      2      -9.3486      2.00000
      3      -8.8884      2.00000
      4      -8.8669      2.00000
      5      -1.9369      2.00000
      6      -1.8850      2.00000
      7      -1.0272      2.00000
      8      -0.9895      2.00000
      9      -0.5907      2.00000
     10      -0.4889      2.00000
     11       0.1490      2.00000
     12       0.2116      2.00000
     13       1.5069      2.00000
     14       1.5202      2.00000
     15       1.7609      2.00000
     16       1.8553      2.00000
     17       2.4982      2.00000
     18       2.5168      2.00000
     19       5.2801      0.00000
     20       5.4598      0.00000
     21       5.6944      0.00000
     22       5.7983      0.00000

 k-point    10 :       0.4000    0.1000    0.0000
  band No.  band energies     occupation 
      1      -8.9876      2.00000
      2      -8.9774      2.00000
      3      -8.7152      2.00000
      4      -8.7044      2.00000
      5      -2.2497      2.00000
      6      -2.2138      2.00000
      7      -1.5096      2.00000
      8      -1.4925      2.00000
      9      -0.7258      2.00000
     10      -0.6305      2.00000
     11       0.1134      2.00000
     12       0.1489      2.00000
     13       1.4791      2.00000
     14       1.5289      2.00000
     15       1.6231      2.00000
     16       1.6422      2.00000
     17       2.7823      2.00000
     18       2.8061      2.00000
     19       5.4464      0.00000
     20       5.4950      0.00000
     21       5.9252      0.00000
     22       6.0136      0.00000

 k-point    11 :       0.2000    0.2000    0.0000
  band No.  band energies     occupation 
      1      -9.4311      2.00000
      2      -9.4128      2.00000
      3      -8.9130      2.00000
      4      -8.8897      2.00000
      5      -1.7478      2.00000
      6      -1.6854      2.00000
      7      -0.8844      2.00000
      8      -0.8638      2.00000
      9      -0.4539      2.00000
     10      -0.3768      2.00000
     11      -0.0591      2.00000
     12       0.0733      2.00000
     13       1.0598      2.00000
     14       1.0630      2.00000
     15       2.0329      2.00000
     16       2.0937      2.00000
     17       2.5130      2.00000
     18       2.5143      2.00000
     19       5.1505      0.00000
     20       5.4472      0.00000
     21       5.7399      0.00000
     22       5.8235      0.00000

 k-point    12 :       0.3000    0.2000    0.0000
  band No.  band energies     occupation 
      1      -9.0048      2.00000
      2      -8.9931      2.00000
      3      -8.7063      2.00000
      4      -8.6931      2.00000
      5      -1.8746      2.00000
      6      -1.8378      2.00000
      7      -1.5716      2.00000
      8      -1.5600      2.00000
      9      -0.4528      2.00000
     10      -0.3875      2.00000
     11       0.0432      2.00000
     12       0.1452      2.00000
     13       0.6200      2.00000
     14       0.6529      2.00000
     15       1.6247      2.00000
     16       1.6544      2.00000
     17       2.7730      2.00000
     18       2.7888      2.00000
     19       5.3642      0.00000
     20       5.4963      0.00000
     21       5.9763      0.00000
     22       6.0754      0.00000

 k-point    13 :       0.4000    0.2000    0.0000
  band No.  band energies     occupation 
      1      -8.8259      2.00000
      2      -8.8198      2.00000
      3      -8.6185      2.00000
      4      -8.6123      2.00000
      5      -1.8918      2.00000
      6      -1.8628      2.00000
      7      -1.8374      2.00000
      8      -1.8282      2.00000
      9      -0.6500      2.00000
     10      -0.5761      2.00000
     11       0.1848      2.00000
     12       0.2537      2.00000
     13       0.5629      2.00000
     14       0.5932      2.00000
     15       1.3527      2.00000
     16       1.4115      2.00000
     17       3.0156      2.00000
     18       3.0441      2.00000
     19       5.2428      0.00000
     20       5.2633      0.00000
     21       6.3834      0.00000
     22       6.4007      0.00000

 k-point    14 :       0.3000    0.3000    0.0000
  band No.  band energies     occupation 
      1      -8.7667      2.00000
      2      -8.7622      2.00000
      3      -8.5778      2.00000
      4      -8.5730      2.00000
      5      -1.9899      2.00000
      6      -1.9735      2.00000
      7      -1.4989      2.00000
      8      -1.4762      2.00000
      9      -0.5050      2.00000
     10      -0.4915      2.00000
     11      -0.2039      2.00000
     12      -0.1587      2.00000
     13       0.2959      2.00000
     14       0.3663      2.00000
     15       1.2530      2.00000
     16       1.2965      2.00000
     17       3.1408      2.00000
     18       3.1646      2.00000
     19       5.0356      0.00000
     20       5.0517      0.00000
     21       6.2530      0.00000
     22       6.4798      0.00000

 k-point    15 :       0.0000    0.0000    0.3333
  band No.  band energies     occupation 
      1     -10.7533      2.00000
      2     -10.7403      2.00000
      3      -9.5378      2.00000
      4      -9.5147      2.00000
      5      -2.3221      2.00000
      6      -2.2209      2.00000
      7       0.6697      2.00000
      8       0.6697      2.00000
      9       0.6701      2.00000
     10       0.6701      2.00000
     11       1.3966      2.00000
     12       1.7257      2.00000
     13       1.7782      2.00000
     14       1.7782      2.00000
     15       1.7796      2.00000
     16       1.7797      2.00000
     17       3.2409      2.00000
     18       3.4475      2.00000
     19       6.0401      0.00000
     20       6.0405      0.00000
     21       6.0414      0.00000
     22       6.0518      0.00000

 k-point    16 :       0.1000    0.0000    0.3333
  band No.  band energies     occupation 
      1     -10.6154      2.00000
      2     -10.6026      2.00000
      3      -9.4719      2.00000
      4      -9.4499      2.00000
      5      -2.1616      2.00000
      6      -2.0612      2.00000
      7       0.3595      2.00000
      8       0.3605      2.00000
      9       0.8213      2.00000
     10       0.8220      2.00000
     11       0.8608      2.00000
     12       1.0059      2.00000
     13       1.5534      2.00000
     14       1.5551      2.00000
     15       2.0993      2.00000
     16       2.2571      2.00000
     17       3.1736      2.00000
     18       3.3284      2.00000
     19       5.8501      0.00000
     20       5.8537      0.00000
     21       5.9303      0.00000
     22       5.9906      0.00000

 k-point    17 :       0.2000    0.0000    0.3333
  band No.  band energies     occupation 
      1     -10.2312      2.00000
      2     -10.2191      2.00000
      3      -9.2896      2.00000
      4      -9.2707      2.00000
      5      -1.8021      2.00000
      6      -1.7119      2.00000
      7      -0.2802      2.00000
      8      -0.2708      2.00000
      9       0.1197      2.00000
     10       0.2036      2.00000
     11       1.0648      2.00000
     12       1.0670      2.00000
     13       1.2299      2.00000
     14       1.2316      2.00000
     15       2.0825      2.00000
     16       2.2265      2.00000
     17       2.8288      2.00000
     18       2.8823      2.00000
     19       5.4077      0.00000
     20       5.5654      0.00000
     21       5.7713      0.00000
     22       5.7819      0.00000

 k-point    18 :       0.3000    0.0000    0.3333
  band No.  band energies     occupation 
      1      -9.6963      2.00000
      2      -9.6859      2.00000
      3      -9.0403      2.00000
      4      -9.0262      2.00000
      5      -1.7844      2.00000
      6      -1.7420      2.00000
      7      -0.6549      2.00000
      8      -0.6430      2.00000
      9      -0.5545      2.00000
     10      -0.5394      2.00000
     11       0.5816      2.00000
     12       0.5842      2.00000
     13       1.7501      2.00000
     14       1.7538      2.00000
     15       1.7539      2.00000
     16       1.8536      2.00000
     17       2.3718      2.00000
     18       2.3944      2.00000
     19       5.4395      0.00000
     20       5.4992      0.00000
     21       5.5084      0.00000
     22       5.5959      0.00000

 k-point    19 :       0.4000    0.0000    0.3333
  band No.  band energies     occupation 
      1      -9.1920      2.00000
      2      -9.1847      2.00000
      3      -8.8131      2.00000
      4      -8.8048      2.00000
      5      -2.2147      2.00000
      6      -2.1942      2.00000
      7      -1.2335      2.00000
      8      -1.2103      2.00000
      9      -0.6892      2.00000
     10      -0.6362      2.00000
     11       0.2507      2.00000
     12       0.2535      2.00000
     13       1.5074      2.00000
     14       1.5601      2.00000
     15       2.1623      2.00000
     16       2.1691      2.00000
     17       2.4298      2.00000
     18       2.4595      2.00000
     19       5.4242      0.00000
     20       5.4293      0.00000
     21       5.7477      0.00000
     22       5.8288      0.00000

 k-point    20 :       0.5000    0.0000    0.3333
  band No.  band energies     occupation 
      1      -8.9745      2.00000
      2      -8.9699      2.00000
      3      -8.7183      2.00000
      4      -8.7138      2.00000
      5      -2.4319      2.00000
      6      -2.4139      2.00000
      7      -1.4654      2.00000
      8      -1.4495      2.00000
      9      -0.7820      2.00000
     10      -0.7325      2.00000
     11       0.1347      2.00000
     12       0.1376      2.00000
     13       1.4404      2.00000
     14       1.4538      2.00000
     15       2.3096      2.00000
     16       2.3180      2.00000
     17       2.6541      2.00000
     18       2.6578      2.00000
     19       5.4437      0.00000
     20       5.4463      0.00000
     21       5.9491      0.00000
     22       5.9812      0.00000

 k-point    21 :       0.1000    0.1000    0.3333
  band No.  band energies     occupation 
      1     -10.3540      2.00000
      2     -10.3416      2.00000
      3      -9.3475      2.00000
      4      -9.3275      2.00000
      5      -1.8914      2.00000
      6      -1.7954      2.00000
      7      -0.0991      2.00000
      8      -0.0973      2.00000
      9       0.3955      2.00000
     10       0.5037      2.00000
     11       1.0150      2.00000
     12       1.0224      2.00000
     13       1.0811      2.00000
     14       1.0821      2.00000
     15       2.2848      2.00000
     16       2.4239      2.00000
     17       2.9644      2.00000
     18       3.0405      2.00000
     19       5.4714      0.00000
     20       5.5862      0.00000
     21       5.7536      0.00000
     22       5.8017      0.00000

 k-point    22 :       0.2000    0.1000    0.3333
  band No.  band energies     occupation 
      1      -9.8915      2.00000
      2      -9.8803      2.00000
      3      -9.1288      2.00000
      4      -9.1128      2.00000
      5      -1.6536      2.00000
      6      -1.5884      2.00000
      7      -0.5325      2.00000
      8      -0.5076      2.00000
      9      -0.2415      2.00000
     10      -0.1937      2.00000
     11       0.4002      2.00000
     12       0.4314      2.00000
     13       1.4054      2.00000
     14       1.4070      2.00000
     15       2.1637      2.00000
     16       2.2532      2.00000
     17       2.5483      2.00000
     18       2.5633      2.00000
     19       5.2201      0.00000
     20       5.3527      0.00000
     21       5.6583      0.00000
     22       5.7103      0.00000

 k-point    23 :       0.3000    0.1000    0.3333
  band No.  band energies     occupation 
      1      -9.3618      2.00000
      2      -9.3531      2.00000
      3      -8.8828      2.00000
      4      -8.8721      2.00000
      5      -1.9242      2.00000
      6      -1.8983      2.00000
      7      -1.0190      2.00000
      8      -1.0003      2.00000
      9      -0.5651      2.00000
     10      -0.5145      2.00000
     11       0.1668      2.00000
     12       0.1979      2.00000
     13       1.5094      2.00000
     14       1.5159      2.00000
     15       1.7837      2.00000
     16       1.8307      2.00000
     17       2.5036      2.00000
     18       2.5128      2.00000
     19       5.3276      0.00000
     20       5.4187      0.00000
     21       5.7089      0.00000
     22       5.7566      0.00000

 k-point    24 :       0.4000    0.1000    0.3333
  band No.  band energies     occupation 
      1      -8.9851      2.00000
      2      -8.9800      2.00000
      3      -8.7125      2.00000
      4      -8.7071      2.00000
      5      -2.2409      2.00000
      6      -2.2229      2.00000
      7      -1.5058      2.00000
      8      -1.4973      2.00000
      9      -0.7022      2.00000
     10      -0.6546      2.00000
     11       0.1235      2.00000
     12       0.1412      2.00000
     13       1.4898      2.00000
     14       1.5144      2.00000
     15       1.6291      2.00000
     16       1.6385      2.00000
     17       2.7886      2.00000
     18       2.8004      2.00000
     19       5.4587      0.00000
     20       5.4830      0.00000
     21       5.9452      0.00000
     22       5.9892      0.00000

 k-point    25 :       0.2000    0.2000    0.3333
  band No.  band energies     occupation 
      1      -9.4267      2.00000
      2      -9.4175      2.00000
      3      -8.9071      2.00000
      4      -8.8954      2.00000
      5      -1.7325      2.00000
      6      -1.7013      2.00000
      7      -0.8794      2.00000
      8      -0.8691      2.00000
      9      -0.4401      2.00000
     10      -0.4032      2.00000
     11      -0.0176      2.00000
     12       0.0469      2.00000
     13       1.0604      2.00000
     14       1.0620      2.00000
     15       2.0465      2.00000
     16       2.0768      2.00000
     17       2.5133      2.00000
     18       2.5140      2.00000
     19       5.2175      0.00000
     20       5.3640      0.00000
     21       5.7479      0.00000
     22       5.7744      0.00000

 k-point    26 :       0.3000    0.2000    0.3333
  band No.  band energies     occupation 
      1      -9.0020      2.00000
      2      -8.9962      2.00000
      3      -8.7029      2.00000
      4      -8.6963      2.00000
      5      -1.8656      2.00000
      6      -1.8472      2.00000
      7      -1.5686      2.00000
      8      -1.5628      2.00000
      9      -0.4395      2.00000
     10      -0.4074      2.00000
     11       0.0727      2.00000
     12       0.1232      2.00000
     13       0.6286      2.00000
     14       0.6450      2.00000
     15       1.6309      2.00000
     16       1.6458      2.00000
     17       2.7771      2.00000
     18       2.7850      2.00000
     19       5.3977      0.00000
     20       5.4639      0.00000
     21       5.9887      0.00000
     22       6.0326      0.00000

 k-point    27 :       0.4000    0.2000    0.3333
  band No.  band energies     occupation 
      1      -8.8244      2.00000
      2      -8.8214      2.00000
      3      -8.6169      2.00000
      4      -8.6138      2.00000
      5      -1.8851      2.00000
      6      -1.8709      2.00000
      7      -1.8343      2.00000
      8      -1.8299      2.00000
      9      -0.6331      2.00000
     10      -0.5963      2.00000
     11       0.2038      2.00000
     12       0.2381      2.00000
     13       0.5714      2.00000
     14       0.5866      2.00000
     15       1.3660      2.00000
     16       1.3955      2.00000
     17       3.0228      2.00000
     18       3.0371      2.00000
     19       5.2482      0.00000
     20       5.2584      0.00000
     21       6.3797      0.00000
     22       6.3912      0.00000

 k-point    28 :       0.3000    0.3000    0.3333
  band No.  band energies     occupation 
      1      -8.7656      2.00000
      2      -8.7633      2.00000
      3      -8.5766      2.00000
      4      -8.5742      2.00000
      5      -1.9859      2.00000
      6      -1.9777      2.00000
      7      -1.4930      2.00000
      8      -1.4816      2.00000
      9      -0.5020      2.00000
     10      -0.4952      2.00000
     11      -0.1959      2.00000
     12      -0.1736      2.00000
     13       0.3190      2.00000
     14       0.3540      2.00000
     15       1.2617      2.00000
     16       1.2836      2.00000
     17       3.1467      2.00000
     18       3.1586      2.00000
     19       5.0397      0.00000
     20       5.0478      0.00000
     21       6.3019      0.00000
     22       6.4079      0.00000


--------------------------------------------------------------------------------------------------------


 soft charge-density along one line, spin component           1
         0         1         2         3         4         5         6         7         8         9
 total charge-density along one line
 
 pseudopotential strength for first ion, spin component:           1
 -8.192  -0.000   0.000   0.000  -0.000  -0.078   0.000  -0.000
 -0.000  -8.192   0.000  -0.000  -0.000   0.000  -0.079  -0.000
  0.000   0.000  -8.171  -0.000  -0.000  -0.000  -0.000  -0.080
  0.000  -0.000  -0.000  -8.192  -0.000  -0.000   0.000   0.000
 -0.000  -0.000  -0.000  -0.000  -8.192   0.000   0.000   0.000
 -0.078   0.000  -0.000  -0.000   0.000   0.112  -0.000   0.000
  0.000  -0.079  -0.000   0.000   0.000  -0.000   0.112   0.000
 -0.000  -0.000  -0.080   0.000   0.000   0.000   0.000   0.113
 -0.000   0.000   0.000  -0.079   0.000   0.000  -0.000  -0.000
  0.000   0.000   0.000   0.000  -0.078  -0.000  -0.000  -0.000
  0.000  -0.000  -0.005   0.000  -0.000  -0.000   0.000   0.000
 -0.000   0.000   0.001  -0.000   0.000   0.000  -0.000  -0.000
 -0.000   0.000  -0.000  -0.000  -0.007   0.000  -0.000   0.000
 -0.000   0.000   0.000  -0.000  -0.000  -0.000  -0.000  -0.000
 -0.007  -0.000   0.000   0.000  -0.000  -0.000  -0.000  -0.000
  0.000  -0.000   0.000   0.000   0.004  -0.000   0.000  -0.000
  0.000  -0.000  -0.000   0.000   0.000  -0.000   0.000   0.000
  0.004   0.000  -0.000  -0.000   0.000   0.000  -0.000   0.000
 total augmentation occupancy for first ion, spin component:           1
  0.965  -0.000   0.000  -0.000   0.000   0.602   0.000   0.000   0.000   0.000  -0.000   0.000  -0.000  -0.000  -0.067   0.000
 -0.000   0.908   0.000   0.000  -0.000  -0.000   0.841   0.000   0.000   0.000   0.000   0.000  -0.000   0.000  -0.000  -0.000
  0.000   0.000   1.030   0.000   0.000   0.000  -0.000   0.500  -0.000   0.000   0.113  -0.019  -0.000   0.000   0.000   0.000
 -0.000   0.000   0.000   0.908  -0.000   0.000   0.000  -0.000   0.841  -0.000   0.000   0.000   0.000  -0.000   0.000   0.000
  0.000  -0.000   0.000   0.000   0.965   0.000   0.000   0.000   0.000   0.602   0.000  -0.000  -0.067  -0.000   0.000   0.007
  0.602  -0.000   0.000   0.000   0.000   0.681   0.000   0.000  -0.000   0.000  -0.000   0.000  -0.000   0.000  -0.137   0.000
 -0.000   0.841   0.000   0.000   0.000  -0.000   1.083  -0.000   0.000   0.000   0.000   0.000   0.000   0.000   0.000   0.000
  0.000  -0.000   0.500   0.000   0.000   0.000   0.000   0.475  -0.000   0.000   0.057  -0.021  -0.000   0.000  -0.000   0.000
  0.000   0.000   0.000   0.841   0.000   0.000   0.000  -0.000   1.083   0.000   0.000   0.000   0.000   0.000  -0.000  -0.000
  0.000  -0.000   0.000  -0.000   0.602   0.000   0.000   0.000   0.000   0.681   0.000  -0.000  -0.137   0.000  -0.000   0.023
 -0.000   0.000   0.113   0.000   0.000  -0.000   0.000   0.057   0.000   0.000   1.208  -0.186  -0.000  -0.000   0.000   0.000
  0.000   0.000  -0.019   0.000  -0.000   0.000   0.000  -0.021   0.000  -0.000  -0.186   0.042  -0.000  -0.000  -0.000  -0.000
 -0.000   0.000  -0.000   0.000  -0.067  -0.000  -0.000  -0.000  -0.000  -0.137   0.000   0.000   0.217   0.000   0.000  -0.032
  0.000   0.000   0.000  -0.000  -0.000  -0.000   0.000   0.000  -0.000   0.000  -0.000  -0.000  -0.000   0.265   0.000  -0.000
 -0.067   0.000   0.000   0.000   0.000  -0.137   0.000  -0.000  -0.000  -0.000  -0.000   0.000  -0.000   0.000   0.217   0.000
  0.000  -0.000   0.000   0.000   0.007   0.000   0.000   0.000  -0.000   0.023   0.000  -0.000  -0.032   0.000   0.000   0.005
  0.000  -0.000   0.000  -0.000  -0.000   0.000   0.000   0.000  -0.000   0.000   0.000   0.000  -0.000  -0.038   0.000  -0.000
  0.007   0.000   0.000   0.000  -0.000   0.023  -0.000   0.000   0.000   0.000  -0.000   0.000   0.000  -0.000  -0.032   0.000


------------------------ aborting loop because EDIFF is reached ----------------------------------------


    CHARGE:  cpu time    0.1110: real time    0.1112
    FORLOC:  cpu time    0.0070: real time    0.0068
    FORNL :  cpu time    0.1670: real time    0.1667
    STRESS:  cpu time    0.4719: real time    0.4723
    FORCOR:  cpu time    0.0740: real time    0.0733
    FORHAR:  cpu time    0.0160: real time    0.0161
    MIXING:  cpu time    0.0020: real time    0.0022
    OFIELD:  cpu time    0.0000: real time    0.0000

  DFT-D2 method for vdW energy calculation
  -------------------------------------------------------------------

  Parameters of vdW forcefield:
         C6(Jnm^6/mol)     R0(A)
   -----------------------------
   Mo      24.670          1.639
   S        5.570          1.683

  IVDW =   1
  VDW_RADIUS =    50.000 A
  VDW_S6 =     0.750
  VDW_SR =     1.000
  VDW_D =    20.000
  LVDW_EWALD = F

[...]

  free energy =  -0.460600903914E+02  energy without entropy=  -0.460491168170E+02


--------------------------------------------------------------------------------------------------------




--------------------------------------- Iteration     35(   4)  ---------------------------------------


    POTLOK:  cpu time    0.0650: real time    0.0667
    SETDIJ:  cpu time    0.0080: real time    0.0074
     EDDAV:  cpu time    1.0638: real time    1.0635
       DOS:  cpu time    0.0010: real time    0.0015
    CHARGE:  cpu time    0.1160: real time    0.1160
    MIXING:  cpu time    0.0140: real time    0.0131
    --------------------------------------------
      LOOP:  cpu time    1.2678: real time    1.2683

 eigenvalue-minimisations  :  1352
 total energy-change (2. order) : 0.1407809E+01  (-0.1692080E+01)
 number of electron      36.0000005 magnetization 
 augmentation part       -0.9743671 magnetization 

 eigenvalues of (default mixing * dielectric matrix)
  average eigenvalue GAMMA=   1.9922
  6.2603  2.7190  3.1316  3.1316  0.6044  3.8643  3.3253  3.3253  1.0175  1.0175
  0.4709  0.4709  1.2300  1.2300  0.6849  0.6849  3.1938  3.1938  2.8163  2.8163
  1.6905  1.6905  2.9653  2.9653  1.8807  1.8807  2.1153  2.1153  2.4724  2.4724
  2.9099  2.7001  2.7001  2.8101  2.8101  2.1292  2.2563  2.2563  2.4542  2.4542
  2.7133  2.7133  2.6854  2.6854  2.6197  2.6197  2.6123  2.5571  2.5571  2.5769
  2.3797  2.4158  2.4766  1.8920  1.5885  1.2501  1.2501  1.4416  0.7464  0.7464
  0.8037  0.9908  0.9908  1.0850  1.0850  0.9603  1.0424  0.9813  1.0019  1.0019
  1.0106  1.0042  1.0042  0.9996  0.9996  0.9979

  free energy =  -0.446522810098E+02  energy without entropy=  -0.446520846614E+02


--------------------------------------------------------------------------------------------------------




--------------------------------------- Iteration     35(   5)  ---------------------------------------


    POTLOK:  cpu time    0.0640: real time    0.0672
    SETDIJ:  cpu time    0.0080: real time    0.0074
     EDDAV:  cpu time    1.0758: real time    1.0760
       DOS:  cpu time    0.0020: real time    0.0014
    CHARGE:  cpu time    0.1160: real time    0.1159
    MIXING:  cpu time    0.0130: real time    0.0139
    --------------------------------------------
      LOOP:  cpu time    1.2788: real time    1.2819

 eigenvalue-minimisations  :  1384
 total energy-change (2. order) : 0.2532921E-01  (-0.1253464E+00)
 number of electron      36.0000005 magnetization 
 augmentation part       -1.0174785 magnetization 

 eigenvalues of (default mixing * dielectric matrix)
  average eigenvalue GAMMA=   2.1044
 14.3959  7.1730  3.0636  1.5662  1.9893  1.9893  1.0733  1.0733  0.1517  0.5115
  0.5115  0.4713  3.3921  3.3921  1.1982  1.1982  0.7829  0.7829  1.6209  1.6209
  1.3011  1.3011  3.1197  3.1197  2.5821  2.5821  2.3359  2.3359  2.8570  2.8570
  1.8641  1.8641  1.9716  1.9716  2.9272  2.3866  2.3866  2.8264  2.8264  2.7808
  2.7808  2.6677  2.6677  2.3167  2.3167  2.2546  2.5449  2.5449  2.3829  2.3829
  2.6661  2.6661  2.5577  2.5577  2.6327  2.6327  2.5750  2.6316  1.5825  0.7447
  1.4329  1.2822  0.9160  0.9160  1.0585  1.0585  1.0610  1.0423  1.0034  1.0034
  0.9908  1.0046  1.0046  1.0040  0.9979  0.9998  0.9998

  free energy =  -0.446269517965E+02  energy without entropy=  -0.446267792582E+02


--------------------------------------------------------------------------------------------------------




--------------------------------------- Iteration     35(   6)  ---------------------------------------


    POTLOK:  cpu time    0.0660: real time    0.0674
    SETDIJ:  cpu time    0.0070: real time    0.0075
     EDDAV:  cpu time    1.1208: real time    1.1201
       DOS:  cpu time    0.0010: real time    0.0014
    CHARGE:  cpu time    0.1150: real time    0.1155
    MIXING:  cpu time    0.0150: real time    0.0136
    --------------------------------------------
      LOOP:  cpu time    1.3248: real time    1.3256

 eigenvalue-minimisations  :  1460
 total energy-change (2. order) :-0.1307934E+01  (-0.2546218E+00)
 number of electron      36.0000005 magnetization 
 augmentation part       -1.2398646 magnetization 

 eigenvalues of (default mixing * dielectric matrix)
  average eigenvalue GAMMA=   2.1716
 13.9235 13.9235  1.7268  1.7268  4.1424  0.5184  1.9175  1.9175  2.5240  2.5240
  0.1706  0.1706  0.5499  0.5499  1.1765  1.1765  0.5430  3.2303  3.2303  1.6579
  1.6579  2.9652  2.9652  2.7340  2.7340  1.7614  1.7614  1.9377  1.9377  2.9351
  2.8151  2.8151  2.4356  2.4356  2.2041  2.2041  2.2588  2.2588  2.8041  2.7738
  2.7738  2.6662  2.6662  2.5336  2.5336  2.3893  2.6857  2.6857  2.6425  2.6425
  2.5248  2.5743  2.5743  2.6090  2.6090  1.6057  1.3752  1.3752  1.2230  1.2230
  0.7514  0.9001  0.9001  1.1906  0.9377  1.0610  1.0236  1.0236  0.9936  0.9936
  0.9898  1.0033  1.0033  1.0045  1.0045  0.9976  0.9998  0.9998

  free energy =  -0.459348856395E+02  energy without entropy=  -0.459348490334E+02


--------------------------------------------------------------------------------------------------------




--------------------------------------- Iteration     35(   7)  ---------------------------------------


    POTLOK:  cpu time    0.0640: real time    0.0683
    SETDIJ:  cpu time    0.0080: real time    0.0075
     EDDAV:  cpu time    1.0568: real time    1.0568
       DOS:  cpu time    0.0010: real time    0.0014
    CHARGE:  cpu time    0.1160: real time    0.1159
    MIXING:  cpu time    0.0140: real time    0.0138
    --------------------------------------------
      LOOP:  cpu time    1.2598: real time    1.2637

 eigenvalue-minimisations  :  1354
 total energy-change (2. order) : 0.3930721E+00  (-0.2201203E-01)
 number of electron      36.0000005 magnetization 
 augmentation part       -1.2237790 magnetization 

 eigenvalues of (default mixing * dielectric matrix)
  average eigenvalue GAMMA=   1.9913
  9.7813  6.3573  2.4684  2.4684  1.5737  1.5737  0.3700  0.3700  0.0309  0.2418
  3.4381  3.2928  3.2928  0.9994  0.9994  1.1781  1.1781  0.5661  0.5661  2.0791
  2.0791  2.7510  2.7510  2.3097  2.3097  0.7426  0.8772  0.8772  1.4682  1.4682
  1.2338  1.2338  1.6268  1.7165  2.6938  2.6938  2.0090  2.0090  2.9174  2.9174
  2.9429  2.4724  2.4724  2.2752  2.2752  2.2452  2.7553  2.7553  2.8179  2.4282
  2.4282  2.5128  2.5128  2.6610  2.6610  2.6979  2.6979  2.5385  2.5904  2.5904
  2.6859  2.6444  2.6444  1.2252  1.2252  1.0527  1.0285  1.0285  0.9555  0.9951
  0.9951  0.9846  0.9990  0.9990  1.0040  1.0040  0.9976  0.9999  0.9999

  free energy =  -0.455418135446E+02  energy without entropy=  -0.455417755621E+02


--------------------------------------------------------------------------------------------------------




--------------------------------------- Iteration     35(   8)  ---------------------------------------


    POTLOK:  cpu time    0.0650: real time    0.0672
    SETDIJ:  cpu time    0.0080: real time    0.0075
     EDDAV:  cpu time    1.1528: real time    1.1529
       DOS:  cpu time    0.0020: real time    0.0014
    CHARGE:  cpu time    0.1160: real time    0.1160
    MIXING:  cpu time    0.0140: real time    0.0140
    --------------------------------------------
      LOOP:  cpu time    1.3578: real time    1.3590

 eigenvalue-minimisations  :  1518
 total energy-change (2. order) :-0.1125026E+01  (-0.1110371E+00)
 number of electron      36.0000005 magnetization 
 augmentation part       -1.3420608 magnetization 

 eigenvalues of (default mixing * dielectric matrix)
  average eigenvalue GAMMA=   2.0480
  8.5360  4.6643  4.6643  4.2745  1.7121  1.7121  3.4701  3.4701  3.5575  3.5575
  0.0236  0.2950  0.2950  0.8022  0.8022  1.3237  1.3237  3.1673  2.5863  2.5863
  2.9671  2.9671  2.0868  2.0868  2.2045  2.2045  2.7587  2.7587  2.8468  2.7733
  2.7733  2.2665  2.2665  2.4975  2.4975  2.6438  2.6438  2.6734  2.6734  2.6293
  2.5791  2.5791  2.6048  2.2705  2.2705  2.3721  2.3721  2.4222  1.9230  1.9230
  1.8881  0.4972  1.0956  1.0956  1.4955  0.7155  0.7155  1.2917  1.2917  1.0372
  1.0372  0.8384  1.0723  1.0723  1.1222  0.9620  0.9882  1.0060  1.0060  0.9981
  0.9981  1.0064  1.0064  1.0035  1.0035

  free energy =  -0.466668395065E+02  energy without entropy=  -0.466668226329E+02


--------------------------------------------------------------------------------------------------------




--------------------------------------- Iteration     35(   9)  ---------------------------------------


    POTLOK:  cpu time    0.0650: real time    0.0673
    SETDIJ:  cpu time    0.0080: real time    0.0074
     EDDAV:  cpu time    1.0988: real time    1.0991
       DOS:  cpu time    0.0010: real time    0.0014
    CHARGE:  cpu time    0.1160: real time    0.1159
    MIXING:  cpu time    0.0130: real time    0.0130
    --------------------------------------------
      LOOP:  cpu time    1.3018: real time    1.3042

 eigenvalue-minimisations  :  1422
 total energy-change (2. order) : 0.2205640E+01  (-0.5060062E+00)
 number of electron      36.0000005 magnetization 
 augmentation part       -1.1015381 magnetization 

 eigenvalues of (default mixing * dielectric matrix)
  average eigenvalue GAMMA=   2.1197
 15.2931  3.3669  3.3669  5.5768  0.7139  0.7139  1.7004  1.7004  3.6774  0.2853
  0.2853  3.5118  3.3010  3.3010  0.4002  2.8070  2.8070  1.7545  1.7545  0.6719
  0.6719  1.1827  1.1827  1.0360  1.0360  2.7435  2.7435  3.0899  2.0155  2.0155
  2.9521  2.7804  2.7804  2.0837  2.0837  2.2685  2.2685  1.9140  2.7386  2.7386
  2.0160  2.7467  2.7467  2.2926  2.2926  2.4917  2.4917  2.6384  2.6384  2.5979
  2.5979  2.6150  2.5899  2.5899  2.4462  2.4462  1.4724  1.4724  1.3117  1.3117
  0.8162  1.1023  1.1023  0.9032  1.1172  0.9453  0.9737  0.9891  0.9996  0.9996
  1.0112  1.0056  1.0056  0.9983  1.0035  1.0035

  free energy =  -0.444611991339E+02  energy without entropy=  -0.444610909031E+02


--------------------------------------------------------------------------------------------------------




--------------------------------------- Iteration     35(  10)  ---------------------------------------


    POTLOK:  cpu time    0.0660: real time    0.0668
    SETDIJ:  cpu time    0.0070: real time    0.0074
     EDDAV:  cpu time    1.1508: real time    1.1509
       DOS:  cpu time    0.0010: real time    0.0014
    CHARGE:  cpu time    0.1160: real time    0.1155
    MIXING:  cpu time    0.0130: real time    0.0134
    --------------------------------------------
      LOOP:  cpu time    1.3538: real time    1.3555

 eigenvalue-minimisations  :  1516
 total energy-change (2. order) :-0.1007929E+00  (-0.5335525E+00)
 number of electron      36.0000005 magnetization 
 augmentation part       -0.7085700 magnetization 

 eigenvalues of (default mixing * dielectric matrix)
  average eigenvalue GAMMA=   2.1811
 22.3179  5.1015  4.7075  1.2551  1.2551  2.0519  2.0519  1.3448  1.3448  0.3276
  0.3276  3.0510  3.0510  3.3848  3.2003  3.2003  0.3047  0.4106  1.7766  1.7766
  3.0872  2.5581  2.5581  2.9120  2.9120  2.7442  2.7442  2.7485  2.7485  2.0855
  2.0855  2.3338  2.3338  2.7223  2.7223  2.5677  2.5677  2.6321  2.6321  2.6298
  2.5970  2.5605  2.5605  2.4835  2.4835  2.2604  2.2604  2.3415  2.2427  1.5351
  1.5351  1.8673  0.7160  0.7160  1.5621  1.5621  1.2041  1.2041  1.4061  1.1894
  1.1894  0.7866  1.2256  0.9028  0.9432  1.0216  1.0216  0.9781  0.9889  1.0065
  1.0065  1.0111  0.9982  0.9982  1.0028  1.0028  1.0034

  free energy =  -0.445619920779E+02  energy without entropy=  -0.445593764819E+02


--------------------------------------------------------------------------------------------------------




--------------------------------------- Iteration     35(  11)  ---------------------------------------


    POTLOK:  cpu time    0.0660: real time    0.0675
    SETDIJ:  cpu time    0.0080: real time    0.0075
     EDDAV:  cpu time    1.0808: real time    1.0814
       DOS:  cpu time    0.0010: real time    0.0015
    CHARGE:  cpu time    0.1160: real time    0.1158
    MIXING:  cpu time    0.0140: real time    0.0137
    --------------------------------------------
      LOOP:  cpu time    1.2858: real time    1.2873

 eigenvalue-minimisations  :  1394
 total energy-change (2. order) : 0.5166991E+00  (-0.1290168E+00)
 number of electron      36.0000005 magnetization 
 augmentation part       -0.7347909 magnetization 

 eigenvalues of (default mixing * dielectric matrix)
  average eigenvalue GAMMA=   2.5664
 55.1282  2.7706  4.7016  1.4162  0.9419  1.7997  1.7997  3.4968  3.4968  0.1797
  0.1797  3.3803  3.2255  3.2255  2.6858  2.6858  2.2649  2.2649  0.4999  0.4999
  0.2959  1.7319  1.7319  2.9269  2.8094  2.8094  2.5188  2.5188  2.1600  2.1600
  2.7781  2.7781  2.6685  2.6685  2.7305  2.7305  2.6530  2.6530  2.6308  2.5861
  2.5861  2.5796  2.5796  2.4622  2.4622  2.1839  2.1839  2.4169  2.3073  2.2531
  0.6172  1.1705  1.1705  1.8893  1.7186  1.5010  1.5010  0.7987  0.7987  1.2354
  1.2354  1.3151  0.9946  0.9946  0.9134  1.1016  1.0011  1.0011  0.9878  1.0149
  1.0031  1.0031  1.0095  1.0050  0.9994  0.9994  1.0010  0.9983

  free energy =  -0.440452930040E+02  energy without entropy=  -0.440441443368E+02


--------------------------------------------------------------------------------------------------------




--------------------------------------- Iteration     35(  12)  ---------------------------------------


    POTLOK:  cpu time    0.0650: real time    0.0664
    SETDIJ:  cpu time    0.0080: real time    0.0075
     EDDAV:  cpu time    1.1778: real time    1.1774
       DOS:  cpu time    0.0000: real time    0.0014
    CHARGE:  cpu time    0.1160: real time    0.1150
    MIXING:  cpu time    0.0140: real time    0.0139
    --------------------------------------------
      LOOP:  cpu time    1.3808: real time    1.3816

 eigenvalue-minimisations  :  1564
 total energy-change (2. order) : 0.4062339E+00  (-0.1170625E+00)
 number of electron      36.0000005 magnetization 
 augmentation part       -0.8950210 magnetization 

 eigenvalues of (default mixing * dielectric matrix)
  average eigenvalue GAMMA=   2.5648
 55.3622  2.5351  1.2687  1.2687  5.1097  2.0918  2.0918  4.2085  0.1508  0.1508
  1.0774  1.0774  0.4623  0.4623  0.7459  0.7459  2.5692  2.5692  0.6045  3.4649
  1.0617  1.0617  2.4043  2.4043  1.7417  1.7417  1.3732  1.3732  3.1937  3.1937
  1.4468  1.4468  1.5845  1.9340  1.9340  2.4987  2.4987  1.9753  3.0066  2.7896
  2.7896  2.2796  2.2796  2.7903  2.7903  2.8343  2.2497  2.7092  2.7092  2.4718
  2.4718  2.3727  2.3860  2.7282  2.7282  2.6674  2.6674  2.5463  2.5463  2.6191
  2.6191  2.5722  1.1055  1.0359  1.0359  0.9358  0.9358  1.0516  0.9991  0.9991
  0.9886  1.0100  1.0039  1.0039  1.0012  1.0012  1.0024  0.9999  0.9999

  free energy =  -0.436390590542E+02  energy without entropy=  -0.436386512250E+02


--------------------------------------------------------------------------------------------------------




--------------------------------------- Iteration     35(  13)  ---------------------------------------


    POTLOK:  cpu time    0.0650: real time    0.0668
    SETDIJ:  cpu time    0.0080: real time    0.0074
     EDDAV:  cpu time    1.1098: real time    1.1104
       DOS:  cpu time    0.0010: real time    0.0014
    CHARGE:  cpu time    0.1160: real time    0.1157
    MIXING:  cpu time    0.0140: real time    0.0140
    --------------------------------------------
      LOOP:  cpu time    1.3138: real time    1.3157

 eigenvalue-minimisations  :  1438
 total energy-change (2. order) :-0.6958235E+00  (-0.3840700E+00)
 number of electron      36.0000005 magnetization 
 augmentation part       -1.1993159 magnetization 

 eigenvalues of (default mixing * dielectric matrix)
  average eigenvalue GAMMA=   2.2223
 13.3060 13.3060  1.0213  4.7286  4.7286  1.3955  1.3955  4.1361  1.0458  1.0458
  2.6262  2.6262  3.4531  3.4531  0.1852  0.1852  3.3810  0.8874  0.8874  0.5491
  0.5491  1.2086  1.2086  1.8839  1.8839  2.5905  2.5905  2.2731  2.2731  2.7480
  2.7480  2.8435  2.8435  2.8349  2.7203  2.7203  2.7255  2.6633  2.6633  2.5849
  2.5849  2.6401  2.6401  2.4917  2.4917  2.5554  2.5554  2.2483  2.2483  2.2919
  2.1100  2.1100  2.1579  1.8384  1.8384  1.3810  1.3810  1.3049  0.7652  1.1860
  0.9342  0.9342  1.0670  1.0670  0.9673  0.9673  0.9956  0.9956  1.0067  1.0067
  0.9977  1.0024  1.0024  1.0052  1.0052

  free energy =  -0.443348825376E+02  energy without entropy=  -0.443348655593E+02


--------------------------------------------------------------------------------------------------------




--------------------------------------- Iteration     35(  14)  ---------------------------------------


    POTLOK:  cpu time    0.0660: real time    0.0681
    SETDIJ:  cpu time    0.0080: real time    0.0075
     EDDAV:  cpu time    1.0578: real time    1.0580
       DOS:  cpu time    0.0010: real time    0.0014
    CHARGE:  cpu time    0.1150: real time    0.1150
    MIXING:  cpu time    0.0130: real time    0.0130
    --------------------------------------------
      LOOP:  cpu time    1.2608: real time    1.2631

 eigenvalue-minimisations  :  1350
 total energy-change (2. order) : 0.8404883E+00  (-0.1557872E+00)
 number of electron      36.0000005 magnetization 
 augmentation part       -1.1087156 magnetization 

 eigenvalues of (default mixing * dielectric matrix)
  average eigenvalue GAMMA=   2.1133
 17.3600  2.3441  2.3441  4.7344  4.7344  0.9385  0.9385  2.1315  2.1315  0.6050
  0.6050  3.6516  3.5916  3.5916  0.1681  0.2576  0.9489  0.9489  0.6217  0.8535
  0.8535  1.7951  1.7951  2.6864  2.6864  2.2721  2.2721  2.9598  2.7507  2.7507
  2.8823  2.8168  2.8168  2.7514  2.7514  2.1289  2.1289  2.3043  2.3043  2.5890
  2.5890  2.7254  2.6493  2.6493  2.6485  2.6485  2.4895  2.4895  2.5680  2.5567
  2.4695  2.3298  2.1716  1.8358  1.8358  1.2886  1.2886  1.4023  1.4023  0.7535
  0.8970  0.8970  1.0844  1.0844  1.0705  0.9970  0.9970  0.9880  0.9880  1.0028
  1.0028  0.9988  1.0002  1.0041  1.0041  1.0072

  free energy =  -0.434943942135E+02  energy without entropy=  -0.434942597039E+02


--------------------------------------------------------------------------------------------------------




--------------------------------------- Iteration     35(  15)  ---------------------------------------


    POTLOK:  cpu time    0.0650: real time    0.0671
    SETDIJ:  cpu time    0.0080: real time    0.0075
     EDDAV:  cpu time    1.0288: real time    1.0289
       DOS:  cpu time    0.0010: real time    0.0015
    CHARGE:  cpu time    0.1170: real time    0.1169
    MIXING:  cpu time    0.0130: real time    0.0134
    --------------------------------------------
      LOOP:  cpu time    1.2328: real time    1.2353

 eigenvalue-minimisations  :  1294
 total energy-change (2. order) :-0.7963744E+01  (-0.3471835E+01)
 number of electron      36.0000005 magnetization 
 augmentation part       -0.0505460 magnetization 

 eigenvalues of (default mixing * dielectric matrix)
  average eigenvalue GAMMA=   2.3680
 37.6341  4.8982  4.8982  1.0027  2.2625  2.2625  0.4525  0.4525  0.1663  1.5618
  1.5618  3.6236  3.6236  0.2176  3.5058  3.5058  0.3677  0.7683  0.7683  0.9780
  0.9780  2.7286  2.7286  1.5414  1.5414  2.3648  2.3648  2.7926  2.7926  1.8695
  1.8695  2.8163  2.8163  2.8770  2.1102  2.1102  2.8040  2.8040  2.4110  2.4110
  2.6629  2.6629  2.6620  2.6620  2.5155  2.5155  2.6708  2.6708  2.6329  2.5514
  2.4992  2.4992  2.4876  2.0579  1.8937  1.8937  1.5147  1.5147  0.6682  0.7882
  0.7882  1.1779  0.9713  0.9713  1.0866  1.0704  0.9886  0.9886  0.9997  0.9997
  1.0089  1.0089  1.0051  1.0051  0.9991  1.0015  1.0015

  free energy =  -0.514581380017E+02  energy without entropy=  -0.514336580453E+02


--------------------------------------------------------------------------------------------------------




--------------------------------------- Iteration     35(  16)  ---------------------------------------


