unknown system                          
           1
     3.194092    0.000000   -0.000000
    -1.597046    2.766165   -0.000000
    -0.000000    0.000000   14.562693
   Mo   S 
   2   4
Direct configuration=     5
   0.33333300  0.66666700  0.25000000
   0.66666700  0.33333300  0.75000000
   0.33333300  0.66666700  0.85716135
   0.66666700  0.33333300  0.14283865
   0.66666600  0.33333300  0.35716135
   0.33333400  0.66666700  0.64283865
