<?xml version="1.0" encoding="ISO-8859-1"?>
<modeling>
 <generator>
  <i name="program" type="string">vasp </i>
  <i name="version" type="string">5.4.4.18Apr17-6-g9f103f2a35  </i>
  <i name="subversion" type="string">(build Jun 30 2017 11:15:00) complex            parallel </i>
  <i name="platform" type="string">STALLO_VASP_5.4.4 </i>
  <i name="date" type="string">2019 11 08 </i>
  <i name="time" type="string">14:32:26 </i>
 </generator>
 <incar>
  <i type="string" name="PREC">accurate  ! normal/accurate</i>
  <i type="string" name="ALGO"> Normal      ! Algorithm for electronic</i>
  <i type="int" name="ISPIN">     1</i>
  <i type="int" name="MAXMIX">    80</i>
  <i type="int" name="NELM">   200</i>
  <i type="int" name="NELMIN">     4</i>
  <i type="int" name="IBRION">     1</i>
  <i name="EDIFF">      0.00000100</i>
  <i name="EDIFFG">     -0.01000000</i>
  <i type="int" name="NSW">    80</i>
  <i type="int" name="ISIF">     3</i>
  <i name="ENCUT">    450.00000000</i>
  <i type="logical" name="LREAL"> F  </i>
  <i type="int" name="ISMEAR">     0</i>
  <i name="SIGMA">      0.20000000</i>
  <i type="int" name="NWRITE">     1</i>
  <v type="int" name="KPOINT_BSE">    -1     0     0     0</v>
  <i type="int" name="NELM">   200</i>
 </incar>
 <structure name="primitive_cell" >
  <crystal>
   <varray name="basis" >
    <v>       3.19409200       0.00000000       0.00000000 </v>
    <v>      -1.59704600       2.76616500       0.00000000 </v>
    <v>       0.00000000       0.00000000      14.56269300 </v>
   </varray>
   <i name="volume">    128.66700653 </i>
   <varray name="rec_basis" >
    <v>       0.31307802       0.18075567       0.00000000 </v>
    <v>       0.00000000       0.36151133       0.00000000 </v>
    <v>       0.00000000       0.00000000       0.06866862 </v>
   </varray>
  </crystal>
  <varray name="positions" >
   <v>       0.33333300      -0.33333300       0.25000000 </v>
   <v>      -0.33333300       0.33333300       0.14283865 </v>
   <v>      -0.33333400       0.33333300       0.35716135 </v>
   <v>       0.33333300      -0.33333300      -0.14283865 </v>
   <v>       0.33333400      -0.33333300      -0.35716135 </v>
   <v>      -0.33333300       0.33333300      -0.25000000 </v>
  </varray>
 </structure>
 <varray name="primitive_index" >
  <v type="int" >        1 </v>
  <v type="int" >        4 </v>
  <v type="int" >        5 </v>
  <v type="int" >        3 </v>
  <v type="int" >        6 </v>
  <v type="int" >        2 </v>
 </varray>
 <kpoints>
  <generation param="Gamma">
   <v type="int" name="divisions">      10       10        3 </v>
   <v name="usershift">      0.00000000       0.00000000       0.00000000 </v>
   <v name="genvec1">      0.10000000      -0.00000000       0.00000000 </v>
   <v name="genvec2">      0.00000000       0.10000000       0.00000000 </v>
   <v name="genvec3">      0.00000000       0.00000000       0.33333333 </v>
   <v name="shift">      0.00000000       0.00000000       0.00000000 </v>
  </generation>
  <varray name="kpointlist" >
   <v>       0.00000000       0.00000000       0.00000000 </v>
   <v>       0.10000000       0.00000000       0.00000000 </v>
   <v>       0.20000000       0.00000000       0.00000000 </v>
   <v>       0.30000000       0.00000000       0.00000000 </v>
   <v>       0.40000000       0.00000000       0.00000000 </v>
   <v>       0.50000000       0.00000000       0.00000000 </v>
   <v>       0.10000000       0.10000000       0.00000000 </v>
   <v>       0.20000000       0.10000000       0.00000000 </v>
   <v>       0.30000000       0.10000000       0.00000000 </v>
   <v>       0.40000000       0.10000000       0.00000000 </v>
   <v>       0.20000000       0.20000000       0.00000000 </v>
   <v>       0.30000000       0.20000000       0.00000000 </v>
   <v>       0.40000000       0.20000000       0.00000000 </v>
   <v>       0.30000000       0.30000000       0.00000000 </v>
   <v>       0.00000000       0.00000000       0.33333333 </v>
   <v>       0.10000000       0.00000000       0.33333333 </v>
   <v>       0.20000000       0.00000000       0.33333333 </v>
   <v>       0.30000000       0.00000000       0.33333333 </v>
   <v>       0.40000000       0.00000000       0.33333333 </v>
   <v>       0.50000000       0.00000000       0.33333333 </v>
   <v>       0.10000000       0.10000000       0.33333333 </v>
   <v>       0.20000000       0.10000000       0.33333333 </v>
   <v>       0.30000000       0.10000000       0.33333333 </v>
   <v>       0.40000000       0.10000000       0.33333333 </v>
   <v>       0.20000000       0.20000000       0.33333333 </v>
   <v>       0.30000000       0.20000000       0.33333333 </v>
   <v>       0.40000000       0.20000000       0.33333333 </v>
   <v>       0.30000000       0.30000000       0.33333333 </v>
  </varray>
  <varray name="weights" >
   <v>       0.00333333 </v>
   <v>       0.02000000 </v>
   <v>       0.02000000 </v>
   <v>       0.02000000 </v>
   <v>       0.02000000 </v>
   <v>       0.01000000 </v>
   <v>       0.02000000 </v>
   <v>       0.04000000 </v>
   <v>       0.04000000 </v>
   <v>       0.04000000 </v>
   <v>       0.02000000 </v>
   <v>       0.04000000 </v>
   <v>       0.02000000 </v>
   <v>       0.02000000 </v>
   <v>       0.00666667 </v>
   <v>       0.04000000 </v>
   <v>       0.04000000 </v>
   <v>       0.04000000 </v>
   <v>       0.04000000 </v>
   <v>       0.02000000 </v>
   <v>       0.04000000 </v>
   <v>       0.08000000 </v>
   <v>       0.08000000 </v>
   <v>       0.08000000 </v>
   <v>       0.04000000 </v>
   <v>       0.08000000 </v>
   <v>       0.04000000 </v>
   <v>       0.04000000 </v>
  </varray>
 </kpoints>
 <parameters>
  <separator name="general" >
   <i type="string" name="SYSTEM">unknown system</i>
   <i type="logical" name="LCOMPAT"> F  </i>
  </separator>
  <separator name="electronic" >
   <i type="string" name="PREC">accura</i>
   <i name="ENMAX">    450.00000000</i>
   <i name="ENAUG">    345.27800000</i>
   <i name="EDIFF">      0.00000100</i>
   <i type="int" name="IALGO">    38</i>
   <i type="int" name="IWAVPR">    11</i>
   <i type="int" name="NBANDS">    22</i>
   <i name="NELECT">     36.00000000</i>
   <i type="int" name="TURBO">     0</i>
   <i type="int" name="IRESTART">     0</i>
   <i type="int" name="NREBOOT">     0</i>
   <i type="int" name="NMIN">     0</i>
   <i name="EREF">      0.00000000</i>
   <separator name="electronic smearing" >
    <i type="int" name="ISMEAR">     0</i>
    <i name="SIGMA">      0.20000000</i>
    <i name="KSPACING">      0.50000000</i>
    <i type="logical" name="KGAMMA"> T  </i>
   </separator>
   <separator name="electronic projectors" >
    <i type="logical" name="LREAL"> F  </i>
    <v name="ROPT">      0.00000000      0.00000000</v>
    <i type="int" name="LMAXPAW">  -100</i>
    <i type="int" name="LMAXMIX">     2</i>
    <i type="logical" name="NLSPLINE"> F  </i>
   </separator>
   <separator name="electronic startup" >
    <i type="int" name="ISTART">     0</i>
    <i type="int" name="ICHARG">     2</i>
    <i type="int" name="INIWAV">     1</i>
   </separator>
   <separator name="electronic spin" >
    <i type="int" name="ISPIN">     1</i>
    <i type="logical" name="LNONCOLLINEAR"> F  </i>
    <v name="MAGMOM">      1.00000000      1.00000000      1.00000000      1.00000000      1.00000000      1.00000000</v>
    <i name="NUPDOWN">     -1.00000000</i>
    <i type="logical" name="LSORBIT"> F  </i>
    <v name="SAXIS">      0.00000000      0.00000000      1.00000000</v>
    <i type="logical" name="LSPIRAL"> F  </i>
    <v name="QSPIRAL">      0.00000000      0.00000000      0.00000000</v>
    <i type="logical" name="LZEROZ"> F  </i>
   </separator>
   <separator name="electronic exchange-correlation" >
    <i type="logical" name="LASPH"> F  </i>
    <i type="logical" name="LMETAGGA"> F  </i>
   </separator>
   <separator name="electronic convergence" >
    <i type="int" name="NELM">   200</i>
    <i type="int" name="NELMDL">    -5</i>
    <i type="int" name="NELMIN">     4</i>
    <i name="ENINI">    450.00000000</i>
    <separator name="electronic convergence detail" >
     <i type="logical" name="LDIAG"> T  </i>
     <i type="logical" name="LSUBROT"> F  </i>
     <i name="WEIMIN">      0.00100000</i>
     <i name="EBREAK">      0.00000001</i>
     <i name="DEPER">      0.30000000</i>
     <i type="int" name="NRMM">     4</i>
     <i name="TIME">      0.40000000</i>
    </separator>
   </separator>
   <separator name="electronic mixer" >
    <i name="AMIX">      0.40000000</i>
    <i name="BMIX">      1.00000000</i>
    <i name="AMIN">      0.10000000</i>
    <i name="AMIX_MAG">      1.60000000</i>
    <i name="BMIX_MAG">      1.00000000</i>
    <separator name="electronic mixer details" >
     <i type="int" name="IMIX">     4</i>
     <i type="logical" name="MIXFIRST"> F  </i>
     <i type="int" name="MAXMIX">    80</i>
     <i name="WC">    100.00000000</i>
     <i type="int" name="INIMIX">     1</i>
     <i type="int" name="MIXPRE">     1</i>
     <i type="int" name="MREMOVE">     5</i>
    </separator>
   </separator>
   <separator name="electronic dipolcorrection" >
    <i type="logical" name="LDIPOL"> F  </i>
    <i type="logical" name="LMONO"> F  </i>
    <i type="int" name="IDIPOL">     0</i>
    <i name="EPSILON">      1.00000000</i>
    <v name="DIPOL">   -100.00000000   -100.00000000   -100.00000000</v>
    <i name="EFIELD">      0.00000000</i>
   </separator>
  </separator>
  <separator name="grids" >
   <i type="int" name="NGX">    24</i>
   <i type="int" name="NGY">    24</i>
   <i type="int" name="NGZ">   108</i>
   <i type="int" name="NGXF">    48</i>
   <i type="int" name="NGYF">    48</i>
   <i type="int" name="NGZF">   216</i>
   <i type="logical" name="ADDGRID"> F  </i>
  </separator>
  <separator name="ionic" >
   <i type="int" name="NSW">    80</i>
   <i type="int" name="IBRION">     1</i>
   <i type="int" name="MDALGO">     0</i>
   <i type="int" name="ISIF">     3</i>
   <i name="PSTRESS">      0.00000000</i>
   <i name="EDIFFG">     -0.01000000</i>
   <i type="int" name="NFREE">     0</i>
   <i name="POTIM">      0.50000000</i>
   <i name="SMASS">     -3.00000000</i>
   <i name="SCALEE">      1.00000000</i>
  </separator>
  <separator name="ionic md" >
   <i name="TEBEG">      0.00010000</i>
   <i name="TEEND">      0.00010000</i>
   <i type="int" name="NBLOCK">     1</i>
   <i type="int" name="KBLOCK">    80</i>
   <i type="int" name="NPACO">   256</i>
   <i name="APACO">     16.00000000</i>
  </separator>
  <separator name="symmetry" >
   <i type="int" name="ISYM">     2</i>
   <i name="SYMPREC">      0.00001000</i>
  </separator>
  <separator name="dos" >
   <i type="int" name="LORBIT">     0</i>
   <v name="RWIGS">     -1.00000000     -1.00000000</v>
   <i type="int" name="NEDOS">   301</i>
   <i name="EMIN">     10.00000000</i>
   <i name="EMAX">    -10.00000000</i>
   <i name="EFERMI">      0.00000000</i>
  </separator>
  <separator name="writing" >
   <i type="int" name="NWRITE">     1</i>
   <i type="logical" name="LWAVE"> T  </i>
   <i type="logical" name="LDOWNSAMPLE"> F  </i>
   <i type="logical" name="LCHARG"> T  </i>
   <i type="logical" name="LPARD"> F  </i>
   <i type="logical" name="LVTOT"> F  </i>
   <i type="logical" name="LVHAR"> F  </i>
   <i type="logical" name="LELF"> F  </i>
   <i type="logical" name="LOPTICS"> F  </i>
   <v name="STM">      0.00000000      0.00000000      0.00000000      0.00000000      0.00000000      0.00000000      0.00000000</v>
  </separator>
  <separator name="performance" >
   <i type="int" name="NPAR">     2</i>
   <i type="int" name="NSIM">     4</i>
   <i type="int" name="NBLK">    -1</i>
   <i type="logical" name="LPLANE"> T  </i>
   <i type="logical" name="LSCALAPACK"> T  </i>
   <i type="logical" name="LSCAAWARE"> F  </i>
   <i type="logical" name="LSCALU"> F  </i>
   <i type="logical" name="LASYNC"> F  </i>
   <i type="logical" name="LORBITALREAL"> F  </i>
  </separator>
  <separator name="miscellaneous" >
   <i type="int" name="IDIOT">     3</i>
   <i type="int" name="ISPECIAL">     0</i>
   <i type="logical" name="LMUSIC"> F  </i>
   <v name="POMASS">     95.94000000     32.06600000</v>
   <v name="DARWINR">      0.00000000      0.00000000</v>
   <v name="DARWINV">      1.00000000      1.00000000</v>
   <i type="logical" name="LCORR"> T  </i>
  </separator>
  <i type="logical" name="GGA_COMPAT"> T  </i>
  <i type="logical" name="LBERRY"> F  </i>
  <i type="int" name="ICORELEVEL">     0</i>
  <i type="logical" name="LDAU"> F  </i>
  <i type="int" name="I_CONSTRAINED_M">     0</i>
  <separator name="electronic exchange-correlation" >
   <i type="string" name="GGA">--</i>
   <i type="int" name="VOSKOWN">     0</i>
   <i type="logical" name="LHFCALC"> F  </i>
   <i type="string" name="PRECFOCK"></i>
   <i type="logical" name="LSYMGRAD"> F  </i>
   <i type="logical" name="LHFONE"> F  </i>
   <i type="logical" name="LRHFCALC"> F  </i>
   <i type="logical" name="LTHOMAS"> F  </i>
   <i type="logical" name="LMODELHF"> F  </i>
   <i name="ENCUT4O">     -1.00000000</i>
   <i type="int" name="EXXOEP">     0</i>
   <i type="int" name="FOURORBIT">     0</i>
   <i name="AEXX">      0.00000000</i>
   <i name="HFALPHA">      0.00000000</i>
   <i name="MCALPHA">      0.00000000</i>
   <i name="ALDAX">      1.00000000</i>
   <i name="AGGAX">      1.00000000</i>
   <i name="ALDAC">      1.00000000</i>
   <i name="AGGAC">      1.00000000</i>
   <i type="int" name="NKREDX">     1</i>
   <i type="int" name="NKREDY">     1</i>
   <i type="int" name="NKREDZ">     1</i>
   <i type="logical" name="SHIFTRED"> F  </i>
   <i type="logical" name="ODDONLY"> F  </i>
   <i type="logical" name="EVENONLY"> F  </i>
   <i type="int" name="LMAXFOCK">     0</i>
   <i type="int" name="NMAXFOCKAE">     0</i>
   <i type="logical" name="LFOCKAEDFT"> F  </i>
   <i name="HFSCREEN">      0.00000000</i>
   <i name="HFSCREENC">      0.00000000</i>
   <i type="int" name="NBANDSGWLOW">     0</i>
  </separator>
  <separator name="vdW DFT" >
   <i type="logical" name="LUSE_VDW"> F  </i>
   <i name="Zab_VDW">     -0.84910000</i>
   <i name="PARAM1">      0.12340000</i>
   <i name="PARAM2">      1.00000000</i>
   <i name="PARAM3">      0.00000000</i>
  </separator>
  <separator name="model GW" >
   <i type="int" name="MODEL_GW">     0</i>
   <i name="MODEL_EPS0">     12.86670065</i>
   <i name="MODEL_ALPHA">      1.00000000</i>
  </separator>
  <separator name="linear response parameters" >
   <i type="logical" name="LEPSILON"> F  </i>
   <i type="logical" name="LRPA"> F  </i>
   <i type="logical" name="LNABLA"> F  </i>
   <i type="logical" name="LVEL"> F  </i>
   <i type="int" name="KINTER">     0</i>
   <i name="CSHIFT">      0.10000000</i>
   <i name="OMEGAMAX">     -1.00000000</i>
   <i name="DEG_THRESHOLD">      0.00200000</i>
   <i name="RTIME">     -0.10000000</i>
   <i name="WPLASMAI">      0.00000000</i>
   <v name="DFIELD">      0.00000000      0.00000000      0.00000000</v>
   <v name="WPLASMA">      0.00000000      0.00000000      0.00000000      0.00000000      0.00000000      0.00000000      0.00000000      0.00000000      0.00000000</v>
  </separator>
  <separator name="orbital magnetization" >
   <i type="logical" name="NUCIND"> F  </i>
   <v name="MAGPOS">      0.00000000      0.00000000      0.00000000</v>
   <i type="logical" name="LNICSALL"> T  </i>
   <i type="logical" name="ORBITALMAG"> F  </i>
   <i type="logical" name="LMAGBLOCH"> F  </i>
   <i type="logical" name="LCHIMAG"> F  </i>
   <i type="logical" name="LGAUGE"> T  </i>
   <i type="int" name="MAGATOM">     0</i>
   <v name="MAGDIPOL">      0.00000000      0.00000000      0.00000000</v>
   <v name="AVECCONST">      0.00000000      0.00000000      0.00000000</v>
  </separator>
  <separator name="response functions" >
   <i type="logical" name="LADDER"> F  </i>
   <i type="logical" name="LRPAFORCE"> F  </i>
   <i type="logical" name="LFXC"> F  </i>
   <i type="logical" name="LHARTREE"> T  </i>
   <i type="int" name="IBSE">     0</i>
   <v type="int" name="KPOINT">    -1     0     0     0</v>
   <i type="logical" name="LTCTE"> F  </i>
   <i type="logical" name="LTETE"> F  </i>
   <i type="logical" name="LTRIPLET"> F  </i>
   <i type="logical" name="LFXCEPS"> F  </i>
   <i type="logical" name="LFXHEG"> F  </i>
   <i type="int" name="NATURALO">     2</i>
   <i type="logical" name="L2ORDER"> F  </i>
   <i type="logical" name="LMP2LT"> F  </i>
   <i type="logical" name="LUSEW"> F  </i>
   <i name="ENCUTGW">     -2.00000000</i>
   <i name="ENCUTGWSOFT">     -2.00000000</i>
   <i name="ENCUTLF">     -1.00000000</i>
   <i type="int" name="LMAXMP2">    -1</i>
   <i name="SCISSOR">      0.00000000</i>
   <i type="int" name="NOMEGA">     0</i>
   <i type="int" name="NOMEGAR">     0</i>
   <i type="int" name="NBANDSGW">    -1</i>
   <i type="int" name="NBANDSO">    -1</i>
   <i type="int" name="NBANDSV">    -1</i>
   <i type="int" name="NELM">   200</i>
   <i type="int" name="NELMHF">     1</i>
   <i type="int" name="DIM">     3</i>
   <i type="int" name="ANTIRES">     0</i>
   <i name="OMEGAMAX">    -30.00000000</i>
   <i name="OMEGAMIN">    -30.00000000</i>
   <i name="OMEGATL">   -200.00000000</i>
   <i type="int" name="OMEGAGRID">   140</i>
   <i name="CSHIFT">     -0.10000000</i>
   <i type="logical" name="SELFENERGY"> F  </i>
   <i type="logical" name="LSPECTRAL"> F  </i>
   <i type="logical" name="LSPECTRALGW"> F  </i>
   <i type="logical" name="LSINGLES"> F  </i>
   <i type="logical" name="LFERMIGW"> F  </i>
   <i type="logical" name="ODDONLYGW"> F  </i>
   <i type="logical" name="EVENONLYGW"> F  </i>
   <i type="int" name="NKREDLFX">     1</i>
   <i type="int" name="NKREDLFY">     1</i>
   <i type="int" name="NKREDLFZ">     1</i>
   <i type="int" name="MAXMEM">  2800</i>
   <i type="int" name="TELESCOPE">     0</i>
   <i type="int" name="TAUPAR">     1</i>
   <i type="int" name="OMEGAPAR">    -1</i>
   <i name="LAMBDA">      1.00000000</i>
  </separator>
  <separator name="External order field" >
   <i name="OFIELD_KAPPA">      0.00000000</i>
   <v name="OFIELD_K">      0.00000000      0.00000000      0.00000000</v>
   <i name="OFIELD_Q6_NEAR">      0.00000000</i>
   <i name="OFIELD_Q6_FAR">      0.00000000</i>
   <i name="OFIELD_A">      0.00000000</i>
  </separator>
 </parameters>
 <atominfo>
  <atoms>       6 </atoms>
  <types>       2 </types>
  <array name="atoms" >
   <dimension dim="1">ion</dimension>
   <field type="string">element</field>
   <field type="int">atomtype</field>
   <set>
    <rc><c>Mo</c><c>   1</c></rc>
    <rc><c>Mo</c><c>   1</c></rc>
    <rc><c>S </c><c>   2</c></rc>
    <rc><c>S </c><c>   2</c></rc>
    <rc><c>S </c><c>   2</c></rc>
    <rc><c>S </c><c>   2</c></rc>
   </set>
  </array>
  <array name="atomtypes" >
   <dimension dim="1">type</dimension>
   <field type="int">atomspertype</field>
   <field type="string">element</field>
   <field>mass</field>
   <field>valence</field>
   <field type="string">pseudopotential</field>
   <set>
    <rc><c>   2</c><c>Mo</c><c>     95.94000000</c><c>      6.00000000</c><c> PAW_PBE Mo 08Apr2002                   </c></rc>
    <rc><c>   4</c><c>S </c><c>     32.06600000</c><c>      6.00000000</c><c>  PAW_PBE S 17Jan2003                   </c></rc>
   </set>
  </array>
 </atominfo>
 <structure name="initialpos" >
  <crystal>
   <varray name="basis" >
    <v>       3.19409200       0.00000000       0.00000000 </v>
    <v>      -1.59704600       2.76616500       0.00000000 </v>
    <v>       0.00000000       0.00000000      14.56269300 </v>
   </varray>
   <i name="volume">    128.66700653 </i>
   <varray name="rec_basis" >
    <v>       0.31307802       0.18075567       0.00000000 </v>
    <v>       0.00000000       0.36151133       0.00000000 </v>
    <v>       0.00000000       0.00000000       0.06866862 </v>
   </varray>
  </crystal>
  <varray name="positions" >
   <v>       0.33333300       0.66666700       0.25000000 </v>
   <v>       0.66666700       0.33333300       0.75000000 </v>
   <v>       0.33333300       0.66666700       0.85716135 </v>
   <v>       0.66666700       0.33333300       0.14283865 </v>
   <v>       0.66666600       0.33333300       0.35716135 </v>
   <v>       0.33333400       0.66666700       0.64283865 </v>
  </varray>
 </structure>
 <calculation>
  <scstep>
   <time name="dav">    1.00    1.00</time>
   <time name="total">    1.08    1.29</time>
   <energy>
    <i name="alphaZ">     92.17154737 </i>
    <i name="ewald">  -1198.61356286 </i>
    <i name="hartreedc">   -491.81669997 </i>
    <i name="XCdc">    -72.58376375 </i>
    <i name="pawpsdc">    813.77302396 </i>
    <i name="pawaedc">   -658.68146406 </i>
    <i name="eentropy">     -0.04237507 </i>
    <i name="bandstr">    172.91003207 </i>
    <i name="atom">   1542.31022798 </i>
    <i name="e_fr_energy">    199.42696568 </i>
    <i name="e_wo_entrp">    199.46934075 </i>
    <i name="e_0_energy">    199.44815321 </i>
   </energy>
  </scstep>
  <scstep>
   <time name="dav">    1.25    1.26</time>
   <time name="total">    1.25    1.26</time>
   <energy>
    <i name="e_fr_energy">    -28.91047315 </i>
    <i name="e_wo_entrp">    -28.90885887 </i>
    <i name="e_0_energy">    -28.90966601 </i>
   </energy>
  </scstep>
  <scstep>
   <time name="dav">    1.21    1.21</time>
   <time name="total">    1.21    1.21</time>
   <energy>
    <i name="e_fr_energy">    -46.26401392 </i>
    <i name="e_wo_entrp">    -46.26401392 </i>
    <i name="e_0_energy">    -46.26401392 </i>
   </energy>
  </scstep>
  <scstep>
   <time name="dav">    1.27    1.27</time>
   <time name="total">    1.27    1.27</time>
   <energy>
    <i name="e_fr_energy">    -46.80709553 </i>
    <i name="e_wo_entrp">    -46.80709553 </i>
    <i name="e_0_energy">    -46.80709553 </i>
   </energy>
  </scstep>
  <scstep>
   <time name="dav">    1.22    1.22</time>
   <time name="total">    1.33    1.33</time>
   <energy>
    <i name="e_fr_energy">    -46.82191566 </i>
    <i name="e_wo_entrp">    -46.82191566 </i>
    <i name="e_0_energy">    -46.82191566 </i>
   </energy>
  </scstep>
  <scstep>
   <time name="dav">    1.23    1.23</time>
   <time name="total">    1.42    1.42</time>
   <energy>
    <i name="e_fr_energy">    -44.42863368 </i>
    <i name="e_wo_entrp">    -44.42863215 </i>
    <i name="e_0_energy">    -44.42863292 </i>
   </energy>
  </scstep>
  <scstep>
   <time name="dav">    1.24    1.24</time>
   <time name="total">    1.43    1.43</time>
   <energy>
    <i name="e_fr_energy">    -43.72559389 </i>
    <i name="e_wo_entrp">    -43.72559389 </i>
    <i name="e_0_energy">    -43.72559389 </i>
   </energy>
  </scstep>
  <scstep>
   <time name="dav">    1.19    1.19</time>
   <time name="total">    1.38    1.38</time>
   <energy>
    <i name="e_fr_energy">    -43.60604982 </i>
    <i name="e_wo_entrp">    -43.60604982 </i>
    <i name="e_0_energy">    -43.60604982 </i>
   </energy>
  </scstep>
  <scstep>
   <time name="dav">    1.27    1.27</time>
   <time name="total">    1.46    1.46</time>
   <energy>
    <i name="e_fr_energy">    -43.60678638 </i>
    <i name="e_wo_entrp">    -43.60678638 </i>
    <i name="e_0_energy">    -43.60678638 </i>
   </energy>
  </scstep>
  <scstep>
   <time name="dav">    1.35    1.35</time>
   <time name="total">    1.53    1.54</time>
   <energy>
    <i name="e_fr_energy">    -43.60532934 </i>
    <i name="e_wo_entrp">    -43.60532933 </i>
    <i name="e_0_energy">    -43.60532934 </i>
   </energy>
  </scstep>
  <scstep>
   <time name="dav">    1.22    1.22</time>
   <time name="total">    1.41    1.41</time>
   <energy>
    <i name="e_fr_energy">    -43.60499091 </i>
    <i name="e_wo_entrp">    -43.60499090 </i>
    <i name="e_0_energy">    -43.60499090 </i>
   </energy>
  </scstep>
  <scstep>
   <time name="dav">    1.17    1.17</time>
   <time name="total">    1.36    1.36</time>
   <energy>
    <i name="e_fr_energy">    -43.60511174 </i>
    <i name="e_wo_entrp">    -43.60511174 </i>
    <i name="e_0_energy">    -43.60511174 </i>
   </energy>
  </scstep>
  <scstep>
   <time name="dav">    1.34    1.34</time>
   <time name="total">    1.53    1.53</time>
   <energy>
    <i name="e_fr_energy">    -43.60511379 </i>
    <i name="e_wo_entrp">    -43.60511379 </i>
    <i name="e_0_energy">    -43.60511379 </i>
   </energy>
  </scstep>
  <scstep>
   <time name="dav">    1.27    1.27</time>
   <time name="total">    1.45    1.46</time>
   <energy>
    <i name="e_fr_energy">    -43.60511039 </i>
    <i name="e_wo_entrp">    -43.60511039 </i>
    <i name="e_0_energy">    -43.60511039 </i>
   </energy>
  </scstep>
  <scstep>
   <time name="dav">    0.96    0.96</time>
   <time name="total">    1.03    1.03</time>
   <energy>
    <i name="alphaZ">     92.17154737 </i>
    <i name="ewald">  -1198.61356286 </i>
    <i name="hartreedc">   -499.14491936 </i>
    <i name="XCdc">    -70.38416868 </i>
    <i name="pawpsdc">    944.76895668 </i>
    <i name="pawaedc">   -793.15573180 </i>
    <i name="eentropy">     -0.00000000 </i>
    <i name="bandstr">    -61.55745958 </i>
    <i name="atom">   1542.31022798 </i>
    <i name="e_fr_energy">    -43.60511025 </i>
    <i name="e_wo_entrp">    -43.60511024 </i>
    <i name="e_0_energy">    -43.60511024 </i>
   </energy>
  </scstep>
  <structure>
   <crystal>
    <varray name="basis" >
     <v>       3.19409200       0.00000000       0.00000000 </v>
     <v>      -1.59704600       2.76616500       0.00000000 </v>
     <v>       0.00000000       0.00000000      14.56269300 </v>
    </varray>
    <i name="volume">    128.66700653 </i>
    <varray name="rec_basis" >
     <v>       0.31307802       0.18075567       0.00000000 </v>
     <v>       0.00000000       0.36151133       0.00000000 </v>
     <v>       0.00000000       0.00000000       0.06866862 </v>
    </varray>
   </crystal>
   <varray name="positions" >
    <v>       0.33333300       0.66666700       0.25000000 </v>
    <v>       0.66666700       0.33333300       0.75000000 </v>
    <v>       0.33333300       0.66666700       0.85716135 </v>
    <v>       0.66666700       0.33333300       0.14283865 </v>
    <v>       0.66666600       0.33333300       0.35716135 </v>
    <v>       0.33333400       0.66666700       0.64283865 </v>
   </varray>
  </structure>
  <varray name="forces" >
   <v>      -0.00000000      -0.00000000       0.00000000 </v>
   <v>       0.00000000      -0.00000000       0.00000000 </v>
   <v>       0.00000000       0.00000000      -0.02450912 </v>
   <v>      -0.00000000      -0.00000000       0.02450912 </v>
   <v>      -0.00000000      -0.00000000      -0.02450912 </v>
   <v>       0.00000000       0.00000000       0.02450912 </v>
  </varray>
  <varray name="stress" >
   <v>      -6.43306544      -0.00000000      -0.00000000 </v>
   <v>       0.00000000      -6.43306631       0.00000000 </v>
   <v>       0.00000000      -0.00000000     -13.01884538 </v>
  </varray>
  <energy>
   <i name="e_fr_energy">    -44.95473183 </i>
   <i name="e_wo_entrp">    -44.95473183 </i>
   <i name="e_0_energy">     -0.00000000 </i>
  </energy>
  <time name="totalsc">   21.64   22.10</time>
 </calculation>
 <calculation>
  <scstep>
   <time name="dav">    1.02    1.02</time>
   <time name="total">    1.21    1.23</time>
   <energy>
    <i name="alphaZ">     93.73001544 </i>
    <i name="ewald">  -1207.08107527 </i>
    <i name="hartreedc">   -500.76717455 </i>
    <i name="XCdc">    -70.02280233 </i>
    <i name="pawpsdc">    944.77453326 </i>
    <i name="pawaedc">   -793.16133749 </i>
    <i name="eentropy">     -0.00000000 </i>
    <i name="bandstr">    -53.40601084 </i>
    <i name="atom">   1542.31022798 </i>
    <i name="e_fr_energy">    -43.62362379 </i>
    <i name="e_wo_entrp">    -43.62362379 </i>
    <i name="e_0_energy">    -43.62362379 </i>
   </energy>
  </scstep>
  <scstep>
   <time name="dav">    1.08    1.08</time>
   <time name="total">    1.26    1.26</time>
   <energy>
    <i name="e_fr_energy">    -43.60366304 </i>
    <i name="e_wo_entrp">    -43.60366304 </i>
    <i name="e_0_energy">    -43.60366304 </i>
   </energy>
  </scstep>
  <scstep>
   <time name="dav">    1.10    1.10</time>
   <time name="total">    1.28    1.29</time>
   <energy>
    <i name="e_fr_energy">    -43.59529323 </i>
    <i name="e_wo_entrp">    -43.59529323 </i>
    <i name="e_0_energy">    -43.59529323 </i>
   </energy>
  </scstep>
  <scstep>
   <time name="dav">    1.12    1.12</time>
   <time name="total">    1.30    1.31</time>
   <energy>
    <i name="e_fr_energy">    -43.59500455 </i>
    <i name="e_wo_entrp">    -43.59500455 </i>
    <i name="e_0_energy">    -43.59500455 </i>
   </energy>
  </scstep>
  <scstep>
   <time name="dav">    1.25    1.26</time>
   <time name="total">    1.44    1.44</time>
   <energy>
    <i name="e_fr_energy">    -43.59498025 </i>
    <i name="e_wo_entrp">    -43.59498025 </i>
    <i name="e_0_energy">    -43.59498025 </i>
   </energy>
  </scstep>
  <scstep>
   <time name="dav">    1.14    1.14</time>
   <time name="total">    1.33    1.33</time>
   <energy>
    <i name="e_fr_energy">    -43.59497952 </i>
    <i name="e_wo_entrp">    -43.59497951 </i>
    <i name="e_0_energy">    -43.59497952 </i>
   </energy>
  </scstep>
  <scstep>
   <time name="dav">    1.33    1.33</time>
   <time name="total">    1.52    1.52</time>
   <energy>
    <i name="e_fr_energy">    -43.59498128 </i>
    <i name="e_wo_entrp">    -43.59498128 </i>
    <i name="e_0_energy">    -43.59498128 </i>
   </energy>
  </scstep>
  <scstep>
   <time name="dav">    0.86    0.86</time>
   <time name="total">    0.94    0.94</time>
   <energy>
    <i name="alphaZ">     93.73001544 </i>
    <i name="ewald">  -1207.08107527 </i>
    <i name="hartreedc">   -495.99826634 </i>
    <i name="XCdc">    -70.12124629 </i>
    <i name="pawpsdc">    954.62312169 </i>
    <i name="pawaedc">   -803.15585686 </i>
    <i name="eentropy">     -0.00000000 </i>
    <i name="bandstr">    -57.90190204 </i>
    <i name="atom">   1542.31022798 </i>
    <i name="e_fr_energy">    -43.59498170 </i>
    <i name="e_wo_entrp">    -43.59498170 </i>
    <i name="e_0_energy">    -43.59498170 </i>
   </energy>
  </scstep>
  <structure>
   <crystal>
    <varray name="basis" >
     <v>       3.18082411      -0.00000000      -0.00000000 </v>
     <v>      -1.59041205       2.75467467       0.00000000 </v>
     <v>       0.00000000      -0.00000000      14.44027347 </v>
    </varray>
    <i name="volume">    126.52763399 </i>
    <varray name="rec_basis" >
     <v>       0.31438394       0.18150964       0.00000000 </v>
     <v>       0.00000000       0.36301928       0.00000000 </v>
     <v>       0.00000000       0.00000000       0.06925077 </v>
    </varray>
   </crystal>
   <varray name="positions" >
    <v>       0.33333300       0.66666700       0.25000000 </v>
    <v>       0.66666700       0.33333300       0.75000000 </v>
    <v>       0.33333300       0.66666700       0.85708016 </v>
    <v>       0.66666700       0.33333300       0.14291984 </v>
    <v>       0.66666600       0.33333300       0.35708016 </v>
    <v>       0.33333400       0.66666700       0.64291984 </v>
   </varray>
  </structure>
  <varray name="forces" >
   <v>      -0.00000000      -0.00000000       0.00000000 </v>
   <v>      -0.00000000      -0.00000000       0.00000000 </v>
   <v>       0.00000000       0.00000000       0.33842638 </v>
   <v>      -0.00000000      -0.00000000      -0.33842638 </v>
   <v>      -0.00000000      -0.00000000       0.33842638 </v>
   <v>       0.00000000       0.00000000      -0.33842638 </v>
  </varray>
  <varray name="stress" >
   <v>      12.89108933       0.00000000       0.00000000 </v>
   <v>       0.00000000      12.89109105      -0.00000000 </v>
   <v>       0.00000000       0.00000000      14.88770769 </v>
  </varray>
  <energy>
   <i name="e_fr_energy">    -44.95158475 </i>
   <i name="e_wo_entrp">    -44.95158475 </i>
   <i name="e_0_energy">     -0.00000000 </i>
  </energy>
  <time name="totalsc">   11.29   11.34</time>
 </calculation>
 <calculation>
  <scstep>
   <time name="dav">    0.99    0.99</time>
   <time name="total">    1.18    1.18</time>
   <energy>
    <i name="alphaZ">     92.62568783 </i>
    <i name="ewald">  -1209.05843989 </i>
    <i name="hartreedc">   -487.84888113 </i>
    <i name="XCdc">    -70.43767249 </i>
    <i name="pawpsdc">    954.64385489 </i>
    <i name="pawaedc">   -803.17669360 </i>
    <i name="eentropy">     -0.00000000 </i>
    <i name="bandstr">    -62.67429782 </i>
    <i name="atom">   1542.31022798 </i>
    <i name="e_fr_energy">    -43.61621424 </i>
    <i name="e_wo_entrp">    -43.61621424 </i>
    <i name="e_0_energy">    -43.61621424 </i>
   </energy>
  </scstep>
  <scstep>
   <time name="dav">    1.00    1.00</time>
   <time name="total">    1.19    1.19</time>
   <energy>
    <i name="e_fr_energy">    -43.60584503 </i>
    <i name="e_wo_entrp">    -43.60584503 </i>
    <i name="e_0_energy">    -43.60584503 </i>
   </energy>
  </scstep>
  <scstep>
   <time name="dav">    1.31    1.31</time>
   <time name="total">    1.49    1.50</time>
   <energy>
    <i name="e_fr_energy">    -43.60578838 </i>
    <i name="e_wo_entrp">    -43.60578838 </i>
    <i name="e_0_energy">    -43.60578838 </i>
   </energy>
  </scstep>
  <scstep>
   <time name="dav">    1.16    1.16</time>
   <time name="total">    1.35    1.35</time>
   <energy>
    <i name="e_fr_energy">    -43.60570290 </i>
    <i name="e_wo_entrp">    -43.60570290 </i>
    <i name="e_0_energy">    -43.60570290 </i>
   </energy>
  </scstep>
  <scstep>
   <time name="dav">    1.12    1.12</time>
   <time name="total">    1.31    1.31</time>
   <energy>
    <i name="e_fr_energy">    -43.60570777 </i>
    <i name="e_wo_entrp">    -43.60570776 </i>
    <i name="e_0_energy">    -43.60570777 </i>
   </energy>
  </scstep>
  <scstep>
   <time name="dav">    1.09    1.09</time>
   <time name="total">    1.27    1.28</time>
   <energy>
    <i name="e_fr_energy">    -43.60570065 </i>
    <i name="e_wo_entrp">    -43.60570064 </i>
    <i name="e_0_energy">    -43.60570064 </i>
   </energy>
  </scstep>
  <scstep>
   <time name="dav">    0.87    0.87</time>
   <time name="total">    0.94    0.94</time>
   <energy>
    <i name="alphaZ">     92.62568783 </i>
    <i name="ewald">  -1209.05843989 </i>
    <i name="hartreedc">   -490.71550551 </i>
    <i name="XCdc">    -70.36971714 </i>
    <i name="pawpsdc">    945.19279849 </i>
    <i name="pawaedc">   -793.58589866 </i>
    <i name="eentropy">     -0.00000000 </i>
    <i name="bandstr">    -60.00485377 </i>
    <i name="atom">   1542.31022798 </i>
    <i name="e_fr_energy">    -43.60570068 </i>
    <i name="e_wo_entrp">    -43.60570068 </i>
    <i name="e_0_energy">    -43.60570068 </i>
   </energy>
  </scstep>
  <structure>
   <crystal>
    <varray name="basis" >
     <v>       3.19279727      -0.00000000      -0.00000000 </v>
     <v>      -1.59639864       2.76504373       0.00000000 </v>
     <v>      -0.00000000      -0.00000000      14.50304791 </v>
    </varray>
    <i name="volume">    128.03615678 </i>
    <varray name="rec_basis" >
     <v>       0.31320498       0.18082897       0.00000000 </v>
     <v>       0.00000000       0.36165793       0.00000000 </v>
     <v>       0.00000000       0.00000000       0.06895102 </v>
    </varray>
   </crystal>
   <varray name="positions" >
    <v>       0.33333300       0.66666700       0.25000000 </v>
    <v>       0.66666700       0.33333300       0.75000000 </v>
    <v>       0.33333300       0.66666700       0.85760009 </v>
    <v>       0.66666700       0.33333300       0.14239991 </v>
    <v>       0.66666600       0.33333300       0.35760009 </v>
    <v>       0.33333400       0.66666700       0.64239991 </v>
   </varray>
  </structure>
  <varray name="forces" >
   <v>      -0.00000000      -0.00000000       0.00000000 </v>
   <v>      -0.00000000       0.00000000       0.00000000 </v>
   <v>       0.00000000       0.00000000      -0.01448652 </v>
   <v>       0.00000000      -0.00000000       0.01448652 </v>
   <v>      -0.00000000      -0.00000000      -0.01448652 </v>
   <v>      -0.00000000       0.00000000       0.01448652 </v>
  </varray>
  <varray name="stress" >
   <v>      -5.38191899      -0.00000000       0.00000000 </v>
   <v>      -0.00000000      -5.38191971       0.00000000 </v>
   <v>       0.00000000      -0.00000000     -12.55179058 </v>
  </varray>
  <energy>
   <i name="e_fr_energy">    -44.95884250 </i>
   <i name="e_wo_entrp">    -44.95884250 </i>
   <i name="e_0_energy">     -0.00000000 </i>
  </energy>
  <time name="totalsc">    9.82    9.84</time>
 </calculation>
 <calculation>
  <scstep>
   <time name="dav">    1.10    1.16</time>
   <time name="total">    1.31    1.54</time>
   <energy>
    <i name="alphaZ">     92.81667518 </i>
    <i name="ewald">  -1214.70903028 </i>
    <i name="hartreedc">   -486.87225919 </i>
    <i name="XCdc">    -70.35976209 </i>
    <i name="pawpsdc">    945.20079926 </i>
    <i name="pawaedc">   -793.59397802 </i>
    <i name="eentropy">     -0.00000000 </i>
    <i name="bandstr">    -58.39899717 </i>
    <i name="atom">   1542.31022798 </i>
    <i name="e_fr_energy">    -43.60632433 </i>
    <i name="e_wo_entrp">    -43.60632432 </i>
    <i name="e_0_energy">    -43.60632433 </i>
   </energy>
  </scstep>
  <scstep>
   <time name="dav">    1.47    1.47</time>
   <time name="total">    1.69    1.69</time>
   <energy>
    <i name="e_fr_energy">    -43.60564503 </i>
    <i name="e_wo_entrp">    -43.60564503 </i>
    <i name="e_0_energy">    -43.60564503 </i>
   </energy>
  </scstep>
  <scstep>
   <time name="dav">    1.72    1.72</time>
   <time name="total">    1.95    1.95</time>
   <energy>
    <i name="e_fr_energy">    -43.60565774 </i>
    <i name="e_wo_entrp">    -43.60565774 </i>
    <i name="e_0_energy">    -43.60565774 </i>
   </energy>
  </scstep>
  <scstep>
   <time name="dav">    1.88    1.88</time>
   <time name="total">    2.10    2.11</time>
   <energy>
    <i name="e_fr_energy">    -43.60565160 </i>
    <i name="e_wo_entrp">    -43.60565159 </i>
    <i name="e_0_energy">    -43.60565160 </i>
   </energy>
  </scstep>
  <scstep>
   <time name="dav">    1.67    1.67</time>
   <time name="total">    1.89    1.89</time>
   <energy>
    <i name="e_fr_energy">    -43.60565504 </i>
    <i name="e_wo_entrp">    -43.60565504 </i>
    <i name="e_0_energy">    -43.60565504 </i>
   </energy>
  </scstep>
  <scstep>
   <time name="dav">    1.53    1.53</time>
   <time name="total">    1.76    1.76</time>
   <energy>
    <i name="e_fr_energy">    -43.60565202 </i>
    <i name="e_wo_entrp">    -43.60565201 </i>
    <i name="e_0_energy">    -43.60565202 </i>
   </energy>
  </scstep>
  <scstep>
   <time name="dav">    1.19    1.19</time>
   <time name="total">    1.27    1.27</time>
   <energy>
    <i name="alphaZ">     92.81667518 </i>
    <i name="ewald">  -1214.70903028 </i>
    <i name="hartreedc">   -485.96381321 </i>
    <i name="XCdc">    -70.37243622 </i>
    <i name="pawpsdc">    945.05781938 </i>
    <i name="pawaedc">   -793.44887913 </i>
    <i name="eentropy">     -0.00000000 </i>
    <i name="bandstr">    -59.29621498 </i>
    <i name="atom">   1542.31022798 </i>
    <i name="e_fr_energy">    -43.60565127 </i>
    <i name="e_wo_entrp">    -43.60565127 </i>
    <i name="e_0_energy">    -43.60565127 </i>
   </energy>
  </scstep>
  <structure>
   <crystal>
    <varray name="basis" >
     <v>       3.19299257      -0.00000000      -0.00000000 </v>
     <v>      -1.59649628       2.76521286       0.00000000 </v>
     <v>      -0.00000000      -0.00000000      14.47143479 </v>
    </varray>
    <i name="volume">    127.77269886 </i>
    <varray name="rec_basis" >
     <v>       0.31318582       0.18081791       0.00000000 </v>
     <v>       0.00000000       0.36163581       0.00000000 </v>
     <v>       0.00000000      -0.00000000       0.06910165 </v>
    </varray>
   </crystal>
   <varray name="positions" >
    <v>       0.33333300       0.66666700       0.25000000 </v>
    <v>       0.66666700       0.33333300       0.75000000 </v>
    <v>       0.33333300       0.66666700       0.85784681 </v>
    <v>       0.66666700       0.33333300       0.14215319 </v>
    <v>       0.66666600       0.33333300       0.35784681 </v>
    <v>       0.33333400       0.66666700       0.64215319 </v>
   </varray>
  </structure>
  <varray name="forces" >
   <v>      -0.00000000       0.00000000       0.00000000 </v>
   <v>      -0.00000000      -0.00000000       0.00000000 </v>
   <v>       0.00000000       0.00000000      -0.01884084 </v>
   <v>      -0.00000000      -0.00000000       0.01884084 </v>
   <v>      -0.00000000      -0.00000000      -0.01884084 </v>
   <v>       0.00000000      -0.00000000       0.01884084 </v>
  </varray>
  <varray name="stress" >
   <v>      -5.59865594       0.00000000       0.00000000 </v>
   <v>       0.00000000      -5.59865669       0.00000000 </v>
   <v>       0.00000000       0.00000000     -13.01220287 </v>
  </varray>
  <energy>
   <i name="e_fr_energy">    -44.96077750 </i>
   <i name="e_wo_entrp">    -44.96077750 </i>
   <i name="e_0_energy">     -0.00000000 </i>
  </energy>
  <time name="totalsc">   13.16   13.41</time>
 </calculation>
 <calculation>
  <scstep>
   <time name="dav">    1.40    1.40</time>
   <time name="total">    1.61    1.62</time>
   <energy>
    <i name="alphaZ">     87.08422684 </i>
    <i name="ewald">  -1027.77346587 </i>
    <i name="hartreedc">   -615.25220610 </i>
    <i name="XCdc">    -70.71079678 </i>
    <i name="pawpsdc">    945.08278079 </i>
    <i name="pawaedc">   -793.47406607 </i>
    <i name="eentropy">     -0.00000049 </i>
    <i name="bandstr">   -111.28366237 </i>
    <i name="atom">   1542.31022798 </i>
    <i name="e_fr_energy">    -44.01696207 </i>
    <i name="e_wo_entrp">    -44.01696158 </i>
    <i name="e_0_energy">    -44.01696183 </i>
   </energy>
  </scstep>
  <scstep>
   <time name="dav">    1.45    1.45</time>
   <time name="total">    1.67    1.67</time>
   <energy>
    <i name="e_fr_energy">    -43.58770077 </i>
    <i name="e_wo_entrp">    -43.58770076 </i>
    <i name="e_0_energy">    -43.58770076 </i>
   </energy>
  </scstep>
  <scstep>
   <time name="dav">    1.66    1.66</time>
   <time name="total">    1.87    1.88</time>
   <energy>
    <i name="e_fr_energy">    -43.61356327 </i>
    <i name="e_wo_entrp">    -43.61356326 </i>
    <i name="e_0_energy">    -43.61356326 </i>
   </energy>
  </scstep>
  <scstep>
   <time name="dav">    1.56    1.56</time>
   <time name="total">    1.78    1.78</time>
   <energy>
    <i name="e_fr_energy">    -43.60540345 </i>
    <i name="e_wo_entrp">    -43.60540344 </i>
    <i name="e_0_energy">    -43.60540345 </i>
   </energy>
  </scstep>
  <scstep>
   <time name="dav">    1.59    1.60</time>
   <time name="total">    1.81    1.81</time>
   <energy>
    <i name="e_fr_energy">    -43.60162396 </i>
    <i name="e_wo_entrp">    -43.60162396 </i>
    <i name="e_0_energy">    -43.60162396 </i>
   </energy>
  </scstep>
  <scstep>
   <time name="dav">    1.66    1.66</time>
   <time name="total">    1.89    1.89</time>
   <energy>
    <i name="e_fr_energy">    -43.60168118 </i>
    <i name="e_wo_entrp">    -43.60168118 </i>
    <i name="e_0_energy">    -43.60168118 </i>
   </energy>
  </scstep>
  <scstep>
   <time name="dav">    1.57    1.57</time>
   <time name="total">    1.79    1.79</time>
   <energy>
    <i name="e_fr_energy">    -43.60112443 </i>
    <i name="e_wo_entrp">    -43.60112443 </i>
    <i name="e_0_energy">    -43.60112443 </i>
   </energy>
  </scstep>
  <scstep>
   <time name="dav">    1.73    1.73</time>
   <time name="total">    1.95    1.95</time>
   <energy>
    <i name="e_fr_energy">    -43.60114783 </i>
    <i name="e_wo_entrp">    -43.60114783 </i>
    <i name="e_0_energy">    -43.60114783 </i>
   </energy>
  </scstep>
  <scstep>
   <time name="dav">    1.35    1.36</time>
   <time name="total">    1.56    1.56</time>
   <energy>
    <i name="e_fr_energy">    -43.60113025 </i>
    <i name="e_wo_entrp">    -43.60113025 </i>
    <i name="e_0_energy">    -43.60113025 </i>
   </energy>
  </scstep>
  <scstep>
   <time name="dav">    1.64    1.64</time>
   <time name="total">    1.84    1.84</time>
   <energy>
    <i name="e_fr_energy">    -43.60112352 </i>
    <i name="e_wo_entrp">    -43.60112352 </i>
    <i name="e_0_energy">    -43.60112352 </i>
   </energy>
  </scstep>
  <scstep>
   <time name="dav">    1.34    1.34</time>
   <time name="total">    1.55    1.55</time>
   <energy>
    <i name="e_fr_energy">    -43.60112149 </i>
    <i name="e_wo_entrp">    -43.60112149 </i>
    <i name="e_0_energy">    -43.60112149 </i>
   </energy>
  </scstep>
  <scstep>
   <time name="dav">    1.16    1.16</time>
   <time name="total">    1.25    1.25</time>
   <energy>
    <i name="alphaZ">     87.08422684 </i>
    <i name="ewald">  -1027.77346587 </i>
    <i name="hartreedc">   -645.76811607 </i>
    <i name="XCdc">    -70.28452206 </i>
    <i name="pawpsdc">    949.00786097 </i>
    <i name="pawaedc">   -797.45888425 </i>
    <i name="eentropy">     -0.00000000 </i>
    <i name="bandstr">    -80.71844868 </i>
    <i name="atom">   1542.31022798 </i>
    <i name="e_fr_energy">    -43.60112115 </i>
    <i name="e_wo_entrp">    -43.60112115 </i>
    <i name="e_0_energy">    -43.60112115 </i>
   </energy>
  </scstep>
  <structure>
   <crystal>
    <varray name="basis" >
     <v>       3.18866455      -0.00000000      -0.00000000 </v>
     <v>      -1.59433227       2.76146469       0.00000000 </v>
     <v>       0.00000000      -0.00000000      15.46593742 </v>
    </varray>
    <i name="volume">    136.18352621 </i>
    <varray name="rec_basis" >
     <v>       0.31361091       0.18106333       0.00000000 </v>
     <v>       0.00000000       0.36212667       0.00000000 </v>
     <v>       0.00000000      -0.00000000       0.06465822 </v>
    </varray>
   </crystal>
   <varray name="positions" >
    <v>       0.33333300       0.66666700       0.25000000 </v>
    <v>       0.66666700       0.33333300       0.75000000 </v>
    <v>       0.33333300       0.66666700       0.85046995 </v>
    <v>       0.66666700       0.33333300       0.14953005 </v>
    <v>       0.66666600       0.33333300       0.35046995 </v>
    <v>       0.33333400       0.66666700       0.64953005 </v>
   </varray>
  </structure>
  <varray name="forces" >
   <v>      -0.00000000      -0.00000000       0.00000000 </v>
   <v>      -0.00000000      -0.00000000       0.00000000 </v>
   <v>       0.00000000       0.00000000       0.12668343 </v>
   <v>      -0.00000000      -0.00000000      -0.12668343 </v>
   <v>      -0.00000000      -0.00000000       0.12668343 </v>
   <v>       0.00000000       0.00000000      -0.12668343 </v>
  </varray>
  <varray name="stress" >
   <v>       1.97430304       0.00000000       0.00000000 </v>
   <v>       0.00000000       1.97430330       0.00000000 </v>
   <v>      -0.00000000       0.00000000       1.19356651 </v>
  </varray>
  <energy>
   <i name="e_fr_energy">    -44.90617854 </i>
   <i name="e_wo_entrp">    -44.90617854 </i>
   <i name="e_0_energy">     -0.00000000 </i>
  </energy>
  <time name="totalsc">   21.75   21.77</time>
 </calculation>
 <calculation>
  <scstep>
   <time name="dav">    1.41    1.41</time>
   <time name="total">    1.63    1.63</time>
   <energy>
    <i name="alphaZ">     87.52651965 </i>
    <i name="ewald">  -1055.05044807 </i>
    <i name="hartreedc">   -624.27554940 </i>
    <i name="XCdc">    -70.34297012 </i>
    <i name="pawpsdc">    949.01519922 </i>
    <i name="pawaedc">   -797.46583768 </i>
    <i name="eentropy">     -0.00000000 </i>
    <i name="bandstr">    -75.32298796 </i>
    <i name="atom">   1542.31022798 </i>
    <i name="e_fr_energy">    -43.60584637 </i>
    <i name="e_wo_entrp">    -43.60584637 </i>
    <i name="e_0_energy">    -43.60584637 </i>
   </energy>
  </scstep>
  <scstep>
   <time name="dav">    1.42    1.42</time>
   <time name="total">    1.64    1.64</time>
   <energy>
    <i name="e_fr_energy">    -43.61247404 </i>
    <i name="e_wo_entrp">    -43.61247404 </i>
    <i name="e_0_energy">    -43.61247404 </i>
   </energy>
  </scstep>
  <scstep>
   <time name="dav">    1.72    1.72</time>
   <time name="total">    1.94    1.94</time>
   <energy>
    <i name="e_fr_energy">    -43.63099935 </i>
    <i name="e_wo_entrp">    -43.63099935 </i>
    <i name="e_0_energy">    -43.63099935 </i>
   </energy>
  </scstep>
  <scstep>
   <time name="dav">    1.56    1.56</time>
   <time name="total">    1.78    1.78</time>
   <energy>
    <i name="e_fr_energy">    -43.60455664 </i>
    <i name="e_wo_entrp">    -43.60455664 </i>
    <i name="e_0_energy">    -43.60455664 </i>
   </energy>
  </scstep>
  <scstep>
   <time name="dav">    1.65    1.65</time>
   <time name="total">    1.87    1.87</time>
   <energy>
    <i name="e_fr_energy">    -43.60323261 </i>
    <i name="e_wo_entrp">    -43.60323261 </i>
    <i name="e_0_energy">    -43.60323261 </i>
   </energy>
  </scstep>
  <scstep>
   <time name="dav">    1.75    1.75</time>
   <time name="total">    1.97    1.98</time>
   <energy>
    <i name="e_fr_energy">    -43.60319535 </i>
    <i name="e_wo_entrp">    -43.60319535 </i>
    <i name="e_0_energy">    -43.60319535 </i>
   </energy>
  </scstep>
  <scstep>
   <time name="dav">    1.52    1.52</time>
   <time name="total">    1.73    1.73</time>
   <energy>
    <i name="e_fr_energy">    -43.60317282 </i>
    <i name="e_wo_entrp">    -43.60317282 </i>
    <i name="e_0_energy">    -43.60317282 </i>
   </energy>
  </scstep>
  <scstep>
   <time name="dav">    1.57    1.57</time>
   <time name="total">    1.79    1.79</time>
   <energy>
    <i name="e_fr_energy">    -43.60316307 </i>
    <i name="e_wo_entrp">    -43.60316307 </i>
    <i name="e_0_energy">    -43.60316307 </i>
   </energy>
  </scstep>
  <scstep>
   <time name="dav">    1.34    1.34</time>
   <time name="total">    1.56    1.56</time>
   <energy>
    <i name="e_fr_energy">    -43.60316200 </i>
    <i name="e_wo_entrp">    -43.60316200 </i>
    <i name="e_0_energy">    -43.60316200 </i>
   </energy>
  </scstep>
  <scstep>
   <time name="dav">    1.64    1.64</time>
   <time name="total">    1.73    1.73</time>
   <energy>
    <i name="alphaZ">     87.52651965 </i>
    <i name="ewald">  -1055.05044807 </i>
    <i name="hartreedc">   -621.20710725 </i>
    <i name="XCdc">    -70.37310753 </i>
    <i name="pawpsdc">    945.49591512 </i>
    <i name="pawaedc">   -793.89502633 </i>
    <i name="eentropy">     -0.00000000 </i>
    <i name="bandstr">    -78.41013604 </i>
    <i name="atom">   1542.31022798 </i>
    <i name="e_fr_energy">    -43.60316247 </i>
    <i name="e_wo_entrp">    -43.60316247 </i>
    <i name="e_0_energy">    -43.60316247 </i>
   </energy>
  </scstep>
  <structure>
   <crystal>
    <varray name="basis" >
     <v>       3.19174545      -0.00000000      -0.00000000 </v>
     <v>      -1.59587273       2.76413283       0.00000000 </v>
     <v>      -0.00000000      -0.00000000      15.35809176 </v>
    </varray>
    <i name="volume">    135.49535770 </i>
    <varray name="rec_basis" >
     <v>       0.31330819       0.18088856       0.00000000 </v>
     <v>       0.00000000       0.36177711       0.00000000 </v>
     <v>       0.00000000      -0.00000000       0.06511226 </v>
    </varray>
   </crystal>
   <varray name="positions" >
    <v>       0.33333300       0.66666700       0.25000000 </v>
    <v>       0.66666700       0.33333300       0.75000000 </v>
    <v>       0.33333300       0.66666700       0.85160408 </v>
    <v>       0.66666700       0.33333300       0.14839592 </v>
    <v>       0.66666600       0.33333300       0.35160408 </v>
    <v>       0.33333400       0.66666700       0.64839592 </v>
   </varray>
  </structure>
  <varray name="forces" >
   <v>      -0.00000000       0.00000000       0.00000000 </v>
   <v>      -0.00000000      -0.00000000       0.00000000 </v>
   <v>       0.00000000      -0.00000000      -0.01690955 </v>
   <v>      -0.00000000       0.00000000       0.01690955 </v>
   <v>      -0.00000000       0.00000000      -0.01690955 </v>
   <v>       0.00000000       0.00000000       0.01690955 </v>
  </varray>
  <varray name="stress" >
   <v>      -3.80025292       0.00000000      -0.00000000 </v>
   <v>       0.00000000      -3.80025343      -0.00000000 </v>
   <v>      -0.00000000       0.00000000      -9.65227630 </v>
  </varray>
  <energy>
   <i name="e_fr_energy">    -44.91241948 </i>
   <i name="e_wo_entrp">    -44.91241948 </i>
   <i name="e_0_energy">     -0.00000000 </i>
  </energy>
  <time name="totalsc">   18.77   18.79</time>
 </calculation>
 <calculation>
  <scstep>
   <time name="dav">    1.39    1.39</time>
   <time name="total">    1.60    1.60</time>
   <energy>
    <i name="alphaZ">     87.00144592 </i>
    <i name="ewald">  -1037.13167399 </i>
    <i name="hartreedc">   -633.78978735 </i>
    <i name="XCdc">    -70.40633309 </i>
    <i name="pawpsdc">    945.51043651 </i>
    <i name="pawaedc">   -793.90930273 </i>
    <i name="eentropy">     -0.00000000 </i>
    <i name="bandstr">    -83.19278203 </i>
    <i name="atom">   1542.31022798 </i>
    <i name="e_fr_energy">    -43.60776879 </i>
    <i name="e_wo_entrp">    -43.60776879 </i>
    <i name="e_0_energy">    -43.60776879 </i>
   </energy>
  </scstep>
  <scstep>
   <time name="dav">    1.43    1.43</time>
   <time name="total">    1.66    1.66</time>
   <energy>
    <i name="e_fr_energy">    -43.60339143 </i>
    <i name="e_wo_entrp">    -43.60339143 </i>
    <i name="e_0_energy">    -43.60339143 </i>
   </energy>
  </scstep>
  <scstep>
   <time name="dav">    1.62    1.63</time>
   <time name="total">    1.84    1.85</time>
   <energy>
    <i name="e_fr_energy">    -43.60283677 </i>
    <i name="e_wo_entrp">    -43.60283677 </i>
    <i name="e_0_energy">    -43.60283677 </i>
   </energy>
  </scstep>
  <scstep>
   <time name="dav">    1.26    1.26</time>
   <time name="total">    1.47    1.47</time>
   <energy>
    <i name="e_fr_energy">    -43.60265591 </i>
    <i name="e_wo_entrp">    -43.60265591 </i>
    <i name="e_0_energy">    -43.60265591 </i>
   </energy>
  </scstep>
  <scstep>
   <time name="dav">    1.12    1.12</time>
   <time name="total">    1.31    1.31</time>
   <energy>
    <i name="e_fr_energy">    -43.60266393 </i>
    <i name="e_wo_entrp">    -43.60266393 </i>
    <i name="e_0_energy">    -43.60266393 </i>
   </energy>
  </scstep>
  <scstep>
   <time name="dav">    1.09    1.09</time>
   <time name="total">    1.28    1.29</time>
   <energy>
    <i name="e_fr_energy">    -43.60266181 </i>
    <i name="e_wo_entrp">    -43.60266181 </i>
    <i name="e_0_energy">    -43.60266181 </i>
   </energy>
  </scstep>
  <scstep>
   <time name="dav">    0.93    0.93</time>
   <time name="total">    1.00    1.00</time>
   <energy>
    <i name="alphaZ">     87.00144592 </i>
    <i name="ewald">  -1037.13167399 </i>
    <i name="hartreedc">   -636.64325958 </i>
    <i name="XCdc">    -70.36909796 </i>
    <i name="pawpsdc">    945.73223905 </i>
    <i name="pawaedc">   -794.13496165 </i>
    <i name="eentropy">     -0.00000000 </i>
    <i name="bandstr">    -80.36758136 </i>
    <i name="atom">   1542.31022798 </i>
    <i name="e_fr_energy">    -43.60266159 </i>
    <i name="e_wo_entrp">    -43.60266159 </i>
    <i name="e_0_energy">    -43.60266159 </i>
   </energy>
  </scstep>
  <structure>
   <crystal>
    <varray name="basis" >
     <v>       3.19176879      -0.00000000      -0.00000000 </v>
     <v>      -1.59588439       2.76415304       0.00000000 </v>
     <v>      -0.00000000      -0.00000000      15.45055547 </v>
    </varray>
    <i name="volume">    136.31310334 </i>
    <varray name="rec_basis" >
     <v>       0.31330590       0.18088723       0.00000000 </v>
     <v>       0.00000000       0.36177447       0.00000000 </v>
     <v>       0.00000000      -0.00000000       0.06472259 </v>
    </varray>
   </crystal>
   <varray name="positions" >
    <v>       0.33333300       0.66666700       0.25000000 </v>
    <v>       0.66666700       0.33333300       0.75000000 </v>
    <v>       0.33333300       0.66666700       0.85095189 </v>
    <v>       0.66666700       0.33333300       0.14904811 </v>
    <v>       0.66666600       0.33333300       0.35095189 </v>
    <v>       0.33333400       0.66666700       0.64904811 </v>
   </varray>
  </structure>
  <varray name="forces" >
   <v>       0.00000000       0.00000000       0.00000000 </v>
   <v>      -0.00000000       0.00000000       0.00000000 </v>
   <v>      -0.00000000       0.00000000      -0.00458919 </v>
   <v>       0.00000000      -0.00000000       0.00458919 </v>
   <v>       0.00000000      -0.00000000      -0.00458919 </v>
   <v>      -0.00000000       0.00000000       0.00458919 </v>
  </varray>
  <varray name="stress" >
   <v>      -3.35297725      -0.00000000      -0.00000000 </v>
   <v>       0.00000000      -3.35297770       0.00000000 </v>
   <v>      -0.00000000      -0.00000000      -8.53503840 </v>
  </varray>
  <energy>
   <i name="e_fr_energy">    -44.90816763 </i>
   <i name="e_wo_entrp">    -44.90816763 </i>
   <i name="e_0_energy">     -0.00000000 </i>
  </energy>
  <time name="totalsc">   11.18   11.20</time>
 </calculation>
 <calculation>
  <scstep>
   <time name="dav">    0.99    0.99</time>
   <time name="total">    1.18    1.18</time>
   <energy>
    <i name="alphaZ">     82.79840639 </i>
    <i name="ewald">   -882.42899949 </i>
    <i name="hartreedc">   -746.57684797 </i>
    <i name="XCdc">    -70.65890090 </i>
    <i name="pawpsdc">    945.80671783 </i>
    <i name="pawaedc">   -794.20918326 </i>
    <i name="eentropy">     -0.00000009 </i>
    <i name="bandstr">   -120.90792653 </i>
    <i name="atom">   1542.31022798 </i>
    <i name="e_fr_energy">    -43.86650603 </i>
    <i name="e_wo_entrp">    -43.86650594 </i>
    <i name="e_0_energy">    -43.86650599 </i>
   </energy>
  </scstep>
  <scstep>
   <time name="dav">    1.03    1.03</time>
   <time name="total">    1.21    1.22</time>
   <energy>
    <i name="e_fr_energy">    -44.11268287 </i>
    <i name="e_wo_entrp">    -44.11268285 </i>
    <i name="e_0_energy">    -44.11268286 </i>
   </energy>
  </scstep>
  <scstep>
   <time name="dav">    1.33    1.33</time>
   <time name="total">    1.51    1.51</time>
   <energy>
    <i name="e_fr_energy">    -44.22980269 </i>
    <i name="e_wo_entrp">    -44.22980266 </i>
    <i name="e_0_energy">    -44.22980267 </i>
   </energy>
  </scstep>
  <scstep>
   <time name="dav">    1.21    1.21</time>
   <time name="total">    1.40    1.40</time>
   <energy>
    <i name="e_fr_energy">    -50.03784398 </i>
    <i name="e_wo_entrp">    -50.03784397 </i>
    <i name="e_0_energy">    -50.03784398 </i>
   </energy>
  </scstep>
  <scstep>
   <time name="dav">    1.13    1.13</time>
   <time name="total">    1.32    1.33</time>
   <energy>
    <i name="e_fr_energy">    -43.83152536 </i>
    <i name="e_wo_entrp">    -43.83152536 </i>
    <i name="e_0_energy">    -43.83152536 </i>
   </energy>
  </scstep>
  <scstep>
   <time name="dav">    1.27    1.27</time>
   <time name="total">    1.46    1.46</time>
   <energy>
    <i name="e_fr_energy">    -43.61964250 </i>
    <i name="e_wo_entrp">    -43.61964250 </i>
    <i name="e_0_energy">    -43.61964250 </i>
   </energy>
  </scstep>
  <scstep>
   <time name="dav">    1.06    1.06</time>
   <time name="total">    1.25    1.25</time>
   <energy>
    <i name="e_fr_energy">    -43.63068592 </i>
    <i name="e_wo_entrp">    -43.63068591 </i>
    <i name="e_0_energy">    -43.63068592 </i>
   </energy>
  </scstep>
  <scstep>
   <time name="dav">    1.19    1.19</time>
   <time name="total">    1.38    1.38</time>
   <energy>
    <i name="e_fr_energy">    -43.61011506 </i>
    <i name="e_wo_entrp">    -43.61011506 </i>
    <i name="e_0_energy">    -43.61011506 </i>
   </energy>
  </scstep>
  <scstep>
   <time name="dav">    1.11    1.11</time>
   <time name="total">    1.30    1.30</time>
   <energy>
    <i name="e_fr_energy">    -43.60319903 </i>
    <i name="e_wo_entrp">    -43.60319903 </i>
    <i name="e_0_energy">    -43.60319903 </i>
   </energy>
  </scstep>
  <scstep>
   <time name="dav">    1.20    1.20</time>
   <time name="total">    1.39    1.39</time>
   <energy>
    <i name="e_fr_energy">    -43.59935047 </i>
    <i name="e_wo_entrp">    -43.59935047 </i>
    <i name="e_0_energy">    -43.59935047 </i>
   </energy>
  </scstep>
  <scstep>
   <time name="dav">    1.27    1.27</time>
   <time name="total">    1.46    1.47</time>
   <energy>
    <i name="e_fr_energy">    -43.59877306 </i>
    <i name="e_wo_entrp">    -43.59877306 </i>
    <i name="e_0_energy">    -43.59877306 </i>
   </energy>
  </scstep>
  <scstep>
   <time name="dav">    1.12    1.12</time>
   <time name="total">    1.31    1.31</time>
   <energy>
    <i name="e_fr_energy">    -43.59695497 </i>
    <i name="e_wo_entrp">    -43.59695497 </i>
    <i name="e_0_energy">    -43.59695497 </i>
   </energy>
  </scstep>
  <scstep>
   <time name="dav">    1.27    1.27</time>
   <time name="total">    1.46    1.46</time>
   <energy>
    <i name="e_fr_energy">    -43.59650547 </i>
    <i name="e_wo_entrp">    -43.59650547 </i>
    <i name="e_0_energy">    -43.59650547 </i>
   </energy>
  </scstep>
  <scstep>
   <time name="dav">    1.20    1.20</time>
   <time name="total">    1.39    1.40</time>
   <energy>
    <i name="e_fr_energy">    -43.59653293 </i>
    <i name="e_wo_entrp">    -43.59653293 </i>
    <i name="e_0_energy">    -43.59653293 </i>
   </energy>
  </scstep>
  <scstep>
   <time name="dav">    1.12    1.12</time>
   <time name="total">    1.32    1.32</time>
   <energy>
    <i name="e_fr_energy">    -43.59654130 </i>
    <i name="e_wo_entrp">    -43.59654130 </i>
    <i name="e_0_energy">    -43.59654130 </i>
   </energy>
  </scstep>
  <scstep>
   <time name="dav">    1.19    1.19</time>
   <time name="total">    1.38    1.38</time>
   <energy>
    <i name="e_fr_energy">    -43.59662179 </i>
    <i name="e_wo_entrp">    -43.59662178 </i>
    <i name="e_0_energy">    -43.59662178 </i>
   </energy>
  </scstep>
  <scstep>
   <time name="dav">    1.30    1.30</time>
   <time name="total">    1.49    1.49</time>
   <energy>
    <i name="e_fr_energy">    -43.59709112 </i>
    <i name="e_wo_entrp">    -43.59709112 </i>
    <i name="e_0_energy">    -43.59709112 </i>
   </energy>
  </scstep>
  <scstep>
   <time name="dav">    1.16    1.16</time>
   <time name="total">    1.35    1.36</time>
   <energy>
    <i name="e_fr_energy">    -43.59694273 </i>
    <i name="e_wo_entrp">    -43.59694273 </i>
    <i name="e_0_energy">    -43.59694273 </i>
   </energy>
  </scstep>
  <scstep>
   <time name="dav">    1.27    1.27</time>
   <time name="total">    1.47    1.47</time>
   <energy>
    <i name="e_fr_energy">    -43.59686855 </i>
    <i name="e_wo_entrp">    -43.59686855 </i>
    <i name="e_0_energy">    -43.59686855 </i>
   </energy>
  </scstep>
  <scstep>
   <time name="dav">    1.20    1.20</time>
   <time name="total">    1.40    1.40</time>
   <energy>
    <i name="e_fr_energy">    -43.59647072 </i>
    <i name="e_wo_entrp">    -43.59647072 </i>
    <i name="e_0_energy">    -43.59647072 </i>
   </energy>
  </scstep>
  <scstep>
   <time name="dav">    1.04    1.04</time>
   <time name="total">    1.23    1.23</time>
   <energy>
    <i name="e_fr_energy">    -43.59647656 </i>
    <i name="e_wo_entrp">    -43.59647656 </i>
    <i name="e_0_energy">    -43.59647656 </i>
   </energy>
  </scstep>
  <scstep>
   <time name="dav">    0.70    0.70</time>
   <time name="total">    0.78    0.78</time>
   <energy>
    <i name="alphaZ">     82.79840639 </i>
    <i name="ewald">   -882.42899949 </i>
    <i name="hartreedc">   -771.60173724 </i>
    <i name="XCdc">    -70.33078260 </i>
    <i name="pawpsdc">    947.65863664 </i>
    <i name="pawaedc">   -796.08823475 </i>
    <i name="eentropy">     -0.00000000 </i>
    <i name="bandstr">    -95.91399366 </i>
    <i name="atom">   1542.31022798 </i>
    <i name="e_fr_energy">    -43.59647671 </i>
    <i name="e_wo_entrp">    -43.59647671 </i>
    <i name="e_0_energy">    -43.59647671 </i>
   </energy>
  </scstep>
  <structure>
   <crystal>
    <varray name="basis" >
     <v>       3.19244676      -0.00000000       0.00000000 </v>
     <v>      -1.59622338       2.76474018       0.00000000 </v>
     <v>       0.00000000      -0.00000000      16.22796683 </v>
    </varray>
    <i name="volume">    143.23267325 </i>
    <varray name="rec_basis" >
     <v>       0.31323937       0.18084882       0.00000000 </v>
     <v>       0.00000000       0.36169764       0.00000000 </v>
     <v>      -0.00000000      -0.00000000       0.06162201 </v>
    </varray>
   </crystal>
   <varray name="positions" >
    <v>       0.33333300       0.66666700       0.25000000 </v>
    <v>       0.66666700       0.33333300       0.75000000 </v>
    <v>       0.33333300       0.66666700       0.84577327 </v>
    <v>       0.66666700       0.33333300       0.15422673 </v>
    <v>       0.66666600       0.33333300       0.34577327 </v>
    <v>       0.33333400       0.66666700       0.65422673 </v>
   </varray>
  </structure>
  <varray name="forces" >
   <v>       0.00000000      -0.00000000       0.00000000 </v>
   <v>      -0.00000000      -0.00000000       0.00000000 </v>
   <v>       0.00000000      -0.00000000       0.08977130 </v>
   <v>      -0.00000000       0.00000000      -0.08977130 </v>
   <v>      -0.00000000       0.00000000       0.08977130 </v>
   <v>       0.00000000       0.00000000      -0.08977130 </v>
  </varray>
  <varray name="stress" >
   <v>      -0.96247178      -0.00000000       0.00000000 </v>
   <v>      -0.00000000      -0.96247191       0.00000000 </v>
   <v>      -0.00000000      -0.00000000      -0.42638973 </v>
  </varray>
  <energy>
   <i name="e_fr_energy">    -44.87591407 </i>
   <i name="e_wo_entrp">    -44.87591407 </i>
   <i name="e_0_energy">     -0.00000000 </i>
  </energy>
  <time name="totalsc">   30.45   30.51</time>
 </calculation>
 <calculation>
  <scstep>
   <time name="dav">    0.99    0.99</time>
   <time name="total">    1.18    1.18</time>
   <energy>
    <i name="alphaZ">     82.69492141 </i>
    <i name="ewald">   -878.96910844 </i>
    <i name="hartreedc">   -773.72856135 </i>
    <i name="XCdc">    -70.35773030 </i>
    <i name="pawpsdc">    947.65300890 </i>
    <i name="pawaedc">   -796.08284719 </i>
    <i name="eentropy">     -0.00000000 </i>
    <i name="bandstr">    -97.11919023 </i>
    <i name="atom">   1542.31022798 </i>
    <i name="e_fr_energy">    -43.59927922 </i>
    <i name="e_wo_entrp">    -43.59927922 </i>
    <i name="e_0_energy">    -43.59927922 </i>
   </energy>
  </scstep>
  <scstep>
   <time name="dav">    1.24    1.24</time>
   <time name="total">    1.44    1.44</time>
   <energy>
    <i name="e_fr_energy">    -43.59988246 </i>
    <i name="e_wo_entrp">    -43.59988246 </i>
    <i name="e_0_energy">    -43.59988246 </i>
   </energy>
  </scstep>
  <scstep>
   <time name="dav">    1.23    1.23</time>
   <time name="total">    1.42    1.42</time>
   <energy>
    <i name="e_fr_energy">    -43.59838427 </i>
    <i name="e_wo_entrp">    -43.59838427 </i>
    <i name="e_0_energy">    -43.59838427 </i>
   </energy>
  </scstep>
  <scstep>
   <time name="dav">    1.21    1.21</time>
   <time name="total">    1.40    1.41</time>
   <energy>
    <i name="e_fr_energy">    -43.59842202 </i>
    <i name="e_wo_entrp">    -43.59842202 </i>
    <i name="e_0_energy">    -43.59842202 </i>
   </energy>
  </scstep>
  <scstep>
   <time name="dav">    1.23    1.23</time>
   <time name="total">    1.42    1.43</time>
   <energy>
    <i name="e_fr_energy">    -43.59831157 </i>
    <i name="e_wo_entrp">    -43.59831157 </i>
    <i name="e_0_energy">    -43.59831157 </i>
   </energy>
  </scstep>
  <scstep>
   <time name="dav">    1.21    1.21</time>
   <time name="total">    1.41    1.41</time>
   <energy>
    <i name="e_fr_energy">    -43.59800478 </i>
    <i name="e_wo_entrp">    -43.59800478 </i>
    <i name="e_0_energy">    -43.59800478 </i>
   </energy>
  </scstep>
  <scstep>
   <time name="dav">    1.04    1.04</time>
   <time name="total">    1.23    1.24</time>
   <energy>
    <i name="e_fr_energy">    -43.59800430 </i>
    <i name="e_wo_entrp">    -43.59800430 </i>
    <i name="e_0_energy">    -43.59800430 </i>
   </energy>
  </scstep>
  <scstep>
   <time name="dav">    1.22    1.22</time>
   <time name="total">    1.41    1.41</time>
   <energy>
    <i name="e_fr_energy">    -43.59799345 </i>
    <i name="e_wo_entrp">    -43.59799345 </i>
    <i name="e_0_energy">    -43.59799345 </i>
   </energy>
  </scstep>
  <scstep>
   <time name="dav">    1.09    1.09</time>
   <time name="total">    1.29    1.29</time>
   <energy>
    <i name="e_fr_energy">    -43.59798804 </i>
    <i name="e_wo_entrp">    -43.59798804 </i>
    <i name="e_0_energy">    -43.59798804 </i>
   </energy>
  </scstep>
  <scstep>
   <time name="dav">    1.09    1.09</time>
   <time name="total">    1.29    1.29</time>
   <energy>
    <i name="e_fr_energy">    -43.59798623 </i>
    <i name="e_wo_entrp">    -43.59798623 </i>
    <i name="e_0_energy">    -43.59798623 </i>
   </energy>
  </scstep>
  <scstep>
   <time name="dav">    0.71    0.71</time>
   <time name="total">    0.78    0.79</time>
   <energy>
    <i name="alphaZ">     82.69492141 </i>
    <i name="ewald">   -878.96910844 </i>
    <i name="hartreedc">   -774.79917715 </i>
    <i name="XCdc">    -70.34766578 </i>
    <i name="pawpsdc">    946.75233922 </i>
    <i name="pawaedc">   -795.16915505 </i>
    <i name="eentropy">     -0.00000000 </i>
    <i name="bandstr">    -96.07036809 </i>
    <i name="atom">   1542.31022798 </i>
    <i name="e_fr_energy">    -43.59798591 </i>
    <i name="e_wo_entrp">    -43.59798591 </i>
    <i name="e_0_energy">    -43.59798591 </i>
   </energy>
  </scstep>
  <structure>
   <crystal>
    <varray name="basis" >
     <v>       3.19053833      -0.00000000       0.00000000 </v>
     <v>      -1.59526917       2.76308743       0.00000000 </v>
     <v>       0.00000000      -0.00000000      16.26771827 </v>
    </varray>
    <i name="volume">    143.41191558 </i>
    <varray name="rec_basis" >
     <v>       0.31342673       0.18095700       0.00000000 </v>
     <v>       0.00000000       0.36191399       0.00000000 </v>
     <v>      -0.00000000      -0.00000000       0.06147144 </v>
    </varray>
   </crystal>
   <varray name="positions" >
    <v>       0.33333300       0.66666700       0.25000000 </v>
    <v>       0.66666700       0.33333300       0.75000000 </v>
    <v>       0.33333300       0.66666700       0.84578623 </v>
    <v>       0.66666700       0.33333300       0.15421377 </v>
    <v>       0.66666600       0.33333300       0.34578623 </v>
    <v>       0.33333400       0.66666700       0.65421377 </v>
   </varray>
  </structure>
  <varray name="forces" >
   <v>       0.00000000      -0.00000000       0.00000000 </v>
   <v>       0.00000000      -0.00000000       0.00000000 </v>
   <v>      -0.00000000       0.00000000       0.02559421 </v>
   <v>       0.00000000      -0.00000000      -0.02559421 </v>
   <v>      -0.00000000       0.00000000       0.02559421 </v>
   <v>      -0.00000000      -0.00000000      -0.02559421 </v>
  </varray>
  <varray name="stress" >
   <v>      -1.31460240       0.00000000      -0.00000000 </v>
   <v>       0.00000000      -1.31460257      -0.00000000 </v>
   <v>       0.00000000      -0.00000000      -4.72699142 </v>
  </varray>
  <energy>
   <i name="e_fr_energy">    -44.87553725 </i>
   <i name="e_wo_entrp">    -44.87553725 </i>
   <i name="e_0_energy">     -0.00000000 </i>
  </energy>
  <time name="totalsc">   15.28   15.32</time>
 </calculation>
 <calculation>
  <scstep>
   <time name="dav">    1.00    1.00</time>
   <time name="total">    1.19    1.20</time>
   <energy>
    <i name="alphaZ">     82.92245662 </i>
    <i name="ewald">   -887.71094768 </i>
    <i name="hartreedc">   -768.51557881 </i>
    <i name="XCdc">    -70.33101736 </i>
    <i name="pawpsdc">    946.75594279 </i>
    <i name="pawaedc">   -795.17274774 </i>
    <i name="eentropy">     -0.00000000 </i>
    <i name="bandstr">    -93.85778909 </i>
    <i name="atom">   1542.31022798 </i>
    <i name="e_fr_energy">    -43.59945328 </i>
    <i name="e_wo_entrp">    -43.59945327 </i>
    <i name="e_0_energy">    -43.59945328 </i>
   </energy>
  </scstep>
  <scstep>
   <time name="dav">    1.01    1.01</time>
   <time name="total">    1.21    1.21</time>
   <energy>
    <i name="e_fr_energy">    -43.59895021 </i>
    <i name="e_wo_entrp">    -43.59895021 </i>
    <i name="e_0_energy">    -43.59895021 </i>
   </energy>
  </scstep>
  <scstep>
   <time name="dav">    1.18    1.18</time>
   <time name="total">    1.37    1.38</time>
   <energy>
    <i name="e_fr_energy">    -43.59837419 </i>
    <i name="e_wo_entrp">    -43.59837419 </i>
    <i name="e_0_energy">    -43.59837419 </i>
   </energy>
  </scstep>
  <scstep>
   <time name="dav">    1.03    1.03</time>
   <time name="total">    1.23    1.23</time>
   <energy>
    <i name="e_fr_energy">    -43.59832786 </i>
    <i name="e_wo_entrp">    -43.59832786 </i>
    <i name="e_0_energy">    -43.59832786 </i>
   </energy>
  </scstep>
  <scstep>
   <time name="dav">    1.18    1.18</time>
   <time name="total">    1.37    1.38</time>
   <energy>
    <i name="e_fr_energy">    -43.59832780 </i>
    <i name="e_wo_entrp">    -43.59832780 </i>
    <i name="e_0_energy">    -43.59832780 </i>
   </energy>
  </scstep>
  <scstep>
   <time name="dav">    0.78    0.78</time>
   <time name="total">    0.98    0.98</time>
   <energy>
    <i name="e_fr_energy">    -43.59832671 </i>
    <i name="e_wo_entrp">    -43.59832671 </i>
    <i name="e_0_energy">    -43.59832671 </i>
   </energy>
  </scstep>
  <scstep>
   <time name="dav">    0.89    0.89</time>
   <time name="total">    0.96    0.96</time>
   <energy>
    <i name="alphaZ">     82.92245662 </i>
    <i name="ewald">   -887.71094768 </i>
    <i name="hartreedc">   -767.11321396 </i>
    <i name="XCdc">    -70.34819386 </i>
    <i name="pawpsdc">    946.69992728 </i>
    <i name="pawaedc">   -795.11628619 </i>
    <i name="eentropy">     -0.00000000 </i>
    <i name="bandstr">    -95.24229649 </i>
    <i name="atom">   1542.31022798 </i>
    <i name="e_fr_energy">    -43.59832629 </i>
    <i name="e_wo_entrp">    -43.59832629 </i>
    <i name="e_0_energy">    -43.59832629 </i>
   </energy>
  </scstep>
  <structure>
   <crystal>
    <varray name="basis" >
     <v>       3.19046123      -0.00000000       0.00000000 </v>
     <v>      -1.59523062       2.76302066       0.00000000 </v>
     <v>       0.00000000      -0.00000000      16.22386455 </v>
    </varray>
    <i name="volume">    143.01840023 </i>
    <varray name="rec_basis" >
     <v>       0.31343431       0.18096137       0.00000000 </v>
     <v>       0.00000000       0.36192274       0.00000000 </v>
     <v>      -0.00000000      -0.00000000       0.06163760 </v>
    </varray>
   </crystal>
   <varray name="positions" >
    <v>       0.33333300       0.66666700       0.25000000 </v>
    <v>       0.66666700       0.33333300       0.75000000 </v>
    <v>       0.33333300       0.66666700       0.84605475 </v>
    <v>       0.66666700       0.33333300       0.15394525 </v>
    <v>       0.66666600       0.33333300       0.34605475 </v>
    <v>       0.33333400       0.66666700       0.65394525 </v>
   </varray>
  </structure>
  <varray name="forces" >
   <v>       0.00000000      -0.00000000       0.00000000 </v>
   <v>       0.00000000      -0.00000000       0.00000000 </v>
   <v>      -0.00000000      -0.00000000       0.02293816 </v>
   <v>       0.00000000       0.00000000      -0.02293816 </v>
   <v>       0.00000000       0.00000000       0.02293816 </v>
   <v>      -0.00000000       0.00000000      -0.02293816 </v>
  </varray>
  <varray name="stress" >
   <v>      -1.31838702       0.00000000       0.00000000 </v>
   <v>       0.00000000      -1.31838719       0.00000000 </v>
   <v>       0.00000000      -0.00000000      -4.90878750 </v>
  </varray>
  <energy>
   <i name="e_fr_energy">    -44.87712402 </i>
   <i name="e_wo_entrp">    -44.87712402 </i>
   <i name="e_0_energy">     -0.00000000 </i>
  </energy>
  <time name="totalsc">    9.31    9.37</time>
 </calculation>
 <calculation>
  <scstep>
   <time name="dav">    0.99    0.99</time>
   <time name="total">    1.18    1.18</time>
   <energy>
    <i name="alphaZ">     76.57162564 </i>
    <i name="ewald">   -601.50656557 </i>
    <i name="hartreedc">   -977.99073249 </i>
    <i name="XCdc">    -70.78734062 </i>
    <i name="pawpsdc">    946.71260604 </i>
    <i name="pawaedc">   -795.12900975 </i>
    <i name="eentropy">     -0.00000135 </i>
    <i name="bandstr">   -164.32051658 </i>
    <i name="atom">   1542.31022798 </i>
    <i name="e_fr_energy">    -44.13970669 </i>
    <i name="e_wo_entrp">    -44.13970535 </i>
    <i name="e_0_energy">    -44.13970602 </i>
   </energy>
  </scstep>
  <scstep>
   <time name="dav">    1.05    1.05</time>
   <time name="total">    1.24    1.24</time>
   <energy>
    <i name="e_fr_energy">    -43.77192500 </i>
    <i name="e_wo_entrp">    -43.77192500 </i>
    <i name="e_0_energy">    -43.77192500 </i>
   </energy>
  </scstep>
  <scstep>
   <time name="dav">    1.03    1.03</time>
   <time name="total">    1.23    1.23</time>
   <energy>
    <i name="e_fr_energy">    -43.59928601 </i>
    <i name="e_wo_entrp">    -43.59928601 </i>
    <i name="e_0_energy">    -43.59928601 </i>
   </energy>
  </scstep>
  <scstep>
   <time name="dav">    1.21    1.21</time>
   <time name="total">    1.40    1.41</time>
   <energy>
    <i name="e_fr_energy">    -43.58951215 </i>
    <i name="e_wo_entrp">    -43.58951215 </i>
    <i name="e_0_energy">    -43.58951215 </i>
   </energy>
  </scstep>
  <scstep>
   <time name="dav">    1.10    1.10</time>
   <time name="total">    1.30    1.30</time>
   <energy>
    <i name="e_fr_energy">    -43.58637222 </i>
    <i name="e_wo_entrp">    -43.58637222 </i>
    <i name="e_0_energy">    -43.58637222 </i>
   </energy>
  </scstep>
  <scstep>
   <time name="dav">    1.16    1.16</time>
   <time name="total">    1.35    1.35</time>
   <energy>
    <i name="e_fr_energy">    -43.58364382 </i>
    <i name="e_wo_entrp">    -43.58364382 </i>
    <i name="e_0_energy">    -43.58364382 </i>
   </energy>
  </scstep>
  <scstep>
   <time name="dav">    1.17    1.17</time>
   <time name="total">    1.36    1.37</time>
   <energy>
    <i name="e_fr_energy">    -43.58106344 </i>
    <i name="e_wo_entrp">    -43.58106344 </i>
    <i name="e_0_energy">    -43.58106344 </i>
   </energy>
  </scstep>
  <scstep>
   <time name="dav">    1.20    1.20</time>
   <time name="total">    1.39    1.40</time>
   <energy>
    <i name="e_fr_energy">    -43.58072016 </i>
    <i name="e_wo_entrp">    -43.58072016 </i>
    <i name="e_0_energy">    -43.58072016 </i>
   </energy>
  </scstep>
  <scstep>
   <time name="dav">    1.30    1.30</time>
   <time name="total">    1.49    1.49</time>
   <energy>
    <i name="e_fr_energy">    -43.58065642 </i>
    <i name="e_wo_entrp">    -43.58065642 </i>
    <i name="e_0_energy">    -43.58065642 </i>
   </energy>
  </scstep>
  <scstep>
   <time name="dav">    1.21    1.21</time>
   <time name="total">    1.40    1.41</time>
   <energy>
    <i name="e_fr_energy">    -43.58059928 </i>
    <i name="e_wo_entrp">    -43.58059928 </i>
    <i name="e_0_energy">    -43.58059928 </i>
   </energy>
  </scstep>
  <scstep>
   <time name="dav">    1.18    1.18</time>
   <time name="total">    1.37    1.37</time>
   <energy>
[...]
   <v>      -0.00000000      -0.00000000      -0.01848582 </v>
  </varray>
  <varray name="stress" >
   <v>      -4.26542628      -0.00000000       0.00000000 </v>
   <v>      -0.00000000      -4.26542685       0.00000000 </v>
   <v>       0.00000000      -0.00000000     -12.74270460 </v>
  </varray>
  <energy>
   <i name="e_fr_energy">    -45.01578027 </i>
   <i name="e_wo_entrp">    -45.01578026 </i>
   <i name="e_0_energy">     -0.00000002 </i>
  </energy>
  <time name="totalsc">   12.34   12.41</time>
 </calculation>
 <calculation>
  <scstep>
   <time name="dav">    0.99    0.99</time>
   <time name="total">    1.19    1.19</time>
   <energy>
    <i name="alphaZ">     96.22922215 </i>
    <i name="ewald">  -1306.20684182 </i>
    <i name="hartreedc">   -403.59394354 </i>
    <i name="XCdc">    -70.50019142 </i>
    <i name="pawpsdc">    946.01162008 </i>
    <i name="pawaedc">   -794.41549116 </i>
    <i name="eentropy">     -0.00000006 </i>
    <i name="bandstr">    -53.48313652 </i>
    <i name="atom">   1542.31022798 </i>
    <i name="e_fr_energy">    -43.64853430 </i>
    <i name="e_wo_entrp">    -43.64853424 </i>
    <i name="e_0_energy">    -43.64853427 </i>
   </energy>
  </scstep>
  <scstep>
   <time name="dav">    1.20    1.20</time>
   <time name="total">    1.40    1.40</time>
   <energy>
    <i name="e_fr_energy">    -43.67861302 </i>
    <i name="e_wo_entrp">    -43.67861301 </i>
    <i name="e_0_energy">    -43.67861302 </i>
   </energy>
  </scstep>
  <scstep>
   <time name="dav">    1.20    1.20</time>
   <time name="total">    1.40    1.40</time>
   <energy>
    <i name="e_fr_energy">    -43.60259276 </i>
    <i name="e_wo_entrp">    -43.60259274 </i>
    <i name="e_0_energy">    -43.60259275 </i>
   </energy>
  </scstep>
  <scstep>
   <time name="dav">    1.10    1.10</time>
   <time name="total">    1.30    1.30</time>
   <energy>
    <i name="e_fr_energy">    -43.60445405 </i>
    <i name="e_wo_entrp">    -43.60445404 </i>
    <i name="e_0_energy">    -43.60445404 </i>
   </energy>
  </scstep>
  <scstep>
   <time name="dav">    1.12    1.12</time>
   <time name="total">    1.32    1.32</time>
   <energy>
    <i name="e_fr_energy">    -43.60344241 </i>
    <i name="e_wo_entrp">    -43.60344240 </i>
    <i name="e_0_energy">    -43.60344241 </i>
   </energy>
  </scstep>
  <scstep>
   <time name="dav">    1.13    1.13</time>
   <time name="total">    1.33    1.33</time>
   <energy>
    <i name="e_fr_energy">    -43.60355112 </i>
    <i name="e_wo_entrp">    -43.60355111 </i>
    <i name="e_0_energy">    -43.60355112 </i>
   </energy>
  </scstep>
  <scstep>
   <time name="dav">    1.27    1.27</time>
   <time name="total">    1.48    1.48</time>
   <energy>
    <i name="e_fr_energy">    -43.60348304 </i>
    <i name="e_wo_entrp">    -43.60348303 </i>
    <i name="e_0_energy">    -43.60348303 </i>
   </energy>
  </scstep>
  <scstep>
   <time name="dav">    1.07    1.07</time>
   <time name="total">    1.27    1.28</time>
   <energy>
    <i name="e_fr_energy">    -43.60345699 </i>
    <i name="e_wo_entrp">    -43.60345698 </i>
    <i name="e_0_energy">    -43.60345699 </i>
   </energy>
  </scstep>
  <scstep>
   <time name="dav">    1.04    1.04</time>
   <time name="total">    1.24    1.24</time>
   <energy>
    <i name="e_fr_energy">    -43.60319904 </i>
    <i name="e_wo_entrp">    -43.60319903 </i>
    <i name="e_0_energy">    -43.60319904 </i>
   </energy>
  </scstep>
  <scstep>
   <time name="dav">    1.18    1.18</time>
   <time name="total">    1.38    1.38</time>
   <energy>
    <i name="e_fr_energy">    -43.60322475 </i>
    <i name="e_wo_entrp">    -43.60322474 </i>
    <i name="e_0_energy">    -43.60322474 </i>
   </energy>
  </scstep>
  <scstep>
   <time name="dav">    1.24    1.24</time>
   <time name="total">    1.44    1.44</time>
   <energy>
    <i name="e_fr_energy">    -43.60323862 </i>
    <i name="e_wo_entrp">    -43.60323861 </i>
    <i name="e_0_energy">    -43.60323862 </i>
   </energy>
  </scstep>
  <scstep>
   <time name="dav">    0.83    0.83</time>
   <time name="total">    1.03    1.03</time>
   <energy>
    <i name="e_fr_energy">    -43.60323316 </i>
    <i name="e_wo_entrp">    -43.60323315 </i>
    <i name="e_0_energy">    -43.60323316 </i>
   </energy>
  </scstep>
  <scstep>
   <time name="dav">    0.79    0.79</time>
   <time name="total">    0.99    0.99</time>
   <energy>
    <i name="e_fr_energy">    -43.60322882 </i>
    <i name="e_wo_entrp">    -43.60322880 </i>
    <i name="e_0_energy">    -43.60322881 </i>
   </energy>
  </scstep>
  <scstep>
   <time name="dav">    0.73    0.73</time>
   <time name="total">    0.80    0.80</time>
   <energy>
    <i name="alphaZ">     96.22922215 </i>
    <i name="ewald">  -1306.20684182 </i>
    <i name="hartreedc">   -410.37616406 </i>
    <i name="XCdc">    -70.38712434 </i>
    <i name="pawpsdc">    943.99784530 </i>
    <i name="pawaedc">   -792.37026397 </i>
    <i name="eentropy">     -0.00000001 </i>
    <i name="bandstr">    -46.80012926 </i>
    <i name="atom">   1542.31022798 </i>
    <i name="e_fr_energy">    -43.60322804 </i>
    <i name="e_wo_entrp">    -43.60322803 </i>
    <i name="e_0_energy">    -43.60322803 </i>
   </energy>
  </scstep>
  <structure>
   <crystal>
    <varray name="basis" >
     <v>       3.19546145       0.00000000       0.00000000 </v>
     <v>      -1.59773072       2.76735097      -0.00000000 </v>
     <v>      -0.00000000       0.00000000      13.93667831 </v>
    </varray>
    <i name="volume">    123.24153540 </i>
    <varray name="rec_basis" >
     <v>       0.31294385       0.18067820      -0.00000000 </v>
     <v>      -0.00000000       0.36135641      -0.00000000 </v>
     <v>      -0.00000000       0.00000000       0.07175311 </v>
    </varray>
   </crystal>
   <varray name="positions" >
    <v>       0.33333300       0.66666700       0.25000000 </v>
    <v>       0.66666700       0.33333300       0.75000000 </v>
    <v>       0.33333300       0.66666700       0.86206203 </v>
    <v>       0.66666700       0.33333300       0.13793797 </v>
    <v>       0.66666600       0.33333300       0.36206203 </v>
    <v>       0.33333400       0.66666700       0.63793797 </v>
   </varray>
  </structure>
  <varray name="forces" >
   <v>       0.00000000      -0.00000000      -0.00000000 </v>
   <v>      -0.00000000      -0.00000000      -0.00000000 </v>
   <v>      -0.00000000      -0.00000000      -0.04551757 </v>
   <v>      -0.00000000       0.00000000       0.04551757 </v>
   <v>      -0.00000000       0.00000000      -0.04551757 </v>
   <v>       0.00000000      -0.00000000       0.04551757 </v>
  </varray>
  <varray name="stress" >
   <v>      -8.79896671      -0.00000000       0.00000000 </v>
   <v>      -0.00000000      -8.79896789       0.00000000 </v>
   <v>       0.00000000       0.00000000     -18.64060589 </v>
  </varray>
  <energy>
   <i name="e_fr_energy">    -44.99684498 </i>
   <i name="e_wo_entrp">    -44.99684497 </i>
   <i name="e_0_energy">     -0.00000001 </i>
  </energy>
  <time name="totalsc">   18.59   18.63</time>
 </calculation>
 <calculation>
  <scstep>
   <time name="dav">    1.00    1.00</time>
   <time name="total">    1.19    1.19</time>
   <energy>
    <i name="alphaZ">    101.17761570 </i>
    <i name="ewald">  -1410.01026994 </i>
    <i name="hartreedc">   -346.50730599 </i>
    <i name="XCdc">    -70.02433911 </i>
    <i name="pawpsdc">    943.99335982 </i>
    <i name="pawaedc">   -792.36570471 </i>
    <i name="eentropy">     -0.00000008 </i>
    <i name="bandstr">    -12.58415018 </i>
    <i name="atom">   1542.31022798 </i>
    <i name="e_fr_energy">    -44.01056651 </i>
    <i name="e_wo_entrp">    -44.01056643 </i>
    <i name="e_0_energy">    -44.01056647 </i>
   </energy>
  </scstep>
  <scstep>
   <time name="dav">    0.99    0.99</time>
   <time name="total">    1.19    1.20</time>
   <energy>
    <i name="e_fr_energy">    -43.58344841 </i>
    <i name="e_wo_entrp">    -43.58344829 </i>
    <i name="e_0_energy">    -43.58344835 </i>
   </energy>
  </scstep>
  <scstep>
   <time name="dav">    1.20    1.20</time>
   <time name="total">    1.40    1.40</time>
   <energy>
    <i name="e_fr_energy">    -43.60937478 </i>
    <i name="e_wo_entrp">    -43.60937470 </i>
    <i name="e_0_energy">    -43.60937474 </i>
   </energy>
  </scstep>
  <scstep>
   <time name="dav">    1.13    1.13</time>
   <time name="total">    1.34    1.34</time>
   <energy>
    <i name="e_fr_energy">    -43.60436778 </i>
    <i name="e_wo_entrp">    -43.60436769 </i>
    <i name="e_0_energy">    -43.60436773 </i>
   </energy>
  </scstep>
  <scstep>
   <time name="dav">    1.08    1.08</time>
   <time name="total">    1.28    1.29</time>
   <energy>
    <i name="e_fr_energy">    -43.59663570 </i>
    <i name="e_wo_entrp">    -43.59663561 </i>
    <i name="e_0_energy">    -43.59663566 </i>
   </energy>
  </scstep>
  <scstep>
   <time name="dav">    1.08    1.08</time>
   <time name="total">    1.28    1.28</time>
   <energy>
    <i name="e_fr_energy">    -43.59436462 </i>
    <i name="e_wo_entrp">    -43.59436452 </i>
    <i name="e_0_energy">    -43.59436457 </i>
   </energy>
  </scstep>
  <scstep>
   <time name="dav">    1.16    1.16</time>
   <time name="total">    1.36    1.36</time>
   <energy>
    <i name="e_fr_energy">    -43.59455559 </i>
    <i name="e_wo_entrp">    -43.59455548 </i>
    <i name="e_0_energy">    -43.59455553 </i>
   </energy>
  </scstep>
  <scstep>
   <time name="dav">    1.09    1.09</time>
   <time name="total">    1.29    1.29</time>
   <energy>
    <i name="e_fr_energy">    -43.60023072 </i>
    <i name="e_wo_entrp">    -43.60023055 </i>
    <i name="e_0_energy">    -43.60023064 </i>
   </energy>
  </scstep>
  <scstep>
   <time name="dav">    1.08    1.08</time>
   <time name="total">    1.28    1.28</time>
   <energy>
    <i name="e_fr_energy">    -43.59444343 </i>
    <i name="e_wo_entrp">    -43.59444333 </i>
    <i name="e_0_energy">    -43.59444338 </i>
   </energy>
  </scstep>
  <scstep>
   <time name="dav">    1.04    1.04</time>
   <time name="total">    1.25    1.25</time>
   <energy>
    <i name="e_fr_energy">    -43.59451698 </i>
    <i name="e_wo_entrp">    -43.59451688 </i>
    <i name="e_0_energy">    -43.59451693 </i>
   </energy>
  </scstep>
  <scstep>
   <time name="dav">    1.14    1.14</time>
   <time name="total">    1.34    1.34</time>
   <energy>
    <i name="e_fr_energy">    -43.59453725 </i>
    <i name="e_wo_entrp">    -43.59453715 </i>
    <i name="e_0_energy">    -43.59453720 </i>
   </energy>
  </scstep>
  <scstep>
   <time name="dav">    1.06    1.06</time>
   <time name="total">    1.26    1.27</time>
   <energy>
    <i name="e_fr_energy">    -43.59462711 </i>
    <i name="e_wo_entrp">    -43.59462701 </i>
    <i name="e_0_energy">    -43.59462706 </i>
   </energy>
  </scstep>
  <scstep>
   <time name="dav">    1.07    1.07</time>
   <time name="total">    1.27    1.27</time>
   <energy>
    <i name="e_fr_energy">    -43.59452035 </i>
    <i name="e_wo_entrp">    -43.59452025 </i>
    <i name="e_0_energy">    -43.59452030 </i>
   </energy>
  </scstep>
  <scstep>
   <time name="dav">    1.07    1.07</time>
   <time name="total">    1.27    1.27</time>
   <energy>
    <i name="e_fr_energy">    -43.59452614 </i>
    <i name="e_wo_entrp">    -43.59452604 </i>
    <i name="e_0_energy">    -43.59452609 </i>
   </energy>
  </scstep>
  <scstep>
   <time name="dav">    1.06    1.06</time>
   <time name="total">    1.26    1.26</time>
   <energy>
    <i name="e_fr_energy">    -43.59446371 </i>
    <i name="e_wo_entrp">    -43.59446361 </i>
    <i name="e_0_energy">    -43.59446366 </i>
   </energy>
  </scstep>
  <scstep>
   <time name="dav">    1.13    1.13</time>
   <time name="total">    1.33    1.34</time>
   <energy>
    <i name="e_fr_energy">    -43.59442606 </i>
    <i name="e_wo_entrp">    -43.59442595 </i>
    <i name="e_0_energy">    -43.59442601 </i>
   </energy>
  </scstep>
  <scstep>
   <time name="dav">    1.18    1.18</time>
   <time name="total">    1.38    1.38</time>
   <energy>
    <i name="e_fr_energy">    -43.59436712 </i>
    <i name="e_wo_entrp">    -43.59436701 </i>
    <i name="e_0_energy">    -43.59436706 </i>
   </energy>
  </scstep>
  <scstep>
   <time name="dav">    1.12    1.12</time>
   <time name="total">    1.32    1.32</time>
   <energy>
    <i name="e_fr_energy">    -43.59435430 </i>
    <i name="e_wo_entrp">    -43.59435419 </i>
    <i name="e_0_energy">    -43.59435424 </i>
   </energy>
  </scstep>
  <scstep>
   <time name="dav">    1.15    1.16</time>
   <time name="total">    1.36    1.36</time>
   <energy>
    <i name="e_fr_energy">    -43.59434456 </i>
    <i name="e_wo_entrp">    -43.59434446 </i>
    <i name="e_0_energy">    -43.59434451 </i>
   </energy>
  </scstep>
  <scstep>
   <time name="dav">    0.91    0.91</time>
   <time name="total">    0.98    0.99</time>
   <energy>
    <i name="alphaZ">    101.17761570 </i>
    <i name="ewald">  -1410.01026994 </i>
    <i name="hartreedc">   -328.90277779 </i>
    <i name="XCdc">    -70.28676999 </i>
    <i name="pawpsdc">    945.67635271 </i>
    <i name="pawaedc">   -794.07420134 </i>
    <i name="eentropy">     -0.00000010 </i>
    <i name="bandstr">    -29.48452101 </i>
    <i name="atom">   1542.31022798 </i>
    <i name="e_fr_energy">    -43.59434378 </i>
    <i name="e_wo_entrp">    -43.59434368 </i>
    <i name="e_0_energy">    -43.59434373 </i>
   </energy>
  </scstep>
  <structure>
   <crystal>
    <varray name="basis" >
     <v>       3.19227375       0.00000000      -0.00000000 </v>
     <v>      -1.59613687       2.76459035       0.00000000 </v>
     <v>       0.00000000      -0.00000000      13.28154876 </v>
    </varray>
    <i name="volume">    117.21403994 </i>
    <varray name="rec_basis" >
     <v>       0.31325634       0.18085862      -0.00000000 </v>
     <v>      -0.00000000       0.36171724       0.00000000 </v>
     <v>       0.00000000      -0.00000000       0.07529242 </v>
    </varray>
   </crystal>
   <varray name="positions" >
    <v>       0.33333300       0.66666700       0.25000000 </v>
    <v>       0.66666700       0.33333300       0.75000000 </v>
    <v>       0.33333300       0.66666700       0.86743573 </v>
    <v>       0.66666700       0.33333300       0.13256427 </v>
    <v>       0.66666600       0.33333300       0.36743573 </v>
    <v>       0.33333400       0.66666700       0.63256427 </v>
   </varray>
  </structure>
  <varray name="forces" >
   <v>      -0.00000000      -0.00000000       0.00000000 </v>
   <v>       0.00000000      -0.00000000       0.00000000 </v>
   <v>      -0.00000000      -0.00000000       0.01346727 </v>
   <v>       0.00000000       0.00000000      -0.01346727 </v>
   <v>       0.00000000       0.00000000       0.01346727 </v>
   <v>      -0.00000000      -0.00000000      -0.01346727 </v>
  </varray>
  <varray name="stress" >
   <v>      -5.43356918      -0.00000000       0.00000000 </v>
   <v>      -0.00000000      -5.43356991      -0.00000000 </v>
   <v>       0.00000000      -0.00000000     -13.97101298 </v>
  </varray>
  <energy>
   <i name="e_fr_energy">    -45.05020279 </i>
   <i name="e_wo_entrp">    -45.05020274 </i>
   <i name="e_0_energy">     -0.00000010 </i>
  </energy>
  <time name="totalsc">   26.67   26.74</time>
 </calculation>
 <calculation>
  <scstep>
   <time name="dav">    0.99    1.00</time>
   <time name="total">    1.19    1.21</time>
   <energy>
    <i name="alphaZ">    112.80020895 </i>
    <i name="ewald">  -1590.56271464 </i>
    <i name="hartreedc">   -229.96231849 </i>
    <i name="XCdc">    -69.36032163 </i>
    <i name="pawpsdc">    945.64907813 </i>
    <i name="pawaedc">   -794.04708991 </i>
    <i name="eentropy">     -0.00001778 </i>
    <i name="bandstr">     37.68339142 </i>
    <i name="atom">   1542.31022798 </i>
    <i name="e_fr_energy">    -45.48955596 </i>
    <i name="e_wo_entrp">    -45.48953818 </i>
    <i name="e_0_energy">    -45.48954707 </i>
   </energy>
  </scstep>
  <scstep>
   <time name="dav">    1.11    1.11</time>
   <time name="total">    1.31    1.32</time>
   <energy>
    <i name="e_fr_energy">    -47.26448843 </i>
    <i name="e_wo_entrp">    -47.23622429 </i>
    <i name="e_0_energy">    -47.25035636 </i>
   </energy>
  </scstep>
  <scstep>
   <time name="dav">    1.04    1.04</time>
   <time name="total">    1.24    1.25</time>
   <energy>
    <i name="e_fr_energy">    -46.06009039 </i>
    <i name="e_wo_entrp">    -46.04911682 </i>
    <i name="e_0_energy">    -46.05460360 </i>
   </energy>
  </scstep>
  <scstep>
   <time name="dav">    1.06    1.06</time>
   <time name="total">    1.27    1.27</time>
   <energy>
    <i name="e_fr_energy">    -44.65228101 </i>
    <i name="e_wo_entrp">    -44.65208466 </i>
    <i name="e_0_energy">    -44.65218284 </i>
   </energy>
  </scstep>
  <scstep>
   <time name="dav">    1.08    1.08</time>
   <time name="total">    1.28    1.28</time>
   <energy>
    <i name="e_fr_energy">    -44.62695180 </i>
    <i name="e_wo_entrp">    -44.62677926 </i>
    <i name="e_0_energy">    -44.62686553 </i>
   </energy>
  </scstep>
  <scstep>
   <time name="dav">    1.12    1.12</time>
   <time name="total">    1.32    1.33</time>
   <energy>
    <i name="e_fr_energy">    -45.93488564 </i>
    <i name="e_wo_entrp">    -45.93484903 </i>
    <i name="e_0_energy">    -45.93486734 </i>
   </energy>
  </scstep>
  <scstep>
   <time name="dav">    1.06    1.06</time>
   <time name="total">    1.26    1.26</time>
   <energy>
    <i name="e_fr_energy">    -45.54181354 </i>
    <i name="e_wo_entrp">    -45.54177556 </i>
    <i name="e_0_energy">    -45.54179455 </i>
   </energy>
  </scstep>
  <scstep>
   <time name="dav">    1.15    1.15</time>
   <time name="total">    1.36    1.36</time>
   <energy>
    <i name="e_fr_energy">    -46.66683951 </i>
    <i name="e_wo_entrp">    -46.66682263 </i>
    <i name="e_0_energy">    -46.66683107 </i>
   </energy>
  </scstep>
  <scstep>
   <time name="dav">    1.10    1.10</time>
   <time name="total">    1.30    1.30</time>
   <energy>
    <i name="e_fr_energy">    -44.46119913 </i>
    <i name="e_wo_entrp">    -44.46109090 </i>
    <i name="e_0_energy">    -44.46114502 </i>
   </energy>
  </scstep>
  <scstep>
   <time name="dav">    1.15    1.15</time>
   <time name="total">    1.35    1.36</time>
   <energy>
    <i name="e_fr_energy">    -44.56199208 </i>
    <i name="e_wo_entrp">    -44.55937648 </i>
    <i name="e_0_energy">    -44.56068428 </i>
   </energy>
  </scstep>
  <scstep>
   <time name="dav">    1.08    1.08</time>
   <time name="total">    1.29    1.29</time>
   <energy>
    <i name="e_fr_energy">    -44.04529300 </i>
    <i name="e_wo_entrp">    -44.04414434 </i>
    <i name="e_0_energy">    -44.04471867 </i>
   </energy>
  </scstep>
  <scstep>
   <time name="dav">    1.18    1.18</time>
   <time name="total">    1.38    1.38</time>
   <energy>
    <i name="e_fr_energy">    -43.63905905 </i>
    <i name="e_wo_entrp">    -43.63865122 </i>
    <i name="e_0_energy">    -43.63885514 </i>
   </energy>
  </scstep>
  <scstep>
   <time name="dav">    1.11    1.11</time>
   <time name="total">    1.31    1.32</time>
   <energy>
    <i name="e_fr_energy">    -44.33488254 </i>
    <i name="e_wo_entrp">    -44.33486556 </i>
    <i name="e_0_energy">    -44.33487405 </i>
   </energy>
  </scstep>
  <scstep>
   <time name="dav">    1.06    1.06</time>
   <time name="total">    1.26    1.26</time>
   <energy>
    <i name="e_fr_energy">    -43.49439421 </i>
    <i name="e_wo_entrp">    -43.49425970 </i>
    <i name="e_0_energy">    -43.49432696 </i>
   </energy>
  </scstep>
  <scstep>
   <time name="dav">    1.03    1.03</time>
   <time name="total">    1.23    1.24</time>
   <energy>
    <i name="e_fr_energy">    -51.45813800 </i>
    <i name="e_wo_entrp">    -51.43365805 </i>
    <i name="e_0_energy">    -51.44589802 </i>
   </energy>
  </scstep>
  <scstep>
