unknown system                          
           1
     3.194092    0.000000    0.000000
    -1.597046    2.766165    0.000000
     0.000000    0.000000   14.562693
   Mo   S 
   2   4
Direct configuration=     1
   0.33333300  0.66666700  0.25000000
   0.66666700  0.33333300  0.75000000
   0.33333300  0.66666700  0.85716135
   0.66666700  0.33333300  0.14283865
   0.66666600  0.33333300  0.35716135
   0.33333400  0.66666700  0.64283865
unknown system                          
           1
     3.180824   -0.000000   -0.000000
    -1.590412    2.754675    0.000000
     0.000000   -0.000000   14.440273
   Mo   S 
   2   4
Direct configuration=     2
   0.33333300  0.66666700  0.25000000
   0.66666700  0.33333300  0.75000000
   0.33333300  0.66666700  0.85708016
   0.66666700  0.33333300  0.14291984
   0.66666600  0.33333300  0.35708016
   0.33333400  0.66666700  0.64291984
unknown system                          
           1
     3.192797   -0.000000   -0.000000
    -1.596399    2.765044    0.000000
    -0.000000   -0.000000   14.503048
   Mo   S 
   2   4
Direct configuration=     3
   0.33333300  0.66666700  0.25000000
   0.66666700  0.33333300  0.75000000
   0.33333300  0.66666700  0.85760009
   0.66666700  0.33333300  0.14239991
   0.66666600  0.33333300  0.35760009
   0.33333400  0.66666700  0.64239991
unknown system                          
           1
     3.192993   -0.000000   -0.000000
    -1.596496    2.765213    0.000000
    -0.000000   -0.000000   14.471435
   Mo   S 
   2   4
Direct configuration=     4
   0.33333300  0.66666700  0.25000000
   0.66666700  0.33333300  0.75000000
   0.33333300  0.66666700  0.85784681
   0.66666700  0.33333300  0.14215319
   0.66666600  0.33333300  0.35784681
   0.33333400  0.66666700  0.64215319
unknown system                          
           1
     3.188665   -0.000000   -0.000000
    -1.594332    2.761465    0.000000
     0.000000   -0.000000   15.465937
   Mo   S 
   2   4
Direct configuration=     5
   0.33333300  0.66666700  0.25000000
   0.66666700  0.33333300  0.75000000
   0.33333300  0.66666700  0.85046995
   0.66666700  0.33333300  0.14953005
   0.66666600  0.33333300  0.35046995
   0.33333400  0.66666700  0.64953005
unknown system                          
           1
     3.191745   -0.000000   -0.000000
    -1.595873    2.764133    0.000000
    -0.000000   -0.000000   15.358092
   Mo   S 
   2   4
Direct configuration=     6
   0.33333300  0.66666700  0.25000000
   0.66666700  0.33333300  0.75000000
   0.33333300  0.66666700  0.85160408
   0.66666700  0.33333300  0.14839592
   0.66666600  0.33333300  0.35160408
   0.33333400  0.66666700  0.64839592
unknown system                          
           1
     3.191769   -0.000000   -0.000000
    -1.595884    2.764153    0.000000
    -0.000000   -0.000000   15.450555
   Mo   S 
   2   4
Direct configuration=     7
   0.33333300  0.66666700  0.25000000
   0.66666700  0.33333300  0.75000000
   0.33333300  0.66666700  0.85095189
   0.66666700  0.33333300  0.14904811
   0.66666600  0.33333300  0.35095189
   0.33333400  0.66666700  0.64904811
unknown system                          
           1
     3.192447   -0.000000    0.000000
    -1.596223    2.764740    0.000000
     0.000000   -0.000000   16.227967
   Mo   S 
   2   4
Direct configuration=     8
   0.33333300  0.66666700  0.25000000
   0.66666700  0.33333300  0.75000000
   0.33333300  0.66666700  0.84577327
   0.66666700  0.33333300  0.15422673
   0.66666600  0.33333300  0.34577327
   0.33333400  0.66666700  0.65422673
unknown system                          
           1
     3.190538   -0.000000    0.000000
    -1.595269    2.763087    0.000000
     0.000000   -0.000000   16.267718
   Mo   S 
   2   4
Direct configuration=     9
   0.33333300  0.66666700  0.25000000
   0.66666700  0.33333300  0.75000000
   0.33333300  0.66666700  0.84578623
   0.66666700  0.33333300  0.15421377
   0.66666600  0.33333300  0.34578623
   0.33333400  0.66666700  0.65421377
unknown system                          
           1
     3.190461   -0.000000    0.000000
    -1.595231    2.763021    0.000000
     0.000000   -0.000000   16.223865
   Mo   S 
   2   4
Direct configuration=    10
   0.33333300  0.66666700  0.25000000
   0.66666700  0.33333300  0.75000000
   0.33333300  0.66666700  0.84605475
   0.66666700  0.33333300  0.15394525
   0.66666600  0.33333300  0.34605475
   0.33333400  0.66666700  0.65394525
unknown system                          
           1
     3.189832   -0.000000   -0.000000
    -1.594916    2.762475    0.000000
     0.000000   -0.000000   17.576403
   Mo   S 
   2   4
Direct configuration=    11
   0.33333300  0.66666700  0.25000000
   0.66666700  0.33333300  0.75000000
   0.33333300  0.66666700  0.83807188
   0.66666700  0.33333300  0.16192812
   0.66666600  0.33333300  0.33807188
   0.33333400  0.66666700  0.66192812
unknown system                          
           1
     3.191218   -0.000000   -0.000000
    -1.595609    2.763676    0.000000
     0.000000   -0.000000   16.650282
   Mo   S 
   2   4
Direct configuration=    12
   0.33333300  0.66666700  0.25000000
   0.66666700  0.33333300  0.75000000
   0.33333300  0.66666700  0.84377036
   0.66666700  0.33333300  0.15622964
   0.66666600  0.33333300  0.34377036
   0.33333400  0.66666700  0.65622964
unknown system                          
           1
     3.191023   -0.000000   -0.000000
    -1.595512    2.763508    0.000000
     0.000000   -0.000000   17.073491
   Mo   S 
   2   4
Direct configuration=    13
   0.33333300  0.66666700  0.25000000
   0.66666700  0.33333300  0.75000000
   0.33333300  0.66666700  0.84137488
   0.66666700  0.33333300  0.15862512
   0.66666600  0.33333300  0.34137488
   0.33333400  0.66666700  0.65862512
unknown system                          
           1
     3.192816   -0.000000   -0.000000
    -1.596408    2.765060    0.000000
     0.000000   -0.000000   18.920804
   Mo   S 
   2   4
Direct configuration=    14
   0.33333300  0.66666700  0.25000000
   0.66666700  0.33333300  0.75000000
   0.33333300  0.66666700  0.83114505
   0.66666700  0.33333300  0.16885495
   0.66666600  0.33333300  0.33114505
   0.33333400  0.66666700  0.66885495
unknown system                          
           1
     3.190771   -0.000000   -0.000000
    -1.595386    2.763289    0.000000
     0.000000   -0.000000   17.449852
   Mo   S 
   2   4
Direct configuration=    15
   0.33333300  0.66666700  0.25000000
   0.66666700  0.33333300  0.75000000
   0.33333300  0.66666700  0.83948318
   0.66666700  0.33333300  0.16051682
   0.66666600  0.33333300  0.33948318
   0.33333400  0.66666700  0.66051682
unknown system                          
           1
     3.190985   -0.000000   -0.000000
    -1.595493    2.763474    0.000000
     0.000000   -0.000000   17.818524
   Mo   S 
   2   4
Direct configuration=    16
   0.33333300  0.66666700  0.25000000
   0.66666700  0.33333300  0.75000000
   0.33333300  0.66666700  0.83758929
   0.66666700  0.33333300  0.16241071
   0.66666600  0.33333300  0.33758929
   0.33333400  0.66666700  0.66241071
unknown system                          
           1
     3.192200   -0.000000   -0.000000
    -1.596100    2.764527    0.000000
     0.000000   -0.000000   21.825272
   Mo   S 
   2   4
Direct configuration=    17
   0.33333300  0.66666700  0.25000000
   0.66666700  0.33333300  0.75000000
   0.33333300  0.66666700  0.81731734
   0.66666700  0.33333300  0.18268266
   0.66666600  0.33333300  0.31731734
   0.33333400  0.66666700  0.68268266
unknown system                          
           1
     3.191257   -0.000000   -0.000000
    -1.595628    2.763710    0.000000
     0.000000   -0.000000   18.051091
   Mo   S 
   2   4
Direct configuration=    18
   0.33333300  0.66666700  0.25000000
   0.66666700  0.33333300  0.75000000
   0.33333300  0.66666700  0.83657256
   0.66666700  0.33333300  0.16342744
   0.66666600  0.33333300  0.33657256
   0.33333400  0.66666700  0.66342744
unknown system                          
           1
     3.191313   -0.000000   -0.000000
    -1.595656    2.763758    0.000000
     0.000000   -0.000000   18.346722
   Mo   S 
   2   4
Direct configuration=    19
   0.33333300  0.66666700  0.25000000
   0.66666700  0.33333300  0.75000000
   0.33333300  0.66666700  0.83521197
   0.66666700  0.33333300  0.16478803
   0.66666600  0.33333300  0.33521197
   0.33333400  0.66666700  0.66478803
unknown system                          
           1
     3.187699   -0.000000    0.000000
    -1.593849    2.760628    0.000000
    -0.000000   -0.000000   15.517841
   Mo   S 
   2   4
Direct configuration=    20
   0.33333300  0.66666700  0.25000000
   0.66666700  0.33333300  0.75000000
   0.33333300  0.66666700  0.84827137
   0.66666700  0.33333300  0.15172863
   0.66666600  0.33333300  0.34827137
   0.33333400  0.66666700  0.65172863
unknown system                          
           1
     3.193127   -0.000000   -0.000000
    -1.596563    2.765329    0.000000
     0.000000   -0.000000   17.636799
   Mo   S 
   2   4
Direct configuration=    21
   0.33333300  0.66666700  0.25000000
   0.66666700  0.33333300  0.75000000
   0.33333300  0.66666700  0.83887047
   0.66666700  0.33333300  0.16112953
   0.66666600  0.33333300  0.33887047
   0.33333400  0.66666700  0.66112953
unknown system                          
           1
     3.192609   -0.000000   -0.000000
    -1.596304    2.764881    0.000000
     0.000000   -0.000000   16.950699
   Mo   S 
   2   4
Direct configuration=    22
   0.33333300  0.66666700  0.25000000
   0.66666700  0.33333300  0.75000000
   0.33333300  0.66666700  0.84230770
   0.66666700  0.33333300  0.15769230
   0.66666600  0.33333300  0.34230770
   0.33333400  0.66666700  0.65769230
unknown system                          
           1
     3.188346    0.000000    0.000000
    -1.594173    2.761189    0.000000
    -0.000000    0.000000   14.766665
   Mo   S 
   2   4
Direct configuration=    23
   0.33333300  0.66666700  0.25000000
   0.66666700  0.33333300  0.75000000
   0.33333300  0.66666700  0.85337552
   0.66666700  0.33333300  0.14662448
   0.66666600  0.33333300  0.35337552
   0.33333400  0.66666700  0.64662448
unknown system                          
           1
     3.192383   -0.000000    0.000000
    -1.596191    2.764685    0.000000
    -0.000000   -0.000000   16.315805
   Mo   S 
   2   4
Direct configuration=    24
   0.33333300  0.66666700  0.25000000
   0.66666700  0.33333300  0.75000000
   0.33333300  0.66666700  0.84593493
   0.66666700  0.33333300  0.15406507
   0.66666600  0.33333300  0.34593493
   0.33333400  0.66666700  0.65406507
unknown system                          
           1
     3.192171   -0.000000    0.000000
    -1.596086    2.764502    0.000000
    -0.000000   -0.000000   15.856595
   Mo   S 
   2   4
Direct configuration=    25
   0.33333300  0.66666700  0.25000000
   0.66666700  0.33333300  0.75000000
   0.33333300  0.66666700  0.84854564
   0.66666700  0.33333300  0.15145436
   0.66666600  0.33333300  0.34854564
   0.33333400  0.66666700  0.65145436
unknown system                          
           1
     3.188801    0.000000    0.000000
    -1.594400    2.761583    0.000000
    -0.000000    0.000000   14.850267
   Mo   S 
   2   4
Direct configuration=    26
   0.33333300  0.66666700  0.25000000
   0.66666700  0.33333300  0.75000000
   0.33333300  0.66666700  0.85440764
   0.66666700  0.33333300  0.14559236
   0.66666600  0.33333300  0.35440764
   0.33333400  0.66666700  0.64559236
unknown system                          
           1
     3.191716    0.000000    0.000000
    -1.595858    2.764108    0.000000
    -0.000000   -0.000000   15.155001
   Mo   S 
   2   4
Direct configuration=    27
   0.33333300  0.66666700  0.25000000
   0.66666700  0.33333300  0.75000000
   0.33333300  0.66666700  0.85300682
   0.66666700  0.33333300  0.14699318
   0.66666600  0.33333300  0.35300682
   0.33333400  0.66666700  0.64699318
unknown system                          
           1
     3.191764    0.000000    0.000000
    -1.595882    2.764149    0.000000
    -0.000000    0.000000   14.944756
   Mo   S 
   2   4
Direct configuration=    28
   0.33333300  0.66666700  0.25000000
   0.66666700  0.33333300  0.75000000
   0.33333300  0.66666700  0.85437606
   0.66666700  0.33333300  0.14562394
   0.66666600  0.33333300  0.35437606
   0.33333400  0.66666700  0.64562394
unknown system                          
           1
     3.204855    0.000000    0.000000
    -1.602428    2.775486   -0.000000
    -0.000000    0.000000   13.830362
   Mo   S 
   2   4
Direct configuration=    29
   0.33333300  0.66666700  0.25000000
   0.66666700  0.33333300  0.75000000
   0.33333300  0.66666700  0.86203119
   0.66666700  0.33333300  0.13796881
   0.66666600  0.33333300  0.36203119
   0.33333400  0.66666700  0.63796881
unknown system                          
           1
     3.182843    0.000000    0.000000
    -1.591421    2.756423   -0.000000
    -0.000000    0.000000   13.618788
   Mo   S 
   2   4
Direct configuration=    30
   0.33333300  0.66666700  0.25000000
   0.66666700  0.33333300  0.75000000
   0.33333300  0.66666700  0.86391160
   0.66666700  0.33333300  0.13608840
   0.66666600  0.33333300  0.36391160
   0.33333400  0.66666700  0.63608840
unknown system                          
           1
     3.190083    0.000000    0.000000
    -1.595042    2.762693   -0.000000
    -0.000000    0.000000   13.741085
   Mo   S 
   2   4
Direct configuration=    31
   0.33333300  0.66666700  0.25000000
   0.66666700  0.33333300  0.75000000
   0.33333300  0.66666700  0.86346351
   0.66666700  0.33333300  0.13653649
   0.66666600  0.33333300  0.36346351
   0.33333400  0.66666700  0.63653649
unknown system                          
           1
     3.191305    0.000000    0.000000
    -1.595653    2.763752   -0.000000
    -0.000000    0.000000   13.708841
   Mo   S 
   2   4
Direct configuration=    32
   0.33333300  0.66666700  0.25000000
   0.66666700  0.33333300  0.75000000
   0.33333300  0.66666700  0.86377650
   0.66666700  0.33333300  0.13622350
   0.66666600  0.33333300  0.36377650
   0.33333400  0.66666700  0.63622350
unknown system                          
           1
     3.195461    0.000000    0.000000
    -1.597731    2.767351   -0.000000
    -0.000000    0.000000   13.936678
   Mo   S 
   2   4
Direct configuration=    33
   0.33333300  0.66666700  0.25000000
   0.66666700  0.33333300  0.75000000
   0.33333300  0.66666700  0.86206203
   0.66666700  0.33333300  0.13793797
   0.66666600  0.33333300  0.36206203
   0.33333400  0.66666700  0.63793797
unknown system                          
           1
     3.192274    0.000000   -0.000000
    -1.596137    2.764590    0.000000
     0.000000   -0.000000   13.281549
   Mo   S 
   2   4
Direct configuration=    34
   0.33333300  0.66666700  0.25000000
   0.66666700  0.33333300  0.75000000
   0.33333300  0.66666700  0.86743573
   0.66666700  0.33333300  0.13256427
   0.66666600  0.33333300  0.36743573
   0.33333400  0.66666700  0.63256427
