    3    3    1    1
  0.7897505E+02  0.3190316E-09  0.3190316E-09  0.2687900E-08  0.5000000E-15
  1.000000000000000E-004
  CAR 
 unknown system                          
     18     10     14
 
  0.0000000E+00  0.0000000E+00  0.0000000E+00  0.1562500E-01
    1      -17.463513   1.000000
    2      -16.255455   1.000000
    3       -8.984393   1.000000
    4       -6.023620   1.000000
    5       -6.023614   1.000000
    6       -5.162294   1.000000
    7       -4.918082   1.000000
    8       -4.918050   1.000000
    9       -3.441899   1.000000
   10       -0.670402   0.000000
   11       -0.670372   0.000000
   12       -0.446653   0.000000
   13       -0.446639   0.000000
   14        1.992548   0.000000
 
  0.1250000E+00  0.0000000E+00  0.0000000E+00  0.9375000E-01
    1      -17.249365   1.000000
    2      -16.153068   1.000000
    3       -8.739863   1.000000
    4       -6.487040   1.000000
    5       -5.970374   1.000000
    6       -5.789199   1.000000
    7       -5.253812   1.000000
    8       -4.484815   1.000000
    9       -3.580323   1.000000
   10       -0.950417   0.000000
   11       -0.884619   0.000000
   12       -0.683243   0.000000
   13       -0.315594   0.000000
   14        2.361091   0.000000
 
  0.2500000E+00  0.0000000E+00  0.0000000E+00  0.9375000E-01
    1      -16.680628   1.000000
    2      -15.884307   1.000000
    3       -8.373774   1.000000
    4       -7.213598   1.000000
    5       -6.951220   1.000000
    6       -5.888840   1.000000
    7       -5.202120   1.000000
    8       -4.736400   1.000000
    9       -4.148280   1.000000
   10       -1.274524   0.000000
   11       -1.097968   0.000000
   12       -0.555859   0.000000
   13        0.301378   0.000000
   14        3.177503   0.000000
 
  0.3750000E+00  0.0000000E+00  0.0000000E+00  0.9375000E-01
    1      -16.005514   1.000000
    2      -15.575879   1.000000
    3       -8.811026   1.000000
    4       -7.818592   1.000000
    5       -7.346435   1.000000
    6       -6.386176   1.000000
    7       -5.145702   1.000000
    8       -4.611614   1.000000
    9       -4.343480   1.000000
   10       -1.279401   0.000000
   11       -1.000526   0.000000
   12        0.162661   0.000000
   13        0.694706   0.000000
   14        3.701179   0.000000
 
  0.5000000E+00  0.0000000E+00  0.0000000E+00  0.4687500E-01
    1      -15.677260   1.000000
    2      -15.432556   1.000000
    3       -9.143676   1.000000
    4       -8.183516   1.000000
    5       -7.472740   1.000000
    6       -6.566754   1.000000
    7       -5.284556   1.000000
    8       -4.384536   1.000000
    9       -4.062698   1.000000
   10       -1.257081   0.000000
   11       -0.741134   0.000000
   12        0.461251   0.000000
   13        0.810132   0.000000
   14        2.740547   0.000000
 
  0.1250000E+00  0.1250000E+00  0.0000000E+00  0.9375000E-01
    1      -16.856555   1.000000
    2      -15.966059   1.000000
    3       -8.392599   1.000000
    4       -7.051034   1.000000
    5       -6.532534   1.000000
    6       -6.067654   1.000000
    7       -5.449731   1.000000
    8       -4.350343   1.000000
    9       -3.952213   1.000000
   10       -1.349657   0.000000
   11       -0.971480   0.000000
   12       -0.959683   0.000000
   13        0.279257   0.000000
   14        2.957087   0.000000
 
  0.2500000E+00  0.1250000E+00  0.0000000E+00  0.1875000E+00
    1      -16.222967   1.000000
    2      -15.667524   1.000000
    3       -8.455354   1.000000
    4       -7.477755   1.000000
    5       -7.214612   1.000000
    6       -6.571956   1.000000
    7       -5.350290   1.000000
    8       -4.712556   1.000000
    9       -4.235848   1.000000
   10       -1.432996   0.000000
   11       -0.984518   0.000000
   12       -0.489708   0.000000
   13        0.787094   0.000000
   14        3.923697   0.000000
 
  0.3750000E+00  0.1250000E+00  0.0000000E+00  0.1875000E+00
    1      -15.692493   1.000000
    2      -15.423607   1.000000
    3       -8.856322   1.000000
    4       -8.240786   1.000000
    5       -7.344998   1.000000
    6       -6.588765   1.000000
    7       -5.335118   1.000000
    8       -5.194378   1.000000
    9       -3.908978   1.000000
   10       -1.238234   0.000000
   11       -0.727921   0.000000
   12        0.131972   0.000000
   13        0.820801   0.000000
   14        3.267384   0.000000
 
  0.2500000E+00  0.2500000E+00  0.0000000E+00  0.9375000E-01
    1      -15.707454   1.000000
    2      -15.414610   1.000000
    3       -8.495942   1.000000
    4       -8.291583   1.000000
    5       -7.017830   1.000000
    6       -6.637069   1.000000
    7       -6.317935   1.000000
    8       -5.060927   1.000000
    9       -3.937809   1.000000
   10       -1.289242   0.000000
   11       -0.678208   0.000000
   12       -0.366568   0.000000
   13        1.108853   0.000000
   14        4.099737   0.000000
 
  0.3750000E+00  0.2500000E+00  0.0000000E+00  0.9375000E-01
    1      -15.472568   1.000000
    2      -15.295453   1.000000
    3       -8.676010   1.000000
    4       -8.326920   1.000000
    5       -7.302182   1.000000
    6       -6.639585   1.000000
    7       -6.409423   1.000000
    8       -5.447216   1.000000
    9       -3.570378   1.000000
   10       -1.614888   0.000000
   11       -0.308205   0.000000
   12       -0.127606   0.000000
   13        1.254159   0.000000
   14        3.510326   0.000000
