perl: warning: Setting locale failed.
perl: warning: Please check that your locale settings:
	LANGUAGE = (unset),
	LC_ALL = (unset),
	LC_CTYPE = "UTF-8",
	LANG = "en_US.iso885915"
    are supported and installed on your system.
perl: warning: Falling back to the standard locale ("C").
Starting job 28532698 ("jobname") on c14-29 at Fri Nov 8 12:00:17 CET 2019
 running on    4 total cores
 distrk:  each k-point on    4 cores,    1 groups
 distr:  one band on    2 cores,    2 groups
 using from now: INCAR     
 vasp.5.4.4.18Apr17-6-g9f103f2a35 (build Jun 30 2017 11:15:00) complex          
  
 POSCAR found type information on POSCAR  Mo S 
 POSCAR found :  2 types and       3 ions
 scaLAPACK will be used
 WARNING: PSMAXN for non-local potential too small
 LDA part: xc-table for Pade appr. of Perdew
 POSCAR, INCAR and KPOINTS ok, starting setup
 FFT: planning ...
 WAVECAR not read
 entering main loop
       N       E                     dE             d eps       ncg     rms          rms(c)
DAV:   1     0.160243635538E+03    0.16024E+03   -0.74944E+03   280   0.135E+03
DAV:   2    -0.357065385910E+01   -0.16381E+03   -0.15385E+03   488   0.192E+02
DAV:   3    -0.229411385030E+02   -0.19370E+02   -0.19078E+02   382   0.810E+01
DAV:   4    -0.233978856627E+02   -0.45675E+00   -0.45516E+00   360   0.153E+01
DAV:   5    -0.234095731508E+02   -0.11687E-01   -0.11685E-01   382   0.239E+00    0.689E+00
RMM:   6    -0.222493333704E+02    0.11602E+01   -0.54172E+00   296   0.125E+01    0.261E+00
RMM:   7    -0.218642786495E+02    0.38505E+00   -0.55254E-01   290   0.341E+00    0.150E+00
RMM:   8    -0.218043078772E+02    0.59971E-01   -0.23429E-01   310   0.253E+00    0.355E-01
RMM:   9    -0.217994625214E+02    0.48454E-02   -0.89392E-03   333   0.618E-01    0.959E-02
RMM:  10    -0.217987239768E+02    0.73854E-03   -0.17412E-03   336   0.224E-01    0.441E-02
RMM:  11    -0.217986413462E+02    0.82631E-04   -0.16996E-03   312   0.195E-01    0.559E-02
RMM:  12    -0.217984217706E+02    0.21958E-03   -0.55139E-04   303   0.133E-01    0.171E-02
RMM:  13    -0.217987028551E+02   -0.28108E-03   -0.15419E-04   283   0.726E-02    0.201E-02
RMM:  14    -0.217987357898E+02   -0.32935E-04   -0.26250E-05   252   0.297E-02    0.492E-03
RMM:  15    -0.217988458955E+02   -0.11011E-03   -0.11012E-05   190   0.177E-02    0.282E-03
RMM:  16    -0.217988790200E+02   -0.33124E-04   -0.45902E-06   186   0.947E-03    0.167E-03
RMM:  17    -0.217989224857E+02   -0.43466E-04   -0.32883E-06   159   0.788E-03    0.139E-03
RMM:  18    -0.217989297366E+02   -0.72509E-05   -0.44716E-07    85   0.407E-03
   1 F= -.22389839E+02 E0= -.22389839E+02  d E =0.000000E+00

Currently Loaded Modulefiles:
  1) Anaconda3/5.1.0       3) vesta/3.3.8           5) intel/2016.1
  2) gnuplot/5.0.4         4) imagemagick/6.7.9-0   6) vasp/5.4.1.Feb16

Job script resource usage:
       JobID  MaxVMSize     MaxRSS 
------------ ---------- ---------- 
28532698.ba+    216888K      2580K 

Job step resource usage:
       JobID    JobName  AllocCPUS  MaxVMSize     MaxRSS    Elapsed ExitCode 
------------ ---------- ---------- ---------- ---------- ---------- -------- 
28532698        jobname          4                         00:00:22      0:0 
28532698.0    pmi_proxy          1    279832K       532K   00:00:20      0:0 

Job 28532698 ("jobname") completed on c14-29 at Fri Nov 8 12:00:37 CET 2019
