    3    3    1    1
  0.7897505E+02  0.3190316E-09  0.3190316E-09  0.2687900E-08  0.5000000E-15
  1.000000000000000E-004
  CAR 
 unknown system                          
     18     10     14
 
  0.0000000E+00  0.0000000E+00  0.0000000E+00  0.1562500E-01
    1      -17.463503   1.000000
    2      -16.255477   1.000000
    3       -8.984117   1.000000
    4       -6.023328   1.000000
    5       -6.023322   1.000000
    6       -5.162035   1.000000
    7       -4.917731   1.000000
    8       -4.917699   1.000000
    9       -3.441792   1.000000
   10       -0.670190   0.000000
   11       -0.670159   0.000000
   12       -0.446418   0.000000
   13       -0.446404   0.000000
   14        1.992281   0.000000
 
  0.1250000E+00  0.0000000E+00  0.0000000E+00  0.9375000E-01
    1      -17.249354   1.000000
    2      -16.153075   1.000000
    3       -8.739571   1.000000
    4       -6.486696   1.000000
    5       -5.970042   1.000000
    6       -5.788888   1.000000
    7       -5.253448   1.000000
    8       -4.484507   1.000000
    9       -3.580195   1.000000
   10       -0.950260   0.000000
   11       -0.884443   0.000000
   12       -0.683036   0.000000
   13       -0.315379   0.000000
   14        2.361801   0.000000
 
  0.2500000E+00  0.0000000E+00  0.0000000E+00  0.9375000E-01
    1      -16.680615   1.000000
    2      -15.884283   1.000000
    3       -8.373436   1.000000
    4       -7.213290   1.000000
    5       -6.950888   1.000000
    6       -5.888489   1.000000
    7       -5.201821   1.000000
    8       -4.736099   1.000000
    9       -4.148101   1.000000
   10       -1.274440   0.000000
   11       -1.097840   0.000000
   12       -0.555736   0.000000
   13        0.301569   0.000000
   14        3.187823   0.000000
 
  0.3750000E+00  0.0000000E+00  0.0000000E+00  0.9375000E-01
    1      -16.005490   1.000000
    2      -15.575813   1.000000
    3       -8.810716   1.000000
    4       -7.818298   1.000000
    5       -7.346148   1.000000
    6       -6.385831   1.000000
    7       -5.145421   1.000000
    8       -4.611323   1.000000
    9       -4.343249   1.000000
   10       -1.279405   0.000000
   11       -1.000555   0.000000
   12        0.162797   0.000000
   13        0.694884   0.000000
   14        3.701451   0.000000
 
  0.5000000E+00  0.0000000E+00  0.0000000E+00  0.4687500E-01
    1      -15.677215   1.000000
    2      -15.432469   1.000000
    3       -9.143387   1.000000
    4       -8.183230   1.000000
    5       -7.472414   1.000000
    6       -6.566431   1.000000
    7       -5.284277   1.000000
    8       -4.384209   1.000000
    9       -4.062429   1.000000
   10       -1.257186   0.000000
   11       -0.741211   0.000000
   12        0.461416   0.000000
   13        0.810313   0.000000
   14        2.740774   0.000000
 
  0.1250000E+00  0.1250000E+00  0.0000000E+00  0.9375000E-01
    1      -16.856542   1.000000
    2      -15.966048   1.000000
    3       -8.392284   1.000000
    4       -7.050695   1.000000
    5       -6.532218   1.000000
    6       -6.067284   1.000000
    7       -5.449438   1.000000
    8       -4.350037   1.000000
    9       -3.952046   1.000000
   10       -1.349525   0.000000
   11       -0.971342   0.000000
   12       -0.959541   0.000000
   13        0.279430   0.000000
   14        2.952897   0.000000
 
  0.2500000E+00  0.1250000E+00  0.0000000E+00  0.1875000E+00
    1      -16.222949   1.000000
    2      -15.667471   1.000000
    3       -8.455008   1.000000
    4       -7.477424   1.000000
    5       -7.214346   1.000000
    6       -6.571616   1.000000
    7       -5.349990   1.000000
    8       -4.712257   1.000000
    9       -4.235635   1.000000
   10       -1.432924   0.000000
   11       -0.984536   0.000000
   12       -0.489571   0.000000
   13        0.787237   0.000000
   14        3.924679   0.000000
 
  0.3750000E+00  0.1250000E+00  0.0000000E+00  0.1875000E+00
    1      -15.692451   1.000000
    2      -15.423524   1.000000
    3       -8.856027   1.000000
    4       -8.240453   1.000000
    5       -7.344680   1.000000
    6       -6.588447   1.000000
    7       -5.334805   1.000000
    8       -5.194096   1.000000
    9       -3.908748   1.000000
   10       -1.238282   0.000000
   11       -0.727997   0.000000
   12        0.132145   0.000000
   13        0.820935   0.000000
   14        3.267634   0.000000
 
  0.2500000E+00  0.2500000E+00  0.0000000E+00  0.9375000E-01
    1      -15.707421   1.000000
    2      -15.414532   1.000000
    3       -8.495636   1.000000
    4       -8.291206   1.000000
    5       -7.017555   1.000000
    6       -6.636775   1.000000
    7       -6.317614   1.000000
    8       -5.060639   1.000000
    9       -3.937623   1.000000
   10       -1.289252   0.000000
   11       -0.678278   0.000000
   12       -0.366405   0.000000
   13        1.108934   0.000000
   14        4.099990   0.000000
 
  0.3750000E+00  0.2500000E+00  0.0000000E+00  0.9375000E-01
    1      -15.472523   1.000000
    2      -15.295363   1.000000
    3       -8.675600   1.000000
    4       -8.326643   1.000000
    5       -7.301852   1.000000
    6       -6.639278   1.000000
    7       -6.409132   1.000000
    8       -5.446933   1.000000
    9       -3.570193   1.000000
   10       -1.614923   0.000000
   11       -0.308018   0.000000
   12       -0.127639   0.000000
   13        1.254211   0.000000
   14        3.510644   0.000000
