       N       E                     dE             d eps       ncg     rms          rms(c)
DAV:   1     0.137232271580E+03    0.13723E+03   -0.57890E+03   280   0.890E+02
DAV:   2    -0.686323759054E+01   -0.14410E+03   -0.13533E+03   474   0.176E+02
DAV:   3    -0.230555365044E+02   -0.16192E+02   -0.16028E+02   382   0.737E+01
DAV:   4    -0.233986337503E+02   -0.34310E+00   -0.34051E+00   372   0.132E+01
DAV:   5    -0.234083945307E+02   -0.97608E-02   -0.97583E-02   354   0.219E+00    0.689E+00
RMM:   6    -0.222479663810E+02    0.11604E+01   -0.54409E+00   295   0.124E+01    0.262E+00
RMM:   7    -0.218625423427E+02    0.38542E+00   -0.55418E-01   291   0.341E+00    0.150E+00
RMM:   8    -0.218026148796E+02    0.59927E-01   -0.23377E-01   306   0.251E+00    0.356E-01
RMM:   9    -0.217977656709E+02    0.48492E-02   -0.87897E-03   335   0.609E-01    0.965E-02
RMM:  10    -0.217970208743E+02    0.74480E-03   -0.17288E-03   336   0.222E-01    0.441E-02
RMM:  11    -0.217969354555E+02    0.85419E-04   -0.16731E-03   314   0.192E-01    0.552E-02
RMM:  12    -0.217967238682E+02    0.21159E-03   -0.54910E-04   302   0.132E-01    0.174E-02
RMM:  13    -0.217970008611E+02   -0.27699E-03   -0.15539E-04   285   0.708E-02    0.201E-02
RMM:  14    -0.217970340697E+02   -0.33209E-04   -0.25985E-05   254   0.280E-02    0.496E-03
RMM:  15    -0.217971446367E+02   -0.11057E-03   -0.11065E-05   194   0.172E-02    0.283E-03
RMM:  16    -0.217971779524E+02   -0.33316E-04   -0.46188E-06   182   0.932E-03    0.170E-03
RMM:  17    -0.217972225167E+02   -0.44564E-04   -0.33045E-06   162   0.794E-03    0.141E-03
RMM:  18    -0.217972298435E+02   -0.73269E-05   -0.44397E-07    84   0.407E-03
   1 F= -.22388139E+02 E0= -.22388139E+02  d E =0.000000E+00
