 vasp.5.4.4.18Apr17-6-g9f103f2a35 (build Jun 30 2017 11:15:00) complex          
  
 executed on    STALLO_VASP_5.4.4 date 2019.11.08  11:58:36
 running on    4 total cores
 distrk:  each k-point on    4 cores,    1 groups
 distr:  one band on NCORES_PER_BAND=   2 cores,    2 groups


--------------------------------------------------------------------------------------------------------


 INCAR:
 POTCAR:   PAW_PBE Mo 08Apr2002                   
 POTCAR:    PAW_PBE S 17Jan2003                   
 POTCAR:   PAW_PBE Mo 08Apr2002                   
   VRHFIN =Mo: 4p5s4d                                                           
   LEXCH  = PE                                                                  
   EATOM  =   217.5180 eV,   15.9871 Ry                                         
                                                                                
   TITEL  = PAW_PBE Mo 08Apr2002                                                
   LULTRA =        F    use ultrasoft PP ?                                      
   IUNSCR =        1    unscreen: 0-lin 1-nonlin 2-no                           
   RPACOR =    2.200    partial core radius                                     
   POMASS =   95.940; ZVAL   =    6.000    mass and valenz                      
   RCORE  =    2.750    outmost cutoff radius                                   
   RWIGS  =    2.750; RWIGS  =    1.455    wigner-seitz radius (au A)           
   ENMAX  =  224.584; ENMIN  =  168.438 eV                                      
   RCLOC  =    2.111    cutoff for local pot                                    
   LCOR   =        T    correct aug charges                                     
   LPAW   =        T    paw PP                                                  
   EAUG   =  345.278                                                            
   DEXC   =    -.088                                                            
   RMAX   =    3.077    core radius for proj-oper                               
   RAUG   =    1.300    factor for augmentation sphere                          
   RDEP   =    2.815    radius for radial grids                                 
   QCUT   =   -4.063; QGAM   =    8.126    optimization parameters              
                                                                                
   Description                                                                  
     l     E      TYP  RCUT    TYP  RCUT                                        
     2   .000     23  2.500                                                     
     2   .000     23  2.500                                                     
     0   .000     23  2.600                                                     
     0  1.000     23  2.600                                                     
     1   .400     23  2.750                                                     
     1  2.000     23  2.750                                                     
     3   .000      7   .000                                                     
  local pseudopotential read in
  partial core-charges read in
  atomic valenz-charges read in
  non local Contribution for L=           2  read in
    real space projection operators read in
  non local Contribution for L=           2  read in
    real space projection operators read in
  non local Contribution for L=           0  read in
    real space projection operators read in
  non local Contribution for L=           0  read in
    real space projection operators read in
  non local Contribution for L=           1  read in
    real space projection operators read in
  non local Contribution for L=           1  read in
    real space projection operators read in
    PAW grid and wavefunctions read in
 
   number of l-projection  operators is LMAX  =           6
   number of lm-projection operators is LMMAX =          18
 
 POTCAR:    PAW_PBE S 17Jan2003                   
   VRHFIN =S : s2p4                                                             
   LEXCH  = PE                                                                  
   EATOM  =   276.8230 eV,   20.3459 Ry                                         
                                                                                
   TITEL  = PAW_PBE S 17Jan2003                                                 
   LULTRA =        F    use ultrasoft PP ?                                      
   IUNSCR =        1    unscreen: 0-lin 1-nonlin 2-no                           
   RPACOR =    1.500    partial core radius                                     
   POMASS =   32.066; ZVAL   =    6.000    mass and valenz                      
   RCORE  =    1.900    outmost cutoff radius                                   
   RWIGS  =    2.200; RWIGS  =    1.164    wigner-seitz radius (au A)           
   ENMAX  =  280.000; ENMIN  =  194.016 eV                                      
   ICORE  =        2    local potential                                         
   LCOR   =        T    correct aug charges                                     
   LPAW   =        T    paw PP                                                  
   EAUG   =  335.092                                                            
   DEXC   =     .000                                                            
   RMAX   =    2.867    core radius for proj-oper                               
   RAUG   =    1.300    factor for augmentation sphere                          
   RDEP   =    1.954    radius for radial grids                                 
   QCUT   =   -4.360; QGAM   =    8.721    optimization parameters              
                                                                                
   Description                                                                  
     l     E      TYP  RCUT    TYP  RCUT                                        
     0   .000     23  1.900                                                     
     0   .000     23  1.900                                                     
     1   .000     23  1.900                                                     
     1   .000     23  1.900                                                     
     2   .000     23  1.900                                                     
  local pseudopotential read in
  partial core-charges read in
  atomic valenz-charges read in
  non local Contribution for L=           0  read in
    real space projection operators read in
  non local Contribution for L=           0  read in
    real space projection operators read in
  non local Contribution for L=           1  read in
    real space projection operators read in
  non local Contribution for L=           1  read in
    real space projection operators read in
    PAW grid and wavefunctions read in
 
   number of l-projection  operators is LMAX  =           4
   number of lm-projection operators is LMMAX =           8
 
 PAW_PBE Mo 08Apr2002                   :
 energy of atom  1       EATOM= -217.5180
 kinetic energy error for atom=    0.0017 (will be added to EATOM!!)
  PAW_PBE S 17Jan2003                   :
 energy of atom  2       EATOM= -276.8230
 kinetic energy error for atom=    0.0020 (will be added to EATOM!!)
 
 
 POSCAR: MoS2_mp-2815_computed                   
  positions in cartesian coordinates
  velocities in cartesian coordinates
  No initial velocities read in
 exchange correlation table for  LEXCH =        8
   RHO(1)=    0.500       N(1)  =     2000
   RHO(2)=  100.500       N(2)  =     4000
 


--------------------------------------------------------------------------------------------------------


 ion  position               nearest neighbor table
   1  0.333  0.667  0.138-   3 2.42   2 2.42   2 2.42   3 2.42   3 2.42   2 2.42
   2  0.667  0.333  0.080-   1 2.42   1 2.42   1 2.42
   3  0.667  0.333  0.197-   1 2.42   1 2.42   1 2.42
 
  LATTYP: Found a hexagonal cell.
 ALAT       =     3.1903157300
 C/A-ratio  =     8.4251862746
  
  Lattice vectors:
  
 A1 = (   3.1903157300,   0.0000000000,   0.0000000000)
 A2 = (  -1.5951578650,   2.7628944683,   0.0000000000)
 A3 = (   0.0000000000,   0.0000000000,  26.8790043000)


Analysis of symmetry for initial positions (statically):
=====================================================================
 Subroutine PRICEL returns:
 Original cell was already a primitive cell.
 

 Routine SETGRP: Setting up the symmetry group for a 
 hexagonal supercell.


 Subroutine GETGRP returns: Found 12 space group operations
 (whereof  6 operations were pure point group operations)
 out of a pool of 24 trial point group operations.


The static configuration has the point symmetry C_3v.
 The point group associated with its full space group is D_3h.


Analysis of symmetry for dynamics (positions and initial velocities):
=====================================================================
 Subroutine PRICEL returns:
 Original cell was already a primitive cell.
 

 Routine SETGRP: Setting up the symmetry group for a 
 hexagonal supercell.


 Subroutine GETGRP returns: Found 12 space group operations
 (whereof  6 operations were pure point group operations)
 out of a pool of 24 trial point group operations.


The dynamic configuration has the point symmetry C_3v.
 The point group associated with its full space group is D_3h.


 Subroutine INISYM returns: Found 12 space group operations
 (whereof  6 operations are pure point group operations),
 and found     1 'primitive' translations

 
 
 KPOINTS: k-density: 4.0                          

Automatic generation of k-mesh.
Space group operators:
 irot       det(A)        alpha          n_x          n_y          n_z        tau_x        tau_y        tau_z
    1     1.000000     0.000001     1.000000     0.000000     0.000000     0.000000     0.000000     0.000000
    2     1.000000   120.000000     0.000000     0.000000    -1.000000     0.000000     0.000000     0.000000
    3     1.000000   120.000000     0.000000     0.000000     1.000000     0.000000     0.000000     0.000000
    4    -1.000000   179.999999     1.000000    -0.000000     0.000000     0.000000     0.000000     0.000000
    5    -1.000000   180.000000     0.500000    -0.866025     0.000000     0.000000     0.000000     0.000000
    6    -1.000000   180.000000    -0.500000    -0.866025     0.000000     0.000000     0.000000     0.000000
    7    -1.000000    60.000000     0.000000     0.000000    -1.000000    -0.000000     0.000000     0.276777
    8    -1.000000   180.000000     0.000000     0.000000     1.000000     0.000000     0.000000     0.276777
    9    -1.000000    60.000000     0.000000     0.000000     1.000000     0.000000     0.000001     0.276777
   10     1.000000   180.000000     0.866025    -0.500000     0.000000     0.000000     0.000000     0.276777
   11     1.000000   180.000000     0.000000     1.000000     0.000000     0.000000     0.000000     0.276777
   12     1.000000   179.999999     0.866025     0.500000     0.000000    -0.000000     0.000001     0.276777
 
 Subroutine IBZKPT returns following result:
 ===========================================
 
 Found     10 irreducible k-points:
 
 Following reciprocal coordinates:
            Coordinates               Weight
  0.000000  0.000000  0.000000      1.000000
  0.125000  0.000000  0.000000      6.000000
  0.250000  0.000000  0.000000      6.000000
  0.375000  0.000000  0.000000      6.000000
  0.500000  0.000000  0.000000      3.000000
  0.125000  0.125000  0.000000      6.000000
  0.250000  0.125000  0.000000     12.000000
  0.375000  0.125000  0.000000     12.000000
  0.250000  0.250000  0.000000      6.000000
  0.375000  0.250000  0.000000      6.000000
 
 Following cartesian coordinates:
            Coordinates               Weight
  0.000000  0.000000  0.000000      1.000000
  0.039181  0.022621  0.000000      6.000000
  0.078362  0.045242  0.000000      6.000000
  0.117543  0.067864  0.000000      6.000000
  0.156724  0.090485  0.000000      3.000000
  0.039181  0.067864  0.000000      6.000000
  0.078362  0.090485  0.000000     12.000000
  0.117543  0.113106  0.000000     12.000000
  0.078362  0.135727  0.000000      6.000000
  0.117543  0.158348  0.000000      6.000000
 
 TETIRR: Found     36 inequivalent tetrahedra from      384


--------------------------------------------------------------------------------------------------------




 Dimension of arrays:
   k-points           NKPTS =     10   k-points in BZ     NKDIM =     10   number of bands    NBANDS=     14
   number of dos      NEDOS =    301   number of ions     NIONS =      3
   non local maximal  LDIM  =      6   non local SUM 2l+1 LMDIM =     18
   total plane-waves  NPLWV =  48600
   max r-space proj   IRMAX =      1   max aug-charges    IRDMAX=  13368
   dimension x,y,z NGX =    18 NGY =   18 NGZ =  150
   dimension x,y,z NGXF=    36 NGYF=   36 NGZF=  300
   support grid    NGXF=    36 NGYF=   36 NGZF=  300
   ions per type =               1   2
   NGX,Y,Z   is equivalent  to a cutoff of   9.38,  9.38,  9.28 a.u.
   NGXF,Y,Z  is equivalent  to a cutoff of  18.76, 18.76, 18.55 a.u.

 SYSTEM =  unknown system                          
 POSCAR =  MoS2_mp-2815_computed                   

 Startparameter for this run:
   NWRITE =      2    write-flag & timer
   PREC   = normal    normal or accurate (medium, high low for compatibility)
   ISTART =      0    job   : 0-new  1-cont  2-samecut
   ICHARG =      2    charge: 1-file 2-atom 10-const
   ISPIN  =      1    spin polarized calculation?
   LNONCOLLINEAR =      F non collinear calculations
   LSORBIT =      F    spin-orbit coupling
   INIWAV =      1    electr: 0-lowe 1-rand  2-diag
   LASPH  =      F    aspherical Exc in radial PAW
   METAGGA=      F    non-selfconsistent MetaGGA calc.

 Electronic Relaxation 1
   ENCUT  =  500.0 eV  36.75 Ry    6.06 a.u.   5.82  5.82 49.01*2*pi/ulx,y,z
   ENINI  =  500.0     initial cutoff
   ENAUG  =  345.3 eV  augmentation charge cutoff
   NELM   =     60;   NELMIN=  4; NELMDL= -5     # of ELM steps 
   EDIFF  = 0.1E-04   stopping-criterion for ELM
   LREAL  =      F    real-space projection
   NLSPLINE    = F    spline interpolate recip. space projectors
   LCOMPAT=      F    compatible to vasp.4.4
   GGA_COMPAT  = T    GGA compatible to vasp.4.4-vasp.4.6
   LMAXPAW     = -100 max onsite density
   LMAXMIX     =    2 max onsite mixed and CHGCAR
   VOSKOWN=      0    Vosko Wilk Nusair interpolation
   ROPT   =    0.00000   0.00000
 Ionic relaxation
   EDIFFG = 0.1E-03   stopping-criterion for IOM
   NSW    =      0    number of steps for IOM
   NBLOCK =      1;   KBLOCK =      1    inner block; outer block 
   IBRION =     -1    ionic relax: 0-MD 1-quasi-New 2-CG
   NFREE  =      0    steps in history (QN), initial steepest desc. (CG)
   ISIF   =      2    stress and relaxation
   IWAVPR =     10    prediction:  0-non 1-charg 2-wave 3-comb
   ISYM   =      2    0-nonsym 1-usesym 2-fastsym
   LCORR  =      T    Harris-Foulkes like correction to forces

   POTIM  = 0.5000    time-step for ionic-motion
   TEIN   =    0.0    initial temperature
   TEBEG  =    0.0;   TEEND  =   0.0 temperature during run
   SMASS  =  -3.00    Nose mass-parameter (am)
   estimated Nose-frequenzy (Omega)   =  0.10E-29 period in steps =****** mass=  -0.233E-27a.u.
   SCALEE = 1.0000    scale energy and forces
   NPACO  =    256;   APACO  = 16.0  distance and # of slots for P.C.
   PSTRESS=    0.0 pullay stress

  Mass of Ions in am
   POMASS =  95.94 32.07
  Ionic Valenz
   ZVAL   =   6.00  6.00
  Atomic Wigner-Seitz radii
   RWIGS  =  -1.00 -1.00
  virtual crystal weights 
   VCA    =   1.00  1.00
   NELECT =      18.0000    total number of electrons
   NUPDOWN=      -1.0000    fix difference up-down

 DOS related values:
   EMIN   =  10.00;   EMAX   =-10.00  energy-range for DOS
   EFERMI =   0.00
   ISMEAR =    -5;   SIGMA  =   0.20  broadening in eV -4-tet -1-fermi 0-gaus

 Electronic relaxation 2 (details)
   IALGO  =     68    algorithm
   LDIAG  =      T    sub-space diagonalisation (order eigenvalues)
   LSUBROT=      F    optimize rotation matrix (better conditioning)
   TURBO    =      0    0=normal 1=particle mesh
   IRESTART =      0    0=no restart 2=restart with 2 vectors
   NREBOOT  =      0    no. of reboots
   NMIN     =      0    reboot dimension
   EREF     =   0.00    reference energy to select bands
   IMIX   =      4    mixing-type and parameters
     AMIX     =   0.40;   BMIX     =  1.00
     AMIX_MAG =   1.60;   BMIX_MAG =  1.00
     AMIN     =   0.10
     WC   =   100.;   INIMIX=   1;  MIXPRE=   1;  MAXMIX= -45

 Intra band minimization:
   WEIMIN = 0.0000     energy-eigenvalue tresh-hold
   EBREAK =  0.18E-06  absolut break condition
   DEPER  =   0.30     relativ break condition  

   TIME   =   0.40     timestep for ELM

  volume/ion in A,a.u.               =      78.98       532.95
  Fermi-wavevector in a.u.,A,eV,Ry     =   0.693365  1.310270  6.541070  0.480755
  Thomas-Fermi vector in A             =   1.775558
 
 Write flags
   LWAVE        =      F    write WAVECAR
   LDOWNSAMPLE  =      F    k-point downsampling of WAVECAR
   LCHARG       =      T    write CHGCAR
   LVTOT        =      F    write LOCPOT, total local potential
   LVHAR        =      F    write LOCPOT, Hartree potential only
   LELF         =      F    write electronic localiz. function (ELF)
   LORBIT       =      0    0 simple, 1 ext, 2 COOP (PROOUT), +10 PAW based schemes


 Dipole corrections
   LMONO  =      F    monopole corrections only (constant potential shift)
   LDIPOL =      F    correct potential (dipole corrections)
   IDIPOL =      0    1-x, 2-y, 3-z, 4-all directions 
   EPSILON=  1.0000000 bulk dielectric constant

 Exchange correlation treatment:
   GGA     =    --    GGA type
   LEXCH   =     8    internal setting for exchange type
   VOSKOWN=      0    Vosko Wilk Nusair interpolation
   LHFCALC =     F    Hartree Fock is set to
   LHFONE  =     F    Hartree Fock one center treatment
   AEXX    =    0.0000 exact exchange contribution

 Linear response parameters
   LEPSILON=     F    determine dielectric tensor
   LRPA    =     F    only Hartree local field effects (RPA)
   LNABLA  =     F    use nabla operator in PAW spheres
   LVEL    =     F    velocity operator in full k-point grid
   LINTERFAST=   F  fast interpolation
   KINTER  =     0    interpolate to denser k-point grid
   CSHIFT  =0.1000    complex shift for real part using Kramers Kronig
   OMEGAMAX=  -1.0    maximum frequency
   DEG_THRESHOLD= 0.2000000E-02 threshold for treating states as degnerate
   RTIME   =   -0.100 relaxation time in fs
  (WPLASMAI=    0.000 imaginary part of plasma frequency in eV, 0.658/RTIME)
   DFIELD  = 0.0000000 0.0000000 0.0000000 field for delta impulse in time
 
 Orbital magnetization related:
   ORBITALMAG=     F  switch on orbital magnetization
   LCHIMAG   =     F  perturbation theory with respect to B field
   DQ        =  0.001000  dq finite difference perturbation B field
   LLRAUG    =     F  two centre corrections for induced B field



--------------------------------------------------------------------------------------------------------


 Static calculation
 charge density and potential will be updated during run
 non-spin polarized calculation
 RMM-DIIS sequential band-by-band and
  variant of blocked Davidson during initial phase
 perform sub-space diagonalisation
    before iterative eigenvector-optimisation
 modified Broyden-mixing scheme, WC =      100.0
 initial mixing is a Kerker type mixing with AMIX =  0.4000 and BMIX =      1.0000
 Hartree-type preconditioning will be used
 using additional bands            5
 reciprocal scheme for non local part
 use partial core corrections
 calculate Harris-corrections to forces 
   (improved forces if not selfconsistent)
 use gradient corrections 
 use of overlap-Matrix (Vanderbilt PP)
 Fermi weights with tetrahedron method with Bloechl corrections


--------------------------------------------------------------------------------------------------------


  energy-cutoff  :      500.00
  volume of cell :      236.93
      direct lattice vectors                 reciprocal lattice vectors
     3.190315730  0.000000000  0.000000000     0.313448600  0.180969634  0.000000000
    -1.595157865  2.762894468  0.000000000     0.000000000  0.361939267  0.000000000
     0.000000000  0.000000000 26.879004300     0.000000000  0.000000000  0.037203759

  length of vectors
     3.190315730  3.190315730 26.879004300     0.361939267  0.361939267  0.037203759


 
 k-points in units of 2pi/SCALE and weight: k-density: 4.0                          
   0.00000000  0.00000000  0.00000000       0.016
   0.03918108  0.02262120  0.00000000       0.094
   0.07836215  0.04524241  0.00000000       0.094
   0.11754323  0.06786361  0.00000000       0.094
   0.15672430  0.09048482  0.00000000       0.047
   0.03918108  0.06786361  0.00000000       0.094
   0.07836215  0.09048482  0.00000000       0.188
   0.11754323  0.11310602  0.00000000       0.188
   0.07836215  0.13572723  0.00000000       0.094
   0.11754323  0.15834843  0.00000000       0.094
 
 k-points in reciprocal lattice and weights: k-density: 4.0                          
   0.00000000  0.00000000  0.00000000       0.016
   0.12500000  0.00000000  0.00000000       0.094
   0.25000000  0.00000000  0.00000000       0.094
   0.37500000  0.00000000  0.00000000       0.094
   0.50000000  0.00000000  0.00000000       0.047
   0.12500000  0.12500000  0.00000000       0.094
   0.25000000  0.12500000  0.00000000       0.188
   0.37500000  0.12500000  0.00000000       0.188
   0.25000000  0.25000000  0.00000000       0.094
   0.37500000  0.25000000  0.00000000       0.094
 
 position of ions in fractional coordinates (direct lattice) 
   0.33333300  0.66666700  0.13838872
   0.66666700  0.33333300  0.08016914
   0.66666600  0.33333300  0.19660830
 
 position of ions in cartesian coordinates  (Angst):
  -0.00000160  1.84193057  3.71975108
   1.59515946  0.92096390  2.15486668
   1.59515627  0.92096390  5.28463547
 


--------------------------------------------------------------------------------------------------------


 k-point  1 :   0.0000 0.0000 0.0000  plane waves:    5997
 k-point  2 :   0.1250 0.0000 0.0000  plane waves:    5974
 k-point  3 :   0.2500 0.0000 0.0000  plane waves:    6000
 k-point  4 :   0.3750 0.0000 0.0000  plane waves:    6054
 k-point  5 :   0.5000 0.0000 0.0000  plane waves:    6040
 k-point  6 :   0.1250 0.1250 0.0000  plane waves:    5994
 k-point  7 :   0.2500 0.1250 0.0000  plane waves:    6025
 k-point  8 :   0.3750 0.1250 0.0000  plane waves:    6031
 k-point  9 :   0.2500 0.2500 0.0000  plane waves:    6036
 k-point 10 :   0.3750 0.2500 0.0000  plane waves:    5994

 maximum and minimum number of plane-waves per node :      3031     2979

 maximum number of plane-waves:      6054
 maximum index in each direction: 
   IXMAX=    5   IYMAX=    5   IZMAX=   49
   IXMIN=   -6   IYMIN=   -6   IZMIN=  -49


 parallel 3D FFT for wavefunctions:
    minimum data exchange during FFTs selected (reduces bandwidth)
 parallel 3D FFT for charge:
    minimum data exchange during FFTs selected (reduces bandwidth)


 total amount of memory used by VASP MPI-rank0    52811. kBytes
=======================================================================

   base      :      30000. kBytes
   nonl-proj :       8877. kBytes
   fftplans  :       4036. kBytes
   grid      :       6443. kBytes
   one-center:         31. kBytes
   wavefun   :       3424. kBytes
 
     INWAV:  cpu time    0.0010: real time    0.0002
 Broyden mixing: mesh for mixing (old mesh)
   NGX = 11   NGY = 11   NGZ = 99
  (NGX  = 36   NGY  = 36   NGZ  =300)
  gives a total of  11979 points

 initial charge density was supplied:
 charge density of overlapping atoms calculated
 number of electron      18.0000000 magnetization 
 keeping initial charge density in first step


--------------------------------------------------------------------------------------------------------


 Maximum index for augmentation-charges         3162 (set IRDMAX)


--------------------------------------------------------------------------------------------------------


 First call to EWALD:  gamma=   0.286
 Maximum number of real-space cells 6x 6x 1
 Maximum number of reciprocal cells 2x 2x10

    FEWALD:  cpu time    0.0010: real time    0.0015


--------------------------------------- Iteration      1(   1)  ---------------------------------------


    POTLOK:  cpu time    0.0540: real time    0.0845
    SETDIJ:  cpu time    0.0040: real time    0.0038
     EDDAV:  cpu time    0.2520: real time    0.2563
 BZINTS: Fermi energy:  7.078643; 18.000000 electrons
         Band energy:  -6.217957;  BLOECHL correction: -0.221501
       DOS:  cpu time    0.0010: real time    0.0011
    --------------------------------------------
      LOOP:  cpu time    0.3110: real time    0.3457

 eigenvalue-minimisations  :   280
 total energy-change (2. order) : 0.1372323E+03  (-0.5789006E+03)
 number of electron      18.0000000 magnetization 
 augmentation part       18.0000000 magnetization 

 Free energy of the ion-electron system (eV)
  ---------------------------------------------------
  alpha Z        PSCENC =        12.51390764
  Ewald energy   TEWEN  =      4286.25630342
  -Hartree energ DENC   =     -4967.71356795
  -exchange      EXHF   =         0.00000000
  -V(xc)+E(xc)   XCENC  =       -36.31055719
  PAW double counting   =       406.88651198     -329.34073203
  entropy T*S    EENTRO =         0.00000000
  eigenvalues    EBANDS =        -6.21795671
  atomic energy  EATOM  =       771.15836241
  Solvation  Ediel_sol  =         0.00000000
  ---------------------------------------------------
  free energy    TOTEN  =       137.23227158 eV

  energy without entropy =      137.23227158  energy(sigma->0) =      137.23227158


--------------------------------------------------------------------------------------------------------




--------------------------------------- Iteration      1(   2)  ---------------------------------------


     EDDAV:  cpu time    0.3739: real time    0.3755
 BZINTS: Fermi energy: -2.162015; 18.000000 electrons
         Band energy:-150.313466;  BLOECHL correction:  0.000000
       DOS:  cpu time    0.0000: real time    0.0002
    --------------------------------------------
      LOOP:  cpu time    0.3739: real time    0.3757

 eigenvalue-minimisations  :   474
 total energy-change (2. order) :-0.1440955E+03  (-0.1353257E+03)
 number of electron      18.0000000 magnetization 
 augmentation part       18.0000000 magnetization 

 Free energy of the ion-electron system (eV)
  ---------------------------------------------------
  alpha Z        PSCENC =        12.51390764
  Ewald energy   TEWEN  =      4286.25630342
  -Hartree energ DENC   =     -4967.71356795
  -exchange      EXHF   =         0.00000000
  -V(xc)+E(xc)   XCENC  =       -36.31055719
  PAW double counting   =       406.88651198     -329.34073203
  entropy T*S    EENTRO =         0.00000000
  eigenvalues    EBANDS =      -150.31346588
  atomic energy  EATOM  =       771.15836241
  Solvation  Ediel_sol  =         0.00000000
  ---------------------------------------------------
  free energy    TOTEN  =        -6.86323759 eV

  energy without entropy =       -6.86323759  energy(sigma->0) =       -6.86323759


--------------------------------------------------------------------------------------------------------




--------------------------------------- Iteration      1(   3)  ---------------------------------------


     EDDAV:  cpu time    0.3130: real time    0.3127
 BZINTS: Fermi energy: -3.333747; 18.000000 electrons
         Band energy:-166.505765;  BLOECHL correction:  0.000000
       DOS:  cpu time    0.0000: real time    0.0002
    --------------------------------------------
      LOOP:  cpu time    0.3130: real time    0.3129

 eigenvalue-minimisations  :   382
 total energy-change (2. order) :-0.1619230E+02  (-0.1602765E+02)
 number of electron      18.0000000 magnetization 
 augmentation part       18.0000000 magnetization 

 Free energy of the ion-electron system (eV)
  ---------------------------------------------------
  alpha Z        PSCENC =        12.51390764
  Ewald energy   TEWEN  =      4286.25630342
  -Hartree energ DENC   =     -4967.71356795
  -exchange      EXHF   =         0.00000000
  -V(xc)+E(xc)   XCENC  =       -36.31055719
  PAW double counting   =       406.88651198     -329.34073203
  entropy T*S    EENTRO =         0.00000000
  eigenvalues    EBANDS =      -166.50576479
  atomic energy  EATOM  =       771.15836241
  Solvation  Ediel_sol  =         0.00000000
  ---------------------------------------------------
  free energy    TOTEN  =       -23.05553650 eV

  energy without entropy =      -23.05553650  energy(sigma->0) =      -23.05553650


--------------------------------------------------------------------------------------------------------




--------------------------------------- Iteration      1(   4)  ---------------------------------------


     EDDAV:  cpu time    0.3070: real time    0.3098
 BZINTS: Fermi energy: -3.369033; 18.000000 electrons
         Band energy:-166.848862;  BLOECHL correction:  0.000000
       DOS:  cpu time    0.0000: real time    0.0002
    --------------------------------------------
      LOOP:  cpu time    0.3070: real time    0.3100

 eigenvalue-minimisations  :   372
 total energy-change (2. order) :-0.3430972E+00  (-0.3405124E+00)
 number of electron      18.0000000 magnetization 
 augmentation part       18.0000000 magnetization 

 Free energy of the ion-electron system (eV)
  ---------------------------------------------------
  alpha Z        PSCENC =        12.51390764
  Ewald energy   TEWEN  =      4286.25630342
  -Hartree energ DENC   =     -4967.71356795
  -exchange      EXHF   =         0.00000000
  -V(xc)+E(xc)   XCENC  =       -36.31055719
  PAW double counting   =       406.88651198     -329.34073203
  entropy T*S    EENTRO =         0.00000000
  eigenvalues    EBANDS =      -166.84886204
  atomic energy  EATOM  =       771.15836241
  Solvation  Ediel_sol  =         0.00000000
  ---------------------------------------------------
  free energy    TOTEN  =       -23.39863375 eV

  energy without entropy =      -23.39863375  energy(sigma->0) =      -23.39863375


--------------------------------------------------------------------------------------------------------




--------------------------------------- Iteration      1(   5)  ---------------------------------------


     EDDAV:  cpu time    0.2950: real time    0.2947
 BZINTS: Fermi energy: -3.313888; 18.000000 electrons
         Band energy:-166.858623;  BLOECHL correction:  0.000000
       DOS:  cpu time    0.0000: real time    0.0002
    CHARGE:  cpu time    0.0250: real time    0.0248
    MIXING:  cpu time    0.0020: real time    0.0017
    --------------------------------------------
      LOOP:  cpu time    0.3220: real time    0.3215

 eigenvalue-minimisations  :   354
 total energy-change (2. order) :-0.9760780E-02  (-0.9758281E-02)
 number of electron      18.0000025 magnetization 
 augmentation part       -0.9454552 magnetization 

 Broyden mixing:
  rms(total) = 0.68884E+00    rms(broyden)= 0.68884E+00
  rms(prec ) = 0.74612E+00
  weight for this iteration     100.00

 Free energy of the ion-electron system (eV)
  ---------------------------------------------------
  alpha Z        PSCENC =        12.51390764
  Ewald energy   TEWEN  =      4286.25630342
  -Hartree energ DENC   =     -4967.71356795
  -exchange      EXHF   =         0.00000000
  -V(xc)+E(xc)   XCENC  =       -36.31055719
  PAW double counting   =       406.88651198     -329.34073203
  entropy T*S    EENTRO =         0.00000000
  eigenvalues    EBANDS =      -166.85862282
  atomic energy  EATOM  =       771.15836241
  Solvation  Ediel_sol  =         0.00000000
  ---------------------------------------------------
  free energy    TOTEN  =       -23.40839453 eV

  energy without entropy =      -23.40839453  energy(sigma->0) =      -23.40839453


--------------------------------------------------------------------------------------------------------




--------------------------------------- Iteration      1(   6)  ---------------------------------------


    POTLOK:  cpu time    0.0480: real time    0.0485
    SETDIJ:  cpu time    0.0030: real time    0.0025
    EDDIAG:  cpu time    0.0520: real time    0.0524
  RMM-DIIS:  cpu time    0.2190: real time    0.2189
    ORTHCH:  cpu time    0.0050: real time    0.0049
 BZINTS: Fermi energy: -4.384310; 18.000000 electrons
         Band energy:-167.346258;  BLOECHL correction:  0.000000
       DOS:  cpu time    0.0000: real time    0.0002
    CHARGE:  cpu time    0.0240: real time    0.0242
    MIXING:  cpu time    0.0020: real time    0.0016
    --------------------------------------------
      LOOP:  cpu time    0.3529: real time    0.3532

 eigenvalue-minimisations  :   295
 total energy-change (2. order) : 0.1160428E+01  (-0.5440882E+00)
 number of electron      18.0000023 magnetization 
 augmentation part       -0.3987106 magnetization 

 Broyden mixing:
  rms(total) = 0.26161E+00    rms(broyden)= 0.26161E+00
  rms(prec ) = 0.30730E+00
  weight for this iteration     100.00

 eigenvalues of (default mixing * dielectric matrix)
  average eigenvalue GAMMA=   0.8336
  0.8336

 Free energy of the ion-electron system (eV)
  ---------------------------------------------------
  alpha Z        PSCENC =        12.51390764
  Ewald energy   TEWEN  =      4286.25630342
  -Hartree energ DENC   =     -4966.06251867
  -exchange      EXHF   =         0.00000000
  -V(xc)+E(xc)   XCENC  =       -35.42336183
  PAW double counting   =       423.97401502     -347.31841613
  entropy T*S    EENTRO =         0.00000000
  eigenvalues    EBANDS =      -167.34625825
  atomic energy  EATOM  =       771.15836241
  Solvation  Ediel_sol  =         0.00000000
  ---------------------------------------------------
  free energy    TOTEN  =       -22.24796638 eV

  energy without entropy =      -22.24796638  energy(sigma->0) =      -22.24796638


--------------------------------------------------------------------------------------------------------




--------------------------------------- Iteration      1(   7)  ---------------------------------------


    POTLOK:  cpu time    0.0420: real time    0.0432
    SETDIJ:  cpu time    0.0030: real time    0.0025
    EDDIAG:  cpu time    0.0520: real time    0.0517
  RMM-DIIS:  cpu time    0.2110: real time    0.2111
    ORTHCH:  cpu time    0.0040: real time    0.0049
 BZINTS: Fermi energy: -3.805956; 18.000000 electrons
         Band energy:-161.198402;  BLOECHL correction:  0.000000
       DOS:  cpu time    0.0000: real time    0.0002
    CHARGE:  cpu time    0.0240: real time    0.0242
    MIXING:  cpu time    0.0020: real time    0.0016
    --------------------------------------------
      LOOP:  cpu time    0.3379: real time    0.3394

 eigenvalue-minimisations  :   291
 total energy-change (2. order) : 0.3854240E+00  (-0.5541783E-01)
 number of electron      18.0000024 magnetization 
 augmentation part       -0.5989058 magnetization 

 Broyden mixing:
  rms(total) = 0.15000E+00    rms(broyden)= 0.15000E+00
  rms(prec ) = 0.15835E+00
  weight for this iteration     100.00

 eigenvalues of (default mixing * dielectric matrix)
  average eigenvalue GAMMA=   1.3618
  0.6660  2.0577

 Free energy of the ion-electron system (eV)
  ---------------------------------------------------
  alpha Z        PSCENC =        12.51390764
  Ewald energy   TEWEN  =      4286.25630342
  -Hartree energ DENC   =     -4971.45006099
  -exchange      EXHF   =         0.00000000
  -V(xc)+E(xc)   XCENC  =       -35.56685701
  PAW double counting   =       441.42205807     -364.99785407
  entropy T*S    EENTRO =         0.00000000
  eigenvalues    EBANDS =      -161.19840182
  atomic energy  EATOM  =       771.15836241
  Solvation  Ediel_sol  =         0.00000000
  ---------------------------------------------------
  free energy    TOTEN  =       -21.86254234 eV

  energy without entropy =      -21.86254234  energy(sigma->0) =      -21.86254234


--------------------------------------------------------------------------------------------------------




--------------------------------------- Iteration      1(   8)  ---------------------------------------


    POTLOK:  cpu time    0.0430: real time    0.0458
    SETDIJ:  cpu time    0.0030: real time    0.0025
    EDDIAG:  cpu time    0.0520: real time    0.0515
  RMM-DIIS:  cpu time    0.2230: real time    0.2232
    ORTHCH:  cpu time    0.0050: real time    0.0049
 BZINTS: Fermi energy: -3.706388; 18.000000 electrons
         Band energy:-156.986061;  BLOECHL correction:  0.000000
       DOS:  cpu time    0.0000: real time    0.0002
    CHARGE:  cpu time    0.0240: real time    0.0242
    MIXING:  cpu time    0.0020: real time    0.0024
    --------------------------------------------
      LOOP:  cpu time    0.3519: real time    0.3547

 eigenvalue-minimisations  :   306
 total energy-change (2. order) : 0.5992746E-01  (-0.2337651E-01)
 number of electron      18.0000024 magnetization 
 augmentation part       -0.5519511 magnetization 

 Broyden mixing:
  rms(total) = 0.35559E-01    rms(broyden)= 0.35558E-01
  rms(prec ) = 0.37906E-01
  weight for this iteration     100.00

 eigenvalues of (default mixing * dielectric matrix)
  average eigenvalue GAMMA=   1.4995
  1.9169  1.9169  0.6646

 Free energy of the ion-electron system (eV)
  ---------------------------------------------------
  alpha Z        PSCENC =        12.51390764
  Ewald energy   TEWEN  =      4286.25630342
  -Hartree energ DENC   =     -4975.35743249
  -exchange      EXHF   =         0.00000000
  -V(xc)+E(xc)   XCENC  =       -35.29570265
  PAW double counting   =       465.02499233     -389.11698502
  entropy T*S    EENTRO =         0.00000000
  eigenvalues    EBANDS =      -156.98606052
  atomic energy  EATOM  =       771.15836241
  Solvation  Ediel_sol  =         0.00000000
  ---------------------------------------------------
  free energy    TOTEN  =       -21.80261488 eV

  energy without entropy =      -21.80261488  energy(sigma->0) =      -21.80261488


--------------------------------------------------------------------------------------------------------




--------------------------------------- Iteration      1(   9)  ---------------------------------------


    POTLOK:  cpu time    0.0430: real time    0.0431
    SETDIJ:  cpu time    0.0020: real time    0.0025
    EDDIAG:  cpu time    0.0520: real time    0.0514
  RMM-DIIS:  cpu time    0.2450: real time    0.2453
    ORTHCH:  cpu time    0.0050: real time    0.0049
 BZINTS: Fermi energy: -3.634466; 18.000000 electrons
         Band energy:-155.670171;  BLOECHL correction:  0.000000
       DOS:  cpu time    0.0000: real time    0.0002
    CHARGE:  cpu time    0.0240: real time    0.0242
    MIXING:  cpu time    0.0020: real time    0.0018
    --------------------------------------------
      LOOP:  cpu time    0.3729: real time    0.3735

 eigenvalue-minimisations  :   335
 total energy-change (2. order) : 0.4849209E-02  (-0.8789721E-03)
 number of electron      18.0000024 magnetization 
 augmentation part       -0.5467649 magnetization 

 Broyden mixing:
  rms(total) = 0.96477E-02    rms(broyden)= 0.96475E-02
  rms(prec ) = 0.11890E-01
  weight for this iteration     100.00

 eigenvalues of (default mixing * dielectric matrix)
  average eigenvalue GAMMA=   1.5070
  0.6670  1.0470  2.4363  1.8777

 Free energy of the ion-electron system (eV)
  ---------------------------------------------------
  alpha Z        PSCENC =        12.51390764
  Ewald energy   TEWEN  =      4286.25630342
  -Hartree energ DENC   =     -4976.64242466
  -exchange      EXHF   =         0.00000000
  -V(xc)+E(xc)   XCENC  =       -35.24170051
  PAW double counting   =       470.43317065     -394.60521341
  entropy T*S    EENTRO =         0.00000000
  eigenvalues    EBANDS =      -155.67017121
  atomic energy  EATOM  =       771.15836241
  Solvation  Ediel_sol  =         0.00000000
  ---------------------------------------------------
  free energy    TOTEN  =       -21.79776567 eV

  energy without entropy =      -21.79776567  energy(sigma->0) =      -21.79776567


--------------------------------------------------------------------------------------------------------




--------------------------------------- Iteration      1(  10)  ---------------------------------------


    POTLOK:  cpu time    0.0430: real time    0.0431
    SETDIJ:  cpu time    0.0030: real time    0.0025
    EDDIAG:  cpu time    0.0510: real time    0.0515
  RMM-DIIS:  cpu time    0.2460: real time    0.2458
    ORTHCH:  cpu time    0.0050: real time    0.0049
 BZINTS: Fermi energy: -3.576955; 18.000000 electrons
         Band energy:-154.542087;  BLOECHL correction:  0.000000
       DOS:  cpu time    0.0000: real time    0.0002
    CHARGE:  cpu time    0.0240: real time    0.0242
    MIXING:  cpu time    0.0020: real time    0.0018
    --------------------------------------------
      LOOP:  cpu time    0.3739: real time    0.3740

 eigenvalue-minimisations  :   336
 total energy-change (2. order) : 0.7447966E-03  (-0.1728825E-03)
 number of electron      18.0000024 magnetization 
 augmentation part       -0.5513245 magnetization 

 Broyden mixing:
  rms(total) = 0.44135E-02    rms(broyden)= 0.44134E-02
  rms(prec ) = 0.60588E-02
  weight for this iteration     100.00

 eigenvalues of (default mixing * dielectric matrix)
  average eigenvalue GAMMA=   1.6664
  0.6676  1.0366  2.1648  2.2315  2.2315

 Free energy of the ion-electron system (eV)
  ---------------------------------------------------
  alpha Z        PSCENC =        12.51390764
  Ewald energy   TEWEN  =      4286.25630342
  -Hartree energ DENC   =     -4977.76064400
  -exchange      EXHF   =         0.00000000
  -V(xc)+E(xc)   XCENC  =       -35.22064640
  PAW double counting   =       472.69481525     -396.89703263
  entropy T*S    EENTRO =         0.00000000
  eigenvalues    EBANDS =      -154.54208657
  atomic energy  EATOM  =       771.15836241
  Solvation  Ediel_sol  =         0.00000000
  ---------------------------------------------------
  free energy    TOTEN  =       -21.79702087 eV

  energy without entropy =      -21.79702087  energy(sigma->0) =      -21.79702087


--------------------------------------------------------------------------------------------------------




--------------------------------------- Iteration      1(  11)  ---------------------------------------


    POTLOK:  cpu time    0.0420: real time    0.0468
    SETDIJ:  cpu time    0.0030: real time    0.0025
    EDDIAG:  cpu time    0.0510: real time    0.0514
  RMM-DIIS:  cpu time    0.2310: real time    0.2304
    ORTHCH:  cpu time    0.0040: real time    0.0049
 BZINTS: Fermi energy: -3.520208; 18.000000 electrons
         Band energy:-153.428016;  BLOECHL correction:  0.000000
       DOS:  cpu time    0.0000: real time    0.0002
    CHARGE:  cpu time    0.0250: real time    0.0243
    MIXING:  cpu time    0.0020: real time    0.0019
    --------------------------------------------
      LOOP:  cpu time    0.3579: real time    0.3626

 eigenvalue-minimisations  :   314
 total energy-change (2. order) : 0.8541876E-04  (-0.1673112E-03)
 number of electron      18.0000024 magnetization 
 augmentation part       -0.5476041 magnetization 

 Broyden mixing:
  rms(total) = 0.55228E-02    rms(broyden)= 0.55228E-02
  rms(prec ) = 0.63651E-02
  weight for this iteration     100.00

 eigenvalues of (default mixing * dielectric matrix)
  average eigenvalue GAMMA=   1.6710
  2.9143  2.6820  0.6682  0.9299  1.4158  1.4158

 Free energy of the ion-electron system (eV)
  ---------------------------------------------------
  alpha Z        PSCENC =        12.51390764
  Ewald energy   TEWEN  =      4286.25630342
  -Hartree energ DENC   =     -4978.89772991
  -exchange      EXHF   =         0.00000000
  -V(xc)+E(xc)   XCENC  =       -35.20716197
  PAW double counting   =       472.13581055     -396.32841136
  entropy T*S    EENTRO =         0.00000000
  eigenvalues    EBANDS =      -153.42801624
  atomic energy  EATOM  =       771.15836241
  Solvation  Ediel_sol  =         0.00000000
  ---------------------------------------------------
  free energy    TOTEN  =       -21.79693546 eV

  energy without entropy =      -21.79693546  energy(sigma->0) =      -21.79693546


--------------------------------------------------------------------------------------------------------




--------------------------------------- Iteration      1(  12)  ---------------------------------------


    POTLOK:  cpu time    0.0430: real time    0.0431
    SETDIJ:  cpu time    0.0030: real time    0.0025
    EDDIAG:  cpu time    0.0510: real time    0.0514
  RMM-DIIS:  cpu time    0.2240: real time    0.2236
    ORTHCH:  cpu time    0.0040: real time    0.0049
 BZINTS: Fermi energy: -3.484591; 18.000000 electrons
         Band energy:-152.764138;  BLOECHL correction:  0.000000
       DOS:  cpu time    0.0000: real time    0.0002
    CHARGE:  cpu time    0.0250: real time    0.0245
    MIXING:  cpu time    0.0020: real time    0.0020
    --------------------------------------------
      LOOP:  cpu time    0.3519: real time    0.3522

 eigenvalue-minimisations  :   302
 total energy-change (2. order) : 0.2115873E-03  (-0.5490986E-04)
 number of electron      18.0000024 magnetization 
 augmentation part       -0.5503556 magnetization 

 Broyden mixing:
  rms(total) = 0.17387E-02    rms(broyden)= 0.17386E-02
  rms(prec ) = 0.23333E-02
  weight for this iteration     100.00

 eigenvalues of (default mixing * dielectric matrix)
  average eigenvalue GAMMA=   1.9401
  3.8164  2.7230  2.7230  0.6682  0.9633  1.4384  1.2480

 Free energy of the ion-electron system (eV)
  ---------------------------------------------------
  alpha Z        PSCENC =        12.51390764
  Ewald energy   TEWEN  =      4286.25630342
  -Hartree energ DENC   =     -4979.56718927
  -exchange      EXHF   =         0.00000000
  -V(xc)+E(xc)   XCENC  =       -35.20378611
  PAW double counting   =       472.30903934     -396.49922326
  entropy T*S    EENTRO =         0.00000000
  eigenvalues    EBANDS =      -152.76413805
  atomic energy  EATOM  =       771.15836241
  Solvation  Ediel_sol  =         0.00000000
  ---------------------------------------------------
  free energy    TOTEN  =       -21.79672387 eV

  energy without entropy =      -21.79672387  energy(sigma->0) =      -21.79672387


--------------------------------------------------------------------------------------------------------




--------------------------------------- Iteration      1(  13)  ---------------------------------------


    POTLOK:  cpu time    0.0440: real time    0.0443
    SETDIJ:  cpu time    0.0030: real time    0.0025
    EDDIAG:  cpu time    0.0510: real time    0.0514
  RMM-DIIS:  cpu time    0.2030: real time    0.2025
    ORTHCH:  cpu time    0.0050: real time    0.0049
 BZINTS: Fermi energy: -3.445794; 18.000000 electrons
         Band energy:-152.046564;  BLOECHL correction:  0.000000
       DOS:  cpu time    0.0000: real time    0.0002
    CHARGE:  cpu time    0.0240: real time    0.0243
    MIXING:  cpu time    0.0020: real time    0.0021
    --------------------------------------------
      LOOP:  cpu time    0.3319: real time    0.3322

 eigenvalue-minimisations  :   285
 total energy-change (2. order) :-0.2769930E-03  (-0.1553900E-04)
 number of electron      18.0000024 magnetization 
 augmentation part       -0.5487600 magnetization 

 Broyden mixing:
  rms(total) = 0.20086E-02    rms(broyden)= 0.20086E-02
  rms(prec ) = 0.22587E-02
  weight for this iteration     100.00

 eigenvalues of (default mixing * dielectric matrix)
  average eigenvalue GAMMA=   1.9031
  4.7520  2.7046  2.3768  1.4178  1.4178  0.6684  0.9436  0.9436

 Free energy of the ion-electron system (eV)
  ---------------------------------------------------
  alpha Z        PSCENC =        12.51390764
  Ewald energy   TEWEN  =      4286.25630342
  -Hartree energ DENC   =     -4980.28677049
  -exchange      EXHF   =         0.00000000
  -V(xc)+E(xc)   XCENC  =       -35.19692876
  PAW double counting   =       472.26036343     -396.45567445
  entropy T*S    EENTRO =         0.00000000
  eigenvalues    EBANDS =      -152.04656406
  atomic energy  EATOM  =       771.15836241
  Solvation  Ediel_sol  =         0.00000000
  ---------------------------------------------------
  free energy    TOTEN  =       -21.79700086 eV

  energy without entropy =      -21.79700086  energy(sigma->0) =      -21.79700086


--------------------------------------------------------------------------------------------------------




--------------------------------------- Iteration      1(  14)  ---------------------------------------


    POTLOK:  cpu time    0.0450: real time    0.0467
    SETDIJ:  cpu time    0.0030: real time    0.0025
    EDDIAG:  cpu time    0.0510: real time    0.0514
  RMM-DIIS:  cpu time    0.1930: real time    0.1933
    ORTHCH:  cpu time    0.0050: real time    0.0049
 BZINTS: Fermi energy: -3.437101; 18.000000 electrons
         Band energy:-151.892359;  BLOECHL correction:  0.000000
       DOS:  cpu time    0.0000: real time    0.0002
    CHARGE:  cpu time    0.0250: real time    0.0244
    MIXING:  cpu time    0.0020: real time    0.0022
    --------------------------------------------
      LOOP:  cpu time    0.3240: real time    0.3255

 eigenvalue-minimisations  :   254
 total energy-change (2. order) :-0.3320855E-04  (-0.2598471E-05)
 number of electron      18.0000024 magnetization 
 augmentation part       -0.5499278 magnetization 

 Broyden mixing:
  rms(total) = 0.49596E-03    rms(broyden)= 0.49595E-03
  rms(prec ) = 0.68574E-03
  weight for this iteration     100.00

 eigenvalues of (default mixing * dielectric matrix)
  average eigenvalue GAMMA=   2.1565
  6.4244  2.9537  2.3835  2.3835  1.5045  0.6684  1.1862  0.9519  0.9519

 Free energy of the ion-electron system (eV)
  ---------------------------------------------------
  alpha Z        PSCENC =        12.51390764
  Ewald energy   TEWEN  =      4286.25630342
  -Hartree energ DENC   =     -4980.44345215
  -exchange      EXHF   =         0.00000000
  -V(xc)+E(xc)   XCENC  =       -35.19912541
  PAW double counting   =       472.07577388     -396.26644458
  entropy T*S    EENTRO =         0.00000000
  eigenvalues    EBANDS =      -151.89235928
  atomic energy  EATOM  =       771.15836241
  Solvation  Ediel_sol  =         0.00000000
  ---------------------------------------------------
  free energy    TOTEN  =       -21.79703407 eV

  energy without entropy =      -21.79703407  energy(sigma->0) =      -21.79703407


--------------------------------------------------------------------------------------------------------




--------------------------------------- Iteration      1(  15)  ---------------------------------------


    POTLOK:  cpu time    0.0460: real time    0.0460
    SETDIJ:  cpu time    0.0020: real time    0.0025
    EDDIAG:  cpu time    0.0520: real time    0.0514
  RMM-DIIS:  cpu time    0.1600: real time    0.1601
    ORTHCH:  cpu time    0.0050: real time    0.0049
 BZINTS: Fermi energy: -3.427979; 18.000000 electrons
         Band energy:-151.738081;  BLOECHL correction:  0.000000
       DOS:  cpu time    0.0000: real time    0.0002
    CHARGE:  cpu time    0.0240: real time    0.0244
    MIXING:  cpu time    0.0020: real time    0.0023
    --------------------------------------------
      LOOP:  cpu time    0.2910: real time    0.2917

 eigenvalue-minimisations  :   194
 total energy-change (2. order) :-0.1105670E-03  (-0.1106472E-05)
 number of electron      18.0000024 magnetization 
 augmentation part       -0.5496802 magnetization 

 Broyden mixing:
  rms(total) = 0.28319E-03    rms(broyden)= 0.28319E-03
  rms(prec ) = 0.37825E-03
  weight for this iteration     100.00

 eigenvalues of (default mixing * dielectric matrix)
  average eigenvalue GAMMA=   2.1412
  6.5153  3.5501  2.6183  0.6684  1.7628  1.7628  1.5316  1.0620  1.0068  0.9336

 Free energy of the ion-electron system (eV)
  ---------------------------------------------------
  alpha Z        PSCENC =        12.51390764
  Ewald energy   TEWEN  =      4286.25630342
  -Hartree energ DENC   =     -4980.59788346
  -exchange      EXHF   =         0.00000000
  -V(xc)+E(xc)   XCENC  =       -35.19892048
  PAW double counting   =       472.10228293     -396.29311571
  entropy T*S    EENTRO =         0.00000000
  eigenvalues    EBANDS =      -151.73808139
  atomic energy  EATOM  =       771.15836241
  Solvation  Ediel_sol  =         0.00000000
  ---------------------------------------------------
  free energy    TOTEN  =       -21.79714464 eV

  energy without entropy =      -21.79714464  energy(sigma->0) =      -21.79714464


--------------------------------------------------------------------------------------------------------




--------------------------------------- Iteration      1(  16)  ---------------------------------------


    POTLOK:  cpu time    0.0460: real time    0.0461
    SETDIJ:  cpu time    0.0030: real time    0.0025
    EDDIAG:  cpu time    0.0510: real time    0.0516
  RMM-DIIS:  cpu time    0.1550: real time    0.1546
    ORTHCH:  cpu time    0.0040: real time    0.0049
 BZINTS: Fermi energy: -3.423989; 18.000000 electrons
         Band energy:-151.675018;  BLOECHL correction:  0.000000
       DOS:  cpu time    0.0000: real time    0.0002
    CHARGE:  cpu time    0.0260: real time    0.0242
    MIXING:  cpu time    0.0020: real time    0.0024
    --------------------------------------------
      LOOP:  cpu time    0.2870: real time    0.2865

 eigenvalue-minimisations  :   182
 total energy-change (2. order) :-0.3331575E-04  (-0.4618777E-06)
 number of electron      18.0000024 magnetization 
 augmentation part       -0.5498194 magnetization 

 Broyden mixing:
  rms(total) = 0.16999E-03    rms(broyden)= 0.16999E-03
  rms(prec ) = 0.21635E-03
  weight for this iteration     100.00

 eigenvalues of (default mixing * dielectric matrix)
  average eigenvalue GAMMA=   2.3003
  7.3066  3.9076  3.0108  2.6282  2.1387  1.5514  0.6684  1.1162  1.0787  0.9731
  0.9231

 Free energy of the ion-electron system (eV)
  ---------------------------------------------------
  alpha Z        PSCENC =        12.51390764
  Ewald energy   TEWEN  =      4286.25630342
  -Hartree energ DENC   =     -4980.66007295
  -exchange      EXHF   =         0.00000000
  -V(xc)+E(xc)   XCENC  =       -35.19879995
  PAW double counting   =       472.15832804     -396.35018814
  entropy T*S    EENTRO =         0.00000000
  eigenvalues    EBANDS =      -151.67501843
  atomic energy  EATOM  =       771.15836241
  Solvation  Ediel_sol  =         0.00000000
  ---------------------------------------------------
  free energy    TOTEN  =       -21.79717795 eV

  energy without entropy =      -21.79717795  energy(sigma->0) =      -21.79717795


--------------------------------------------------------------------------------------------------------




--------------------------------------- Iteration      1(  17)  ---------------------------------------


    POTLOK:  cpu time    0.0440: real time    0.0452
    SETDIJ:  cpu time    0.0030: real time    0.0025
    EDDIAG:  cpu time    0.0510: real time    0.0514
  RMM-DIIS:  cpu time    0.1410: real time    0.1403
    ORTHCH:  cpu time    0.0040: real time    0.0049
 BZINTS: Fermi energy: -3.422263; 18.000000 electrons
         Band energy:-151.637368;  BLOECHL correction:  0.000000
       DOS:  cpu time    0.0000: real time    0.0002
    CHARGE:  cpu time    0.0250: real time    0.0242
    MIXING:  cpu time    0.0020: real time    0.0025
    --------------------------------------------
      LOOP:  cpu time    0.2700: real time    0.2713

 eigenvalue-minimisations  :   162
 total energy-change (2. order) :-0.4456424E-04  (-0.3304469E-06)
 number of electron      18.0000024 magnetization 
 augmentation part       -0.5498400 magnetization 

 Broyden mixing:
  rms(total) = 0.14068E-03    rms(broyden)= 0.14067E-03
  rms(prec ) = 0.16236E-03
  weight for this iteration     100.00

 eigenvalues of (default mixing * dielectric matrix)
  average eigenvalue GAMMA=   2.3205
  7.7490  4.9540  2.9265  2.4962  2.1091  1.4913  1.4913  0.6684  1.0472  1.0472
  0.9327  0.9327

 Free energy of the ion-electron system (eV)
  ---------------------------------------------------
  alpha Z        PSCENC =        12.51390764
  Ewald energy   TEWEN  =      4286.25630342
  -Hartree energ DENC   =     -4980.69861692
  -exchange      EXHF   =         0.00000000
  -V(xc)+E(xc)   XCENC  =       -35.19895452
  PAW double counting   =       472.11298074     -396.30383708
  entropy T*S    EENTRO =         0.00000000
  eigenvalues    EBANDS =      -151.63736821
  atomic energy  EATOM  =       771.15836241
  Solvation  Ediel_sol  =         0.00000000
  ---------------------------------------------------
  free energy    TOTEN  =       -21.79722252 eV

  energy without entropy =      -21.79722252  energy(sigma->0) =      -21.79722252


--------------------------------------------------------------------------------------------------------




--------------------------------------- Iteration      1(  18)  ---------------------------------------


    POTLOK:  cpu time    0.0450: real time    0.0479
    SETDIJ:  cpu time    0.0030: real time    0.0025
    EDDIAG:  cpu time    0.0510: real time    0.0513
  RMM-DIIS:  cpu time    0.1240: real time    0.1235
    ORTHCH:  cpu time    0.0040: real time    0.0049
 BZINTS: Fermi energy: -3.422411; 18.000000 electrons
         Band energy:-151.638608;  BLOECHL correction:  0.000000
       DOS:  cpu time    0.0010: real time    0.0002
    --------------------------------------------
      LOOP:  cpu time    0.2280: real time    0.2303

 eigenvalue-minimisations  :    84
 total energy-change (2. order) :-0.7326866E-05  (-0.4439660E-07)
 number of electron      18.0000024 magnetization 
 augmentation part       -0.5498400 magnetization 

 Free energy of the ion-electron system (eV)
  ---------------------------------------------------
  alpha Z        PSCENC =        12.51390764
  Ewald energy   TEWEN  =      4286.25630342
  -Hartree energ DENC   =     -4980.69719209
  -exchange      EXHF   =         0.00000000
  -V(xc)+E(xc)   XCENC  =       -35.19893227
  PAW double counting   =       472.12226463     -396.31333511
  entropy T*S    EENTRO =         0.00000000
  eigenvalues    EBANDS =      -151.63860848
  atomic energy  EATOM  =       771.15836241
  Solvation  Ediel_sol  =         0.00000000
  ---------------------------------------------------
  free energy    TOTEN  =       -21.79722984 eV

  energy without entropy =      -21.79722984  energy(sigma->0) =      -21.79722984


--------------------------------------------------------------------------------------------------------




 average (electrostatic) potential at core
  the test charge radii are     1.2296  0.9698
  (the norm of the test charge is              1.0000)
       1 -46.8750       2 -94.7146       3 -94.7146
 
 
 
 E-fermi :  -3.4224     XC(G=0):  -2.8687     alpha+bet : -2.6672


 k-point     1 :       0.0000    0.0000    0.0000
  band No.  band energies     occupation 
      1     -17.4635      2.00000
      2     -16.2555      2.00000
      3      -8.9841      2.00000
      4      -6.0233      2.00000
      5      -6.0233      2.00000
      6      -5.1620      2.00000
      7      -4.9177      2.00000
      8      -4.9177      2.00000
      9      -3.4418      2.00000
     10      -0.6702      0.00000
     11      -0.6702      0.00000
     12      -0.4464      0.00000
     13      -0.4464      0.00000
     14       1.9923      0.00000

 k-point     2 :       0.1250    0.0000    0.0000
  band No.  band energies     occupation 
      1     -17.2494      2.00000
      2     -16.1531      2.00000
      3      -8.7396      2.00000
      4      -6.4867      2.00000
      5      -5.9700      2.00000
      6      -5.7889      2.00000
      7      -5.2534      2.00000
      8      -4.4845      2.00000
      9      -3.5802      2.00000
     10      -0.9503      0.00000
     11      -0.8844      0.00000
     12      -0.6830      0.00000
     13      -0.3154      0.00000
     14       2.3618      0.00000

 k-point     3 :       0.2500    0.0000    0.0000
  band No.  band energies     occupation 
      1     -16.6806      2.00000
      2     -15.8843      2.00000
      3      -8.3734      2.00000
      4      -7.2133      2.00000
      5      -6.9509      2.00000
      6      -5.8885      2.00000
      7      -5.2018      2.00000
      8      -4.7361      2.00000
      9      -4.1481      2.00000
     10      -1.2744      0.00000
     11      -1.0978      0.00000
     12      -0.5557      0.00000
     13       0.3016      0.00000
     14       3.1878      0.00000

 k-point     4 :       0.3750    0.0000    0.0000
  band No.  band energies     occupation 
      1     -16.0055      2.00000
      2     -15.5758      2.00000
      3      -8.8107      2.00000
      4      -7.8183      2.00000
      5      -7.3461      2.00000
      6      -6.3858      2.00000
      7      -5.1454      2.00000
      8      -4.6113      2.00000
      9      -4.3432      2.00000
     10      -1.2794      0.00000
     11      -1.0006      0.00000
     12       0.1628      0.00000
     13       0.6949      0.00000
     14       3.7015      0.00000

 k-point     5 :       0.5000    0.0000    0.0000
  band No.  band energies     occupation 
      1     -15.6772      2.00000
      2     -15.4325      2.00000
      3      -9.1434      2.00000
      4      -8.1832      2.00000
      5      -7.4724      2.00000
      6      -6.5664      2.00000
      7      -5.2843      2.00000
      8      -4.3842      2.00000
      9      -4.0624      2.00000
     10      -1.2572      0.00000
     11      -0.7412      0.00000
     12       0.4614      0.00000
     13       0.8103      0.00000
     14       2.7408      0.00000

 k-point     6 :       0.1250    0.1250    0.0000
  band No.  band energies     occupation 
      1     -16.8565      2.00000
      2     -15.9660      2.00000
      3      -8.3923      2.00000
      4      -7.0507      2.00000
      5      -6.5322      2.00000
      6      -6.0673      2.00000
      7      -5.4494      2.00000
      8      -4.3500      2.00000
      9      -3.9520      2.00000
     10      -1.3495      0.00000
     11      -0.9713      0.00000
     12      -0.9595      0.00000
     13       0.2794      0.00000
     14       2.9529      0.00000

 k-point     7 :       0.2500    0.1250    0.0000
  band No.  band energies     occupation 
      1     -16.2229      2.00000
      2     -15.6675      2.00000
      3      -8.4550      2.00000
      4      -7.4774      2.00000
      5      -7.2143      2.00000
      6      -6.5716      2.00000
      7      -5.3500      2.00000
      8      -4.7123      2.00000
      9      -4.2356      2.00000
     10      -1.4329      0.00000
     11      -0.9845      0.00000
     12      -0.4896      0.00000
     13       0.7872      0.00000
     14       3.9247      0.00000

 k-point     8 :       0.3750    0.1250    0.0000
  band No.  band energies     occupation 
      1     -15.6925      2.00000
      2     -15.4235      2.00000
      3      -8.8560      2.00000
      4      -8.2405      2.00000
      5      -7.3447      2.00000
      6      -6.5884      2.00000
      7      -5.3348      2.00000
      8      -5.1941      2.00000
      9      -3.9087      2.00000
     10      -1.2383      0.00000
     11      -0.7280      0.00000
     12       0.1321      0.00000
     13       0.8209      0.00000
     14       3.2676      0.00000

 k-point     9 :       0.2500    0.2500    0.0000
  band No.  band energies     occupation 
      1     -15.7074      2.00000
      2     -15.4145      2.00000
      3      -8.4956      2.00000
      4      -8.2912      2.00000
      5      -7.0176      2.00000
      6      -6.6368      2.00000
      7      -6.3176      2.00000
      8      -5.0606      2.00000
      9      -3.9376      2.00000
     10      -1.2893      0.00000
     11      -0.6783      0.00000
     12      -0.3664      0.00000
     13       1.1089      0.00000
     14       4.1000      0.00000

 k-point    10 :       0.3750    0.2500    0.0000
  band No.  band energies     occupation 
      1     -15.4725      2.00000
      2     -15.2954      2.00000
      3      -8.6756      2.00000
      4      -8.3266      2.00000
      5      -7.3019      2.00000
      6      -6.6393      2.00000
      7      -6.4091      2.00000
      8      -5.4469      2.00000
      9      -3.5702      2.00000
     10      -1.6149      0.00000
     11      -0.3080      0.00000
     12      -0.1276      0.00000
     13       1.2542      0.00000
     14       3.5106      0.00000


--------------------------------------------------------------------------------------------------------


 soft charge-density along one line, spin component           1
         0         1         2         3         4         5         6         7         8         9
 total charge-density along one line
 
 pseudopotential strength for first ion, spin component:           1
 -9.986  -0.000   0.000  -0.000   0.000   0.102   0.000  -0.000
 -0.000  -9.987  -0.000  -0.000  -0.000   0.000   0.102   0.000
  0.000  -0.000  -9.966  -0.000  -0.000  -0.000   0.000   0.101
 -0.000  -0.000  -0.000  -9.987  -0.000   0.000   0.000   0.000
  0.000  -0.000  -0.000  -0.000  -9.986  -0.000   0.000   0.000
  0.102   0.000  -0.000   0.000  -0.000   0.098  -0.000   0.000
  0.000   0.102   0.000   0.000   0.000  -0.000   0.098  -0.000
 -0.000   0.000   0.101   0.000   0.000   0.000  -0.000   0.098
  0.000   0.000   0.000   0.102   0.000  -0.000  -0.000  -0.000
 -0.000   0.000   0.000   0.000   0.102   0.000  -0.000  -0.000
  0.000  -0.000  -0.005   0.000  -0.000  -0.000   0.000   0.000
 -0.000   0.000   0.001  -0.000   0.000   0.000  -0.000  -0.000
 -0.000  -0.000  -0.000  -0.000  -0.007   0.000  -0.000   0.000
 -0.000   0.000   0.000  -0.000   0.000  -0.000  -0.000   0.000
 -0.007  -0.000   0.000  -0.000  -0.000  -0.000  -0.000  -0.000
  0.000   0.000   0.000   0.000   0.004  -0.000   0.000  -0.000
  0.000  -0.000  -0.000   0.000  -0.000  -0.000   0.000   0.000
  0.004   0.000  -0.000   0.000   0.000   0.000  -0.000   0.000
 total augmentation occupancy for first ion, spin component:           1
  0.965   0.000  -0.000   0.000  -0.000   0.600   0.000  -0.000  -0.000  -0.000  -0.000   0.000   0.000  -0.000  -0.065  -0.000
  0.000   0.907   0.000   0.000  -0.000   0.000   0.838   0.000   0.000   0.000   0.000   0.000   0.000   0.000   0.000   0.000
 -0.000  -0.000   1.029  -0.000   0.000  -0.000  -0.000   0.500   0.000   0.000   0.111  -0.019  -0.000  -0.000   0.000   0.000
 -0.000   0.000  -0.000   0.907   0.000   0.000   0.000   0.000   0.838   0.000   0.000  -0.000  -0.000  -0.000   0.000   0.000
 -0.000  -0.000   0.000   0.000   0.965  -0.000  -0.000   0.000  -0.000   0.600   0.000  -0.000  -0.065   0.000  -0.000   0.007
  0.600   0.000  -0.000   0.000  -0.000   0.677   0.000  -0.000   0.000  -0.000   0.000   0.000   0.000   0.000  -0.136  -0.000
  0.000   0.838   0.000   0.000  -0.000   0.000   1.078   0.000   0.000   0.000   0.000  -0.000   0.000   0.000  -0.000   0.000
 -0.000   0.000   0.500  -0.000   0.000  -0.000   0.000   0.475   0.000   0.000   0.058  -0.021  -0.000  -0.000   0.000   0.000
  0.000   0.000   0.000   0.838   0.000   0.000   0.000  -0.000   1.078   0.000   0.000   0.000  -0.000  -0.000   0.000   0.000
 -0.000   0.000   0.000   0.000   0.600  -0.000   0.000   0.000  -0.000   0.677   0.000  -0.000  -0.136   0.000  -0.000   0.023
 -0.000   0.000   0.111   0.000   0.000   0.000   0.000   0.058   0.000   0.000   1.207  -0.185  -0.000   0.000  -0.000   0.000
  0.000   0.000  -0.019  -0.000  -0.000   0.000  -0.000  -0.021   0.000  -0.000  -0.185   0.042  -0.000   0.000  -0.000   0.000
  0.000  -0.000  -0.000   0.000  -0.065   0.000   0.000  -0.000  -0.000  -0.136  -0.000   0.000   0.217   0.000   0.000  -0.032
 -0.000   0.000  -0.000  -0.000   0.000   0.000   0.000  -0.000   0.000   0.000  -0.000   0.000   0.000   0.264  -0.000   0.000
 -0.065   0.000   0.000   0.000  -0.000  -0.136   0.000   0.000   0.000  -0.000  -0.000  -0.000   0.000  -0.000   0.217  -0.000
 -0.000   0.000   0.000   0.000   0.007  -0.000  -0.000   0.000   0.000   0.023   0.000   0.000  -0.032   0.000  -0.000   0.005
  0.000  -0.000   0.000   0.000  -0.000   0.000  -0.000  -0.000  -0.000   0.000   0.000   0.000   0.000  -0.038   0.000   0.000
  0.007   0.000  -0.000   0.000   0.000   0.023   0.000  -0.000   0.000   0.000  -0.000   0.000  -0.000  -0.000  -0.032   0.000


------------------------ aborting loop because EDIFF is reached ----------------------------------------


    CHARGE:  cpu time    0.0240: real time    0.0241
    FORLOC:  cpu time    0.0040: real time    0.0044
    FORNL :  cpu time    0.0420: real time    0.0417
    STRESS:  cpu time    0.2230: real time    0.2241
    FORCOR:  cpu time    0.0520: real time    0.0517
    FORHAR:  cpu time    0.0120: real time    0.0116
    MIXING:  cpu time    0.0020: real time    0.0027
    OFIELD:  cpu time    0.0000: real time    0.0000

  DFT-D2 method for vdW energy calculation
  -------------------------------------------------------------------

  Parameters of vdW forcefield:
         C6(Jnm^6/mol)     R0(A)
   -----------------------------
   Mo      24.670          1.639
   S        5.570          1.683

  IVDW =   1
  VDW_RADIUS =    50.000 A
  VDW_S6 =     0.750
  VDW_SR =     1.000
  VDW_D =    20.000
  LVDW_EWALD = F

  Number of pair interactions contributing to vdW energy:   12957
  Edisp (eV):   -0.59091
    FORVDW:  cpu time    0.0110: real time    0.0156

  FORCE on cell =-STRESS in cart. coord.  units (eV):
  Direction    XX          YY          ZZ          XY          YZ          ZX
  --------------------------------------------------------------------------------------
  Alpha Z    12.51391    12.51391    12.51391
  Ewald    4853.12264  4853.12308 -5419.98957     0.00019     0.00000     0.00012
  Hartree  4942.42602  4942.42603 -4904.15207     0.00002    -0.00000    -0.00000
  E(xc)     -70.30064   -70.30064   -70.90527    -0.00000    -0.00000    -0.00000
  Local  -10076.25494-10076.25528 10037.46881    -0.00021    -0.00000    -0.00006
  n-local   127.15797   125.77979   131.67899    -0.25576    -0.00000    -0.00001
  augment   -25.56586   -25.56578   -26.66717     0.00007     0.00000    -0.00000
  Kinetic   235.88250   238.68405   239.80069    -7.41096     0.00001     0.00002
  Fock        0.00000     0.00000     0.00000     0.00000     0.00000     0.00000
  vdW         0.16041     0.16041    -0.13425     0.00000     0.00000    -0.00000
  -------------------------------------------------------------------------------------
  Total      -0.14621    -0.14621    -0.38595    -0.00000     0.00000     0.00000
  in kB      -0.98870    -0.98870    -2.60994    -0.00000     0.00000     0.00000
  external pressure =       -1.53 kB  Pullay stress =        0.00 kB


 VOLUME and BASIS-vectors are now :
 -----------------------------------------------------------------------------
  energy-cutoff  :      500.00
  volume of cell :      236.93
      direct lattice vectors                 reciprocal lattice vectors
     3.190315730  0.000000000  0.000000000     0.313448600  0.180969634  0.000000000
    -1.595157865  2.762894468  0.000000000     0.000000000  0.361939267  0.000000000
     0.000000000  0.000000000 26.879004300     0.000000000  0.000000000  0.037203759

  length of vectors
     3.190315730  3.190315730 26.879004300     0.361939267  0.361939267  0.037203759


 FORCES acting on ions
    electron-ion (+dipol)            ewald-force                    non-local-force                 convergence-correction
 -----------------------------------------------------------------------------------------------
   -.104E-04 -.108E-05 -.414E-06   0.931E-04 -.108E-03 0.307E-06   0.347E-17 0.000E+00 -.212E-21   0.162E-08 -.216E-08 -.115E-07
   -.853E-03 0.496E-03 0.579E+03   -.864E-04 0.538E-04 -.584E+03   -.954E-17 0.347E-17 0.480E+01   -.129E-07 0.668E-08 0.256E-02
   0.864E-03 0.493E-03 -.579E+03   -.674E-05 0.538E-04 0.584E+03   -.226E-16 -.173E-17 -.480E+01   0.133E-07 0.669E-08 -.256E-02
 -----------------------------------------------------------------------------------------------
   0.451E-06 0.988E-03 0.368E-04   0.897E-14 0.972E-14 -.114E-12   -.286E-16 0.173E-17 0.888E-15   0.195E-08 0.112E-07 -.319E-07
 
 
 POSITION                                       TOTAL-FORCE (eV/Angst)
 -----------------------------------------------------------------------------------
     -0.00000      1.84193      3.71975        -0.000000      0.000000      0.000000
      1.59516      0.92096      2.15487         0.000000     -0.000000      0.113994
      1.59516      0.92096      5.28464         0.000000      0.000000     -0.113994
 -----------------------------------------------------------------------------------
    total drift:                                0.000000      0.000988      0.000037


--------------------------------------------------------------------------------------------------------



  FREE ENERGIE OF THE ION-ELECTRON SYSTEM (eV)
  ---------------------------------------------------
  free  energy   TOTEN  =       -22.38813891 eV

  energy  without entropy=      -22.38813891  energy(sigma->0) =      -22.38813891
 


--------------------------------------------------------------------------------------------------------


    POTLOK:  cpu time    0.0480: real time    0.0471


--------------------------------------------------------------------------------------------------------


     LOOP+:  cpu time    6.7940: real time    6.8996
    4ORBIT:  cpu time    0.0000: real time    0.0000
 BZINTS: Fermi energy: -3.422411; 18.000000 electrons
         Band energy:-151.638608;  BLOECHL correction:  0.000000

 total amount of memory used by VASP MPI-rank0    52811. kBytes
=======================================================================

   base      :      30000. kBytes
   nonl-proj :       8877. kBytes
   fftplans  :       4036. kBytes
   grid      :       6443. kBytes
   one-center:         31. kBytes
   wavefun   :       3424. kBytes
 
  
  
 General timing and accounting informations for this job:
 ========================================================
  
                  Total CPU time used (sec):        8.022
                            User time (sec):        7.756
                          System time (sec):        0.266
                         Elapsed time (sec):        9.250
  
                   Maximum memory used (kb):       47700.
                   Average memory used (kb):           0.
  
                          Minor page faults:        13519
                          Major page faults:          139
                 Voluntary context switches:         2542
