<?xml version="1.0" encoding="ISO-8859-1"?>
<modeling>
 <generator>
  <i name="program" type="string">vasp </i>
  <i name="version" type="string">5.4.4.18Apr17-6-g9f103f2a35  </i>
  <i name="subversion" type="string">(build Jun 30 2017 11:15:00) complex            parallel </i>
  <i name="platform" type="string">STALLO_VASP_5.4.4 </i>
  <i name="date" type="string">2019 11 08 </i>
  <i name="time" type="string">11:58:36 </i>
 </generator>
 <incar>
  <i type="string" name="PREC">normal    ! low/normal/accurate</i>
  <i type="string" name="ALGO"> Fast      ! Algorithm for electronic re</i>
  <i type="int" name="ISPIN">     1</i>
  <i type="int" name="NELMIN">     4</i>
  <i name="EDIFF">      0.00001000</i>
  <i type="int" name="NSW">     0</i>
  <i name="ENCUT">    500.00000000</i>
  <i type="logical" name="LREAL"> F  </i>
  <i type="int" name="ISMEAR">    -5</i>
  <i name="SIGMA">      0.20000000</i>
  <i type="logical" name="LWAVE"> F  </i>
  <v type="int" name="KPOINT_BSE">    -1     0     0     0</v>
 </incar>
 <structure name="primitive_cell" >
  <crystal>
   <varray name="basis" >
    <v>       3.19031573       0.00000000       0.00000000 </v>
    <v>      -1.59515786       2.76289447       0.00000000 </v>
    <v>       0.00000000       0.00000000      26.87900430 </v>
   </varray>
   <i name="volume">    236.92513614 </i>
   <varray name="rec_basis" >
    <v>       0.31344860       0.18096963       0.00000000 </v>
    <v>       0.00000000       0.36193927       0.00000000 </v>
    <v>       0.00000000       0.00000000       0.03720376 </v>
   </varray>
  </crystal>
  <varray name="positions" >
   <v>       0.33333300      -0.33333300       0.13838872 </v>
   <v>      -0.33333400       0.33333300       0.19660830 </v>
   <v>      -0.33333300       0.33333300       0.08016914 </v>
  </varray>
 </structure>
 <varray name="primitive_index" >
  <v type="int" >        1 </v>
  <v type="int" >        3 </v>
  <v type="int" >        2 </v>
 </varray>
 <kpoints>
  <generation param="Gamma">
   <v type="int" name="divisions">       8        8        1 </v>
   <v name="usershift">      0.00000000       0.00000000       0.00000000 </v>
   <v name="genvec1">      0.12500000       0.00000000       0.00000000 </v>
   <v name="genvec2">      0.00000000       0.12500000       0.00000000 </v>
   <v name="genvec3">      0.00000000       0.00000000       1.00000000 </v>
   <v name="shift">      0.00000000       0.00000000       0.00000000 </v>
  </generation>
  <varray name="kpointlist" >
   <v>       0.00000000       0.00000000       0.00000000 </v>
   <v>       0.12500000       0.00000000       0.00000000 </v>
   <v>       0.25000000       0.00000000       0.00000000 </v>
   <v>       0.37500000       0.00000000       0.00000000 </v>
   <v>       0.50000000       0.00000000       0.00000000 </v>
   <v>       0.12500000       0.12500000       0.00000000 </v>
   <v>       0.25000000       0.12500000       0.00000000 </v>
   <v>       0.37500000       0.12500000       0.00000000 </v>
   <v>       0.25000000       0.25000000       0.00000000 </v>
   <v>       0.37500000       0.25000000       0.00000000 </v>
  </varray>
  <varray name="weights" >
   <v>       0.01562500 </v>
   <v>       0.09375000 </v>
   <v>       0.09375000 </v>
   <v>       0.09375000 </v>
   <v>       0.04687500 </v>
   <v>       0.09375000 </v>
   <v>       0.18750000 </v>
   <v>       0.18750000 </v>
   <v>       0.09375000 </v>
   <v>       0.09375000 </v>
  </varray>
  <varray name="tetrahedronlist"  type="int" >
   <v type="int" >       12        2        2        2        6 </v>
   <v type="int" >       12        1        2        2        2 </v>
   <v type="int" >        6        1        1        2        2 </v>
   <v type="int" >        6        2        2        6        6 </v>
   <v type="int" >       12        3        6        6        7 </v>
   <v type="int" >       12        2        3        6        6 </v>
   <v type="int" >       12        2        2        3        6 </v>
   <v type="int" >       12        3        6        7        7 </v>
   <v type="int" >       12        3        3        6        7 </v>
   <v type="int" >       12        2        3        3        6 </v>
   <v type="int" >       12        4        7        7        8 </v>
   <v type="int" >       12        3        4        7        7 </v>
   <v type="int" >       12        3        3        4        7 </v>
   <v type="int" >       12        4        7        8        8 </v>
   <v type="int" >       12        4        4        7        8 </v>
   <v type="int" >       12        3        4        4        7 </v>
   <v type="int" >       12        5        8        8        8 </v>
   <v type="int" >       12        4        5        8        8 </v>
   <v type="int" >       12        4        4        5        8 </v>
   <v type="int" >        6        5        5        8        8 </v>
   <v type="int" >       12        4        5        5        8 </v>
   <v type="int" >       12        7        7        7        9 </v>
   <v type="int" >       12        6        7        7        7 </v>
   <v type="int" >        6        6        6        7        7 </v>
   <v type="int" >        6        7        7        9        9 </v>
   <v type="int" >       12        8        9        9       10 </v>
   <v type="int" >       12        7        8        9        9 </v>
   <v type="int" >       12        7        7        8        9 </v>
   <v type="int" >       12        8        9       10       10 </v>
   <v type="int" >       12        8        8        9       10 </v>
   <v type="int" >       12        7        8        8        9 </v>
   <v type="int" >        6        8        8       10       10 </v>
   <v type="int" >       12        8        8        8       10 </v>
   <v type="int" >        6       10       10       10       10 </v>
   <v type="int" >       12        9       10       10       10 </v>
   <v type="int" >        6        9        9       10       10 </v>
  </varray>
  <i name="volumeweight">      0.00260417 </i>
 </kpoints>
 <parameters>
  <separator name="general" >
   <i type="string" name="SYSTEM">unknown system</i>
   <i type="logical" name="LCOMPAT"> F  </i>
  </separator>
  <separator name="electronic" >
   <i type="string" name="PREC">normal</i>
   <i name="ENMAX">    500.00000000</i>
   <i name="ENAUG">    345.27800000</i>
   <i name="EDIFF">      0.00001000</i>
   <i type="int" name="IALGO">    68</i>
   <i type="int" name="IWAVPR">    10</i>
   <i type="int" name="NBANDS">    14</i>
   <i name="NELECT">     18.00000000</i>
   <i type="int" name="TURBO">     0</i>
   <i type="int" name="IRESTART">     0</i>
   <i type="int" name="NREBOOT">     0</i>
   <i type="int" name="NMIN">     0</i>
   <i name="EREF">      0.00000000</i>
   <separator name="electronic smearing" >
    <i type="int" name="ISMEAR">    -5</i>
    <i name="SIGMA">      0.20000000</i>
    <i name="KSPACING">      0.50000000</i>
    <i type="logical" name="KGAMMA"> T  </i>
   </separator>
   <separator name="electronic projectors" >
    <i type="logical" name="LREAL"> F  </i>
    <v name="ROPT">      0.00000000      0.00000000</v>
    <i type="int" name="LMAXPAW">  -100</i>
    <i type="int" name="LMAXMIX">     2</i>
    <i type="logical" name="NLSPLINE"> F  </i>
   </separator>
   <separator name="electronic startup" >
    <i type="int" name="ISTART">     0</i>
    <i type="int" name="ICHARG">     2</i>
    <i type="int" name="INIWAV">     1</i>
   </separator>
   <separator name="electronic spin" >
    <i type="int" name="ISPIN">     1</i>
    <i type="logical" name="LNONCOLLINEAR"> F  </i>
    <v name="MAGMOM">      1.00000000      1.00000000      1.00000000</v>
    <i name="NUPDOWN">     -1.00000000</i>
    <i type="logical" name="LSORBIT"> F  </i>
    <v name="SAXIS">      0.00000000      0.00000000      1.00000000</v>
    <i type="logical" name="LSPIRAL"> F  </i>
    <v name="QSPIRAL">      0.00000000      0.00000000      0.00000000</v>
    <i type="logical" name="LZEROZ"> F  </i>
   </separator>
   <separator name="electronic exchange-correlation" >
    <i type="logical" name="LASPH"> F  </i>
    <i type="logical" name="LMETAGGA"> F  </i>
   </separator>
   <separator name="electronic convergence" >
    <i type="int" name="NELM">    60</i>
    <i type="int" name="NELMDL">    -5</i>
    <i type="int" name="NELMIN">     4</i>
    <i name="ENINI">    500.00000000</i>
    <separator name="electronic convergence detail" >
     <i type="logical" name="LDIAG"> T  </i>
     <i type="logical" name="LSUBROT"> F  </i>
     <i name="WEIMIN">      0.00000000</i>
     <i name="EBREAK">      0.00000018</i>
     <i name="DEPER">      0.30000000</i>
     <i type="int" name="NRMM">     4</i>
     <i name="TIME">      0.40000000</i>
    </separator>
   </separator>
   <separator name="electronic mixer" >
    <i name="AMIX">      0.40000000</i>
    <i name="BMIX">      1.00000000</i>
    <i name="AMIN">      0.10000000</i>
    <i name="AMIX_MAG">      1.60000000</i>
    <i name="BMIX_MAG">      1.00000000</i>
    <separator name="electronic mixer details" >
     <i type="int" name="IMIX">     4</i>
     <i type="logical" name="MIXFIRST"> F  </i>
     <i type="int" name="MAXMIX">   -45</i>
     <i name="WC">    100.00000000</i>
     <i type="int" name="INIMIX">     1</i>
     <i type="int" name="MIXPRE">     1</i>
     <i type="int" name="MREMOVE">     5</i>
    </separator>
   </separator>
   <separator name="electronic dipolcorrection" >
    <i type="logical" name="LDIPOL"> F  </i>
    <i type="logical" name="LMONO"> F  </i>
    <i type="int" name="IDIPOL">     0</i>
    <i name="EPSILON">      1.00000000</i>
    <v name="DIPOL">   -100.00000000   -100.00000000   -100.00000000</v>
    <i name="EFIELD">      0.00000000</i>
   </separator>
  </separator>
  <separator name="grids" >
   <i type="int" name="NGX">    18</i>
   <i type="int" name="NGY">    18</i>
   <i type="int" name="NGZ">   150</i>
   <i type="int" name="NGXF">    36</i>
   <i type="int" name="NGYF">    36</i>
   <i type="int" name="NGZF">   300</i>
   <i type="logical" name="ADDGRID"> F  </i>
  </separator>
  <separator name="ionic" >
   <i type="int" name="NSW">     0</i>
   <i type="int" name="IBRION">    -1</i>
   <i type="int" name="MDALGO">     0</i>
   <i type="int" name="ISIF">     2</i>
   <i name="PSTRESS">      0.00000000</i>
   <i name="EDIFFG">      0.00010000</i>
   <i type="int" name="NFREE">     0</i>
   <i name="POTIM">      0.50000000</i>
   <i name="SMASS">     -3.00000000</i>
   <i name="SCALEE">      1.00000000</i>
  </separator>
  <separator name="ionic md" >
   <i name="TEBEG">      0.00010000</i>
   <i name="TEEND">      0.00010000</i>
   <i type="int" name="NBLOCK">     1</i>
   <i type="int" name="KBLOCK">     1</i>
   <i type="int" name="NPACO">   256</i>
   <i name="APACO">     16.00000000</i>
  </separator>
  <separator name="symmetry" >
   <i type="int" name="ISYM">     2</i>
   <i name="SYMPREC">      0.00001000</i>
  </separator>
  <separator name="dos" >
   <i type="int" name="LORBIT">     0</i>
   <v name="RWIGS">     -1.00000000     -1.00000000</v>
   <i type="int" name="NEDOS">   301</i>
   <i name="EMIN">     10.00000000</i>
   <i name="EMAX">    -10.00000000</i>
   <i name="EFERMI">      0.00000000</i>
  </separator>
  <separator name="writing" >
   <i type="int" name="NWRITE">     2</i>
   <i type="logical" name="LWAVE"> F  </i>
   <i type="logical" name="LDOWNSAMPLE"> F  </i>
   <i type="logical" name="LCHARG"> T  </i>
   <i type="logical" name="LPARD"> F  </i>
   <i type="logical" name="LVTOT"> F  </i>
   <i type="logical" name="LVHAR"> F  </i>
   <i type="logical" name="LELF"> F  </i>
   <i type="logical" name="LOPTICS"> F  </i>
   <v name="STM">      0.00000000      0.00000000      0.00000000      0.00000000      0.00000000      0.00000000      0.00000000</v>
  </separator>
  <separator name="performance" >
   <i type="int" name="NPAR">     2</i>
   <i type="int" name="NSIM">     4</i>
   <i type="int" name="NBLK">    -1</i>
   <i type="logical" name="LPLANE"> T  </i>
   <i type="logical" name="LSCALAPACK"> T  </i>
   <i type="logical" name="LSCAAWARE"> F  </i>
   <i type="logical" name="LSCALU"> F  </i>
   <i type="logical" name="LASYNC"> F  </i>
   <i type="logical" name="LORBITALREAL"> F  </i>
  </separator>
  <separator name="miscellaneous" >
   <i type="int" name="IDIOT">     3</i>
   <i type="int" name="ISPECIAL">     0</i>
   <i type="logical" name="LMUSIC"> F  </i>
   <v name="POMASS">     95.94000000     32.06600000</v>
   <v name="DARWINR">      0.00000000      0.00000000</v>
   <v name="DARWINV">      1.00000000      1.00000000</v>
   <i type="logical" name="LCORR"> T  </i>
  </separator>
  <i type="logical" name="GGA_COMPAT"> T  </i>
  <i type="logical" name="LBERRY"> F  </i>
  <i type="int" name="ICORELEVEL">     0</i>
  <i type="logical" name="LDAU"> F  </i>
  <i type="int" name="I_CONSTRAINED_M">     0</i>
  <separator name="electronic exchange-correlation" >
   <i type="string" name="GGA">--</i>
   <i type="int" name="VOSKOWN">     0</i>
   <i type="logical" name="LHFCALC"> F  </i>
   <i type="string" name="PRECFOCK"></i>
   <i type="logical" name="LSYMGRAD"> F  </i>
   <i type="logical" name="LHFONE"> F  </i>
   <i type="logical" name="LRHFCALC"> F  </i>
   <i type="logical" name="LTHOMAS"> F  </i>
   <i type="logical" name="LMODELHF"> F  </i>
   <i name="ENCUT4O">     -1.00000000</i>
   <i type="int" name="EXXOEP">     0</i>
   <i type="int" name="FOURORBIT">     0</i>
   <i name="AEXX">      0.00000000</i>
   <i name="HFALPHA">      0.00000000</i>
   <i name="MCALPHA">      0.00000000</i>
   <i name="ALDAX">      1.00000000</i>
   <i name="AGGAX">      1.00000000</i>
   <i name="ALDAC">      1.00000000</i>
   <i name="AGGAC">      1.00000000</i>
   <i type="int" name="NKREDX">     1</i>
   <i type="int" name="NKREDY">     1</i>
   <i type="int" name="NKREDZ">     1</i>
   <i type="logical" name="SHIFTRED"> F  </i>
   <i type="logical" name="ODDONLY"> F  </i>
   <i type="logical" name="EVENONLY"> F  </i>
   <i type="int" name="LMAXFOCK">     0</i>
   <i type="int" name="NMAXFOCKAE">     0</i>
   <i type="logical" name="LFOCKAEDFT"> F  </i>
   <i name="HFSCREEN">      0.00000000</i>
   <i name="HFSCREENC">      0.00000000</i>
   <i type="int" name="NBANDSGWLOW">     0</i>
  </separator>
  <separator name="vdW DFT" >
   <i type="logical" name="LUSE_VDW"> F  </i>
   <i name="Zab_VDW">     -0.84910000</i>
   <i name="PARAM1">      0.12340000</i>
   <i name="PARAM2">      1.00000000</i>
   <i name="PARAM3">      0.00000000</i>
  </separator>
  <separator name="model GW" >
   <i type="int" name="MODEL_GW">     0</i>
   <i name="MODEL_EPS0">     47.38502723</i>
   <i name="MODEL_ALPHA">      1.00000000</i>
  </separator>
  <separator name="linear response parameters" >
   <i type="logical" name="LEPSILON"> F  </i>
   <i type="logical" name="LRPA"> F  </i>
   <i type="logical" name="LNABLA"> F  </i>
   <i type="logical" name="LVEL"> F  </i>
   <i type="int" name="KINTER">     0</i>
   <i name="CSHIFT">      0.10000000</i>
   <i name="OMEGAMAX">     -1.00000000</i>
   <i name="DEG_THRESHOLD">      0.00200000</i>
   <i name="RTIME">     -0.10000000</i>
   <i name="WPLASMAI">      0.00000000</i>
   <v name="DFIELD">      0.00000000      0.00000000      0.00000000</v>
   <v name="WPLASMA">      0.00000000      0.00000000      0.00000000      0.00000000      0.00000000      0.00000000      0.00000000      0.00000000      0.00000000</v>
  </separator>
  <separator name="orbital magnetization" >
   <i type="logical" name="NUCIND"> F  </i>
   <v name="MAGPOS">      0.00000000      0.00000000      0.00000000</v>
   <i type="logical" name="LNICSALL"> T  </i>
   <i type="logical" name="ORBITALMAG"> F  </i>
   <i type="logical" name="LMAGBLOCH"> F  </i>
   <i type="logical" name="LCHIMAG"> F  </i>
   <i type="logical" name="LGAUGE"> T  </i>
   <i type="int" name="MAGATOM">     0</i>
   <v name="MAGDIPOL">      0.00000000      0.00000000      0.00000000</v>
   <v name="AVECCONST">      0.00000000      0.00000000      0.00000000</v>
  </separator>
  <separator name="response functions" >
   <i type="logical" name="LADDER"> F  </i>
   <i type="logical" name="LRPAFORCE"> F  </i>
   <i type="logical" name="LFXC"> F  </i>
   <i type="logical" name="LHARTREE"> T  </i>
   <i type="int" name="IBSE">     0</i>
   <v type="int" name="KPOINT">    -1     0     0     0</v>
   <i type="logical" name="LTCTE"> F  </i>
   <i type="logical" name="LTETE"> F  </i>
   <i type="logical" name="LTRIPLET"> F  </i>
   <i type="logical" name="LFXCEPS"> F  </i>
   <i type="logical" name="LFXHEG"> F  </i>
   <i type="int" name="NATURALO">     2</i>
   <i type="logical" name="L2ORDER"> F  </i>
   <i type="logical" name="LMP2LT"> F  </i>
   <i type="logical" name="LUSEW"> F  </i>
   <i name="ENCUTGW">     -2.00000000</i>
   <i name="ENCUTGWSOFT">     -2.00000000</i>
   <i name="ENCUTLF">     -1.00000000</i>
   <i type="int" name="LMAXMP2">    -1</i>
   <i name="SCISSOR">      0.00000000</i>
   <i type="int" name="NOMEGA">     0</i>
   <i type="int" name="NOMEGAR">     0</i>
   <i type="int" name="NBANDSGW">    -1</i>
   <i type="int" name="NBANDSO">    -1</i>
   <i type="int" name="NBANDSV">    -1</i>
   <i type="int" name="NELM">     1</i>
   <i type="int" name="NELMHF">     1</i>
   <i type="int" name="DIM">     3</i>
   <i type="int" name="ANTIRES">     0</i>
   <i name="OMEGAMAX">    -30.00000000</i>
   <i name="OMEGAMIN">    -30.00000000</i>
   <i name="OMEGATL">   -200.00000000</i>
   <i type="int" name="OMEGAGRID">   140</i>
   <i name="CSHIFT">     -0.10000000</i>
   <i type="logical" name="SELFENERGY"> F  </i>
   <i type="logical" name="LSPECTRAL"> F  </i>
   <i type="logical" name="LSPECTRALGW"> F  </i>
   <i type="logical" name="LSINGLES"> F  </i>
   <i type="logical" name="LFERMIGW"> F  </i>
   <i type="logical" name="ODDONLYGW"> F  </i>
   <i type="logical" name="EVENONLYGW"> F  </i>
   <i type="int" name="NKREDLFX">     1</i>
   <i type="int" name="NKREDLFY">     1</i>
   <i type="int" name="NKREDLFZ">     1</i>
   <i type="int" name="MAXMEM">  2800</i>
   <i type="int" name="TELESCOPE">     0</i>
   <i type="int" name="TAUPAR">     1</i>
   <i type="int" name="OMEGAPAR">    -1</i>
   <i name="LAMBDA">      1.00000000</i>
  </separator>
  <separator name="External order field" >
   <i name="OFIELD_KAPPA">      0.00000000</i>
   <v name="OFIELD_K">      0.00000000      0.00000000      0.00000000</v>
   <i name="OFIELD_Q6_NEAR">      0.00000000</i>
   <i name="OFIELD_Q6_FAR">      0.00000000</i>
   <i name="OFIELD_A">      0.00000000</i>
  </separator>
 </parameters>
 <atominfo>
  <atoms>       3 </atoms>
  <types>       2 </types>
  <array name="atoms" >
   <dimension dim="1">ion</dimension>
   <field type="string">element</field>
   <field type="int">atomtype</field>
   <set>
    <rc><c>Mo</c><c>   1</c></rc>
    <rc><c>S </c><c>   2</c></rc>
    <rc><c>S </c><c>   2</c></rc>
   </set>
  </array>
  <array name="atomtypes" >
   <dimension dim="1">type</dimension>
   <field type="int">atomspertype</field>
   <field type="string">element</field>
   <field>mass</field>
   <field>valence</field>
   <field type="string">pseudopotential</field>
   <set>
    <rc><c>   1</c><c>Mo</c><c>     95.94000000</c><c>      6.00000000</c><c> PAW_PBE Mo 08Apr2002                   </c></rc>
    <rc><c>   2</c><c>S </c><c>     32.06600000</c><c>      6.00000000</c><c>  PAW_PBE S 17Jan2003                   </c></rc>
   </set>
  </array>
 </atominfo>
 <structure name="initialpos" >
  <crystal>
   <varray name="basis" >
    <v>       3.19031573       0.00000000       0.00000000 </v>
    <v>      -1.59515786       2.76289447       0.00000000 </v>
    <v>       0.00000000       0.00000000      26.87900430 </v>
   </varray>
   <i name="volume">    236.92513614 </i>
   <varray name="rec_basis" >
    <v>       0.31344860       0.18096963       0.00000000 </v>
    <v>       0.00000000       0.36193927       0.00000000 </v>
    <v>       0.00000000       0.00000000       0.03720376 </v>
   </varray>
  </crystal>
  <varray name="positions" >
   <v>       0.33333300       0.66666700       0.13838872 </v>
   <v>       0.66666700       0.33333300       0.08016914 </v>
   <v>       0.66666600       0.33333300       0.19660830 </v>
  </varray>
 </structure>
 <calculation>
  <scstep>
   <time name="dav">    0.25    0.26</time>
   <time name="total">    0.31    0.35</time>
   <energy>
    <i name="alphaZ">     12.51390764 </i>
    <i name="ewald">   4286.25630342 </i>
    <i name="hartreedc">  -4967.71356795 </i>
    <i name="XCdc">    -36.31055719 </i>
    <i name="pawpsdc">    406.88651198 </i>
    <i name="pawaedc">   -329.34073203 </i>
    <i name="eentropy">      0.00000000 </i>
    <i name="bandstr">     -6.21795671 </i>
    <i name="atom">    771.15836241 </i>
    <i name="e_fr_energy">    137.23227158 </i>
    <i name="e_wo_entrp">    137.23227158 </i>
    <i name="e_0_energy">    137.23227158 </i>
   </energy>
  </scstep>
  <scstep>
   <time name="dav">    0.37    0.38</time>
   <time name="total">    0.37    0.38</time>
   <energy>
    <i name="e_fr_energy">     -6.86323759 </i>
    <i name="e_wo_entrp">     -6.86323759 </i>
    <i name="e_0_energy">     -6.86323759 </i>
   </energy>
  </scstep>
  <scstep>
   <time name="dav">    0.31    0.31</time>
   <time name="total">    0.31    0.31</time>
   <energy>
    <i name="e_fr_energy">    -23.05553650 </i>
    <i name="e_wo_entrp">    -23.05553650 </i>
    <i name="e_0_energy">    -23.05553650 </i>
   </energy>
  </scstep>
  <scstep>
   <time name="dav">    0.31    0.31</time>
   <time name="total">    0.31    0.31</time>
   <energy>
    <i name="e_fr_energy">    -23.39863375 </i>
    <i name="e_wo_entrp">    -23.39863375 </i>
    <i name="e_0_energy">    -23.39863375 </i>
   </energy>
  </scstep>
  <scstep>
   <time name="dav">    0.29    0.29</time>
   <time name="total">    0.32    0.32</time>
   <energy>
    <i name="e_fr_energy">    -23.40839453 </i>
    <i name="e_wo_entrp">    -23.40839453 </i>
    <i name="e_0_energy">    -23.40839453 </i>
   </energy>
  </scstep>
  <scstep>
   <time name="diag">    0.05    0.05</time>
   <time name="diis">    0.22    0.22</time>
   <time name="orth">    0.00    0.00</time>
   <time name="total">    0.35    0.35</time>
   <energy>
    <i name="e_fr_energy">    -22.24796638 </i>
    <i name="e_wo_entrp">    -22.24796638 </i>
    <i name="e_0_energy">    -22.24796638 </i>
   </energy>
  </scstep>
  <scstep>
   <time name="diag">    0.05    0.05</time>
   <time name="diis">    0.21    0.21</time>
   <time name="orth">    0.00    0.00</time>
   <time name="total">    0.34    0.34</time>
   <energy>
    <i name="e_fr_energy">    -21.86254234 </i>
    <i name="e_wo_entrp">    -21.86254234 </i>
    <i name="e_0_energy">    -21.86254234 </i>
   </energy>
  </scstep>
  <scstep>
   <time name="diag">    0.05    0.05</time>
   <time name="diis">    0.22    0.22</time>
   <time name="orth">    0.00    0.00</time>
   <time name="total">    0.35    0.35</time>
   <energy>
    <i name="e_fr_energy">    -21.80261488 </i>
    <i name="e_wo_entrp">    -21.80261488 </i>
    <i name="e_0_energy">    -21.80261488 </i>
   </energy>
  </scstep>
  <scstep>
   <time name="diag">    0.05    0.05</time>
   <time name="diis">    0.24    0.25</time>
   <time name="orth">    0.00    0.00</time>
   <time name="total">    0.37    0.37</time>
   <energy>
    <i name="e_fr_energy">    -21.79776567 </i>
    <i name="e_wo_entrp">    -21.79776567 </i>
    <i name="e_0_energy">    -21.79776567 </i>
   </energy>
  </scstep>
  <scstep>
   <time name="diag">    0.05    0.05</time>
   <time name="diis">    0.25    0.25</time>
   <time name="orth">    0.00    0.00</time>
   <time name="total">    0.37    0.37</time>
   <energy>
    <i name="e_fr_energy">    -21.79702087 </i>
    <i name="e_wo_entrp">    -21.79702087 </i>
    <i name="e_0_energy">    -21.79702087 </i>
   </energy>
  </scstep>
  <scstep>
   <time name="diag">    0.05    0.05</time>
   <time name="diis">    0.23    0.23</time>
   <time name="orth">    0.00    0.00</time>
   <time name="total">    0.36    0.36</time>
   <energy>
    <i name="e_fr_energy">    -21.79693546 </i>
    <i name="e_wo_entrp">    -21.79693546 </i>
    <i name="e_0_energy">    -21.79693546 </i>
   </energy>
  </scstep>
  <scstep>
   <time name="diag">    0.05    0.05</time>
   <time name="diis">    0.22    0.22</time>
   <time name="orth">    0.00    0.00</time>
   <time name="total">    0.35    0.35</time>
   <energy>
    <i name="e_fr_energy">    -21.79672387 </i>
    <i name="e_wo_entrp">    -21.79672387 </i>
    <i name="e_0_energy">    -21.79672387 </i>
   </energy>
  </scstep>
  <scstep>
   <time name="diag">    0.05    0.05</time>
   <time name="diis">    0.20    0.20</time>
   <time name="orth">    0.00    0.00</time>
   <time name="total">    0.33    0.33</time>
   <energy>
    <i name="e_fr_energy">    -21.79700086 </i>
    <i name="e_wo_entrp">    -21.79700086 </i>
    <i name="e_0_energy">    -21.79700086 </i>
   </energy>
  </scstep>
  <scstep>
   <time name="diag">    0.05    0.05</time>
   <time name="diis">    0.19    0.19</time>
   <time name="orth">    0.00    0.00</time>
   <time name="total">    0.32    0.33</time>
   <energy>
    <i name="e_fr_energy">    -21.79703407 </i>
    <i name="e_wo_entrp">    -21.79703407 </i>
    <i name="e_0_energy">    -21.79703407 </i>
   </energy>
  </scstep>
  <scstep>
   <time name="diag">    0.05    0.05</time>
   <time name="diis">    0.16    0.16</time>
   <time name="orth">    0.00    0.00</time>
   <time name="total">    0.29    0.29</time>
   <energy>
    <i name="e_fr_energy">    -21.79714464 </i>
    <i name="e_wo_entrp">    -21.79714464 </i>
    <i name="e_0_energy">    -21.79714464 </i>
   </energy>
  </scstep>
  <scstep>
   <time name="diag">    0.05    0.05</time>
   <time name="diis">    0.15    0.15</time>
   <time name="orth">    0.00    0.00</time>
   <time name="total">    0.29    0.29</time>
   <energy>
    <i name="e_fr_energy">    -21.79717795 </i>
    <i name="e_wo_entrp">    -21.79717795 </i>
    <i name="e_0_energy">    -21.79717795 </i>
   </energy>
  </scstep>
  <scstep>
   <time name="diag">    0.05    0.05</time>
   <time name="diis">    0.14    0.14</time>
   <time name="orth">    0.00    0.00</time>
   <time name="total">    0.27    0.27</time>
   <energy>
    <i name="e_fr_energy">    -21.79722252 </i>
    <i name="e_wo_entrp">    -21.79722252 </i>
    <i name="e_0_energy">    -21.79722252 </i>
   </energy>
  </scstep>
  <scstep>
   <time name="diag">    0.05    0.05</time>
   <time name="diis">    0.12    0.12</time>
   <time name="orth">    0.00    0.00</time>
   <time name="total">    0.23    0.23</time>
   <energy>
    <i name="alphaZ">     12.51390764 </i>
    <i name="ewald">   4286.25630342 </i>
    <i name="hartreedc">  -4980.69719209 </i>
    <i name="XCdc">    -35.19893227 </i>
    <i name="pawpsdc">    472.12226463 </i>
    <i name="pawaedc">   -396.31333511 </i>
    <i name="eentropy">      0.00000000 </i>
    <i name="bandstr">   -151.63860848 </i>
    <i name="atom">    771.15836241 </i>
    <i name="e_fr_energy">    -21.79722984 </i>
    <i name="e_wo_entrp">    -21.79722984 </i>
    <i name="e_0_energy">    -21.79722984 </i>
   </energy>
  </scstep>
  <structure>
   <crystal>
    <varray name="basis" >
     <v>       3.19031573       0.00000000       0.00000000 </v>
     <v>      -1.59515786       2.76289447       0.00000000 </v>
     <v>       0.00000000       0.00000000      26.87900430 </v>
    </varray>
    <i name="volume">    236.92513614 </i>
    <varray name="rec_basis" >
     <v>       0.31344860       0.18096963       0.00000000 </v>
     <v>       0.00000000       0.36193927       0.00000000 </v>
     <v>       0.00000000       0.00000000       0.03720376 </v>
    </varray>
   </crystal>
   <varray name="positions" >
    <v>       0.33333300       0.66666700       0.13838872 </v>
    <v>       0.66666700       0.33333300       0.08016914 </v>
    <v>       0.66666600       0.33333300       0.19660830 </v>
   </varray>
  </structure>
  <varray name="forces" >
   <v>      -0.00000000       0.00000000       0.00000000 </v>
   <v>       0.00000000      -0.00000000       0.11399435 </v>
   <v>       0.00000000       0.00000000      -0.11399435 </v>
  </varray>
  <varray name="stress" >
   <v>      -0.98869959      -0.00000000       0.00000000 </v>
   <v>      -0.00000000      -0.98869959       0.00000000 </v>
   <v>       0.00000000       0.00000000      -2.60994323 </v>
  </varray>
  <energy>
   <i name="e_fr_energy">    -22.38813891 </i>
   <i name="e_wo_entrp">    -22.38813891 </i>
   <i name="e_0_energy">      0.00000000 </i>
  </energy>
  <time name="totalsc">    6.79    6.90</time>
  <eigenvalues>
   <array>
    <dimension dim="1">band</dimension>
    <dimension dim="2">kpoint</dimension>
    <dimension dim="3">spin</dimension>
    <field>eigene</field>
    <field>occ</field>
    <set>
     <set comment="spin 1">
      <set comment="kpoint 1">
       <r>  -17.4635    1.0000 </r>
       <r>  -16.2555    1.0000 </r>
       <r>   -8.9841    1.0000 </r>
       <r>   -6.0233    1.0000 </r>
       <r>   -6.0233    1.0000 </r>
       <r>   -5.1620    1.0000 </r>
       <r>   -4.9177    1.0000 </r>
       <r>   -4.9177    1.0000 </r>
       <r>   -3.4418    1.0000 </r>
       <r>   -0.6702    0.0000 </r>
       <r>   -0.6702    0.0000 </r>
       <r>   -0.4464    0.0000 </r>
       <r>   -0.4464    0.0000 </r>
       <r>    1.9923    0.0000 </r>
      </set>
      <set comment="kpoint 2">
       <r>  -17.2494    1.0000 </r>
       <r>  -16.1531    1.0000 </r>
       <r>   -8.7396    1.0000 </r>
       <r>   -6.4867    1.0000 </r>
       <r>   -5.9700    1.0000 </r>
       <r>   -5.7889    1.0000 </r>
       <r>   -5.2534    1.0000 </r>
       <r>   -4.4845    1.0000 </r>
       <r>   -3.5802    1.0000 </r>
       <r>   -0.9503    0.0000 </r>
       <r>   -0.8844    0.0000 </r>
       <r>   -0.6830    0.0000 </r>
       <r>   -0.3154    0.0000 </r>
       <r>    2.3618    0.0000 </r>
      </set>
      <set comment="kpoint 3">
       <r>  -16.6806    1.0000 </r>
       <r>  -15.8843    1.0000 </r>
       <r>   -8.3734    1.0000 </r>
       <r>   -7.2133    1.0000 </r>
       <r>   -6.9509    1.0000 </r>
       <r>   -5.8885    1.0000 </r>
       <r>   -5.2018    1.0000 </r>
       <r>   -4.7361    1.0000 </r>
       <r>   -4.1481    1.0000 </r>
       <r>   -1.2744    0.0000 </r>
       <r>   -1.0978    0.0000 </r>
       <r>   -0.5557    0.0000 </r>
       <r>    0.3016    0.0000 </r>
       <r>    3.1878    0.0000 </r>
      </set>
      <set comment="kpoint 4">
       <r>  -16.0055    1.0000 </r>
       <r>  -15.5758    1.0000 </r>
       <r>   -8.8107    1.0000 </r>
       <r>   -7.8183    1.0000 </r>
       <r>   -7.3461    1.0000 </r>
       <r>   -6.3858    1.0000 </r>
       <r>   -5.1454    1.0000 </r>
       <r>   -4.6113    1.0000 </r>
       <r>   -4.3432    1.0000 </r>
       <r>   -1.2794    0.0000 </r>
       <r>   -1.0006    0.0000 </r>
       <r>    0.1628    0.0000 </r>
       <r>    0.6949    0.0000 </r>
       <r>    3.7015    0.0000 </r>
      </set>
      <set comment="kpoint 5">
       <r>  -15.6772    1.0000 </r>
       <r>  -15.4325    1.0000 </r>
       <r>   -9.1434    1.0000 </r>
       <r>   -8.1832    1.0000 </r>
       <r>   -7.4724    1.0000 </r>
       <r>   -6.5664    1.0000 </r>
       <r>   -5.2843    1.0000 </r>
       <r>   -4.3842    1.0000 </r>
       <r>   -4.0624    1.0000 </r>
       <r>   -1.2572    0.0000 </r>
       <r>   -0.7412    0.0000 </r>
       <r>    0.4614    0.0000 </r>
       <r>    0.8103    0.0000 </r>
       <r>    2.7408    0.0000 </r>
      </set>
      <set comment="kpoint 6">
       <r>  -16.8565    1.0000 </r>
       <r>  -15.9660    1.0000 </r>
       <r>   -8.3923    1.0000 </r>
       <r>   -7.0507    1.0000 </r>
       <r>   -6.5322    1.0000 </r>
       <r>   -6.0673    1.0000 </r>
       <r>   -5.4494    1.0000 </r>
       <r>   -4.3500    1.0000 </r>
       <r>   -3.9520    1.0000 </r>
       <r>   -1.3495    0.0000 </r>
       <r>   -0.9713    0.0000 </r>
       <r>   -0.9595    0.0000 </r>
       <r>    0.2794    0.0000 </r>
       <r>    2.9529    0.0000 </r>
      </set>
      <set comment="kpoint 7">
       <r>  -16.2229    1.0000 </r>
       <r>  -15.6675    1.0000 </r>
       <r>   -8.4550    1.0000 </r>
       <r>   -7.4774    1.0000 </r>
       <r>   -7.2143    1.0000 </r>
       <r>   -6.5716    1.0000 </r>
       <r>   -5.3500    1.0000 </r>
       <r>   -4.7123    1.0000 </r>
       <r>   -4.2356    1.0000 </r>
       <r>   -1.4329    0.0000 </r>
       <r>   -0.9845    0.0000 </r>
       <r>   -0.4896    0.0000 </r>
       <r>    0.7872    0.0000 </r>
       <r>    3.9247    0.0000 </r>
      </set>
      <set comment="kpoint 8">
       <r>  -15.6925    1.0000 </r>
       <r>  -15.4235    1.0000 </r>
       <r>   -8.8560    1.0000 </r>
       <r>   -8.2405    1.0000 </r>
       <r>   -7.3447    1.0000 </r>
       <r>   -6.5884    1.0000 </r>
       <r>   -5.3348    1.0000 </r>
       <r>   -5.1941    1.0000 </r>
       <r>   -3.9087    1.0000 </r>
       <r>   -1.2383    0.0000 </r>
       <r>   -0.7280    0.0000 </r>
       <r>    0.1321    0.0000 </r>
       <r>    0.8209    0.0000 </r>
       <r>    3.2676    0.0000 </r>
      </set>
      <set comment="kpoint 9">
       <r>  -15.7074    1.0000 </r>
       <r>  -15.4145    1.0000 </r>
       <r>   -8.4956    1.0000 </r>
       <r>   -8.2912    1.0000 </r>
       <r>   -7.0176    1.0000 </r>
       <r>   -6.6368    1.0000 </r>
       <r>   -6.3176    1.0000 </r>
       <r>   -5.0606    1.0000 </r>
       <r>   -3.9376    1.0000 </r>
       <r>   -1.2893    0.0000 </r>
       <r>   -0.6783    0.0000 </r>
       <r>   -0.3664    0.0000 </r>
       <r>    1.1089    0.0000 </r>
       <r>    4.1000    0.0000 </r>
      </set>
      <set comment="kpoint 10">
       <r>  -15.4725    1.0000 </r>
       <r>  -15.2954    1.0000 </r>
       <r>   -8.6756    1.0000 </r>
       <r>   -8.3266    1.0000 </r>
       <r>   -7.3019    1.0000 </r>
       <r>   -6.6393    1.0000 </r>
       <r>   -6.4091    1.0000 </r>
       <r>   -5.4469    1.0000 </r>
       <r>   -3.5702    1.0000 </r>
       <r>   -1.6149    0.0000 </r>
       <r>   -0.3080    0.0000 </r>
       <r>   -0.1276    0.0000 </r>
       <r>    1.2542    0.0000 </r>
       <r>    3.5106    0.0000 </r>
      </set>
     </set>
    </set>
   </array>
  </eigenvalues>
  <separator name="orbital magnetization" >
   <v name="MAGDIPOLOUT">      0.00000000      0.00000000      0.00000000</v>
  </separator>
  <dos>
   <i name="efermi">     -3.42241108 </i>
   <total>
    <array>
     <dimension dim="1">gridpoints</dimension>
     <dimension dim="2">spin</dimension>
     <field>energy</field>
     <field>total</field>
     <field>integrated</field>
     <set>
      <set comment="spin 1">
       <r>   -19.4635     0.0000     0.0000 </r>
       <r>   -19.3783     0.0000     0.0000 </r>
       <r>   -19.2931     0.0000     0.0000 </r>
       <r>   -19.2079     0.0000     0.0000 </r>
       <r>   -19.1227     0.0000     0.0000 </r>
       <r>   -19.0374     0.0000     0.0000 </r>
       <r>   -18.9522     0.0000     0.0000 </r>
       <r>   -18.8670     0.0000     0.0000 </r>
       <r>   -18.7818     0.0000     0.0000 </r>
       <r>   -18.6966     0.0000     0.0000 </r>
       <r>   -18.6114     0.0000     0.0000 </r>
       <r>   -18.5262     0.0000     0.0000 </r>
       <r>   -18.4410     0.0000     0.0000 </r>
       <r>   -18.3558     0.0000     0.0000 </r>
       <r>   -18.2705     0.0000     0.0000 </r>
       <r>   -18.1853     0.0000     0.0000 </r>
       <r>   -18.1001     0.0000     0.0000 </r>
       <r>   -18.0149     0.0000     0.0000 </r>
       <r>   -17.9297     0.0000     0.0000 </r>
       <r>   -17.8445     0.0000     0.0000 </r>
       <r>   -17.7593     0.0000     0.0000 </r>
       <r>   -17.6741     0.0000     0.0000 </r>
       <r>   -17.5888     0.0000     0.0000 </r>
       <r>   -17.5036     0.0000     0.0000 </r>
       <r>   -17.4184     0.1843     0.0042 </r>
       <r>   -17.3332     0.5327     0.0347 </r>
       <r>   -17.2480     0.4780     0.0944 </r>
       <r>   -17.1628     0.5174     0.1368 </r>
       <r>   -17.0776     0.5569     0.1826 </r>
       <r>   -16.9924     0.5964     0.2317 </r>
       <r>   -16.9072     0.6359     0.2842 </r>
       <r>   -16.8219     0.6622     0.3399 </r>
       <r>   -16.7367     0.6693     0.3966 </r>
       <r>   -16.6515     0.6853     0.4541 </r>
       <r>   -16.5663     0.7183     0.5139 </r>
       <r>   -16.4811     0.7513     0.5765 </r>
       <r>   -16.3959     0.7844     0.6419 </r>
       <r>   -16.3107     0.8174     0.7102 </r>
       <r>   -16.2255     1.3871     0.7893 </r>
       <r>   -16.1402     2.0612     0.9708 </r>
       <r>   -16.0550     2.3562     1.1590 </r>
       <r>   -15.9698     2.6759     1.3728 </r>
       <r>   -15.8846     2.8918     1.6103 </r>
       <r>   -15.7994     3.2299     1.8711 </r>
       <r>   -15.7142     3.5685     2.1607 </r>
       <r>   -15.6290     4.2219     2.6175 </r>
       <r>   -15.5438     4.2442     2.9751 </r>
       <r>   -15.4586     3.7666     3.3667 </r>
       <r>   -15.3733     3.3487     3.7768 </r>
       <r>   -15.2881     0.0000     4.0000 </r>
       <r>   -15.2029     0.0000     4.0000 </r>
       <r>   -15.1177     0.0000     4.0000 </r>
       <r>   -15.0325     0.0000     4.0000 </r>
       <r>   -14.9473     0.0000     4.0000 </r>
       <r>   -14.8621     0.0000     4.0000 </r>
       <r>   -14.7769     0.0000     4.0000 </r>
       <r>   -14.6917     0.0000     4.0000 </r>
       <r>   -14.6064     0.0000     4.0000 </r>
       <r>   -14.5212     0.0000     4.0000 </r>
       <r>   -14.4360     0.0000     4.0000 </r>
       <r>   -14.3508     0.0000     4.0000 </r>
       <r>   -14.2656     0.0000     4.0000 </r>
       <r>   -14.1804     0.0000     4.0000 </r>
       <r>   -14.0952     0.0000     4.0000 </r>
       <r>   -14.0100     0.0000     4.0000 </r>
       <r>   -13.9247     0.0000     4.0000 </r>
       <r>   -13.8395     0.0000     4.0000 </r>
       <r>   -13.7543     0.0000     4.0000 </r>
       <r>   -13.6691     0.0000     4.0000 </r>
       <r>   -13.5839     0.0000     4.0000 </r>
       <r>   -13.4987     0.0000     4.0000 </r>
       <r>   -13.4135     0.0000     4.0000 </r>
       <r>   -13.3283     0.0000     4.0000 </r>
       <r>   -13.2431     0.0000     4.0000 </r>
       <r>   -13.1578     0.0000     4.0000 </r>
       <r>   -13.0726     0.0000     4.0000 </r>
       <r>   -12.9874     0.0000     4.0000 </r>
       <r>   -12.9022     0.0000     4.0000 </r>
       <r>   -12.8170     0.0000     4.0000 </r>
       <r>   -12.7318     0.0000     4.0000 </r>
       <r>   -12.6466     0.0000     4.0000 </r>
       <r>   -12.5614     0.0000     4.0000 </r>
       <r>   -12.4761     0.0000     4.0000 </r>
       <r>   -12.3909     0.0000     4.0000 </r>
       <r>   -12.3057     0.0000     4.0000 </r>
       <r>   -12.2205     0.0000     4.0000 </r>
       <r>   -12.1353     0.0000     4.0000 </r>
       <r>   -12.0501     0.0000     4.0000 </r>
       <r>   -11.9649     0.0000     4.0000 </r>
       <r>   -11.8797     0.0000     4.0000 </r>
       <r>   -11.7945     0.0000     4.0000 </r>
       <r>   -11.7092     0.0000     4.0000 </r>
       <r>   -11.6240     0.0000     4.0000 </r>
       <r>   -11.5388     0.0000     4.0000 </r>
       <r>   -11.4536     0.0000     4.0000 </r>
       <r>   -11.3684     0.0000     4.0000 </r>
       <r>   -11.2832     0.0000     4.0000 </r>
       <r>   -11.1980     0.0000     4.0000 </r>
       <r>   -11.1128     0.0000     4.0000 </r>
       <r>   -11.0276     0.0000     4.0000 </r>
       <r>   -10.9423     0.0000     4.0000 </r>
       <r>   -10.8571     0.0000     4.0000 </r>
       <r>   -10.7719     0.0000     4.0000 </r>
       <r>   -10.6867     0.0000     4.0000 </r>
       <r>   -10.6015     0.0000     4.0000 </r>
       <r>   -10.5163     0.0000     4.0000 </r>
       <r>   -10.4311     0.0000     4.0000 </r>
       <r>   -10.3459     0.0000     4.0000 </r>
       <r>   -10.2606     0.0000     4.0000 </r>
       <r>   -10.1754     0.0000     4.0000 </r>
       <r>   -10.0902     0.0000     4.0000 </r>
       <r>   -10.0050     0.0000     4.0000 </r>
       <r>    -9.9198     0.0000     4.0000 </r>
       <r>    -9.8346     0.0000     4.0000 </r>
       <r>    -9.7494     0.0000     4.0000 </r>
       <r>    -9.6642     0.0000     4.0000 </r>
       <r>    -9.5790     0.0000     4.0000 </r>
       <r>    -9.4937     0.0000     4.0000 </r>
       <r>    -9.4085     0.0000     4.0000 </r>
       <r>    -9.3233     0.0000     4.0000 </r>
       <r>    -9.2381     0.0000     4.0000 </r>
       <r>    -9.1529     0.0000     4.0000 </r>
       <r>    -9.0677     0.4689     4.0177 </r>
       <r>    -8.9825     1.0018     4.0802 </r>
       <r>    -8.8973     1.7967     4.1994 </r>
       <r>    -8.8120     2.6339     4.3958 </r>
       <r>    -8.7268     2.8499     4.6368 </r>
       <r>    -8.6416     3.8203     4.9533 </r>
       <r>    -8.5564     3.1557     5.2506 </r>
       <r>    -8.4712     4.9235     5.5209 </r>
       <r>    -8.3860     3.8760     5.9757 </r>
       <r>    -8.3008     5.2576     6.1677 </r>
       <r>    -8.2156     2.7341     6.4990 </r>
       <r>    -8.1304     1.3276     6.6385 </r>
       <r>    -8.0451     1.1921     6.7458 </r>
       <r>    -7.9599     1.0565     6.8416 </r>
       <r>    -7.8747     0.9210     6.9259 </r>
       <r>    -7.7895     0.8328     6.9993 </r>
       <r>    -7.7043     0.8376     7.0704 </r>
       <r>    -7.6191     0.8423     7.1420 </r>
       <r>    -7.5339     0.8471     7.2140 </r>
       <r>    -7.4487     1.8830     7.3021 </r>
       <r>    -7.3634     4.8393     7.5885 </r>
       <r>    -7.2782     5.1733     8.1225 </r>
       <r>    -7.1930     5.1492     8.5429 </r>
       <r>    -7.1078     3.2578     8.9011 </r>
       <r>    -7.0226     1.4488     9.0993 </r>
       <r>    -6.9374     1.1868     9.2076 </r>
       <r>    -6.8522     1.0907     9.3046 </r>
       <r>    -6.7670     0.9945     9.3934 </r>
       <r>    -6.6818     0.8983     9.4741 </r>
       <r>    -6.5965    11.7068    10.0524 </r>
       <r>    -6.5113     3.8285    10.6365 </r>
       <r>    -6.4261     2.3919    10.9032 </r>
       <r>    -6.3409     2.3880    11.1866 </r>
       <r>    -6.2557     1.8381    11.3531 </r>
       <r>    -6.1705     1.7264    11.5050 </r>
       <r>    -6.0853     1.6147    11.6474 </r>
       <r>    -6.0001     3.4986    11.8130 </r>
       <r>    -5.9149     2.1530    12.0600 </r>
       <r>    -5.8296     1.6861    12.2367 </r>
       <r>    -5.7444     0.8722    12.3353 </r>
       <r>    -5.6592     0.8658    12.4094 </r>
       <r>    -5.5740     0.8593    12.4829 </r>
       <r>    -5.4888     0.8529    12.5558 </r>
       <r>    -5.4036     3.7169    12.7349 </r>
       <r>    -5.3184     9.3260    13.2463 </r>
       <r>    -5.2332     7.0086    13.9625 </r>
       <r>    -5.1479     1.8561    14.3483 </r>
       <r>    -5.0627     1.4989    14.4854 </r>
       <r>    -4.9775     1.4514    14.6109 </r>
       <r>    -4.8923     1.4757    14.7336 </r>
       <r>    -4.8071     1.6592    14.8672 </r>
       <r>    -4.7219     4.2679    15.0336 </r>
       <r>    -4.6367     3.2746    15.4299 </r>
       <r>    -4.5515     2.2956    15.6419 </r>
       <r>    -4.4663     2.7130    15.8456 </r>
       <r>    -4.3810     0.6729    15.9896 </r>
       <r>    -4.2958     1.3728    16.0325 </r>
       <r>    -4.2106     4.2305    16.2757 </r>
       <r>    -4.1254     3.7122    16.6116 </r>
       <r>    -4.0402     3.3941    16.9149 </r>
       <r>    -3.9550     3.0288    17.1885 </r>
       <r>    -3.8698     2.1132    17.4122 </r>
       <r>    -3.7846     1.7995    17.5789 </r>
       <r>    -3.6993     1.4858    17.7188 </r>
       <r>    -3.6141     1.1721    17.8321 </r>
       <r>    -3.5289     0.8529    17.9628 </r>
       <r>    -3.4437     0.0188    18.0000 </r>
       <r>    -3.3585     0.0000    18.0000 </r>
       <r>    -3.2733     0.0000    18.0000 </r>
       <r>    -3.1881     0.0000    18.0000 </r>
       <r>    -3.1029     0.0000    18.0000 </r>
       <r>    -3.0177     0.0000    18.0000 </r>
       <r>    -2.9324     0.0000    18.0000 </r>
       <r>    -2.8472     0.0000    18.0000 </r>
       <r>    -2.7620     0.0000    18.0000 </r>
       <r>    -2.6768     0.0000    18.0000 </r>
       <r>    -2.5916     0.0000    18.0000 </r>
       <r>    -2.5064     0.0000    18.0000 </r>
       <r>    -2.4212     0.0000    18.0000 </r>
       <r>    -2.3360     0.0000    18.0000 </r>
       <r>    -2.2508     0.0000    18.0000 </r>
       <r>    -2.1655     0.0000    18.0000 </r>
       <r>    -2.0803     0.0000    18.0000 </r>
       <r>    -1.9951     0.0000    18.0000 </r>
       <r>    -1.9099     0.0000    18.0000 </r>
       <r>    -1.8247     0.0000    18.0000 </r>
       <r>    -1.7395     0.0000    18.0000 </r>
       <r>    -1.6543     0.0000    18.0000 </r>
       <r>    -1.5691     0.6955    18.0604 </r>
       <r>    -1.4838     0.9180    18.1291 </r>
       <r>    -1.3986     5.8494    18.3585 </r>
       <r>    -1.3134     8.2491    18.9762 </r>
       <r>    -1.2282     0.9480    19.7092 </r>
       <r>    -1.1430     0.8013    19.7838 </r>
       <r>    -1.0578     3.6216    19.9052 </r>
       <r>    -0.9726     5.9608    20.5088 </r>
       <r>    -0.8874     5.6236    20.9358 </r>
       <r>    -0.8022     4.7820    21.3293 </r>
       <r>    -0.7169     4.0606    21.8269 </r>
       <r>    -0.6317     3.2894    22.1426 </r>
       <r>    -0.5465     2.4542    22.3870 </r>
       <r>    -0.4613     2.7160    22.5944 </r>
       <r>    -0.3761     2.6293    22.8146 </r>
       <r>    -0.2909     1.8720    23.0726 </r>
       <r>    -0.2057     2.3702    23.2534 </r>
       <r>    -0.1205     2.0359    23.5020 </r>
       <r>    -0.0352     1.9754    23.6729 </r>
       <r>     0.0500     1.9149    23.8387 </r>
       <r>     0.1352     1.7538    23.9989 </r>
       <r>     0.2204     1.9149    24.1722 </r>
       <r>     0.3056     1.6230    24.3191 </r>
       <r>     0.3908     1.2503    24.4415 </r>
       <r>     0.4760     0.9586    24.5328 </r>
       <r>     0.5612     1.0583    24.6187 </r>
       <r>     0.6464     1.1580    24.7131 </r>
       <r>     0.7317     3.0103    24.8483 </r>
       <r>     0.8169    13.9458    25.2831 </r>
       <r>     0.9021     1.8076    25.5101 </r>
       <r>     0.9873     1.4793    25.6502 </r>
       <r>     1.0725     1.1510    25.7622 </r>
       <r>     1.1577     1.1046    25.8532 </r>
       <r>     1.2429     1.2689    25.9543 </r>
       <r>     1.3281     0.0000    26.0000 </r>
       <r>     1.4133     0.0000    26.0000 </r>
       <r>     1.4986     0.0000    26.0000 </r>
       <r>     1.5838     0.0000    26.0000 </r>
       <r>     1.6690     0.0000    26.0000 </r>
       <r>     1.7542     0.0000    26.0000 </r>
       <r>     1.8394     0.0000    26.0000 </r>
       <r>     1.9246     0.0000    26.0000 </r>
       <r>     2.0098     0.0241    26.0002 </r>
       <r>     2.0950     0.1411    26.0073 </r>
       <r>     2.1803     0.2581    26.0243 </r>
       <r>     2.2655     0.3751    26.0512 </r>
       <r>     2.3507     0.4921    26.0882 </r>
       <r>     2.4359     0.3344    26.1179 </r>
       <r>     2.5211     0.3541    26.1472 </r>
       <r>     2.6063     0.3738    26.1782 </r>
       <r>     2.6915     0.3935    26.2109 </r>
       <r>     2.7767     0.4642    26.2462 </r>
       <r>     2.8619     0.6046    26.2917 </r>
       <r>     2.9472     0.7450    26.3492 </r>
       <r>     3.0324     0.8597    26.4177 </r>
       <r>     3.1176     0.9726    26.4958 </r>
       <r>     3.2028     1.0969    26.5835 </r>
       <r>     3.2880     1.6567    26.6927 </r>
       <r>     3.3732     1.6947    26.8355 </r>
       <r>     3.4584     1.7327    26.9815 </r>
       <r>     3.5436     2.0894    27.1725 </r>
       <r>     3.6289     2.1289    27.3522 </r>
       <r>     3.7141     2.0895    27.5348 </r>
       <r>     3.7993     1.5970    27.6919 </r>
       <r>     3.8845     1.1044    27.8070 </r>
       <r>     3.9697     1.2996    27.9153 </r>
       <r>     4.0549     0.4497    27.9899 </r>
       <r>     4.1401     0.0000    28.0000 </r>
       <r>     4.2253     0.0000    28.0000 </r>
       <r>     4.3105     0.0000    28.0000 </r>
       <r>     4.3958     0.0000    28.0000 </r>
       <r>     4.4810     0.0000    28.0000 </r>
       <r>     4.5662     0.0000    28.0000 </r>
       <r>     4.6514     0.0000    28.0000 </r>
       <r>     4.7366     0.0000    28.0000 </r>
       <r>     4.8218     0.0000    28.0000 </r>
       <r>     4.9070     0.0000    28.0000 </r>
       <r>     4.9922     0.0000    28.0000 </r>
       <r>     5.0775     0.0000    28.0000 </r>
       <r>     5.1627     0.0000    28.0000 </r>
       <r>     5.2479     0.0000    28.0000 </r>
       <r>     5.3331     0.0000    28.0000 </r>
       <r>     5.4183     0.0000    28.0000 </r>
       <r>     5.5035     0.0000    28.0000 </r>
       <r>     5.5887     0.0000    28.0000 </r>
       <r>     5.6739     0.0000    28.0000 </r>
       <r>     5.7591     0.0000    28.0000 </r>
       <r>     5.8444     0.0000    28.0000 </r>
       <r>     5.9296     0.0000    28.0000 </r>
       <r>     6.0148     0.0000    28.0000 </r>
       <r>     6.1000     0.0000    28.0000 </r>
      </set>
     </set>
    </array>
   </total>
  </dos>
 </calculation>
 <structure name="finalpos" >
  <crystal>
   <varray name="basis" >
    <v>       3.19031573       0.00000000       0.00000000 </v>
    <v>      -1.59515786       2.76289447       0.00000000 </v>
    <v>       0.00000000       0.00000000      26.87900430 </v>
   </varray>
   <i name="volume">    236.92513614 </i>
   <varray name="rec_basis" >
    <v>       0.31344860       0.18096963       0.00000000 </v>
    <v>       0.00000000       0.36193927       0.00000000 </v>
    <v>       0.00000000       0.00000000       0.03720376 </v>
   </varray>
  </crystal>
  <varray name="positions" >
   <v>       0.33333300       0.66666700       0.13838872 </v>
   <v>       0.66666700       0.33333300       0.08016914 </v>
   <v>       0.66666600       0.33333300       0.19660830 </v>
  </varray>
 </structure>
</modeling>
