   3   3   0   0
  0.9072772E+02  0.3190316E-09  0.3190316E-09  0.3087900E-08  0.5000000E-15
  1.000000000000000E-004
  CAR 
 unknown system                          
      5.86448313    -19.78833443  301     -3.75532345      1.00000000
    -19.788  0.0000E+00  0.0000E+00
    -19.703  0.0000E+00  0.0000E+00
    -19.617  0.0000E+00  0.0000E+00
    -19.532  0.0000E+00  0.0000E+00
    -19.446  0.0000E+00  0.0000E+00
    -19.361  0.0000E+00  0.0000E+00
    -19.275  0.0000E+00  0.0000E+00
    -19.190  0.0000E+00  0.0000E+00
    -19.104  0.0000E+00  0.0000E+00
    -19.019  0.0000E+00  0.0000E+00
    -18.933  0.0000E+00  0.0000E+00
    -18.848  0.0000E+00  0.0000E+00
    -18.762  0.0000E+00  0.0000E+00
    -18.677  0.0000E+00  0.0000E+00
    -18.591  0.0000E+00  0.0000E+00
    -18.506  0.0000E+00  0.0000E+00
    -18.420  0.0000E+00  0.0000E+00
    -18.335  0.0000E+00  0.0000E+00
    -18.249  0.0000E+00  0.0000E+00
    -18.164  0.0000E+00  0.0000E+00
    -18.078  0.0000E+00  0.0000E+00
    -17.993  0.0000E+00  0.0000E+00
    -17.907  0.0000E+00  0.0000E+00
    -17.822  0.0000E+00  0.0000E+00
    -17.736  0.4661E+00  0.1217E-01
    -17.651  0.4818E+00  0.6076E-01
    -17.565  0.5539E+00  0.1050E+00
    -17.480  0.5879E+00  0.1550E+00
    -17.394  0.5559E+00  0.2032E+00
    -17.309  0.5898E+00  0.2522E+00
    -17.223  0.6237E+00  0.3041E+00
    -17.138  0.6333E+00  0.3583E+00
    -17.052  0.6540E+00  0.4133E+00
    -16.967  0.6790E+00  0.4702E+00
    -16.881  0.7092E+00  0.5296E+00
    -16.796  0.7393E+00  0.5915E+00
    -16.710  0.7954E+00  0.6570E+00
    -16.624  0.8454E+00  0.7272E+00
    -16.539  0.2505E+01  0.8349E+00
    -16.453  0.2185E+01  0.1010E+01
    -16.368  0.2216E+01  0.1196E+01
    -16.282  0.2609E+01  0.1404E+01
    -16.197  0.2875E+01  0.1637E+01
    -16.111  0.3316E+01  0.1899E+01
    -16.026  0.4212E+01  0.2210E+01
    -15.940  0.4070E+01  0.2634E+01
    -15.855  0.4424E+01  0.2975E+01
    -15.769  0.4992E+01  0.3407E+01
    -15.684  0.2750E+01  0.3787E+01
    -15.598  0.6111E+00  0.3998E+01
    -15.513  0.0000E+00  0.4000E+01
    -15.427  0.0000E+00  0.4000E+01
    -15.342  0.0000E+00  0.4000E+01
    -15.256  0.0000E+00  0.4000E+01
    -15.171  0.0000E+00  0.4000E+01
    -15.085  0.0000E+00  0.4000E+01
    -15.000  0.0000E+00  0.4000E+01
    -14.914  0.0000E+00  0.4000E+01
    -14.829  0.0000E+00  0.4000E+01
    -14.743  0.0000E+00  0.4000E+01
    -14.658  0.0000E+00  0.4000E+01
    -14.572  0.0000E+00  0.4000E+01
    -14.487  0.0000E+00  0.4000E+01
    -14.401  0.0000E+00  0.4000E+01
    -14.316  0.0000E+00  0.4000E+01
    -14.230  0.0000E+00  0.4000E+01
    -14.145  0.0000E+00  0.4000E+01
    -14.059  0.0000E+00  0.4000E+01
    -13.974  0.0000E+00  0.4000E+01
    -13.888  0.0000E+00  0.4000E+01
    -13.803  0.0000E+00  0.4000E+01
    -13.717  0.0000E+00  0.4000E+01
    -13.632  0.0000E+00  0.4000E+01
    -13.546  0.0000E+00  0.4000E+01
    -13.461  0.0000E+00  0.4000E+01
    -13.375  0.0000E+00  0.4000E+01
    -13.290  0.0000E+00  0.4000E+01
    -13.204  0.0000E+00  0.4000E+01
    -13.119  0.0000E+00  0.4000E+01
    -13.033  0.0000E+00  0.4000E+01
    -12.948  0.0000E+00  0.4000E+01
    -12.862  0.0000E+00  0.4000E+01
    -12.777  0.0000E+00  0.4000E+01
    -12.691  0.0000E+00  0.4000E+01
    -12.606  0.0000E+00  0.4000E+01
    -12.520  0.0000E+00  0.4000E+01
    -12.435  0.0000E+00  0.4000E+01
    -12.349  0.0000E+00  0.4000E+01
    -12.264  0.0000E+00  0.4000E+01
    -12.178  0.0000E+00  0.4000E+01
    -12.092  0.0000E+00  0.4000E+01
    -12.007  0.0000E+00  0.4000E+01
    -11.921  0.0000E+00  0.4000E+01
    -11.836  0.0000E+00  0.4000E+01
    -11.750  0.0000E+00  0.4000E+01
    -11.665  0.0000E+00  0.4000E+01
    -11.579  0.0000E+00  0.4000E+01
    -11.494  0.0000E+00  0.4000E+01
    -11.408  0.0000E+00  0.4000E+01
    -11.323  0.0000E+00  0.4000E+01
    -11.237  0.0000E+00  0.4000E+01
    -11.152  0.0000E+00  0.4000E+01
    -11.066  0.0000E+00  0.4000E+01
    -10.981  0.0000E+00  0.4000E+01
    -10.895  0.0000E+00  0.4000E+01
    -10.810  0.0000E+00  0.4000E+01
    -10.724  0.0000E+00  0.4000E+01
    -10.639  0.0000E+00  0.4000E+01
    -10.553  0.0000E+00  0.4000E+01
    -10.468  0.0000E+00  0.4000E+01
    -10.382  0.0000E+00  0.4000E+01
    -10.297  0.0000E+00  0.4000E+01
    -10.211  0.0000E+00  0.4000E+01
    -10.126  0.0000E+00  0.4000E+01
    -10.040  0.0000E+00  0.4000E+01
     -9.955  0.0000E+00  0.4000E+01
     -9.869  0.0000E+00  0.4000E+01
     -9.784  0.0000E+00  0.4000E+01
     -9.698  0.0000E+00  0.4000E+01
     -9.613  0.0000E+00  0.4000E+01
     -9.527  0.0000E+00  0.4000E+01
     -9.442  0.3188E+00  0.4004E+01
     -9.356  0.1357E+01  0.4076E+01
     -9.271  0.1358E+01  0.4186E+01
     -9.185  0.1697E+01  0.4330E+01
     -9.100  0.1935E+01  0.4485E+01
     -9.014  0.4133E+01  0.4731E+01
     -8.929  0.3395E+01  0.5087E+01
     -8.843  0.2960E+01  0.5358E+01
     -8.758  0.3361E+01  0.5636E+01
     -8.672  0.4629E+01  0.6123E+01
     -8.587  0.1551E+01  0.6387E+01
     -8.501  0.1847E+01  0.6555E+01
     -8.416  0.1475E+01  0.6697E+01
     -8.330  0.1122E+01  0.6808E+01
     -8.245  0.9538E+00  0.6895E+01
     -8.159  0.8473E+00  0.6972E+01
     -8.074  0.7718E+00  0.7041E+01
     -7.988  0.7335E+00  0.7106E+01
     -7.903  0.6895E+00  0.7167E+01
     -7.817  0.7140E+00  0.7226E+01
     -7.732  0.4095E+01  0.7435E+01
     -7.646  0.4919E+01  0.7792E+01
     -7.560  0.6203E+01  0.8309E+01
     -7.475  0.4205E+01  0.8731E+01
     -7.389  0.2302E+01  0.9080E+01
     -7.304  0.1034E+01  0.9196E+01
     -7.218  0.1079E+01  0.9286E+01
     -7.133  0.1141E+01  0.9381E+01
     -7.047  0.1196E+01  0.9481E+01
     -6.962  0.4894E+01  0.9730E+01
     -6.876  0.7080E+01  0.1047E+02
     -6.791  0.2207E+01  0.1079E+02
     -6.705  0.3114E+01  0.1108E+02
     -6.620  0.1984E+01  0.1129E+02
     -6.534  0.1866E+01  0.1145E+02
     -6.449  0.1737E+01  0.1161E+02
     -6.363  0.1612E+01  0.1175E+02
     -6.278  0.2329E+01  0.1191E+02
     -6.192  0.1346E+01  0.1207E+02
     -6.107  0.1278E+01  0.1218E+02
     -6.021  0.2217E+01  0.1231E+02
     -5.936  0.1053E+01  0.1251E+02
     -5.850  0.1283E+01  0.1260E+02
     -5.765  0.5524E+01  0.1280E+02
     -5.679  0.3822E+01  0.1319E+02
     -5.594  0.5111E+01  0.1350E+02
     -5.508  0.3594E+01  0.1391E+02
     -5.423  0.3944E+01  0.1422E+02
     -5.337  0.2299E+01  0.1454E+02
     -5.252  0.1845E+01  0.1472E+02
     -5.166  0.1963E+01  0.1488E+02
     -5.081  0.3414E+01  0.1507E+02
     -4.995  0.2099E+01  0.1531E+02
     -4.910  0.2010E+01  0.1548E+02
     -4.824  0.2672E+01  0.1569E+02
     -4.739  0.3093E+01  0.1597E+02
     -4.653  0.1021E+01  0.1603E+02
     -4.568  0.3350E+01  0.1619E+02
     -4.482  0.2910E+01  0.1657E+02
     -4.397  0.2965E+01  0.1682E+02
     -4.311  0.2790E+01  0.1707E+02
     -4.226  0.2412E+01  0.1729E+02
     -4.140  0.1938E+01  0.1748E+02
     -4.055  0.1532E+01  0.1762E+02
     -3.969  0.1728E+01  0.1776E+02
     -3.884  0.1188E+01  0.1789E+02
     -3.798  0.1094E+01  0.1798E+02
     -3.713  0.0000E+00  0.1800E+02
     -3.627  0.0000E+00  0.1800E+02
     -3.542  0.0000E+00  0.1800E+02
     -3.456  0.0000E+00  0.1800E+02
     -3.371  0.0000E+00  0.1800E+02
     -3.285  0.0000E+00  0.1800E+02
     -3.200  0.0000E+00  0.1800E+02
     -3.114  0.0000E+00  0.1800E+02
     -3.028  0.0000E+00  0.1800E+02
     -2.943  0.0000E+00  0.1800E+02
     -2.857  0.0000E+00  0.1800E+02
     -2.772  0.0000E+00  0.1800E+02
     -2.686  0.0000E+00  0.1800E+02
     -2.601  0.0000E+00  0.1800E+02
     -2.515  0.0000E+00  0.1800E+02
     -2.430  0.0000E+00  0.1800E+02
     -2.344  0.0000E+00  0.1800E+02
     -2.259  0.0000E+00  0.1800E+02
     -2.173  0.0000E+00  0.1800E+02
     -2.088  0.6683E-01  0.1800E+02
     -2.002  0.3339E+00  0.1802E+02
     -1.917  0.6010E+00  0.1806E+02
     -1.831  0.8035E+00  0.1812E+02
     -1.746  0.3391E+01  0.1830E+02
     -1.660  0.6888E+01  0.1873E+02
     -1.575  0.9636E+01  0.1960E+02
     -1.489  0.7665E+00  0.1979E+02
     -1.404  0.3335E+01  0.1992E+02
     -1.318  0.7332E+01  0.2033E+02
     -1.233  0.3582E+01  0.2084E+02
     -1.147  0.6009E+01  0.2126E+02
     -1.062  0.3973E+01  0.2176E+02
     -0.976  0.2726E+01  0.2207E+02
     -0.891  0.2489E+01  0.2229E+02
     -0.805  0.3360E+01  0.2253E+02
     -0.720  0.2560E+01  0.2275E+02
     -0.634  0.1911E+01  0.2304E+02
     -0.549  0.2482E+01  0.2323E+02
     -0.463  0.2650E+01  0.2347E+02
     -0.378  0.2050E+01  0.2367E+02
     -0.292  0.1553E+01  0.2383E+02
     -0.207  0.1469E+01  0.2395E+02
     -0.121  0.1418E+01  0.2408E+02
     -0.036  0.1422E+01  0.2420E+02
      0.050  0.2051E+01  0.2433E+02
      0.135  0.8911E+00  0.2451E+02
      0.221  0.9234E+00  0.2459E+02
      0.306  0.1566E+01  0.2468E+02
      0.392  0.4052E+01  0.2486E+02
      0.477  0.2420E+01  0.2526E+02
      0.563  0.2033E+01  0.2544E+02
      0.648  0.1729E+01  0.2560E+02
      0.734  0.1292E+01  0.2573E+02
      0.819  0.1008E+01  0.2583E+02
      0.905  0.9441E+00  0.2591E+02
      0.990  0.5147E+00  0.2598E+02
      1.076  0.0000E+00  0.2600E+02
      1.161  0.0000E+00  0.2600E+02
      1.247  0.0000E+00  0.2600E+02
      1.332  0.0000E+00  0.2600E+02
      1.418  0.0000E+00  0.2600E+02
      1.504  0.0000E+00  0.2600E+02
      1.589  0.0000E+00  0.2600E+02
      1.675  0.2615E-01  0.2600E+02
      1.760  0.2363E+00  0.2601E+02
      1.846  0.4465E+00  0.2604E+02
      1.931  0.3120E+00  0.2607E+02
      2.017  0.3461E+00  0.2609E+02
      2.102  0.3802E+00  0.2613E+02
      2.188  0.3780E+00  0.2616E+02
      2.273  0.3405E+00  0.2619E+02
      2.359  0.3603E+00  0.2622E+02
      2.444  0.4556E+00  0.2625E+02
      2.530  0.7042E+00  0.2630E+02
      2.615  0.9529E+00  0.2637E+02
      2.701  0.1259E+01  0.2647E+02
      2.786  0.1090E+01  0.2657E+02
      2.872  0.1062E+01  0.2666E+02
      2.957  0.1143E+01  0.2675E+02
      3.043  0.1252E+01  0.2686E+02
      3.128  0.1360E+01  0.2697E+02
      3.214  0.1469E+01  0.2709E+02
      3.299  0.2311E+01  0.2723E+02
      3.385  0.2373E+01  0.2743E+02
      3.470  0.2446E+01  0.2764E+02
      3.556  0.1069E+01  0.2775E+02
      3.641  0.8771E+00  0.2783E+02
      3.727  0.6855E+00  0.2790E+02
      3.812  0.7811E+00  0.2795E+02
      3.898  0.0000E+00  0.2800E+02
      3.983  0.0000E+00  0.2800E+02
      4.069  0.0000E+00  0.2800E+02
      4.154  0.0000E+00  0.2800E+02
      4.240  0.0000E+00  0.2800E+02
      4.325  0.0000E+00  0.2800E+02
      4.411  0.0000E+00  0.2800E+02
      4.496  0.0000E+00  0.2800E+02
      4.582  0.0000E+00  0.2800E+02
      4.667  0.0000E+00  0.2800E+02
      4.753  0.0000E+00  0.2800E+02
      4.838  0.0000E+00  0.2800E+02
      4.924  0.0000E+00  0.2800E+02
      5.009  0.0000E+00  0.2800E+02
      5.095  0.0000E+00  0.2800E+02
      5.180  0.0000E+00  0.2800E+02
      5.266  0.0000E+00  0.2800E+02
      5.351  0.0000E+00  0.2800E+02
      5.437  0.0000E+00  0.2800E+02
      5.522  0.0000E+00  0.2800E+02
      5.608  0.0000E+00  0.2800E+02
      5.693  0.0000E+00  0.2800E+02
      5.779  0.0000E+00  0.2800E+02
      5.864  0.0000E+00  0.2800E+02
