    3    3    1    1
  0.9072772E+02  0.3190316E-09  0.3190316E-09  0.3087900E-08  0.5000000E-15
  1.000000000000000E-004
  CAR 
 unknown system                          
     18     19     14
 
  0.0000000E+00  0.0000000E+00  0.0000000E+00  0.6944444E-02
    1      -17.788334   1.000000
    2      -16.580313   1.000000
    3       -9.308746   1.000000
    4       -6.347851   1.000000
    5       -6.347846   1.000000
    6       -5.486707   1.000000
    7       -5.242271   1.000000
    8       -5.242239   1.000000
    9       -3.766430   1.000000
   10       -0.994787   0.000000
   11       -0.994756   0.000000
   12       -0.771061   0.000000
   13       -0.771048   0.000000
   14        1.663883   0.000000
 
  0.8333333E-01  0.0000000E+00  0.0000000E+00  0.4166667E-01
    1      -17.691704   1.000000
    2      -16.534052   1.000000
    3       -9.194827   1.000000
    4       -6.570812   1.000000
    5       -6.241365   1.000000
    6       -5.978424   1.000000
    7       -5.403440   1.000000
    8       -4.905668   1.000000
    9       -3.818923   1.000000
   10       -1.133707   0.000000
   11       -1.043328   0.000000
   12       -0.884532   0.000000
   13       -0.822956   0.000000
   14        1.848017   0.000000
 
  0.1666667E+00  0.0000000E+00  0.0000000E+00  0.4166667E-01
    1      -17.415888   1.000000
    2      -16.402568   1.000000
    3       -8.907716   1.000000
    4       -7.087256   1.000000
    5       -6.619060   1.000000
    6       -5.944212   1.000000
    7       -5.784388   1.000000
    8       -4.816362   1.000000
    9       -4.051287   1.000000
   10       -1.468618   0.000000
   11       -1.198874   0.000000
   12       -1.151030   0.000000
   13       -0.429504   0.000000
   14        2.266761   0.000000
 
  0.2500000E+00 -0.1387779E-16  0.0000000E+00  0.4166667E-01
    1      -17.005413   1.000000
    2      -16.209082   1.000000
    3       -8.698036   1.000000
    4       -7.537898   1.000000
    5       -7.275452   1.000000
    6       -6.213002   1.000000
    7       -5.526369   1.000000
    8       -5.060743   1.000000
    9       -4.472687   1.000000
   10       -1.599092   0.000000
   11       -1.422436   0.000000
   12       -0.880386   0.000000
   13       -0.023022   0.000000
   14        2.852178   0.000000
 
  0.3333333E+00  0.0000000E+00  0.0000000E+00  0.4166667E-01
    1      -16.542640   1.000000
    2      -15.995936   1.000000
    3       -8.936986   1.000000
    4       -7.888311   1.000000
    5       -7.636867   1.000000
    6       -6.574643   1.000000
    7       -5.358897   1.000000
    8       -5.105467   1.000000
    9       -4.714466   1.000000
   10       -1.580266   0.000000
   11       -1.447778   0.000000
   12       -0.382507   0.000000
   13        0.273299   0.000000
   14        3.472112   0.000000
 
  0.4166667E+00  0.2775558E-16  0.0000000E+00  0.4166667E-01
    1      -16.156747   1.000000
    2      -15.824153   1.000000
    3       -9.309083   1.000000
    4       -8.339991   1.000000
    5       -7.726544   1.000000
    6       -6.809816   1.000000
    7       -5.548148   1.000000
    8       -4.810216   1.000000
    9       -4.549354   1.000000
   10       -1.601010   0.000000
   11       -1.201339   0.000000
   12        0.003988   0.000000
   13        0.435910   0.000000
   14        2.910538   0.000000
 
  0.5000000E+00 -0.2775558E-16  0.0000000E+00  0.2083333E-01
    1      -16.001996   1.000000
    2      -15.757234   1.000000
    3       -9.467962   1.000000
    4       -8.507774   1.000000
    5       -7.797022   1.000000
    6       -6.890870   1.000000
    7       -5.608890   1.000000
    8       -4.708755   1.000000
    9       -4.387014   1.000000
   10       -1.581701   0.000000
   11       -1.065747   0.000000
   12        0.136753   0.000000
   13        0.485742   0.000000
   14        2.415893   0.000000
 
  0.8333333E-01  0.8333333E-01  0.0000000E+00  0.4166667E-01
    1      -17.505360   1.000000
    2      -16.445053   1.000000
    3       -8.990918   1.000000
    4       -6.933276   1.000000
    5       -6.402866   1.000000
    6       -6.047825   1.000000
    7       -5.777854   1.000000
    8       -4.717414   1.000000
    9       -3.962267   1.000000
   10       -1.372834   0.000000
   11       -1.280645   0.000000
   12       -1.086137   0.000000
   13       -0.501660   0.000000
   14        2.146871   0.000000
 
  0.1666667E+00  0.8333333E-01  0.0000000E+00  0.8333333E-01
    1      -17.161246   1.000000
    2      -16.281552   1.000000
    3       -8.713124   1.000000
    4       -7.400679   1.000000
    5       -6.943456   1.000000
    6       -6.314677   1.000000
    7       -5.738132   1.000000
    8       -4.750131   1.000000
    9       -4.302124   1.000000
   10       -1.662361   0.000000
   11       -1.309881   0.000000
   12       -1.210983   0.000000
   13       -0.054931   0.000000
   14        2.692460   0.000000
 
  0.2500000E+00  0.8333333E-01  0.0000000E+00  0.8333333E-01
    1      -16.721158   1.000000
    2      -16.075174   1.000000
    3       -8.735042   1.000000
    4       -7.597145   1.000000
    5       -7.587768   1.000000
    6       -6.670961   1.000000
    7       -5.487332   1.000000
    8       -5.043658   1.000000
    9       -4.595930   1.000000
   10       -1.730908   0.000000
   11       -1.370970   0.000000
   12       -0.816082   0.000000
   13        0.297553   0.000000
   14        3.301594   0.000000
 
  0.3333333E+00  0.8333333E-01  0.0000000E+00  0.8333333E-01
    1      -16.289061   1.000000
    2      -15.877238   1.000000
    3       -9.072964   1.000000
    4       -8.190697   1.000000
    5       -7.622412   1.000000
    6       -6.839018   1.000000
    7       -5.370035   1.000000
    8       -5.362579   1.000000
    9       -4.491608   1.000000
   10       -1.617204   0.000000
   11       -1.278179   0.000000
   12       -0.330179   0.000000
   13        0.449945   0.000000
   14        3.484578   0.000000
 
  0.4166667E+00  0.8333333E-01  0.0000000E+00  0.8333333E-01
    1      -16.009651   1.000000
    2      -15.752780   1.000000
    3       -9.331291   1.000000
    4       -8.537290   1.000000
    5       -7.740939   1.000000
    6       -6.897983   1.000000
    7       -5.569577   1.000000
    8       -5.235915   1.000000
    9       -4.252492   1.000000
   10       -1.559515   0.000000
   11       -1.066159   0.000000
   12        0.065565   0.000000
   13        0.377178   0.000000
   14        2.666162   0.000000
 
  0.1666667E+00  0.1666667E+00  0.0000000E+00  0.4166667E-01
    1      -16.784997   1.000000
    2      -16.102761   1.000000
    3       -8.636830   1.000000
    4       -7.545190   1.000000
    5       -7.372386   1.000000
    6       -6.903093   1.000000
    7       -5.704458   1.000000
    8       -4.793860   1.000000
    9       -4.538016   1.000000
   10       -1.831491   0.000000
   11       -1.317250   0.000000
   12       -1.108541   0.000000
   13        0.358697   0.000000
   14        3.249165   0.000000
 
  0.2500000E+00  0.1666667E+00  0.0000000E+00  0.8333333E-01
    1      -16.366643   1.000000
    2      -15.904600   1.000000
    3       -8.820893   1.000000
    4       -8.065471   1.000000
    5       -7.459793   1.000000
    6       -7.008809   1.000000
    7       -5.967368   1.000000
    8       -5.095266   1.000000
    9       -4.490680   1.000000
   10       -1.689700   0.000000
   11       -1.261574   0.000000
   12       -0.785898   0.000000
   13        0.591965   0.000000
   14        3.864483   0.000000
 
  0.3333333E+00  0.1666667E+00  0.0000000E+00  0.8333333E-01
    1      -16.024749   1.000000
    2      -15.743816   1.000000
    3       -9.011975   1.000000
    4       -8.591081   1.000000
    5       -7.564192   1.000000
    6       -6.934513   1.000000
    7       -6.092917   1.000000
    8       -5.457080   1.000000
    9       -4.241320   1.000000
   10       -1.583164   0.000000
   11       -1.029948   0.000000
   12       -0.447973   0.000000
   13        0.638186   0.000000
   14        3.274180   0.000000
 
  0.4166667E+00  0.1666667E+00  0.0000000E+00  0.4166667E-01
    1      -15.890011   1.000000
    2      -15.680913   1.000000
    3       -9.080813   1.000000
    4       -8.782260   1.000000
    5       -7.682959   1.000000
    6       -6.868564   1.000000
    7       -6.091077   1.000000
    8       -5.628713   1.000000
    9       -4.066344   1.000000
   10       -1.671936   0.000000
   11       -0.783980   0.000000
   12       -0.299781   0.000000
   13        0.615651   0.000000
   14        2.815135   0.000000
 
  0.2500000E+00  0.2500000E+00  0.0000000E+00  0.4166667E-01
    1      -16.032205   1.000000
    2      -15.739319   1.000000
    3       -8.820194   1.000000
    4       -8.615726   1.000000
    5       -7.342221   1.000000
    6       -6.961349   1.000000
    7       -6.642191   1.000000
    8       -5.385270   1.000000
    9       -4.262136   1.000000
   10       -1.613800   0.000000
   11       -1.002852   0.000000
   12       -0.691065   0.000000
   13        0.784317   0.000000
   14        3.775062   0.000000
 
  0.3333333E+00  0.2500000E+00  0.0000000E+00  0.8333333E-01
    1      -15.825363   1.000000
    2      -15.634537   1.000000
    3       -8.954971   1.000000
    4       -8.689290   1.000000
    5       -7.548816   1.000000
    6       -6.949516   1.000000
    7       -6.775122   1.000000
    8       -5.711288   1.000000
    9       -3.956294   1.000000
   10       -1.878296   0.000000
   11       -0.638285   0.000000
   12       -0.535484   0.000000
   13        0.911061   0.000000
   14        3.283070   0.000000
 
  0.3333333E+00  0.3333333E+00  0.0000000E+00  0.1388889E-01
    1      -15.751392   1.000000
    2      -15.591622   1.000000
    3       -9.097752   1.000000
    4       -8.288789   1.000000
    5       -7.794876   1.000000
    6       -7.305073   1.000000
    7       -6.623628   1.000000
    8       -5.895276   1.000000
    9       -3.769468   1.000000
   10       -2.109285   0.000000
   11       -0.728191   0.000000
   12       -0.279235   0.000000
   13        1.050415   0.000000
   14        3.479086   0.000000
