       N       E                     dE             d eps       ncg     rms          rms(c)
DAV:   1     0.136622594796E+03    0.13662E+03   -0.53378E+03   532   0.804E+02
DAV:   2    -0.606519605527E+01   -0.14269E+03   -0.13475E+03   942   0.164E+02
DAV:   3    -0.230468267798E+02   -0.16982E+02   -0.16823E+02   700   0.733E+01
DAV:   4    -0.233986452434E+02   -0.35182E+00   -0.35005E+00   710   0.131E+01
DAV:   5    -0.234076035317E+02   -0.89583E-02   -0.89564E-02   686   0.203E+00    0.689E+00
RMM:   6    -0.222464566196E+02    0.11611E+01   -0.54514E+00   559   0.124E+01    0.261E+00
RMM:   7    -0.218623270955E+02    0.38413E+00   -0.55833E-01   555   0.342E+00    0.150E+00
RMM:   8    -0.218020615097E+02    0.60266E-01   -0.23250E-01   584   0.251E+00    0.354E-01
RMM:   9    -0.217971928793E+02    0.48686E-02   -0.87070E-03   636   0.605E-01    0.963E-02
RMM:  10    -0.217964291613E+02    0.76372E-03   -0.16959E-03   627   0.221E-01    0.444E-02
RMM:  11    -0.217963613742E+02    0.67787E-04   -0.16401E-03   598   0.190E-01    0.539E-02
RMM:  12    -0.217961933119E+02    0.16806E-03   -0.52941E-04   577   0.129E-01    0.175E-02
RMM:  13    -0.217965317979E+02   -0.33849E-03   -0.16703E-04   544   0.726E-02    0.203E-02
RMM:  14    -0.217965896174E+02   -0.57820E-04   -0.26412E-05   482   0.281E-02    0.492E-03
RMM:  15    -0.217967155231E+02   -0.12591E-03   -0.11359E-05   374   0.173E-02    0.262E-03
RMM:  16    -0.217967568267E+02   -0.41304E-04   -0.27277E-06   332   0.851E-03    0.154E-03
RMM:  17    -0.217967885554E+02   -0.31729E-04   -0.22907E-06   276   0.692E-03    0.114E-03
RMM:  18    -0.217967930253E+02   -0.44699E-05   -0.41683E-07   154   0.427E-03
   1 F= -.22387591E+02 E0= -.22387591E+02  d E =0.000000E+00
