perl: warning: Setting locale failed.
perl: warning: Please check that your locale settings:
	LANGUAGE = (unset),
	LC_ALL = (unset),
	LC_CTYPE = "UTF-8",
	LANG = "en_US.iso885915"
    are supported and installed on your system.
perl: warning: Falling back to the standard locale ("C").
Starting job 28531327 ("jobname") on c16-6 at Fri Nov 8 09:51:15 CET 2019
 running on    4 total cores
 distrk:  each k-point on    4 cores,    1 groups
 distr:  one band on    2 cores,    2 groups
 using from now: INCAR     
 vasp.5.4.4.18Apr17-6-g9f103f2a35 (build Jun 30 2017 11:15:00) complex          
  
 POSCAR found type information on POSCAR  Mo S 
 POSCAR found :  2 types and       6 ions
 scaLAPACK will be used
 LDA part: xc-table for Pade appr. of Perdew
 POSCAR, INCAR and KPOINTS ok, starting setup
 FFT: planning ...
 WAVECAR not read
 entering main loop
       N       E                     dE             d eps       ncg     rms          rms(c)
DAV:   1     0.283656773255E+03    0.28366E+03   -0.16056E+04   836   0.157E+03
DAV:   2    -0.164338267385E+02   -0.30009E+03   -0.29463E+03  1230   0.279E+02
DAV:   3    -0.457071849876E+02   -0.29273E+02   -0.29087E+02  1030   0.944E+01
DAV:   4    -0.467873898524E+02   -0.10802E+01   -0.10773E+01  1176   0.193E+01
DAV:   5    -0.468212505274E+02   -0.33861E-01   -0.33851E-01  1088   0.346E+00    0.973E+00
RMM:   6    -0.444237146933E+02    0.23975E+01   -0.24119E+01   934   0.197E+01    0.334E+00
RMM:   7    -0.436936945481E+02    0.73002E+00   -0.20346E+00   929   0.578E+00    0.177E+00
RMM:   8    -0.436306756704E+02    0.63019E-01   -0.82005E-01   985   0.332E+00    0.801E-01
RMM:   9    -0.436163690263E+02    0.14307E-01   -0.24748E-01  1027   0.213E+00    0.484E-01
RMM:  10    -0.436041396144E+02    0.12229E-01   -0.30339E-02  1022   0.863E-01    0.719E-02
RMM:  11    -0.436043899046E+02   -0.25029E-03   -0.78463E-03  1149   0.274E-01    0.542E-02
RMM:  12    -0.436043754220E+02    0.14483E-04   -0.21364E-03  1047   0.207E-01    0.494E-02
RMM:  13    -0.436042878125E+02    0.87610E-04   -0.41332E-04  1042   0.901E-02    0.101E-02
RMM:  14    -0.436043770732E+02   -0.89261E-04   -0.18308E-04  1015   0.501E-02    0.151E-02
RMM:  15    -0.436044232379E+02   -0.46165E-04   -0.16618E-04   970   0.572E-02    0.144E-02
RMM:  16    -0.436044423162E+02   -0.19078E-04   -0.40956E-05   744   0.311E-02    0.227E-03
RMM:  17    -0.436044903095E+02   -0.47993E-04   -0.11272E-05   636   0.158E-02    0.363E-03
RMM:  18    -0.436045295840E+02   -0.39274E-04   -0.51400E-06   619   0.116E-02    0.134E-03
RMM:  19    -0.436045469104E+02   -0.17326E-04   -0.28979E-06   441   0.653E-03    0.146E-03
RMM:  20    -0.436045515799E+02   -0.46696E-05   -0.13719E-06   395   0.534E-03
 Error reading item 'IVDW' from file INCAR
   1 F= -.43604552E+02 E0= -.43604552E+02  d E =0.000000E+00

Currently Loaded Modulefiles:
  1) Anaconda3/5.1.0       3) vesta/3.3.8           5) intel/2016.1
  2) gnuplot/5.0.4         4) imagemagick/6.7.9-0   6) vasp/5.4.1.Feb16

Job script resource usage:
       JobID  MaxVMSize     MaxRSS 
------------ ---------- ---------- 
28531327.ba+    499284K      6147K 

Job step resource usage:
       JobID    JobName  AllocCPUS  MaxVMSize     MaxRSS    Elapsed ExitCode 
------------ ---------- ---------- ---------- ---------- ---------- -------- 
28531327        jobname          4                         00:00:34      0:0 
28531327.0    pmi_proxy          1   1450088K    263982K   00:00:31      0:0 

Job 28531327 ("jobname") completed on c16-6 at Fri Nov 8 09:51:47 CET 2019
