perl: warning: Setting locale failed.
perl: warning: Please check that your locale settings:
	LANGUAGE = (unset),
	LC_ALL = (unset),
	LC_CTYPE = "UTF-8",
	LANG = "en_US.iso885915"
    are supported and installed on your system.
perl: warning: Falling back to the standard locale ("C").
Starting job 28532155 ("jobname") on c18-8 at Fri Nov 8 11:19:52 CET 2019
 running on    4 total cores
 distrk:  each k-point on    4 cores,    1 groups
 distr:  one band on    2 cores,    2 groups
 using from now: INCAR     
 vasp.5.4.4.18Apr17-6-g9f103f2a35 (build Jun 30 2017 11:15:00) complex          
  
 POSCAR found type information on POSCAR  Mo S 
 POSCAR found :  2 types and       3 ions
 scaLAPACK will be used
 LDA part: xc-table for Pade appr. of Perdew
 POSCAR, INCAR and KPOINTS ok, starting setup
 FFT: planning ...
 WAVECAR not read
 WARNING: random wavefunctions but no delay for mixing, default for NELMDL
 entering main loop
       N       E                     dE             d eps       ncg     rms          rms(c)
DAV:   1     0.152715815483E+03    0.15272E+03   -0.63270E+03   532   0.108E+03
DAV:   2    -0.302593092479E+01   -0.15574E+03   -0.14612E+03   918   0.172E+02
DAV:   3    -0.229397861309E+02   -0.19914E+02   -0.19512E+02   746   0.798E+01
DAV:   4    -0.233979482814E+02   -0.45816E+00   -0.45565E+00   696   0.151E+01
DAV:   5    -0.234096500284E+02   -0.11702E-01   -0.11687E-01   704   0.234E+00    0.689E+00
RMM:   6    -0.222485792432E+02    0.11611E+01   -0.54444E+00   562   0.125E+01    0.261E+00
RMM:   7    -0.218647866963E+02    0.38379E+00   -0.55583E-01   552   0.342E+00    0.150E+00
RMM:   8    -0.218045337993E+02    0.60253E-01   -0.23136E-01   584   0.253E+00    0.354E-01
RMM:   9    -0.217996593052E+02    0.48745E-02   -0.87579E-03   635   0.610E-01    0.961E-02
RMM:  10    -0.217988946163E+02    0.76469E-03   -0.17127E-03   633   0.222E-01    0.445E-02
RMM:  11    -0.217988236248E+02    0.70992E-04   -0.16314E-03   602   0.191E-01    0.543E-02
RMM:  12    -0.217986570872E+02    0.16654E-03   -0.52841E-04   579   0.130E-01    0.177E-02
RMM:  13    -0.217989941540E+02   -0.33707E-03   -0.16629E-04   540   0.735E-02    0.203E-02
RMM:  14    -0.217990484145E+02   -0.54260E-04   -0.26232E-05   491   0.280E-02    0.494E-03
RMM:  15    -0.217991750259E+02   -0.12661E-03   -0.11222E-05   373   0.176E-02    0.258E-03
RMM:  16    -0.217992154576E+02   -0.40432E-04   -0.26398E-06   328   0.843E-03    0.154E-03
RMM:  17    -0.217992464104E+02   -0.30953E-04   -0.24739E-06   282   0.699E-03    0.111E-03
RMM:  18    -0.217992511800E+02   -0.47696E-05   -0.41868E-07   160   0.420E-03
 Error reading item 'IVDW' from file INCAR
   1 F= -.21799251E+02 E0= -.21799251E+02  d E =0.000000E+00

Currently Loaded Modulefiles:
  1) Anaconda3/5.1.0       3) vesta/3.3.8           5) intel/2016.1
  2) gnuplot/5.0.4         4) imagemagick/6.7.9-0   6) vasp/5.4.1.Feb16

Job script resource usage:
       JobID  MaxVMSize     MaxRSS 
------------ ---------- ---------- 
28532155.ba+    216888K      2370K 

Job step resource usage:
       JobID    JobName  AllocCPUS  MaxVMSize     MaxRSS    Elapsed ExitCode 
------------ ---------- ---------- ---------- ---------- ---------- -------- 
28532155        jobname          4                         00:00:24      0:0 
28532155.0    pmi_proxy          1    279832K       522K   00:00:22      0:0 

Job 28532155 ("jobname") completed on c18-8 at Fri Nov 8 11:20:14 CET 2019
