<?xml version="1.0" encoding="ISO-8859-1"?>
<modeling>
 <generator>
  <i name="program" type="string">vasp </i>
  <i name="version" type="string">5.4.4.18Apr17-6-g9f103f2a35  </i>
  <i name="subversion" type="string">(build Jun 30 2017 11:15:00) complex            parallel </i>
  <i name="platform" type="string">STALLO_VASP_5.4.4 </i>
  <i name="date" type="string">2019 11 08 </i>
  <i name="time" type="string">12:21:31 </i>
 </generator>
 <incar>
  <i type="string" name="PREC">normal    ! low/normal/accurate</i>
  <i type="string" name="ALGO"> Fast      ! Algorithm for electronic re</i>
  <i type="int" name="ISPIN">     1</i>
  <i type="int" name="NELMIN">     4</i>
  <i name="EDIFF">      0.00001000</i>
  <i type="int" name="NSW">     0</i>
  <i name="ENCUT">    450.00000000</i>
  <i type="logical" name="LREAL"> F  </i>
  <i type="int" name="ISMEAR">    -5</i>
  <i name="SIGMA">      0.20000000</i>
  <i type="logical" name="LWAVE"> F  </i>
  <v type="int" name="KPOINT_BSE">    -1     0     0     0</v>
 </incar>
 <structure name="primitive_cell" >
  <crystal>
   <varray name="basis" >
    <v>       3.19031573       0.00000000       0.00000000 </v>
    <v>      -1.59515786       2.76289447       0.00000000 </v>
    <v>       0.00000000       0.00000000      30.87900430 </v>
   </varray>
   <i name="volume">    272.18315887 </i>
   <varray name="rec_basis" >
    <v>       0.31344860       0.18096963       0.00000000 </v>
    <v>       0.00000000       0.36193927       0.00000000 </v>
    <v>       0.00000000       0.00000000       0.03238446 </v>
   </varray>
  </crystal>
  <varray name="positions" >
   <v>       0.33333300      -0.33333300       0.12046214 </v>
   <v>      -0.33333400       0.33333300       0.17114009 </v>
   <v>      -0.33333300       0.33333300       0.06978420 </v>
  </varray>
 </structure>
 <varray name="primitive_index" >
  <v type="int" >        1 </v>
  <v type="int" >        3 </v>
  <v type="int" >        2 </v>
 </varray>
 <kpoints>
  <generation param="Gamma">
   <v type="int" name="divisions">      12       12        1 </v>
   <v name="usershift">      0.00000000       0.00000000       0.00000000 </v>
   <v name="genvec1">      0.08333333       0.00000000       0.00000000 </v>
   <v name="genvec2">      0.00000000       0.08333333       0.00000000 </v>
   <v name="genvec3">      0.00000000       0.00000000       1.00000000 </v>
   <v name="shift">      0.00000000       0.00000000       0.00000000 </v>
  </generation>
  <varray name="kpointlist" >
   <v>       0.00000000       0.00000000       0.00000000 </v>
   <v>       0.08333333       0.00000000       0.00000000 </v>
   <v>       0.16666667       0.00000000       0.00000000 </v>
   <v>       0.25000000      -0.00000000       0.00000000 </v>
   <v>       0.33333333       0.00000000       0.00000000 </v>
   <v>       0.41666667       0.00000000       0.00000000 </v>
   <v>       0.50000000      -0.00000000       0.00000000 </v>
   <v>       0.08333333       0.08333333       0.00000000 </v>
   <v>       0.16666667       0.08333333       0.00000000 </v>
   <v>       0.25000000       0.08333333       0.00000000 </v>
   <v>       0.33333333       0.08333333       0.00000000 </v>
   <v>       0.41666667       0.08333333       0.00000000 </v>
   <v>       0.16666667       0.16666667       0.00000000 </v>
   <v>       0.25000000       0.16666667       0.00000000 </v>
   <v>       0.33333333       0.16666667       0.00000000 </v>
   <v>       0.41666667       0.16666667       0.00000000 </v>
   <v>       0.25000000       0.25000000       0.00000000 </v>
   <v>       0.33333333       0.25000000       0.00000000 </v>
   <v>       0.33333333       0.33333333       0.00000000 </v>
  </varray>
  <varray name="weights" >
   <v>       0.00694444 </v>
   <v>       0.04166667 </v>
   <v>       0.04166667 </v>
   <v>       0.04166667 </v>
   <v>       0.04166667 </v>
   <v>       0.04166667 </v>
   <v>       0.02083333 </v>
   <v>       0.04166667 </v>
   <v>       0.08333333 </v>
   <v>       0.08333333 </v>
   <v>       0.08333333 </v>
   <v>       0.08333333 </v>
   <v>       0.04166667 </v>
   <v>       0.08333333 </v>
   <v>       0.08333333 </v>
   <v>       0.04166667 </v>
   <v>       0.04166667 </v>
   <v>       0.08333333 </v>
   <v>       0.01388889 </v>
  </varray>
  <varray name="tetrahedronlist"  type="int" >
   <v type="int" >       12        2        2        2        8 </v>
   <v type="int" >       12        1        2        2        2 </v>
   <v type="int" >        6        1        1        2        2 </v>
   <v type="int" >        6        2        2        8        8 </v>
   <v type="int" >       12        3        8        8        9 </v>
   <v type="int" >       12        2        3        8        8 </v>
   <v type="int" >       12        2        2        3        8 </v>
   <v type="int" >       12        3        8        9        9 </v>
   <v type="int" >       12        3        3        8        9 </v>
   <v type="int" >       12        2        3        3        8 </v>
   <v type="int" >       12        4        9        9       10 </v>
   <v type="int" >       12        3        4        9        9 </v>
   <v type="int" >       12        3        3        4        9 </v>
   <v type="int" >       12        4        9       10       10 </v>
   <v type="int" >       12        4        4        9       10 </v>
   <v type="int" >       12        3        4        4        9 </v>
   <v type="int" >       12        5       10       10       11 </v>
   <v type="int" >       12        4        5       10       10 </v>
   <v type="int" >       12        4        4        5       10 </v>
   <v type="int" >       12        5       10       11       11 </v>
   <v type="int" >       12        5        5       10       11 </v>
   <v type="int" >       12        4        5        5       10 </v>
   <v type="int" >       12        6       11       11       12 </v>
   <v type="int" >       12        5        6       11       11 </v>
   <v type="int" >       12        5        5        6       11 </v>
   <v type="int" >       12        6       11       12       12 </v>
   <v type="int" >       12        6        6       11       12 </v>
   <v type="int" >       12        5        6        6       11 </v>
   <v type="int" >       12        7       12       12       12 </v>
   <v type="int" >       12        6        7       12       12 </v>
   <v type="int" >       12        6        6        7       12 </v>
   <v type="int" >        6        7        7       12       12 </v>
   <v type="int" >       12        6        7        7       12 </v>
   <v type="int" >       12        9        9        9       13 </v>
   <v type="int" >       12        8        9        9        9 </v>
   <v type="int" >        6        8        8        9        9 </v>
   <v type="int" >        6        9        9       13       13 </v>
   <v type="int" >       12       10       13       13       14 </v>
   <v type="int" >       12        9       10       13       13 </v>
   <v type="int" >       12        9        9       10       13 </v>
   <v type="int" >       12       10       13       14       14 </v>
   <v type="int" >       12       10       10       13       14 </v>
   <v type="int" >       12        9       10       10       13 </v>
   <v type="int" >       12       11       14       14       15 </v>
   <v type="int" >       12       10       11       14       14 </v>
   <v type="int" >       12       10       10       11       14 </v>
   <v type="int" >       12       11       14       15       15 </v>
   <v type="int" >       12       11       11       14       15 </v>
   <v type="int" >       12       10       11       11       14 </v>
   <v type="int" >       12       12       15       15       16 </v>
   <v type="int" >       12       11       12       15       15 </v>
   <v type="int" >       12       11       11       12       15 </v>
   <v type="int" >       12       12       15       16       16 </v>
   <v type="int" >       12       12       12       15       16 </v>
   <v type="int" >       12       11       12       12       15 </v>
   <v type="int" >        6       12       12       16       16 </v>
   <v type="int" >       12       12       12       12       16 </v>
   <v type="int" >       12       14       14       14       17 </v>
   <v type="int" >       12       13       14       14       14 </v>
   <v type="int" >        6       13       13       14       14 </v>
   <v type="int" >        6       14       14       17       17 </v>
   <v type="int" >       12       15       17       17       18 </v>
   <v type="int" >       12       14       15       17       17 </v>
   <v type="int" >       12       14       14       15       17 </v>
   <v type="int" >       12       15       17       18       18 </v>
   <v type="int" >       12       15       15       17       18 </v>
   <v type="int" >       12       14       15       15       17 </v>
   <v type="int" >       12       16       18       18       18 </v>
   <v type="int" >       12       15       16       18       18 </v>
   <v type="int" >       12       15       15       16       18 </v>
   <v type="int" >        6       16       16       18       18 </v>
   <v type="int" >       12       15       16       16       18 </v>
   <v type="int" >       24       18       18       18       19 </v>
   <v type="int" >       12       17       18       18       18 </v>
   <v type="int" >        6       17       17       18       18 </v>
   <v type="int" >       12       18       18       19       19 </v>
  </varray>
  <i name="volumeweight">      0.00115741 </i>
 </kpoints>
 <parameters>
  <separator name="general" >
   <i type="string" name="SYSTEM">unknown system</i>
   <i type="logical" name="LCOMPAT"> F  </i>
  </separator>
  <separator name="electronic" >
   <i type="string" name="PREC">normal</i>
   <i name="ENMAX">    450.00000000</i>
   <i name="ENAUG">    345.27800000</i>
   <i name="EDIFF">      0.00001000</i>
   <i type="int" name="IALGO">    68</i>
   <i type="int" name="IWAVPR">    10</i>
   <i type="int" name="NBANDS">    14</i>
   <i name="NELECT">     18.00000000</i>
   <i type="int" name="TURBO">     0</i>
   <i type="int" name="IRESTART">     0</i>
   <i type="int" name="NREBOOT">     0</i>
   <i type="int" name="NMIN">     0</i>
   <i name="EREF">      0.00000000</i>
   <separator name="electronic smearing" >
    <i type="int" name="ISMEAR">    -5</i>
    <i name="SIGMA">      0.20000000</i>
    <i name="KSPACING">      0.50000000</i>
    <i type="logical" name="KGAMMA"> T  </i>
   </separator>
   <separator name="electronic projectors" >
    <i type="logical" name="LREAL"> F  </i>
    <v name="ROPT">      0.00000000      0.00000000</v>
    <i type="int" name="LMAXPAW">  -100</i>
    <i type="int" name="LMAXMIX">     2</i>
    <i type="logical" name="NLSPLINE"> F  </i>
   </separator>
   <separator name="electronic startup" >
    <i type="int" name="ISTART">     0</i>
    <i type="int" name="ICHARG">     2</i>
    <i type="int" name="INIWAV">     1</i>
   </separator>
   <separator name="electronic spin" >
    <i type="int" name="ISPIN">     1</i>
    <i type="logical" name="LNONCOLLINEAR"> F  </i>
    <v name="MAGMOM">      1.00000000      1.00000000      1.00000000</v>
    <i name="NUPDOWN">     -1.00000000</i>
    <i type="logical" name="LSORBIT"> F  </i>
    <v name="SAXIS">      0.00000000      0.00000000      1.00000000</v>
    <i type="logical" name="LSPIRAL"> F  </i>
    <v name="QSPIRAL">      0.00000000      0.00000000      0.00000000</v>
    <i type="logical" name="LZEROZ"> F  </i>
   </separator>
   <separator name="electronic exchange-correlation" >
    <i type="logical" name="LASPH"> F  </i>
    <i type="logical" name="LMETAGGA"> F  </i>
   </separator>
   <separator name="electronic convergence" >
    <i type="int" name="NELM">    60</i>
    <i type="int" name="NELMDL">     0</i>
    <i type="int" name="NELMIN">     4</i>
    <i name="ENINI">    450.00000000</i>
    <separator name="electronic convergence detail" >
     <i type="logical" name="LDIAG"> T  </i>
     <i type="logical" name="LSUBROT"> F  </i>
     <i name="WEIMIN">      0.00000000</i>
     <i name="EBREAK">      0.00000018</i>
     <i name="DEPER">      0.30000000</i>
     <i type="int" name="NRMM">     4</i>
     <i name="TIME">      0.40000000</i>
    </separator>
   </separator>
   <separator name="electronic mixer" >
    <i name="AMIX">      0.40000000</i>
    <i name="BMIX">      1.00000000</i>
    <i name="AMIN">      0.10000000</i>
    <i name="AMIX_MAG">      1.60000000</i>
    <i name="BMIX_MAG">      1.00000000</i>
    <separator name="electronic mixer details" >
     <i type="int" name="IMIX">     4</i>
     <i type="logical" name="MIXFIRST"> F  </i>
     <i type="int" name="MAXMIX">   -45</i>
     <i name="WC">    100.00000000</i>
     <i type="int" name="INIMIX">     1</i>
     <i type="int" name="MIXPRE">     1</i>
     <i type="int" name="MREMOVE">     5</i>
    </separator>
   </separator>
   <separator name="electronic dipolcorrection" >
    <i type="logical" name="LDIPOL"> F  </i>
    <i type="logical" name="LMONO"> F  </i>
    <i type="int" name="IDIPOL">     0</i>
    <i name="EPSILON">      1.00000000</i>
    <v name="DIPOL">   -100.00000000   -100.00000000   -100.00000000</v>
    <i name="EFIELD">      0.00000000</i>
   </separator>
  </separator>
  <separator name="grids" >
   <i type="int" name="NGX">    18</i>
   <i type="int" name="NGY">    18</i>
   <i type="int" name="NGZ">   160</i>
   <i type="int" name="NGXF">    36</i>
   <i type="int" name="NGYF">    36</i>
   <i type="int" name="NGZF">   320</i>
   <i type="logical" name="ADDGRID"> F  </i>
  </separator>
  <separator name="ionic" >
   <i type="int" name="NSW">     0</i>
   <i type="int" name="IBRION">    -1</i>
   <i type="int" name="MDALGO">     0</i>
   <i type="int" name="ISIF">     2</i>
   <i name="PSTRESS">      0.00000000</i>
   <i name="EDIFFG">      0.00010000</i>
   <i type="int" name="NFREE">     0</i>
   <i name="POTIM">      0.50000000</i>
   <i name="SMASS">     -3.00000000</i>
   <i name="SCALEE">      1.00000000</i>
  </separator>
  <separator name="ionic md" >
   <i name="TEBEG">      0.00010000</i>
   <i name="TEEND">      0.00010000</i>
   <i type="int" name="NBLOCK">     1</i>
   <i type="int" name="KBLOCK">     1</i>
   <i type="int" name="NPACO">   256</i>
   <i name="APACO">     16.00000000</i>
  </separator>
  <separator name="symmetry" >
   <i type="int" name="ISYM">     2</i>
   <i name="SYMPREC">      0.00001000</i>
  </separator>
  <separator name="dos" >
   <i type="int" name="LORBIT">     0</i>
   <v name="RWIGS">     -1.00000000     -1.00000000</v>
   <i type="int" name="NEDOS">   301</i>
   <i name="EMIN">     10.00000000</i>
   <i name="EMAX">    -10.00000000</i>
   <i name="EFERMI">      0.00000000</i>
  </separator>
  <separator name="writing" >
   <i type="int" name="NWRITE">     2</i>
   <i type="logical" name="LWAVE"> F  </i>
   <i type="logical" name="LDOWNSAMPLE"> F  </i>
   <i type="logical" name="LCHARG"> T  </i>
   <i type="logical" name="LPARD"> F  </i>
   <i type="logical" name="LVTOT"> F  </i>
   <i type="logical" name="LVHAR"> F  </i>
   <i type="logical" name="LELF"> F  </i>
   <i type="logical" name="LOPTICS"> F  </i>
   <v name="STM">      0.00000000      0.00000000      0.00000000      0.00000000      0.00000000      0.00000000      0.00000000</v>
  </separator>
  <separator name="performance" >
   <i type="int" name="NPAR">     2</i>
   <i type="int" name="NSIM">     4</i>
   <i type="int" name="NBLK">    -1</i>
   <i type="logical" name="LPLANE"> T  </i>
   <i type="logical" name="LSCALAPACK"> T  </i>
   <i type="logical" name="LSCAAWARE"> F  </i>
   <i type="logical" name="LSCALU"> F  </i>
   <i type="logical" name="LASYNC"> F  </i>
   <i type="logical" name="LORBITALREAL"> F  </i>
  </separator>
  <separator name="miscellaneous" >
   <i type="int" name="IDIOT">     3</i>
   <i type="int" name="ISPECIAL">     0</i>
   <i type="logical" name="LMUSIC"> F  </i>
   <v name="POMASS">     95.94000000     32.06600000</v>
   <v name="DARWINR">      0.00000000      0.00000000</v>
   <v name="DARWINV">      1.00000000      1.00000000</v>
   <i type="logical" name="LCORR"> T  </i>
  </separator>
  <i type="logical" name="GGA_COMPAT"> T  </i>
  <i type="logical" name="LBERRY"> F  </i>
  <i type="int" name="ICORELEVEL">     0</i>
  <i type="logical" name="LDAU"> F  </i>
  <i type="int" name="I_CONSTRAINED_M">     0</i>
  <separator name="electronic exchange-correlation" >
   <i type="string" name="GGA">--</i>
   <i type="int" name="VOSKOWN">     0</i>
   <i type="logical" name="LHFCALC"> F  </i>
   <i type="string" name="PRECFOCK"></i>
   <i type="logical" name="LSYMGRAD"> F  </i>
   <i type="logical" name="LHFONE"> F  </i>
   <i type="logical" name="LRHFCALC"> F  </i>
   <i type="logical" name="LTHOMAS"> F  </i>
   <i type="logical" name="LMODELHF"> F  </i>
   <i name="ENCUT4O">     -1.00000000</i>
   <i type="int" name="EXXOEP">     0</i>
   <i type="int" name="FOURORBIT">     0</i>
   <i name="AEXX">      0.00000000</i>
   <i name="HFALPHA">      0.00000000</i>
   <i name="MCALPHA">      0.00000000</i>
   <i name="ALDAX">      1.00000000</i>
   <i name="AGGAX">      1.00000000</i>
   <i name="ALDAC">      1.00000000</i>
   <i name="AGGAC">      1.00000000</i>
   <i type="int" name="NKREDX">     1</i>
   <i type="int" name="NKREDY">     1</i>
   <i type="int" name="NKREDZ">     1</i>
   <i type="logical" name="SHIFTRED"> F  </i>
   <i type="logical" name="ODDONLY"> F  </i>
   <i type="logical" name="EVENONLY"> F  </i>
   <i type="int" name="LMAXFOCK">     0</i>
   <i type="int" name="NMAXFOCKAE">     0</i>
   <i type="logical" name="LFOCKAEDFT"> F  </i>
   <i name="HFSCREEN">      0.00000000</i>
   <i name="HFSCREENC">      0.00000000</i>
   <i type="int" name="NBANDSGWLOW">     0</i>
  </separator>
  <separator name="vdW DFT" >
   <i type="logical" name="LUSE_VDW"> F  </i>
   <i name="Zab_VDW">     -0.84910000</i>
   <i name="PARAM1">      0.12340000</i>
   <i name="PARAM2">      1.00000000</i>
   <i name="PARAM3">      0.00000000</i>
  </separator>
  <separator name="model GW" >
   <i type="int" name="MODEL_GW">     0</i>
   <i name="MODEL_EPS0">     54.43663177</i>
   <i name="MODEL_ALPHA">      1.00000000</i>
  </separator>
  <separator name="linear response parameters" >
   <i type="logical" name="LEPSILON"> F  </i>
   <i type="logical" name="LRPA"> F  </i>
   <i type="logical" name="LNABLA"> F  </i>
   <i type="logical" name="LVEL"> F  </i>
   <i type="int" name="KINTER">     0</i>
   <i name="CSHIFT">      0.10000000</i>
   <i name="OMEGAMAX">     -1.00000000</i>
   <i name="DEG_THRESHOLD">      0.00200000</i>
   <i name="RTIME">     -0.10000000</i>
   <i name="WPLASMAI">      0.00000000</i>
   <v name="DFIELD">      0.00000000      0.00000000      0.00000000</v>
   <v name="WPLASMA">      0.00000000      0.00000000      0.00000000      0.00000000      0.00000000      0.00000000      0.00000000      0.00000000      0.00000000</v>
  </separator>
  <separator name="orbital magnetization" >
   <i type="logical" name="NUCIND"> F  </i>
   <v name="MAGPOS">      0.00000000      0.00000000      0.00000000</v>
   <i type="logical" name="LNICSALL"> T  </i>
   <i type="logical" name="ORBITALMAG"> F  </i>
   <i type="logical" name="LMAGBLOCH"> F  </i>
   <i type="logical" name="LCHIMAG"> F  </i>
   <i type="logical" name="LGAUGE"> T  </i>
   <i type="int" name="MAGATOM">     0</i>
   <v name="MAGDIPOL">      0.00000000      0.00000000      0.00000000</v>
   <v name="AVECCONST">      0.00000000      0.00000000      0.00000000</v>
  </separator>
  <separator name="response functions" >
   <i type="logical" name="LADDER"> F  </i>
   <i type="logical" name="LRPAFORCE"> F  </i>
   <i type="logical" name="LFXC"> F  </i>
   <i type="logical" name="LHARTREE"> T  </i>
   <i type="int" name="IBSE">     0</i>
   <v type="int" name="KPOINT">    -1     0     0     0</v>
   <i type="logical" name="LTCTE"> F  </i>
   <i type="logical" name="LTETE"> F  </i>
   <i type="logical" name="LTRIPLET"> F  </i>
   <i type="logical" name="LFXCEPS"> F  </i>
   <i type="logical" name="LFXHEG"> F  </i>
   <i type="int" name="NATURALO">     2</i>
   <i type="logical" name="L2ORDER"> F  </i>
   <i type="logical" name="LMP2LT"> F  </i>
   <i type="logical" name="LUSEW"> F  </i>
   <i name="ENCUTGW">     -2.00000000</i>
   <i name="ENCUTGWSOFT">     -2.00000000</i>
   <i name="ENCUTLF">     -1.00000000</i>
   <i type="int" name="LMAXMP2">    -1</i>
   <i name="SCISSOR">      0.00000000</i>
   <i type="int" name="NOMEGA">     0</i>
   <i type="int" name="NOMEGAR">     0</i>
   <i type="int" name="NBANDSGW">    -1</i>
   <i type="int" name="NBANDSO">    -1</i>
   <i type="int" name="NBANDSV">    -1</i>
   <i type="int" name="NELM">     1</i>
   <i type="int" name="NELMHF">     1</i>
   <i type="int" name="DIM">     3</i>
   <i type="int" name="ANTIRES">     0</i>
   <i name="OMEGAMAX">    -30.00000000</i>
   <i name="OMEGAMIN">    -30.00000000</i>
   <i name="OMEGATL">   -200.00000000</i>
   <i type="int" name="OMEGAGRID">   140</i>
   <i name="CSHIFT">     -0.10000000</i>
   <i type="logical" name="SELFENERGY"> F  </i>
   <i type="logical" name="LSPECTRAL"> F  </i>
   <i type="logical" name="LSPECTRALGW"> F  </i>
   <i type="logical" name="LSINGLES"> F  </i>
   <i type="logical" name="LFERMIGW"> F  </i>
   <i type="logical" name="ODDONLYGW"> F  </i>
   <i type="logical" name="EVENONLYGW"> F  </i>
   <i type="int" name="NKREDLFX">     1</i>
   <i type="int" name="NKREDLFY">     1</i>
   <i type="int" name="NKREDLFZ">     1</i>
   <i type="int" name="MAXMEM">  2800</i>
   <i type="int" name="TELESCOPE">     0</i>
   <i type="int" name="TAUPAR">     1</i>
   <i type="int" name="OMEGAPAR">    -1</i>
   <i name="LAMBDA">      1.00000000</i>
  </separator>
  <separator name="External order field" >
   <i name="OFIELD_KAPPA">      0.00000000</i>
   <v name="OFIELD_K">      0.00000000      0.00000000      0.00000000</v>
   <i name="OFIELD_Q6_NEAR">      0.00000000</i>
   <i name="OFIELD_Q6_FAR">      0.00000000</i>
   <i name="OFIELD_A">      0.00000000</i>
  </separator>
 </parameters>
 <atominfo>
  <atoms>       3 </atoms>
  <types>       2 </types>
  <array name="atoms" >
   <dimension dim="1">ion</dimension>
   <field type="string">element</field>
   <field type="int">atomtype</field>
   <set>
    <rc><c>Mo</c><c>   1</c></rc>
    <rc><c>S </c><c>   2</c></rc>
    <rc><c>S </c><c>   2</c></rc>
   </set>
  </array>
  <array name="atomtypes" >
   <dimension dim="1">type</dimension>
   <field type="int">atomspertype</field>
   <field type="string">element</field>
   <field>mass</field>
   <field>valence</field>
   <field type="string">pseudopotential</field>
   <set>
    <rc><c>   1</c><c>Mo</c><c>     95.94000000</c><c>      6.00000000</c><c> PAW_PBE Mo 08Apr2002                   </c></rc>
    <rc><c>   2</c><c>S </c><c>     32.06600000</c><c>      6.00000000</c><c>  PAW_PBE S 17Jan2003                   </c></rc>
   </set>
  </array>
 </atominfo>
 <structure name="initialpos" >
  <crystal>
   <varray name="basis" >
    <v>       3.19031573       0.00000000       0.00000000 </v>
    <v>      -1.59515786       2.76289447       0.00000000 </v>
    <v>       0.00000000       0.00000000      30.87900430 </v>
   </varray>
   <i name="volume">    272.18315887 </i>
   <varray name="rec_basis" >
    <v>       0.31344860       0.18096963       0.00000000 </v>
    <v>       0.00000000       0.36193927       0.00000000 </v>
    <v>       0.00000000       0.00000000       0.03238446 </v>
   </varray>
  </crystal>
  <varray name="positions" >
   <v>       0.33333300       0.66666700       0.12046214 </v>
   <v>       0.66666700       0.33333300       0.06978420 </v>
   <v>       0.66666600       0.33333300       0.17114009 </v>
  </varray>
 </structure>
 <calculation>
  <scstep>
   <time name="dav">    0.49    0.50</time>
   <time name="total">    0.55    0.59</time>
   <energy>
    <i name="alphaZ">     10.89288288 </i>
    <i name="ewald">   5368.65661653 </i>
    <i name="hartreedc">  -6042.21104469 </i>
    <i name="XCdc">    -36.31053806 </i>
    <i name="pawpsdc">    406.88651198 </i>
    <i name="pawaedc">   -329.34073203 </i>
    <i name="eentropy">      0.00000000 </i>
    <i name="bandstr">    -13.10621580 </i>
    <i name="atom">    771.15511399 </i>
    <i name="e_fr_energy">    136.62259480 </i>
    <i name="e_wo_entrp">    136.62259480 </i>
    <i name="e_0_energy">    136.62259480 </i>
   </energy>
  </scstep>
  <scstep>
   <time name="dav">    0.75    0.76</time>
   <time name="total">    0.75    0.76</time>
   <energy>
    <i name="e_fr_energy">     -6.06519606 </i>
    <i name="e_wo_entrp">     -6.06519606 </i>
    <i name="e_0_energy">     -6.06519606 </i>
   </energy>
  </scstep>
  <scstep>
   <time name="dav">    0.59    0.59</time>
   <time name="total">    0.59    0.59</time>
   <energy>
    <i name="e_fr_energy">    -23.04682678 </i>
    <i name="e_wo_entrp">    -23.04682678 </i>
    <i name="e_0_energy">    -23.04682678 </i>
   </energy>
  </scstep>
  <scstep>
   <time name="dav">    0.60    0.60</time>
   <time name="total">    0.60    0.60</time>
   <energy>
    <i name="e_fr_energy">    -23.39864524 </i>
    <i name="e_wo_entrp">    -23.39864524 </i>
    <i name="e_0_energy">    -23.39864524 </i>
   </energy>
  </scstep>
  <scstep>
   <time name="dav">    0.59    0.59</time>
   <time name="total">    0.63    0.63</time>
   <energy>
    <i name="e_fr_energy">    -23.40760353 </i>
    <i name="e_wo_entrp">    -23.40760353 </i>
    <i name="e_0_energy">    -23.40760353 </i>
   </energy>
  </scstep>
  <scstep>
   <time name="diag">    0.10    0.10</time>
   <time name="diis">    0.43    0.43</time>
   <time name="orth">    0.01    0.01</time>
   <time name="total">    0.63    0.63</time>
   <energy>
    <i name="e_fr_energy">    -22.24645662 </i>
    <i name="e_wo_entrp">    -22.24645662 </i>
    <i name="e_0_energy">    -22.24645662 </i>
   </energy>
  </scstep>
  <scstep>
   <time name="diag">    0.10    0.10</time>
   <time name="diis">    0.42    0.42</time>
   <time name="orth">    0.01    0.01</time>
   <time name="total">    0.62    0.63</time>
   <energy>
    <i name="e_fr_energy">    -21.86232710 </i>
    <i name="e_wo_entrp">    -21.86232710 </i>
    <i name="e_0_energy">    -21.86232710 </i>
   </energy>
  </scstep>
  <scstep>
   <time name="diag">    0.10    0.10</time>
   <time name="diis">    0.44    0.44</time>
   <time name="orth">    0.01    0.01</time>
   <time name="total">    0.64    0.64</time>
   <energy>
    <i name="e_fr_energy">    -21.80206151 </i>
    <i name="e_wo_entrp">    -21.80206151 </i>
    <i name="e_0_energy">    -21.80206151 </i>
   </energy>
  </scstep>
  <scstep>
   <time name="diag">    0.10    0.10</time>
   <time name="diis">    0.48    0.48</time>
   <time name="orth">    0.01    0.01</time>
   <time name="total">    0.69    0.69</time>
   <energy>
    <i name="e_fr_energy">    -21.79719288 </i>
    <i name="e_wo_entrp">    -21.79719288 </i>
    <i name="e_0_energy">    -21.79719288 </i>
   </energy>
  </scstep>
  <scstep>
   <time name="diag">    0.10    0.10</time>
   <time name="diis">    0.47    0.47</time>
   <time name="orth">    0.01    0.01</time>
   <time name="total">    0.68    0.68</time>
   <energy>
    <i name="e_fr_energy">    -21.79642916 </i>
    <i name="e_wo_entrp">    -21.79642916 </i>
    <i name="e_0_energy">    -21.79642916 </i>
   </energy>
  </scstep>
  <scstep>
   <time name="diag">    0.10    0.10</time>
   <time name="diis">    0.46    0.46</time>
   <time name="orth">    0.01    0.01</time>
   <time name="total">    0.67    0.67</time>
   <energy>
    <i name="e_fr_energy">    -21.79636137 </i>
    <i name="e_wo_entrp">    -21.79636137 </i>
    <i name="e_0_energy">    -21.79636137 </i>
   </energy>
  </scstep>
  <scstep>
   <time name="diag">    0.10    0.10</time>
   <time name="diis">    0.43    0.43</time>
   <time name="orth">    0.01    0.01</time>
   <time name="total">    0.64    0.64</time>
   <energy>
    <i name="e_fr_energy">    -21.79619331 </i>
    <i name="e_wo_entrp">    -21.79619331 </i>
    <i name="e_0_energy">    -21.79619331 </i>
   </energy>
  </scstep>
  <scstep>
   <time name="diag">    0.10    0.10</time>
   <time name="diis">    0.40    0.40</time>
   <time name="orth">    0.01    0.01</time>
   <time name="total">    0.61    0.61</time>
   <energy>
    <i name="e_fr_energy">    -21.79653180 </i>
    <i name="e_wo_entrp">    -21.79653180 </i>
    <i name="e_0_energy">    -21.79653180 </i>
   </energy>
  </scstep>
  <scstep>
   <time name="diag">    0.10    0.10</time>
   <time name="diis">    0.37    0.37</time>
   <time name="orth">    0.01    0.01</time>
   <time name="total">    0.58    0.58</time>
   <energy>
    <i name="e_fr_energy">    -21.79658962 </i>
    <i name="e_wo_entrp">    -21.79658962 </i>
    <i name="e_0_energy">    -21.79658962 </i>
   </energy>
  </scstep>
  <scstep>
   <time name="diag">    0.10    0.10</time>
   <time name="diis">    0.31    0.31</time>
   <time name="orth">    0.01    0.01</time>
   <time name="total">    0.52    0.52</time>
   <energy>
    <i name="e_fr_energy">    -21.79671552 </i>
    <i name="e_wo_entrp">    -21.79671552 </i>
    <i name="e_0_energy">    -21.79671552 </i>
   </energy>
  </scstep>
  <scstep>
   <time name="diag">    0.10    0.10</time>
   <time name="diis">    0.30    0.30</time>
   <time name="orth">    0.01    0.01</time>
   <time name="total">    0.50    0.51</time>
   <energy>
    <i name="e_fr_energy">    -21.79675683 </i>
    <i name="e_wo_entrp">    -21.79675683 </i>
    <i name="e_0_energy">    -21.79675683 </i>
   </energy>
  </scstep>
  <scstep>
   <time name="diag">    0.10    0.10</time>
   <time name="diis">    0.28    0.28</time>
   <time name="orth">    0.01    0.01</time>
   <time name="total">    0.48    0.48</time>
   <energy>
    <i name="e_fr_energy">    -21.79678856 </i>
    <i name="e_wo_entrp">    -21.79678856 </i>
    <i name="e_0_energy">    -21.79678856 </i>
   </energy>
  </scstep>
  <scstep>
   <time name="diag">    0.10    0.10</time>
   <time name="diis">    0.24    0.24</time>
   <time name="orth">    0.01    0.01</time>
   <time name="total">    0.40    0.40</time>
   <energy>
    <i name="alphaZ">     10.89288288 </i>
    <i name="ewald">   5368.65661653 </i>
    <i name="hartreedc">  -6055.62762148 </i>
    <i name="XCdc">    -35.20092645 </i>
    <i name="pawpsdc">    472.18488145 </i>
    <i name="pawaedc">   -396.37567462 </i>
    <i name="eentropy">      0.00000000 </i>
    <i name="bandstr">   -157.48206532 </i>
    <i name="atom">    771.15511399 </i>
    <i name="e_fr_energy">    -21.79679303 </i>
    <i name="e_wo_entrp">    -21.79679303 </i>
    <i name="e_0_energy">    -21.79679303 </i>
   </energy>
  </scstep>
  <structure>
   <crystal>
    <varray name="basis" >
     <v>       3.19031573       0.00000000       0.00000000 </v>
     <v>      -1.59515786       2.76289447       0.00000000 </v>
     <v>       0.00000000       0.00000000      30.87900430 </v>
    </varray>
    <i name="volume">    272.18315887 </i>
    <varray name="rec_basis" >
     <v>       0.31344860       0.18096963       0.00000000 </v>
     <v>       0.00000000       0.36193927       0.00000000 </v>
     <v>       0.00000000       0.00000000       0.03238446 </v>
    </varray>
   </crystal>
   <varray name="positions" >
    <v>       0.33333300       0.66666700       0.12046214 </v>
    <v>       0.66666700       0.33333300       0.06978420 </v>
    <v>       0.66666600       0.33333300       0.17114009 </v>
   </varray>
  </structure>
  <varray name="forces" >
   <v>      -0.00000000       0.00000000       0.00000000 </v>
   <v>      -0.00000000      -0.00000000       0.11621419 </v>
   <v>       0.00000000      -0.00000000      -0.11621419 </v>
  </varray>
  <varray name="stress" >
   <v>      -0.84001742       0.00000000       0.00000000 </v>
   <v>       0.00000000      -0.84001742       0.00000000 </v>
   <v>       0.00000000       0.00000000      -2.25243342 </v>
  </varray>
  <energy>
   <i name="e_fr_energy">    -22.38759124 </i>
   <i name="e_wo_entrp">    -22.38759124 </i>
   <i name="e_0_energy">      0.00000000 </i>
  </energy>
  <time name="totalsc">   11.87   12.00</time>
  <eigenvalues>
   <array>
    <dimension dim="1">band</dimension>
    <dimension dim="2">kpoint</dimension>
    <dimension dim="3">spin</dimension>
    <field>eigene</field>
    <field>occ</field>
    <set>
     <set comment="spin 1">
      <set comment="kpoint 1">
       <r>  -17.7883    1.0000 </r>
       <r>  -16.5803    1.0000 </r>
       <r>   -9.3087    1.0000 </r>
       <r>   -6.3479    1.0000 </r>
       <r>   -6.3478    1.0000 </r>
       <r>   -5.4867    1.0000 </r>
       <r>   -5.2423    1.0000 </r>
       <r>   -5.2422    1.0000 </r>
       <r>   -3.7664    1.0000 </r>
       <r>   -0.9948    0.0000 </r>
       <r>   -0.9948    0.0000 </r>
       <r>   -0.7711    0.0000 </r>
       <r>   -0.7710    0.0000 </r>
       <r>    1.6639    0.0000 </r>
      </set>
      <set comment="kpoint 2">
       <r>  -17.6917    1.0000 </r>
       <r>  -16.5341    1.0000 </r>
       <r>   -9.1948    1.0000 </r>
       <r>   -6.5708    1.0000 </r>
       <r>   -6.2414    1.0000 </r>
       <r>   -5.9784    1.0000 </r>
       <r>   -5.4034    1.0000 </r>
       <r>   -4.9057    1.0000 </r>
       <r>   -3.8189    1.0000 </r>
       <r>   -1.1337    0.0000 </r>
       <r>   -1.0433    0.0000 </r>
       <r>   -0.8845    0.0000 </r>
       <r>   -0.8230    0.0000 </r>
       <r>    1.8480    0.0000 </r>
      </set>
      <set comment="kpoint 3">
       <r>  -17.4159    1.0000 </r>
       <r>  -16.4026    1.0000 </r>
       <r>   -8.9077    1.0000 </r>
       <r>   -7.0873    1.0000 </r>
       <r>   -6.6191    1.0000 </r>
       <r>   -5.9442    1.0000 </r>
       <r>   -5.7844    1.0000 </r>
       <r>   -4.8164    1.0000 </r>
       <r>   -4.0513    1.0000 </r>
       <r>   -1.4686    0.0000 </r>
       <r>   -1.1989    0.0000 </r>
       <r>   -1.1510    0.0000 </r>
       <r>   -0.4295    0.0000 </r>
       <r>    2.2668    0.0000 </r>
      </set>
      <set comment="kpoint 4">
       <r>  -17.0054    1.0000 </r>
       <r>  -16.2091    1.0000 </r>
       <r>   -8.6980    1.0000 </r>
       <r>   -7.5379    1.0000 </r>
       <r>   -7.2755    1.0000 </r>
       <r>   -6.2130    1.0000 </r>
       <r>   -5.5264    1.0000 </r>
       <r>   -5.0607    1.0000 </r>
       <r>   -4.4727    1.0000 </r>
       <r>   -1.5991    0.0000 </r>
       <r>   -1.4224    0.0000 </r>
       <r>   -0.8804    0.0000 </r>
       <r>   -0.0230    0.0000 </r>
       <r>    2.8522    0.0000 </r>
      </set>
      <set comment="kpoint 5">
       <r>  -16.5426    1.0000 </r>
       <r>  -15.9959    1.0000 </r>
       <r>   -8.9370    1.0000 </r>
       <r>   -7.8883    1.0000 </r>
       <r>   -7.6369    1.0000 </r>
       <r>   -6.5746    1.0000 </r>
       <r>   -5.3589    1.0000 </r>
       <r>   -5.1055    1.0000 </r>
       <r>   -4.7145    1.0000 </r>
       <r>   -1.5803    0.0000 </r>
       <r>   -1.4478    0.0000 </r>
       <r>   -0.3825    0.0000 </r>
       <r>    0.2733    0.0000 </r>
       <r>    3.4721    0.0000 </r>
      </set>
      <set comment="kpoint 6">
       <r>  -16.1567    1.0000 </r>
       <r>  -15.8242    1.0000 </r>
       <r>   -9.3091    1.0000 </r>
       <r>   -8.3400    1.0000 </r>
       <r>   -7.7265    1.0000 </r>
       <r>   -6.8098    1.0000 </r>
       <r>   -5.5481    1.0000 </r>
       <r>   -4.8102    1.0000 </r>
       <r>   -4.5494    1.0000 </r>
       <r>   -1.6010    0.0000 </r>
       <r>   -1.2013    0.0000 </r>
       <r>    0.0040    0.0000 </r>
       <r>    0.4359    0.0000 </r>
       <r>    2.9105    0.0000 </r>
      </set>
      <set comment="kpoint 7">
       <r>  -16.0020    1.0000 </r>
       <r>  -15.7572    1.0000 </r>
       <r>   -9.4680    1.0000 </r>
       <r>   -8.5078    1.0000 </r>
       <r>   -7.7970    1.0000 </r>
       <r>   -6.8909    1.0000 </r>
       <r>   -5.6089    1.0000 </r>
       <r>   -4.7088    1.0000 </r>
       <r>   -4.3870    1.0000 </r>
       <r>   -1.5817    0.0000 </r>
       <r>   -1.0657    0.0000 </r>
       <r>    0.1368    0.0000 </r>
       <r>    0.4857    0.0000 </r>
       <r>    2.4159    0.0000 </r>
      </set>
      <set comment="kpoint 8">
       <r>  -17.5054    1.0000 </r>
       <r>  -16.4451    1.0000 </r>
       <r>   -8.9909    1.0000 </r>
       <r>   -6.9333    1.0000 </r>
       <r>   -6.4029    1.0000 </r>
       <r>   -6.0478    1.0000 </r>
       <r>   -5.7779    1.0000 </r>
       <r>   -4.7174    1.0000 </r>
       <r>   -3.9623    1.0000 </r>
       <r>   -1.3728    0.0000 </r>
       <r>   -1.2806    0.0000 </r>
       <r>   -1.0861    0.0000 </r>
       <r>   -0.5017    0.0000 </r>
       <r>    2.1469    0.0000 </r>
      </set>
      <set comment="kpoint 9">
       <r>  -17.1612    1.0000 </r>
       <r>  -16.2816    1.0000 </r>
       <r>   -8.7131    1.0000 </r>
       <r>   -7.4007    1.0000 </r>
       <r>   -6.9435    1.0000 </r>
       <r>   -6.3147    1.0000 </r>
       <r>   -5.7381    1.0000 </r>
       <r>   -4.7501    1.0000 </r>
       <r>   -4.3021    1.0000 </r>
       <r>   -1.6624    0.0000 </r>
       <r>   -1.3099    0.0000 </r>
       <r>   -1.2110    0.0000 </r>
       <r>   -0.0549    0.0000 </r>
       <r>    2.6925    0.0000 </r>
      </set>
      <set comment="kpoint 10">
       <r>  -16.7212    1.0000 </r>
       <r>  -16.0752    1.0000 </r>
       <r>   -8.7350    1.0000 </r>
       <r>   -7.5971    1.0000 </r>
       <r>   -7.5878    1.0000 </r>
       <r>   -6.6710    1.0000 </r>
       <r>   -5.4873    1.0000 </r>
       <r>   -5.0437    1.0000 </r>
       <r>   -4.5959    1.0000 </r>
       <r>   -1.7309    0.0000 </r>
       <r>   -1.3710    0.0000 </r>
       <r>   -0.8161    0.0000 </r>
       <r>    0.2976    0.0000 </r>
       <r>    3.3016    0.0000 </r>
      </set>
      <set comment="kpoint 11">
       <r>  -16.2891    1.0000 </r>
       <r>  -15.8772    1.0000 </r>
       <r>   -9.0730    1.0000 </r>
       <r>   -8.1907    1.0000 </r>
       <r>   -7.6224    1.0000 </r>
       <r>   -6.8390    1.0000 </r>
       <r>   -5.3700    1.0000 </r>
       <r>   -5.3626    1.0000 </r>
       <r>   -4.4916    1.0000 </r>
       <r>   -1.6172    0.0000 </r>
       <r>   -1.2782    0.0000 </r>
       <r>   -0.3302    0.0000 </r>
       <r>    0.4499    0.0000 </r>
       <r>    3.4846    0.0000 </r>
      </set>
      <set comment="kpoint 12">
       <r>  -16.0097    1.0000 </r>
       <r>  -15.7528    1.0000 </r>
       <r>   -9.3313    1.0000 </r>
       <r>   -8.5373    1.0000 </r>
       <r>   -7.7409    1.0000 </r>
       <r>   -6.8980    1.0000 </r>
       <r>   -5.5696    1.0000 </r>
       <r>   -5.2359    1.0000 </r>
       <r>   -4.2525    1.0000 </r>
       <r>   -1.5595    0.0000 </r>
       <r>   -1.0662    0.0000 </r>
       <r>    0.0656    0.0000 </r>
       <r>    0.3772    0.0000 </r>
       <r>    2.6662    0.0000 </r>
      </set>
      <set comment="kpoint 13">
       <r>  -16.7850    1.0000 </r>
       <r>  -16.1028    1.0000 </r>
       <r>   -8.6368    1.0000 </r>
       <r>   -7.5452    1.0000 </r>
       <r>   -7.3724    1.0000 </r>
       <r>   -6.9031    1.0000 </r>
       <r>   -5.7045    1.0000 </r>
       <r>   -4.7939    1.0000 </r>
       <r>   -4.5380    1.0000 </r>
       <r>   -1.8315    0.0000 </r>
       <r>   -1.3173    0.0000 </r>
       <r>   -1.1085    0.0000 </r>
       <r>    0.3587    0.0000 </r>
       <r>    3.2492    0.0000 </r>
      </set>
      <set comment="kpoint 14">
       <r>  -16.3666    1.0000 </r>
       <r>  -15.9046    1.0000 </r>
       <r>   -8.8209    1.0000 </r>
       <r>   -8.0655    1.0000 </r>
       <r>   -7.4598    1.0000 </r>
       <r>   -7.0088    1.0000 </r>
       <r>   -5.9674    1.0000 </r>
       <r>   -5.0953    1.0000 </r>
       <r>   -4.4907    1.0000 </r>
       <r>   -1.6897    0.0000 </r>
       <r>   -1.2616    0.0000 </r>
       <r>   -0.7859    0.0000 </r>
       <r>    0.5920    0.0000 </r>
       <r>    3.8645    0.0000 </r>
      </set>
      <set comment="kpoint 15">
       <r>  -16.0247    1.0000 </r>
       <r>  -15.7438    1.0000 </r>
       <r>   -9.0120    1.0000 </r>
       <r>   -8.5911    1.0000 </r>
       <r>   -7.5642    1.0000 </r>
       <r>   -6.9345    1.0000 </r>
       <r>   -6.0929    1.0000 </r>
       <r>   -5.4571    1.0000 </r>
       <r>   -4.2413    1.0000 </r>
       <r>   -1.5832    0.0000 </r>
       <r>   -1.0299    0.0000 </r>
       <r>   -0.4480    0.0000 </r>
       <r>    0.6382    0.0000 </r>
       <r>    3.2742    0.0000 </r>
      </set>
      <set comment="kpoint 16">
       <r>  -15.8900    1.0000 </r>
       <r>  -15.6809    1.0000 </r>
       <r>   -9.0808    1.0000 </r>
       <r>   -8.7823    1.0000 </r>
       <r>   -7.6830    1.0000 </r>
       <r>   -6.8686    1.0000 </r>
       <r>   -6.0911    1.0000 </r>
       <r>   -5.6287    1.0000 </r>
       <r>   -4.0663    1.0000 </r>
       <r>   -1.6719    0.0000 </r>
       <r>   -0.7840    0.0000 </r>
       <r>   -0.2998    0.0000 </r>
       <r>    0.6157    0.0000 </r>
       <r>    2.8151    0.0000 </r>
      </set>
      <set comment="kpoint 17">
       <r>  -16.0322    1.0000 </r>
       <r>  -15.7393    1.0000 </r>
       <r>   -8.8202    1.0000 </r>
       <r>   -8.6157    1.0000 </r>
       <r>   -7.3422    1.0000 </r>
       <r>   -6.9613    1.0000 </r>
       <r>   -6.6422    1.0000 </r>
       <r>   -5.3853    1.0000 </r>
       <r>   -4.2621    1.0000 </r>
       <r>   -1.6138    0.0000 </r>
       <r>   -1.0029    0.0000 </r>
       <r>   -0.6911    0.0000 </r>
       <r>    0.7843    0.0000 </r>
       <r>    3.7751    0.0000 </r>
      </set>
      <set comment="kpoint 18">
       <r>  -15.8254    1.0000 </r>
       <r>  -15.6345    1.0000 </r>
       <r>   -8.9550    1.0000 </r>
       <r>   -8.6893    1.0000 </r>
       <r>   -7.5488    1.0000 </r>
       <r>   -6.9495    1.0000 </r>
       <r>   -6.7751    1.0000 </r>
       <r>   -5.7113    1.0000 </r>
       <r>   -3.9563    1.0000 </r>
       <r>   -1.8783    0.0000 </r>
       <r>   -0.6383    0.0000 </r>
       <r>   -0.5355    0.0000 </r>
       <r>    0.9111    0.0000 </r>
       <r>    3.2831    0.0000 </r>
      </set>
      <set comment="kpoint 19">
       <r>  -15.7514    1.0000 </r>
       <r>  -15.5916    1.0000 </r>
       <r>   -9.0978    1.0000 </r>
       <r>   -8.2888    1.0000 </r>
       <r>   -7.7949    1.0000 </r>
       <r>   -7.3051    1.0000 </r>
       <r>   -6.6236    1.0000 </r>
       <r>   -5.8953    1.0000 </r>
       <r>   -3.7695    1.0000 </r>
       <r>   -2.1093    0.0000 </r>
       <r>   -0.7282    0.0000 </r>
       <r>   -0.2792    0.0000 </r>
       <r>    1.0504    0.0000 </r>
       <r>    3.4791    0.0000 </r>
      </set>
     </set>
    </set>
   </array>
  </eigenvalues>
  <separator name="orbital magnetization" >
   <v name="MAGDIPOLOUT">      0.00000000      0.00000000      0.00000000</v>
  </separator>
  <dos>
   <i name="efermi">     -3.75532345 </i>
   <total>
    <array>
     <dimension dim="1">gridpoints</dimension>
     <dimension dim="2">spin</dimension>
     <field>energy</field>
     <field>total</field>
     <field>integrated</field>
     <set>
      <set comment="spin 1">
       <r>   -19.7883     0.0000     0.0000 </r>
       <r>   -19.7028     0.0000     0.0000 </r>
       <r>   -19.6173     0.0000     0.0000 </r>
       <r>   -19.5318     0.0000     0.0000 </r>
       <r>   -19.4463     0.0000     0.0000 </r>
       <r>   -19.3608     0.0000     0.0000 </r>
       <r>   -19.2753     0.0000     0.0000 </r>
       <r>   -19.1898     0.0000     0.0000 </r>
       <r>   -19.1043     0.0000     0.0000 </r>
       <r>   -19.0187     0.0000     0.0000 </r>
       <r>   -18.9332     0.0000     0.0000 </r>
       <r>   -18.8477     0.0000     0.0000 </r>
       <r>   -18.7622     0.0000     0.0000 </r>
       <r>   -18.6767     0.0000     0.0000 </r>
       <r>   -18.5912     0.0000     0.0000 </r>
       <r>   -18.5057     0.0000     0.0000 </r>
       <r>   -18.4202     0.0000     0.0000 </r>
       <r>   -18.3347     0.0000     0.0000 </r>
       <r>   -18.2492     0.0000     0.0000 </r>
       <r>   -18.1637     0.0000     0.0000 </r>
       <r>   -18.0781     0.0000     0.0000 </r>
       <r>   -17.9926     0.0000     0.0000 </r>
       <r>   -17.9071     0.0000     0.0000 </r>
       <r>   -17.8216     0.0000     0.0000 </r>
       <r>   -17.7361     0.4661     0.0122 </r>
       <r>   -17.6506     0.4818     0.0608 </r>
       <r>   -17.5651     0.5539     0.1050 </r>
       <r>   -17.4796     0.5879     0.1550 </r>
       <r>   -17.3941     0.5559     0.2032 </r>
       <r>   -17.3086     0.5898     0.2522 </r>
       <r>   -17.2231     0.6237     0.3041 </r>
       <r>   -17.1375     0.6333     0.3583 </r>
       <r>   -17.0520     0.6540     0.4133 </r>
       <r>   -16.9665     0.6790     0.4702 </r>
       <r>   -16.8810     0.7092     0.5296 </r>
       <r>   -16.7955     0.7393     0.5915 </r>
       <r>   -16.7100     0.7954     0.6570 </r>
       <r>   -16.6245     0.8454     0.7272 </r>
       <r>   -16.5390     2.5050     0.8349 </r>
       <r>   -16.4535     2.1849     1.0097 </r>
       <r>   -16.3680     2.2164     1.1959 </r>
       <r>   -16.2824     2.6089     1.4042 </r>
       <r>   -16.1969     2.8750     1.6366 </r>
       <r>   -16.1114     3.3162     1.8995 </r>
       <r>   -16.0259     4.2115     2.2101 </r>
       <r>   -15.9404     4.0698     2.6344 </r>
       <r>   -15.8549     4.4237     2.9751 </r>
       <r>   -15.7694     4.9917     3.4066 </r>
       <r>   -15.6839     2.7496     3.7873 </r>
       <r>   -15.5984     0.6111     3.9979 </r>
       <r>   -15.5129     0.0000     4.0000 </r>
       <r>   -15.4274     0.0000     4.0000 </r>
       <r>   -15.3418     0.0000     4.0000 </r>
       <r>   -15.2563     0.0000     4.0000 </r>
       <r>   -15.1708     0.0000     4.0000 </r>
       <r>   -15.0853     0.0000     4.0000 </r>
       <r>   -14.9998     0.0000     4.0000 </r>
       <r>   -14.9143     0.0000     4.0000 </r>
       <r>   -14.8288     0.0000     4.0000 </r>
       <r>   -14.7433     0.0000     4.0000 </r>
       <r>   -14.6578     0.0000     4.0000 </r>
       <r>   -14.5723     0.0000     4.0000 </r>
       <r>   -14.4868     0.0000     4.0000 </r>
       <r>   -14.4012     0.0000     4.0000 </r>
       <r>   -14.3157     0.0000     4.0000 </r>
       <r>   -14.2302     0.0000     4.0000 </r>
       <r>   -14.1447     0.0000     4.0000 </r>
       <r>   -14.0592     0.0000     4.0000 </r>
       <r>   -13.9737     0.0000     4.0000 </r>
       <r>   -13.8882     0.0000     4.0000 </r>
       <r>   -13.8027     0.0000     4.0000 </r>
       <r>   -13.7172     0.0000     4.0000 </r>
       <r>   -13.6317     0.0000     4.0000 </r>
       <r>   -13.5461     0.0000     4.0000 </r>
       <r>   -13.4606     0.0000     4.0000 </r>
       <r>   -13.3751     0.0000     4.0000 </r>
       <r>   -13.2896     0.0000     4.0000 </r>
       <r>   -13.2041     0.0000     4.0000 </r>
       <r>   -13.1186     0.0000     4.0000 </r>
       <r>   -13.0331     0.0000     4.0000 </r>
       <r>   -12.9476     0.0000     4.0000 </r>
       <r>   -12.8621     0.0000     4.0000 </r>
       <r>   -12.7766     0.0000     4.0000 </r>
       <r>   -12.6911     0.0000     4.0000 </r>
       <r>   -12.6055     0.0000     4.0000 </r>
       <r>   -12.5200     0.0000     4.0000 </r>
       <r>   -12.4345     0.0000     4.0000 </r>
       <r>   -12.3490     0.0000     4.0000 </r>
       <r>   -12.2635     0.0000     4.0000 </r>
       <r>   -12.1780     0.0000     4.0000 </r>
       <r>   -12.0925     0.0000     4.0000 </r>
       <r>   -12.0070     0.0000     4.0000 </r>
       <r>   -11.9215     0.0000     4.0000 </r>
       <r>   -11.8360     0.0000     4.0000 </r>
       <r>   -11.7505     0.0000     4.0000 </r>
       <r>   -11.6649     0.0000     4.0000 </r>
       <r>   -11.5794     0.0000     4.0000 </r>
       <r>   -11.4939     0.0000     4.0000 </r>
       <r>   -11.4084     0.0000     4.0000 </r>
       <r>   -11.3229     0.0000     4.0000 </r>
       <r>   -11.2374     0.0000     4.0000 </r>
       <r>   -11.1519     0.0000     4.0000 </r>
       <r>   -11.0664     0.0000     4.0000 </r>
       <r>   -10.9809     0.0000     4.0000 </r>
       <r>   -10.8954     0.0000     4.0000 </r>
       <r>   -10.8098     0.0000     4.0000 </r>
       <r>   -10.7243     0.0000     4.0000 </r>
       <r>   -10.6388     0.0000     4.0000 </r>
       <r>   -10.5533     0.0000     4.0000 </r>
       <r>   -10.4678     0.0000     4.0000 </r>
       <r>   -10.3823     0.0000     4.0000 </r>
       <r>   -10.2968     0.0000     4.0000 </r>
       <r>   -10.2113     0.0000     4.0000 </r>
       <r>   -10.1258     0.0000     4.0000 </r>
       <r>   -10.0403     0.0000     4.0000 </r>
       <r>    -9.9548     0.0000     4.0000 </r>
       <r>    -9.8692     0.0000     4.0000 </r>
       <r>    -9.7837     0.0000     4.0000 </r>
       <r>    -9.6982     0.0000     4.0000 </r>
       <r>    -9.6127     0.0000     4.0000 </r>
       <r>    -9.5272     0.0000     4.0000 </r>
       <r>    -9.4417     0.3188     4.0042 </r>
       <r>    -9.3562     1.3566     4.0758 </r>
       <r>    -9.2707     1.3585     4.1862 </r>
       <r>    -9.1852     1.6968     4.3296 </r>
       <r>    -9.0997     1.9348     4.4849 </r>
       <r>    -9.0142     4.1330     4.7308 </r>
       <r>    -8.9286     3.3950     5.0868 </r>
       <r>    -8.8431     2.9601     5.3579 </r>
       <r>    -8.7576     3.3615     5.6363 </r>
       <r>    -8.6721     4.6292     6.1234 </r>
       <r>    -8.5866     1.5514     6.3871 </r>
       <r>    -8.5011     1.8466     6.5553 </r>
       <r>    -8.4156     1.4749     6.6973 </r>
       <r>    -8.3301     1.1215     6.8076 </r>
       <r>    -8.2446     0.9538     6.8954 </r>
       <r>    -8.1591     0.8473     6.9719 </r>
       <r>    -8.0735     0.7718     7.0412 </r>
       <r>    -7.9880     0.7335     7.1057 </r>
       <r>    -7.9025     0.6895     7.1666 </r>
       <r>    -7.8170     0.7140     7.2261 </r>
       <r>    -7.7315     4.0953     7.4351 </r>
       <r>    -7.6460     4.9187     7.7923 </r>
       <r>    -7.5605     6.2030     8.3090 </r>
       <r>    -7.4750     4.2048     8.7312 </r>
       <r>    -7.3895     2.3024     9.0805 </r>
       <r>    -7.3040     1.0342     9.1960 </r>
       <r>    -7.2185     1.0785     9.2858 </r>
       <r>    -7.1329     1.1410     9.3807 </r>
       <r>    -7.0474     1.1963     9.4808 </r>
       <r>    -6.9619     4.8940     9.7304 </r>
       <r>    -6.8764     7.0803    10.4724 </r>
       <r>    -6.7909     2.2075    10.7940 </r>
       <r>    -6.7054     3.1136    11.0769 </r>
       <r>    -6.6199     1.9840    11.2937 </r>
       <r>    -6.5344     1.8664    11.4546 </r>
       <r>    -6.4489     1.7365    11.6087 </r>
       <r>    -6.3634     1.6119    11.7517 </r>
       <r>    -6.2779     2.3288    11.9135 </r>
       <r>    -6.1923     1.3457    12.0704 </r>
       <r>    -6.1068     1.2780    12.1826 </r>
       <r>    -6.0213     2.2167    12.3063 </r>
       <r>    -5.9358     1.0525    12.5070 </r>
       <r>    -5.8503     1.2827    12.6023 </r>
       <r>    -5.7648     5.5243    12.7958 </r>
       <r>    -5.6793     3.8221    13.1905 </r>
       <r>    -5.5938     5.1110    13.5036 </r>
       <r>    -5.5083     3.5940    13.9059 </r>
       <r>    -5.4228     3.9439    14.2219 </r>
       <r>    -5.3372     2.2994    14.5414 </r>
       <r>    -5.2517     1.8451    14.7185 </r>
       <r>    -5.1662     1.9626    14.8759 </r>
       <r>    -5.0807     3.4135    15.0702 </r>
       <r>    -4.9952     2.0990    15.3077 </r>
       <r>    -4.9097     2.0099    15.4834 </r>
       <r>    -4.8242     2.6720    15.6900 </r>
       <r>    -4.7387     3.0932    15.9667 </r>
       <r>    -4.6532     1.0208    16.0313 </r>
       <r>    -4.5677     3.3504    16.1923 </r>
       <r>    -4.4822     2.9103    16.5730 </r>
       <r>    -4.3966     2.9651    16.8242 </r>
       <r>    -4.3111     2.7902    17.0713 </r>
       <r>    -4.2256     2.4125    17.2930 </r>
       <r>    -4.1401     1.9384    17.4790 </r>
       <r>    -4.0546     1.5318    17.6249 </r>
       <r>    -3.9691     1.7275    17.7639 </r>
       <r>    -3.8836     1.1876    17.8877 </r>
       <r>    -3.7981     1.0937    17.9829 </r>
       <r>    -3.7126     0.0000    18.0000 </r>
       <r>    -3.6271     0.0000    18.0000 </r>
       <r>    -3.5415     0.0000    18.0000 </r>
       <r>    -3.4560     0.0000    18.0000 </r>
       <r>    -3.3705     0.0000    18.0000 </r>
       <r>    -3.2850     0.0000    18.0000 </r>
       <r>    -3.1995     0.0000    18.0000 </r>
       <r>    -3.1140     0.0000    18.0000 </r>
       <r>    -3.0285     0.0000    18.0000 </r>
       <r>    -2.9430     0.0000    18.0000 </r>
       <r>    -2.8575     0.0000    18.0000 </r>
       <r>    -2.7720     0.0000    18.0000 </r>
       <r>    -2.6865     0.0000    18.0000 </r>
       <r>    -2.6009     0.0000    18.0000 </r>
       <r>    -2.5154     0.0000    18.0000 </r>
       <r>    -2.4299     0.0000    18.0000 </r>
       <r>    -2.3444     0.0000    18.0000 </r>
       <r>    -2.2589     0.0000    18.0000 </r>
       <r>    -2.1734     0.0000    18.0000 </r>
       <r>    -2.0879     0.0668    18.0007 </r>
       <r>    -2.0024     0.3339    18.0178 </r>
       <r>    -1.9169     0.6010    18.0578 </r>
       <r>    -1.8314     0.8035    18.1190 </r>
       <r>    -1.7459     3.3914    18.2983 </r>
       <r>    -1.6603     6.8881    18.7323 </r>
       <r>    -1.5748     9.6358    19.6046 </r>
       <r>    -1.4893     0.7665    19.7863 </r>
       <r>    -1.4038     3.3353    19.9238 </r>
       <r>    -1.3183     7.3318    20.3258 </r>
       <r>    -1.2328     3.5819    20.8359 </r>
       <r>    -1.1473     6.0088    21.2557 </r>
       <r>    -1.0618     3.9728    21.7553 </r>
       <r>    -0.9763     2.7258    22.0688 </r>
       <r>    -0.8908     2.4887    22.2918 </r>
       <r>    -0.8052     3.3603    22.5287 </r>
       <r>    -0.7197     2.5602    22.7542 </r>
       <r>    -0.6342     1.9111    23.0435 </r>
       <r>    -0.5487     2.4823    23.2313 </r>
       <r>    -0.4632     2.6500    23.4709 </r>
       <r>    -0.3777     2.0505    23.6720 </r>
       <r>    -0.2922     1.5530    23.8262 </r>
       <r>    -0.2067     1.4690    23.9542 </r>
       <r>    -0.1212     1.4178    24.0777 </r>
       <r>    -0.0357     1.4222    24.1974 </r>
       <r>     0.0498     2.0509    24.3343 </r>
       <r>     0.1354     0.8911    24.5111 </r>
       <r>     0.2209     0.9234    24.5867 </r>
       <r>     0.3064     1.5655    24.6802 </r>
       <r>     0.3919     4.0520    24.8563 </r>
       <r>     0.4774     2.4203    25.2586 </r>
       <r>     0.5629     2.0333    25.4369 </r>
       <r>     0.6484     1.7290    25.6039 </r>
       <r>     0.7339     1.2917    25.7330 </r>
       <r>     0.8194     1.0078    25.8274 </r>
       <r>     0.9049     0.9441    25.9109 </r>
       <r>     0.9904     0.5147    25.9846 </r>
       <r>     1.0760     0.0000    26.0000 </r>
       <r>     1.1615     0.0000    26.0000 </r>
       <r>     1.2470     0.0000    26.0000 </r>
       <r>     1.3325     0.0000    26.0000 </r>
       <r>     1.4180     0.0000    26.0000 </r>
       <r>     1.5035     0.0000    26.0000 </r>
       <r>     1.5890     0.0000    26.0000 </r>
       <r>     1.6745     0.0262    26.0001 </r>
       <r>     1.7600     0.2363    26.0114 </r>
       <r>     1.8455     0.4465    26.0406 </r>
       <r>     1.9311     0.3120    26.0662 </r>
       <r>     2.0166     0.3461    26.0943 </r>
       <r>     2.1021     0.3802    26.1254 </r>
       <r>     2.1876     0.3780    26.1586 </r>
       <r>     2.2731     0.3405    26.1891 </r>
       <r>     2.3586     0.3603    26.2191 </r>
       <r>     2.4441     0.4556    26.2518 </r>
       <r>     2.5296     0.7042    26.3014 </r>
       <r>     2.6151     0.9529    26.3723 </r>
       <r>     2.7006     1.2587    26.4693 </r>
       <r>     2.7861     1.0900    26.5697 </r>
       <r>     2.8717     1.0624    26.6597 </r>
       <r>     2.9572     1.1433    26.7533 </r>
       <r>     3.0427     1.2518    26.8557 </r>
       <r>     3.1282     1.3603    26.9674 </r>
       <r>     3.2137     1.4688    27.0884 </r>
       <r>     3.2992     2.3106    27.2310 </r>
       <r>     3.3847     2.3726    27.4308 </r>
       <r>     3.4702     2.4464    27.6368 </r>
       <r>     3.5557     1.0687    27.7460 </r>
       <r>     3.6412     0.8771    27.8292 </r>
       <r>     3.7267     0.6855    27.8960 </r>
       <r>     3.8123     0.7811    27.9517 </r>
       <r>     3.8978     0.0000    28.0000 </r>
       <r>     3.9833     0.0000    28.0000 </r>
       <r>     4.0688     0.0000    28.0000 </r>
       <r>     4.1543     0.0000    28.0000 </r>
       <r>     4.2398     0.0000    28.0000 </r>
       <r>     4.3253     0.0000    28.0000 </r>
       <r>     4.4108     0.0000    28.0000 </r>
       <r>     4.4963     0.0000    28.0000 </r>
       <r>     4.5818     0.0000    28.0000 </r>
       <r>     4.6674     0.0000    28.0000 </r>
       <r>     4.7529     0.0000    28.0000 </r>
       <r>     4.8384     0.0000    28.0000 </r>
       <r>     4.9239     0.0000    28.0000 </r>
       <r>     5.0094     0.0000    28.0000 </r>
       <r>     5.0949     0.0000    28.0000 </r>
       <r>     5.1804     0.0000    28.0000 </r>
       <r>     5.2659     0.0000    28.0000 </r>
       <r>     5.3514     0.0000    28.0000 </r>
       <r>     5.4369     0.0000    28.0000 </r>
       <r>     5.5224     0.0000    28.0000 </r>
       <r>     5.6080     0.0000    28.0000 </r>
       <r>     5.6935     0.0000    28.0000 </r>
       <r>     5.7790     0.0000    28.0000 </r>
       <r>     5.8645     0.0000    28.0000 </r>
      </set>
     </set>
    </array>
   </total>
  </dos>
 </calculation>
 <structure name="finalpos" >
  <crystal>
   <varray name="basis" >
    <v>       3.19031573       0.00000000       0.00000000 </v>
    <v>      -1.59515786       2.76289447       0.00000000 </v>
    <v>       0.00000000       0.00000000      30.87900430 </v>
   </varray>
   <i name="volume">    272.18315887 </i>
   <varray name="rec_basis" >
    <v>       0.31344860       0.18096963       0.00000000 </v>
    <v>       0.00000000       0.36193927       0.00000000 </v>
    <v>       0.00000000       0.00000000       0.03238446 </v>
   </varray>
  </crystal>
  <varray name="positions" >
   <v>       0.33333300       0.66666700       0.12046214 </v>
   <v>       0.66666700       0.33333300       0.06978420 </v>
   <v>       0.66666600       0.33333300       0.17114009 </v>
  </varray>
 </structure>
</modeling>
