unknown system                          
   1.00000000000000     
     3.190316    0.000000    0.000000
    -1.595158    2.762894    0.000000
     0.000000    0.000000   26.879004
   Mo   S 
     1     2
Direct
  0.333333  0.666667  0.138389
  0.666667  0.333333  0.080169
  0.666666  0.333333  0.196608
 
   32   32  280
 0.35914     0.36295     0.37423     0.39267     0.41778     0.44894     0.48543     0.52648     0.57103     0.61763    
 0.66447     0.70945     0.75034     0.78492     0.81122     0.82772     0.83342     0.82793     0.81150     0.78510    
 0.75034     0.70927     0.66422     0.61746     0.57103     0.52662     0.48557     0.44899     0.41779     0.39268    
 0.37423     0.36294     0.36295     0.36295     0.37218     0.39034     0.41691     0.45120     0.49237     0.53947    
 0.59140     0.64671     0.70346     0.75930     0.81156     0.85749     0.89450     0.92045     0.93383     0.93387    
 0.92054     0.89462     0.85759     0.81159     0.75924     0.70335     0.64663     0.59141     0.53953     0.49242    
 0.45123     0.41693     0.39035     0.37218     0.37425     0.36882     0.37424     0.39034     0.41664     0.45242    
 0.49682     0.54881     0.60715     0.67031     0.73636     0.80286     0.86683     0.92504     0.97428      1.0117    
  1.0350      1.0429      1.0349      1.0115     0.97419     0.92509     0.86698     0.80303     0.73647     0.67030    
 0.60706     0.54874     0.49681     0.45243     0.41664     0.39034     0.39269     0.38040     0.38038     0.39267    
 0.41691     0.45240     0.49830     0.55361     0.61708     0.68706     0.76153     0.83803     0.91344     0.98416    
  1.0465      1.0968      1.1323      1.1505      1.1504      1.1320      1.0966      1.0464     0.98420     0.91361    
 0.83826     0.76164     0.68698     0.61695     0.55357     0.49832     0.45240     0.41690     0.41779     0.39743    
 0.39053     0.39736     0.41779     0.45121     0.49675     0.55351     0.62036     0.69567     0.77734     0.86283    
 0.94897      1.0319      1.1074      1.1715      1.2204      1.2511      1.2615      1.2510      1.2204      1.1715    
  1.1074      1.0318     0.94897     0.86291     0.77733     0.69558     0.62037     0.55362     0.49679     0.45115    
 0.44892     0.41950     0.40456     0.40447     0.41942     0.44901     0.49241     0.54869     0.61688     0.69556    
 0.78264     0.87555     0.97118      1.0655      1.1540      1.2319      1.2950      1.3395      1.3625      1.3625    
  1.3397      1.2953      1.2320      1.1538      1.0653     0.97109     0.87557     0.78259     0.69558     0.61706    
 0.54882     0.49233     0.48540     0.44610     0.42221     0.41407     0.42204     0.44611     0.48561     0.53956    
 0.60706     0.68693     0.77724     0.87546     0.97858      1.0828      1.1832      1.2745      1.3519      1.4110    
  1.4481      1.4607      1.4481      1.4112      1.3522      1.2745      1.1829      1.0826     0.97866     0.87548    
 0.77717     0.68701     0.60724     0.53952     0.52645     0.47668     0.44314     0.42613     0.42597     0.44297    
 0.47683     0.52665     0.59147     0.67035     0.76163     0.86281     0.97095      1.0825      1.1929      1.2965    
  1.3877      1.4615      1.5135      1.5403      1.5401      1.5133      1.4615      1.3878      1.2964      1.1928    
  1.0828     0.97116     0.86268     0.76146     0.67045     0.59156     0.57103     0.51060     0.46692     0.44048    
 0.43144     0.44020     0.46689     0.51082     0.57103     0.64669     0.73655     0.83831     0.94897      1.0652    
  1.1829      1.2964      1.3997      1.4874      1.5545      1.5965      1.6106      1.5960      1.5542      1.4875    
  1.3997      1.2962      1.1830      1.0656     0.94897     0.83797     0.73646     0.64690     0.61769     0.54694    
 0.49302     0.45682     0.43849     0.43828     0.45661     0.49319     0.54707     0.61741     0.70335     0.80310    
 0.91373      1.0319      1.1538      1.2744      1.3876      1.4872      1.5682      1.6254      1.6549      1.6546    
  1.6251      1.5683      1.4874      1.3874      1.2743      1.1541      1.0321     0.91343     0.80282     0.70357    
 0.66455     0.58441     0.52067     0.47471     0.44694     0.43744     0.44665     0.47475     0.52099     0.58435    
 0.66413     0.75917     0.86699     0.98429      1.1075      1.2321      1.3522      1.4614      1.5540      1.6251    
  1.6698      1.6849      1.6696      1.6253      1.5545      1.4614      1.3517      1.2320      1.1077     0.98423    
 0.86667     0.75924     0.70951     0.62139     0.54883     0.49359     0.45655     0.43777     0.43754     0.45635    
 0.49391     0.54914     0.62115     0.70920     0.81149     0.92502      1.0464      1.1716      1.2954      1.4114    
  1.5133      1.5961      1.6546      1.6847      1.6846      1.6546      1.5965      1.5137      1.4110      1.2950    
  1.1717      1.0466     0.92484     0.81134     0.75034     0.65605     0.57621     0.51271     0.46694     0.43926    
 0.42974     0.43889     0.46694     0.51311     0.57631     0.65577     0.75033     0.85752     0.97407      1.0965    
  1.2204      1.3398      1.4483      1.5403      1.6106      1.6547      1.6694      1.6543      1.6106      1.5406    
  1.4482      1.3394      1.2204      1.0969     0.97417     0.85724     0.78487     0.68652     0.60132     0.53108    
 0.47759     0.44171     0.42349     0.42321     0.44138     0.47776     0.53132     0.60114     0.68636     0.78518    
 0.89462      1.0114      1.1319      1.2510      1.3626      1.4608      1.5404      1.5965      1.6253      1.6250    
  1.5960      1.5404      1.4609      1.3624      1.2509      1.1323      1.0117     0.89438     0.81117     0.71105    
 0.62261     0.54760     0.48785     0.44475     0.41868     0.40972     0.41832     0.44467     0.48808     0.54753    
 0.62228     0.71111     0.81161     0.92063      1.0349      1.1503      1.2614      1.3624      1.4480      1.5136    
  1.5547      1.5684      1.5542      1.5134      1.4482      1.3624      1.2612      1.1504      1.0352     0.92054    
 0.82770     0.72826     0.63878     0.56112     0.49698     0.44801     0.41512     0.39846     0.39828     0.41496    
 0.44823     0.49713     0.56081     0.63850     0.72848     0.82800     0.93400      1.0430      1.1505      1.2510    
  1.3393      1.4109      1.4616      1.4877      1.4875      1.4614      1.4112      1.3396      1.2508      1.1502    
  1.0431     0.93407     0.83342     0.73718     0.64885     0.57067     0.50421     0.45112     0.41271     0.38944    
 0.38150     0.38927     0.41283     0.45147     0.50420     0.57032     0.64874     0.73736     0.83342     0.93394    
  1.0352      1.1324      1.2204      1.2949      1.3518      1.3876      1.3997      1.3875      1.3521      1.2953    
  1.2204      1.1320      1.0350     0.93410     0.82791     0.73724     0.65224     0.57556     0.50885     0.45362    
 0.41132     0.38280     0.36830     0.36814     0.38267     0.41155     0.45386     0.50873     0.57538     0.65232    
 0.73727     0.82762     0.92046      1.0118      1.0970      1.1717      1.2319      1.2744      1.2963      1.2961    
  1.2743      1.2321      1.1717      1.0967      1.0115     0.92063     0.81145     0.72838     0.64876     0.57547    
 0.51042     0.45501     0.41066     0.37848     0.35891     0.35215     0.35860     0.37837     0.41083     0.45505    
 0.51030     0.57555     0.64897     0.72827     0.81106     0.89438     0.97429      1.0466      1.1076      1.1541    
  1.1831      1.1928      1.1828      1.1539      1.1077      1.0465     0.97408     0.89450     0.78505     0.71111    
 0.63861     0.57046     0.50881     0.45504     0.41045     0.37628     0.35324     0.34149     0.34129     0.35296    
 0.37629     0.41051     0.45491     0.50875     0.57074     0.63885     0.71097     0.78479     0.85731     0.92492    
 0.98414      1.0320      1.0656      1.0828      1.0826      1.0653      1.0320     0.98427     0.92489     0.85734    
 0.75034     0.68648     0.62244     0.56093     0.50421     0.45377     0.41069     0.37618     0.35120     0.33606    
 0.33085     0.33587     0.35119     0.37634     0.41061     0.45349     0.50420     0.56122     0.62260     0.68641    
 0.75033     0.81144     0.86666     0.91332     0.94897     0.97130     0.97875     0.97107     0.94897     0.91361    
 0.86682     0.81137     0.70933     0.65596     0.60126     0.54754     0.49704     0.45136     0.41148     0.37834    
 0.35297     0.33591     0.32727     0.32721     0.33593     0.35324     0.37851     0.41125     0.45107     0.49705    
 0.54767     0.60125     0.65599     0.70958     0.75930     0.80275     0.83792     0.86279     0.87559     0.87550    
 0.86277     0.83819     0.80299     0.75917     0.66429     0.62128     0.57632     0.53121     0.48793     0.44816    
 0.41289     0.38280     0.35872     0.34131     0.33077     0.32714     0.33067     0.34143     0.35900     0.38284    
 0.41266     0.44802     0.48793     0.53108     0.57613     0.62140     0.66464     0.70357     0.73637     0.76148    
 0.77726     0.78255     0.77716     0.76157     0.73656     0.70345     0.61750     0.58434     0.54901     0.51294    
 0.47764     0.44466     0.41508     0.38945     0.36831     0.35222     0.34142     0.33589     0.33575     0.34123    
 0.35227     0.36843     0.38942     0.41506     0.44478     0.47764     0.51265     0.54877     0.58446     0.61773    
 0.64684     0.67039     0.68704     0.69559     0.69548     0.68691     0.67042     0.64682     0.57103     0.54696    
 0.52082     0.49379     0.46694     0.44149     0.41845     0.39835     0.38151     0.36828     0.35890     0.35324    
 0.35120     0.35296     0.35869     0.36827     0.38150     0.39835     0.41864     0.44176     0.46694     0.49352    
 0.52066     0.54700     0.57103     0.59149     0.60723     0.61711     0.62036     0.61691     0.60713     0.59155    
 0.52658     0.51070     0.49308     0.47475     0.45649     0.43909     0.42333     0.40969     0.39829     0.38926    
 0.38272     0.37855     0.37646     0.37635     0.37840     0.38271     0.38926     0.39817     0.40964     0.42353    
 0.43932     0.45652     0.47467     0.49306     0.51064     0.52642     0.53948     0.54885     0.55367     0.55356    
 0.54873     0.53956     0.48552     0.47676     0.46689     0.45671     0.44682     0.43769     0.42979     0.42341    
 0.41853     0.41496     0.41263     0.41135     0.41077     0.41059     0.41080     0.41149     0.41279     0.41491    
 0.41828     0.42325     0.42983     0.43779     0.44690     0.45682     0.46697     0.47668     0.48536     0.49233    
 0.49683     0.49833     0.49675     0.49236     0.44896     0.44609     0.44304     0.44032     0.43837     0.43742    
 0.43765     0.43913     0.44166     0.44481     0.44812     0.45119     0.45361     0.45493     0.45497     0.45375    
 0.45143     0.44825     0.44471     0.44143     0.43895     0.43756     0.43740     0.43846     0.44050     0.44316    
 0.44607     0.44889     0.45116     0.45241     0.45239     0.45116     0.41778     0.41944     0.42211     0.42604    
 0.43144     0.43836     0.44673     0.45639     0.46694     0.47778     0.48810     0.49715     0.50421     0.50869    
 0.51020     0.50865     0.50421     0.49721     0.48817     0.47781     0.46694     0.45633     0.44661     0.43825    
 0.43144     0.42614     0.42220     0.41948     0.41779     0.41690     0.41663     0.41689     0.39269     0.39740    
 0.40451     0.41407     0.42606     0.44036     0.45671     0.47467     0.49365     0.51283     0.53121     0.54767    
 0.56112     0.57061     0.57547     0.57538     0.57040     0.56092     0.54761     0.53132     0.51306     0.49384    
 0.47471     0.45661     0.44022     0.42598     0.41408     0.40456     0.39743     0.39270     0.39034     0.39034    
 0.37424     0.38039     0.39053     0.40451     0.42212     0.44307     0.46696     0.49316     0.52083     0.54890    
 0.57613     0.60113     0.62246     0.63875     0.64897     0.65242     0.64887     0.63857     0.62228     0.60107    
 0.57623     0.54908     0.52099     0.49323     0.46694     0.44299     0.42203     0.40447     0.39054     0.38041    
 0.37424     0.37217     0.36294     0.36881     0.38038     0.39738     0.41943     0.44607     0.47675     0.51076    
 0.54711     0.58447     0.62127     0.65581     0.68630     0.71098     0.72837     0.73740     0.73746     0.72849    
 0.71104     0.68626     0.65571     0.62116     0.58440     0.54714     0.51087     0.47685     0.44608     0.41940    
 0.39737     0.38038     0.36881     0.36294     0.45630     0.46151     0.47700     0.50240     0.53715     0.58050    
 0.63159     0.68938     0.75247     0.81890     0.88612     0.95111      1.0106      1.0611      1.0997      1.1240    
  1.1324      1.1242      1.1000      1.0613      1.0106     0.95093     0.88586     0.81872     0.75248     0.68952    
 0.63172     0.58055     0.53715     0.50241     0.47700     0.46150     0.46152     0.46152     0.47411     0.49900    
 0.53564     0.58324     0.64084     0.70727     0.78102     0.86006     0.94169      1.0225      1.0985      1.1657    
  1.2200      1.2583      1.2781      1.2781      1.2584      1.2202      1.1658      1.0986      1.0224     0.94158    
 0.85999     0.78102     0.70732     0.64090     0.58327     0.53565     0.49901     0.47411     0.47702     0.46963    
 0.47700     0.49900     0.53515     0.58472     0.64678     0.72010     0.80307     0.89359     0.98886      1.0853    
  1.1785      1.2637      1.3360      1.3912      1.4257      1.4373      1.4255      1.3910      1.3359      1.2637    
  1.1787      1.0855     0.98897     0.89357     0.80298     0.72002     0.64676     0.58473     0.53515     0.49901    
 0.50242     0.48565     0.48563     0.50239     0.53563     0.58470     0.64876     0.72672     0.81699     0.91739    
  1.0250      1.1362      1.2463      1.3500      1.4416      1.5159      1.5682      1.5952      1.5951      1.5679    
  1.5156      1.4415      1.3500      1.2465      1.1364      1.0251     0.91730     0.81685     0.72667     0.64879    
 0.58470     0.53562     0.53715     0.50926     0.49986     0.50918     0.53715     0.58325     0.64670     0.72661    
 0.82163     0.92966      1.0478      1.1722      1.2982      1.4199      1.5312      1.6258      1.6982      1.7436    
  1.7591      1.7435      1.6982      1.6259      1.5312      1.4198      1.2982      1.1723      1.0478     0.92957    
 0.82164     0.72672     0.64675     0.58319     0.58048     0.53993     0.51948     0.51939     0.53984     0.58057    
 0.64089     0.71997     0.81679     0.92955      1.0554      1.1907      1.3307      1.4693      1.5998      1.7151    
  1.8086      1.8746      1.9088      1.9088      1.8748      1.8089      1.7152      1.5996      1.4690      1.3306    
  1.1907      1.0554     0.92956     0.81697     0.72011     0.64081     0.63155     0.57703     0.54414     0.53302    
 0.54396     0.57703     0.63176     0.70736     0.80298     0.91726      1.0477      1.1906      1.3416      1.4947    
  1.6429      1.7782      1.8931      1.9810      2.0362      2.0549      2.0362      1.9812      1.8934      1.7782    
  1.6426      1.4946      1.3417      1.1906      1.0476     0.91734     0.80317     0.70732     0.68935     0.61985    
 0.57339     0.55001     0.54984     0.57321     0.62001     0.68955     0.78109     0.89363      1.0251      1.1722    
  1.3304      1.4945      1.6574      1.8107      1.9462      2.0562      2.1338      2.1737      2.1735      2.1335    
  2.0562      1.9463      1.8106      1.6573      1.4947      1.3306      1.1720      1.0249     0.89373     0.78118    
 0.75248     0.66755     0.60672     0.57016     0.55778     0.56987     0.60668     0.66778     0.75247     0.86005    
 0.98905      1.1365      1.2982      1.4690      1.6426      1.8106      1.9642      2.0949      2.1950      2.2578    
  2.2789      2.2573      2.1947      2.0950      1.9642      1.8105      1.6428      1.4694      1.2982      1.1361    
 0.98895     0.86026     0.81896     0.71891     0.64341     0.59312     0.56784     0.56762     0.59290     0.64359    
 0.71905     0.81867     0.94158      1.0855      1.2466      1.4199      1.5997      1.7781      1.9461      2.0947    
  2.2156      2.3011      2.3452      2.3450      2.3008      2.2157      2.0949      1.9460      1.7779      1.5999    
  1.4201      1.2463      1.0852     0.94180     0.88621     0.77220     0.68249     0.61837     0.57989     0.56685    
 0.57959     0.61841     0.68283     0.77213     0.88577      1.0224      1.1787      1.3501      1.5313      1.7153    
  1.8934      2.0560      2.1945      2.3008      2.3676      2.3903      2.3675      2.3010      2.1950      2.0561    
  1.8929      1.7151      1.5315      1.3500      1.1783      1.0224     0.95117     0.82516     0.72254     0.64515    
 0.59364     0.56773     0.56749     0.59344     0.64548     0.72286     0.82491     0.95086      1.0985      1.2637    
  1.4415      1.6259      1.8090      1.9813      2.1336      2.2573      2.3449      2.3902      2.3900      2.3449    
  2.2578      2.1339      1.9810      1.8086      1.6260      1.4417      1.2635      1.0983      1.0106     0.87516    
 0.76173     0.67243     0.60859     0.57025     0.55721     0.56986     0.60859     0.67285     0.76182     0.87486    
  1.0106      1.1657      1.3358      1.5155      1.6982      1.8750      2.0364      2.1737      2.2789      2.3450    
  2.3673      2.3447      2.2789      2.1740      2.0363      1.8745      1.6982      1.5160      1.3359      1.1654    
  1.0611     0.91942     0.79790     0.69880     0.62398     0.57413     0.54901     0.54872     0.57378     0.62416    
 0.69904     0.79771     0.91926      1.0614      1.2202      1.3909      1.5678      1.7435      1.9089      2.0551    
  2.1738      2.2578      2.3010      2.3006      2.2573      2.1738      2.0552      1.9087      1.7434      1.5682    
  1.3912      1.2199      1.0997     0.95529     0.82880     0.72261     0.63883     0.57883     0.54278     0.53051    
 0.54240     0.57875     0.63907     0.72254     0.82845     0.95536      1.1001      1.2585      1.4255      1.5950    
  1.7589      1.9086      2.0361      2.1338      2.1952      2.2158      2.1947      2.1336      2.0363      1.9087    
  1.7587      1.5951      1.4258      1.2584      1.1240     0.98057     0.85241     0.74219     0.65205     0.58380    
 0.53822     0.51529     0.51510     0.53806     0.58403     0.65221     0.74187     0.85212     0.98079      1.1243    
  1.2782      1.4375      1.5952      1.7435      1.8744      1.9809      2.0563      2.0952      2.0950      2.0561    
  1.9812      1.8748      1.7433      1.5949      1.4376      1.2783      1.1324     0.99369     0.86720     0.75608    
 0.66251     0.58843     0.53517     0.50310     0.49223     0.50291     0.53530     0.58879     0.66251     0.75572    
 0.86709     0.99388      1.1324      1.2782      1.4258      1.5683      1.6982      1.8085      1.8930      1.9462    
  1.9642      1.9461      1.8933      1.8089      1.6982      1.5679      1.4257      1.2783      1.1242     0.99375    
 0.87220     0.76324     0.66922     0.59206     0.53340     0.49407     0.47420     0.47403     0.49393     0.53364    
 0.59231     0.66910     0.76305     0.87229     0.99378      1.1239      1.2583      1.3913      1.5161      1.6260    
  1.7151      1.7780      1.8105      1.8104      1.7780      1.7153      1.6261      1.5157      1.3910      1.2585    
  1.1000     0.98070     0.86710     0.76315     0.67150     0.59406     0.53254     0.48815     0.46130     0.45211    
 0.46097     0.48804     0.53272     0.59411     0.67138     0.76323     0.86732     0.98058      1.0996      1.2199    
  1.3360      1.4417      1.5314      1.5999      1.6428      1.6572      1.6425      1.5997      1.5315      1.4416    
  1.3358      1.2200      1.0613     0.95535     0.85223     0.75587     0.66918     0.59410     0.53227     0.48515    
 0.45350     0.43745     0.43724     0.45320     0.48516     0.53234     0.59396     0.66912     0.75615     0.85249    
 0.95520      1.0610      1.1655      1.2636      1.3500      1.4200      1.4694      1.4948      1.4946      1.4691    
  1.4200      1.3501      1.2635      1.1655      1.0106     0.91938     0.82862     0.74199     0.66252     0.59222    
 0.53257     0.48505     0.45074     0.43000     0.42293     0.42981     0.45073     0.48521     0.53249     0.59193    
 0.66251     0.74229     0.82879     0.91931      1.0106      1.0984      1.1783      1.2462      1.2982      1.3308    
  1.3418      1.3306      1.2982      1.2465      1.1785      1.0983     0.95099     0.87506     0.79784     0.72255    
 0.65212     0.58868     0.53356     0.48801     0.45321     0.42985     0.41806     0.41799     0.42987     0.45349    
 0.48818     0.53333     0.58837     0.65213     0.72268     0.79783     0.87510     0.95125      1.0225      1.0852    
  1.1361      1.1721      1.1908      1.1907      1.1721      1.1364      1.0854      1.0224     0.88594     0.82504    
 0.76183     0.69892     0.63891     0.58395     0.53535     0.49406     0.46110     0.43727     0.42284     0.41792    
 0.42275     0.43739     0.46139     0.49410     0.53512     0.58381     0.63892     0.69879     0.76164     0.82516    
 0.88630     0.94180     0.98887      1.0250      1.0477      1.0553      1.0476      1.0251     0.98905     0.94169    
 0.81877     0.77212     0.72273     0.67267     0.62402     0.57874     0.53818     0.50310     0.47420     0.45218    
 0.43738     0.42983     0.42968     0.43718     0.45223     0.47433     0.50308     0.53816     0.57887     0.62402    
 0.67237     0.72248     0.77225     0.81901     0.86020     0.89367     0.91737     0.92958     0.92946     0.91724    
 0.89371     0.86018     0.75247     0.71893     0.68265     0.64536     0.60859     0.57390     0.54253     0.51518    
 0.49224     0.47417     0.46128     0.45349     0.45074     0.45320     0.46107     0.47416     0.49223     0.51517    
 0.54273     0.57418     0.60859     0.64508     0.68248     0.71898     0.75247     0.78110     0.80315     0.81702    
 0.82163     0.81682     0.80306     0.78116     0.68948     0.66765     0.64348     0.61841     0.59358     0.57007    
 0.54885     0.53048     0.51511     0.50290     0.49398     0.48823     0.48533     0.48522     0.48807     0.49397    
 0.50290     0.51499     0.53043     0.54905     0.57031     0.59361     0.61833     0.64345     0.66759     0.68931    
 0.70727     0.72014     0.72677     0.72666     0.72001     0.70735     0.63167     0.61993     0.60668     0.59300    
 0.57976     0.56764     0.55725     0.54893     0.54262     0.53806     0.53509     0.53343     0.53266     0.53242    
 0.53268     0.53358     0.53526     0.53801     0.54236     0.54876     0.55729     0.56775     0.57985     0.59312    
 0.60676     0.61985     0.63150     0.64080     0.64679     0.64879     0.64671     0.64084     0.58052     0.57702    
 0.57329     0.57000     0.56772     0.56683     0.56760     0.57011     0.57408     0.57890     0.58391     0.58850    
 0.59205     0.59399     0.59402     0.59220     0.58874     0.58405     0.57879     0.57384     0.56992     0.56751    
 0.56681     0.56781     0.57018     0.57341     0.57700     0.58045     0.58320     0.58471     0.58469     0.58320    
 0.53715     0.53987     0.54403     0.54991     0.55777     0.56771     0.57968     0.59347     0.60859     0.62417    
 0.63910     0.65223     0.66252     0.66905     0.67127     0.66901     0.66251     0.65229     0.63917     0.62420    
 0.60859     0.59341     0.57955     0.56759     0.55778     0.55002     0.54413     0.53990     0.53715     0.53563    
 0.53514     0.53562     0.50241     0.50922     0.51943     0.53301     0.54994     0.57004     0.59300     0.61832    
 0.64521     0.67256     0.69893     0.72268     0.74219     0.75602     0.76315     0.76306     0.75580     0.74198    
 0.72261     0.69905     0.67279     0.64541     0.61837     0.59290     0.56989     0.54986     0.53302     0.51948    
 0.50926     0.50243     0.49900     0.49900     0.47701     0.48564     0.49986     0.51942     0.54404     0.57332    
 0.60675     0.64356     0.68266     0.72261     0.76164     0.79771     0.82864     0.85238     0.86732     0.87238    
 0.86721     0.85220     0.82845     0.79765     0.76174     0.72280     0.68282     0.64364     0.60673     0.57324    
 0.54395     0.51939     0.49987     0.48566     0.47701     0.47411     0.46151     0.46962     0.48563     0.50921    
 0.53986     0.57700     0.61992     0.66772     0.71909     0.77225     0.82503     0.87491     0.91919     0.95521    
 0.98068     0.99391     0.99398     0.98080     0.95528     0.91915     0.87480     0.82491     0.77218     0.71912    
 0.66783     0.62002     0.57701     0.53983     0.50919     0.48564     0.46961     0.46150     0.57860     0.58557    
 0.60639     0.64082     0.68842     0.74849     0.82005     0.90174     0.99158      1.0867      1.1835      1.2775    
  1.3638      1.4374      1.4937      1.5292      1.5414      1.5294      1.4940      1.4376      1.3638      1.2773    
  1.1832      1.0865     0.99158     0.90189     0.82020     0.74855     0.68843     0.64083     0.60640     0.58557    
 0.58558     0.58558     0.60250     0.63618     0.68624     0.75207     0.83266     0.92657      1.0317      1.1452    
  1.2629      1.3799      1.4904      1.5883      1.6678      1.7239      1.7529      1.7530      1.7240      1.6680    
  1.5884      1.4904      1.3798      1.2628      1.1451      1.0317     0.92663     0.83272     0.75210     0.68626    
 0.63618     0.60250     0.60641     0.59646     0.60640     0.63618     0.68554     0.75400     0.84072     0.94433    
  1.0627      1.1928      1.3305      1.4705      1.6062      1.7307      1.8366      1.9176      1.9684      1.9856    
  1.9682      1.9174      1.8365      1.7307      1.6064      1.4707      1.3306      1.1928      1.0626     0.94426    
 0.84071     0.75401     0.68554     0.63618     0.64085     0.61809     0.61806     0.64082     0.68624     0.75398    
 0.84343     0.95351      1.0823      1.2267      1.3825      1.5442      1.7049      1.8566      1.9911      2.1004    
  2.1776      2.2174      2.2173      2.1773      2.1002      1.9910      1.8567      1.7050      1.5444      1.3826    
  1.2266      1.0821     0.95347     0.84346     0.75398     0.68622     0.68843     0.65021     0.63741     0.65013    
 0.68843     0.75208     0.84065     0.95340      1.0888      1.2441      1.4152      1.5963      1.7805      1.9591    
  2.1229      2.2624      2.3693      2.4365      2.4594      2.4364      2.3693      2.2624      2.1228      1.9590    
  1.7805      1.5964      1.4152      1.2440      1.0888     0.95352     0.84069     0.75202     0.74848     0.69238    
 0.66429     0.66420     0.69230     0.74857     0.83271     0.94421      1.0821      1.2440      1.4262      1.6232    
  1.8280      2.0316      2.2239      2.3943      2.5329      2.6308      2.6816      2.6817      2.6311      2.5332    
  2.3945      2.2237      2.0313      1.8279      1.6233      1.4262      1.2440      1.0822     0.94435     0.83263    
 0.82002     0.74394     0.69838     0.68308     0.69819     0.74395     0.82024     0.92666      1.0626      1.2265    
  1.4151      1.6231      1.8440      2.0690      2.2875      2.4877      2.6584      2.7892      2.8714      2.8994    
  2.8714      2.7894      2.6587      2.4877      2.2872      2.0689      1.8441      1.6232      1.4150      1.2266    
  1.0628     0.92662     0.90171     0.80403     0.73919     0.70676     0.70658     0.73900     0.80420     0.90192    
  1.0318      1.1929      1.3826      1.5963      1.8278      2.0688      2.3090      2.5361      2.7374      2.9013    
  3.0172      3.0770      3.0768      3.0169      2.9013      2.7376      2.5359      2.3089      2.0690      1.8280    
  1.5962      1.3824      1.1930      1.0319     0.99158     0.87148     0.78606     0.73503     0.71787     0.73473    
 0.78602     0.87173     0.99158      1.1451      1.3307      1.5445      1.7805      2.0313      2.2872      2.5359    
  2.7643      2.9593      3.1089      3.2030      3.2348      3.2024      3.1085      2.9593      2.7643      2.5358    
  2.2874      2.0317      1.7805      1.5441      1.3306      1.1454      1.0868     0.94456     0.83805     0.76751    
 0.73225     0.73203     0.76727     0.83824     0.94471      1.0865      1.2628      1.4707      1.7052      1.9591    
  2.2238      2.4877      2.7373      2.9591      3.1399      3.2681      3.3344      3.3341      3.2677      3.1400    
  2.9592      2.7372      2.4875      2.2240      1.9593      1.7048      1.4704      1.2630      1.1836      1.0208    
 0.89373     0.80348     0.74962     0.73150     0.74931     0.80352     0.89408      1.0207      1.1831      1.3797    
  1.6064      1.8568      2.1229      2.3945      2.6587      2.9012      3.1084      3.2677      3.3681      3.4023    
  3.3679      3.2679      3.1089      2.9012      2.6582      2.3944      2.1231      1.8567      1.6060      1.3798    
  1.2775      1.0969     0.95107     0.84188     0.76960     0.73345     0.73320     0.76939     0.84223     0.95140    
  1.0966      1.2772      1.4903      1.7306      1.9910      2.2625      2.5333      2.7895      3.0170      3.2024    
  3.3340      3.4021      3.4020      3.3340      3.2030      3.0173      2.7891      2.5329      2.2626      1.9913    
  1.7304      1.4902      1.3638      1.1691      1.0074     0.88116     0.79145     0.73787     0.71978     0.73746    
 0.79145     0.88160      1.0075      1.1688      1.3638      1.5884      1.8364      2.1001      2.3693      2.6312    