   3   3   0   0
  0.7897505E+02  0.3190316E-09  0.3190316E-09  0.2687900E-08  0.5000000E-15
  1.000000000000000E-004
  CAR 
 unknown system                          
      6.10018510    -19.46340168  301     -3.42225097      1.00000000
    -19.463  0.0000E+00  0.0000E+00
    -19.378  0.0000E+00  0.0000E+00
    -19.293  0.0000E+00  0.0000E+00
    -19.208  0.0000E+00  0.0000E+00
    -19.123  0.0000E+00  0.0000E+00
    -19.037  0.0000E+00  0.0000E+00
    -18.952  0.0000E+00  0.0000E+00
    -18.867  0.0000E+00  0.0000E+00
    -18.782  0.0000E+00  0.0000E+00
    -18.696  0.0000E+00  0.0000E+00
    -18.611  0.0000E+00  0.0000E+00
    -18.526  0.0000E+00  0.0000E+00
    -18.441  0.0000E+00  0.0000E+00
    -18.356  0.0000E+00  0.0000E+00
    -18.270  0.0000E+00  0.0000E+00
    -18.185  0.0000E+00  0.0000E+00
    -18.100  0.0000E+00  0.0000E+00
    -18.015  0.0000E+00  0.0000E+00
    -17.930  0.0000E+00  0.0000E+00
    -17.844  0.0000E+00  0.0000E+00
    -17.759  0.0000E+00  0.0000E+00
    -17.674  0.0000E+00  0.0000E+00
    -17.589  0.0000E+00  0.0000E+00
    -17.504  0.0000E+00  0.0000E+00
    -17.418  0.1843E+00  0.4155E-02
    -17.333  0.5326E+00  0.3470E-01
    -17.248  0.4779E+00  0.9439E-01
    -17.163  0.5174E+00  0.1368E+00
    -17.077  0.5569E+00  0.1826E+00
    -16.992  0.5964E+00  0.2317E+00
    -16.907  0.6359E+00  0.2842E+00
    -16.822  0.6622E+00  0.3398E+00
    -16.737  0.6693E+00  0.3966E+00
    -16.651  0.6853E+00  0.4540E+00
    -16.566  0.7183E+00  0.5138E+00
    -16.481  0.7513E+00  0.5765E+00
    -16.396  0.7843E+00  0.6419E+00
    -16.311  0.8174E+00  0.7101E+00
    -16.225  0.1387E+01  0.7892E+00
    -16.140  0.2061E+01  0.9708E+00
    -16.055  0.2356E+01  0.1159E+01
    -15.970  0.2676E+01  0.1373E+01
    -15.884  0.2892E+01  0.1610E+01
    -15.799  0.3230E+01  0.1871E+01
    -15.714  0.3568E+01  0.2161E+01
    -15.629  0.4222E+01  0.2617E+01
    -15.544  0.4244E+01  0.2975E+01
    -15.458  0.3766E+01  0.3367E+01
    -15.373  0.3349E+01  0.3777E+01
    -15.288  0.0000E+00  0.4000E+01
    -15.203  0.0000E+00  0.4000E+01
    -15.118  0.0000E+00  0.4000E+01
    -15.032  0.0000E+00  0.4000E+01
    -14.947  0.0000E+00  0.4000E+01
    -14.862  0.0000E+00  0.4000E+01
    -14.777  0.0000E+00  0.4000E+01
    -14.692  0.0000E+00  0.4000E+01
    -14.606  0.0000E+00  0.4000E+01
    -14.521  0.0000E+00  0.4000E+01
    -14.436  0.0000E+00  0.4000E+01
    -14.351  0.0000E+00  0.4000E+01
    -14.265  0.0000E+00  0.4000E+01
    -14.180  0.0000E+00  0.4000E+01
    -14.095  0.0000E+00  0.4000E+01
    -14.010  0.0000E+00  0.4000E+01
    -13.925  0.0000E+00  0.4000E+01
    -13.839  0.0000E+00  0.4000E+01
    -13.754  0.0000E+00  0.4000E+01
    -13.669  0.0000E+00  0.4000E+01
    -13.584  0.0000E+00  0.4000E+01
    -13.499  0.0000E+00  0.4000E+01
    -13.413  0.0000E+00  0.4000E+01
    -13.328  0.0000E+00  0.4000E+01
    -13.243  0.0000E+00  0.4000E+01
    -13.158  0.0000E+00  0.4000E+01
    -13.073  0.0000E+00  0.4000E+01
    -12.987  0.0000E+00  0.4000E+01
    -12.902  0.0000E+00  0.4000E+01
    -12.817  0.0000E+00  0.4000E+01
    -12.732  0.0000E+00  0.4000E+01
    -12.646  0.0000E+00  0.4000E+01
    -12.561  0.0000E+00  0.4000E+01
    -12.476  0.0000E+00  0.4000E+01
    -12.391  0.0000E+00  0.4000E+01
    -12.306  0.0000E+00  0.4000E+01
    -12.220  0.0000E+00  0.4000E+01
    -12.135  0.0000E+00  0.4000E+01
    -12.050  0.0000E+00  0.4000E+01
    -11.965  0.0000E+00  0.4000E+01
    -11.880  0.0000E+00  0.4000E+01
    -11.794  0.0000E+00  0.4000E+01
    -11.709  0.0000E+00  0.4000E+01
    -11.624  0.0000E+00  0.4000E+01
    -11.539  0.0000E+00  0.4000E+01
    -11.453  0.0000E+00  0.4000E+01
    -11.368  0.0000E+00  0.4000E+01
    -11.283  0.0000E+00  0.4000E+01
    -11.198  0.0000E+00  0.4000E+01
    -11.113  0.0000E+00  0.4000E+01
    -11.027  0.0000E+00  0.4000E+01
    -10.942  0.0000E+00  0.4000E+01
    -10.857  0.0000E+00  0.4000E+01
    -10.772  0.0000E+00  0.4000E+01
    -10.687  0.0000E+00  0.4000E+01
    -10.601  0.0000E+00  0.4000E+01
    -10.516  0.0000E+00  0.4000E+01
    -10.431  0.0000E+00  0.4000E+01
    -10.346  0.0000E+00  0.4000E+01
    -10.261  0.0000E+00  0.4000E+01
    -10.175  0.0000E+00  0.4000E+01
    -10.090  0.0000E+00  0.4000E+01
    -10.005  0.0000E+00  0.4000E+01
     -9.920  0.0000E+00  0.4000E+01
     -9.834  0.0000E+00  0.4000E+01
     -9.749  0.0000E+00  0.4000E+01
     -9.664  0.0000E+00  0.4000E+01
     -9.579  0.0000E+00  0.4000E+01
     -9.494  0.0000E+00  0.4000E+01
     -9.408  0.0000E+00  0.4000E+01
     -9.323  0.0000E+00  0.4000E+01
     -9.238  0.0000E+00  0.4000E+01
     -9.153  0.0000E+00  0.4000E+01
     -9.068  0.4675E+00  0.4018E+01
     -8.982  0.9997E+00  0.4080E+01
     -8.897  0.1795E+01  0.4199E+01
     -8.812  0.2634E+01  0.4395E+01
     -8.727  0.2849E+01  0.4636E+01
     -8.641  0.3822E+01  0.4952E+01
     -8.556  0.3158E+01  0.5250E+01
     -8.471  0.4901E+01  0.5520E+01
     -8.386  0.3944E+01  0.5975E+01
     -8.301  0.5255E+01  0.6166E+01
     -8.215  0.2745E+01  0.6498E+01
     -8.130  0.1328E+01  0.6638E+01
     -8.045  0.1192E+01  0.6746E+01
     -7.960  0.1057E+01  0.6841E+01
     -7.875  0.9214E+00  0.6926E+01
     -7.789  0.8328E+00  0.6999E+01
     -7.704  0.8376E+00  0.7070E+01
     -7.619  0.8423E+00  0.7142E+01
     -7.534  0.8471E+00  0.7214E+01
     -7.449  0.1876E+01  0.7302E+01
     -7.363  0.4831E+01  0.7587E+01
     -7.278  0.5176E+01  0.8121E+01
     -7.193  0.5154E+01  0.8542E+01
     -7.108  0.3263E+01  0.8900E+01
     -7.022  0.1453E+01  0.9099E+01
     -6.937  0.1187E+01  0.9207E+01
     -6.852  0.1091E+01  0.9304E+01
     -6.767  0.9948E+00  0.9393E+01
     -6.682  0.8986E+00  0.9474E+01
     -6.596  0.1168E+02  0.1005E+02
     -6.511  0.3834E+01  0.1064E+02
     -6.426  0.2398E+01  0.1090E+02
     -6.341  0.2394E+01  0.1119E+02
     -6.256  0.1838E+01  0.1135E+02
     -6.170  0.1727E+01  0.1150E+02
     -6.085  0.1615E+01  0.1165E+02
     -6.000  0.3479E+01  0.1181E+02
     -5.915  0.2151E+01  0.1206E+02
     -5.829  0.1689E+01  0.1224E+02
     -5.744  0.8722E+00  0.1234E+02
     -5.659  0.8657E+00  0.1241E+02
     -5.574  0.8593E+00  0.1248E+02
     -5.489  0.8529E+00  0.1256E+02
     -5.403  0.3701E+01  0.1273E+02
     -5.318  0.9333E+01  0.1324E+02
     -5.233  0.7023E+01  0.1396E+02
     -5.148  0.1875E+01  0.1435E+02
     -5.063  0.1500E+01  0.1448E+02
     -4.977  0.1451E+01  0.1461E+02
     -4.892  0.1475E+01  0.1473E+02
     -4.807  0.1658E+01  0.1487E+02
     -4.722  0.4212E+01  0.1503E+02
     -4.637  0.3287E+01  0.1543E+02
     -4.551  0.2296E+01  0.1564E+02
     -4.466  0.2720E+01  0.1584E+02
     -4.381  0.6800E+00  0.1599E+02
     -4.296  0.1367E+01  0.1603E+02
     -4.210  0.4232E+01  0.1627E+02
     -4.125  0.3713E+01  0.1661E+02
     -4.040  0.3395E+01  0.1691E+02
     -3.955  0.3029E+01  0.1719E+02
     -3.870  0.2114E+01  0.1741E+02
     -3.784  0.1800E+01  0.1758E+02
     -3.699  0.1487E+01  0.1772E+02
     -3.614  0.1173E+01  0.1783E+02
     -3.529  0.8546E+00  0.1796E+02
     -3.444  0.2021E-01  0.1800E+02
     -3.358  0.0000E+00  0.1800E+02
     -3.273  0.0000E+00  0.1800E+02
     -3.188  0.0000E+00  0.1800E+02
     -3.103  0.0000E+00  0.1800E+02
     -3.017  0.0000E+00  0.1800E+02
     -2.932  0.0000E+00  0.1800E+02
     -2.847  0.0000E+00  0.1800E+02
     -2.762  0.0000E+00  0.1800E+02
     -2.677  0.0000E+00  0.1800E+02
     -2.591  0.0000E+00  0.1800E+02
     -2.506  0.0000E+00  0.1800E+02
     -2.421  0.0000E+00  0.1800E+02
     -2.336  0.0000E+00  0.1800E+02
     -2.251  0.0000E+00  0.1800E+02
     -2.165  0.0000E+00  0.1800E+02
     -2.080  0.0000E+00  0.1800E+02
     -1.995  0.0000E+00  0.1800E+02
     -1.910  0.0000E+00  0.1800E+02
     -1.825  0.0000E+00  0.1800E+02
     -1.739  0.0000E+00  0.1800E+02
     -1.654  0.0000E+00  0.1800E+02
     -1.569  0.6950E+00  0.1806E+02
     -1.484  0.9175E+00  0.1813E+02
     -1.398  0.5844E+01  0.1836E+02
     -1.313  0.8245E+01  0.1897E+02
     -1.228  0.9480E+00  0.1971E+02
     -1.143  0.8014E+00  0.1978E+02
     -1.058  0.3607E+01  0.1990E+02
     -0.972  0.6207E+01  0.2051E+02
     -0.887  0.5622E+01  0.2093E+02
     -0.802  0.4781E+01  0.2133E+02
     -0.717  0.4062E+01  0.2183E+02
     -0.632  0.3292E+01  0.2214E+02
     -0.546  0.2456E+01  0.2239E+02
     -0.461  0.2718E+01  0.2259E+02
     -0.376  0.2627E+01  0.2281E+02
     -0.291  0.1871E+01  0.2307E+02
     -0.205  0.2369E+01  0.2325E+02
     -0.120  0.2036E+01  0.2350E+02
     -0.035  0.1975E+01  0.2367E+02
      0.050  0.1915E+01  0.2384E+02
      0.135  0.1752E+01  0.2400E+02
      0.221  0.1916E+01  0.2417E+02
      0.306  0.1623E+01  0.2432E+02
      0.391  0.1251E+01  0.2444E+02
      0.476  0.9584E+00  0.2453E+02
      0.561  0.1058E+01  0.2462E+02
      0.647  0.1158E+01  0.2471E+02
      0.732  0.3001E+01  0.2485E+02
      0.817  0.1381E+02  0.2528E+02
      0.902  0.1808E+01  0.2551E+02
      0.987  0.1480E+01  0.2565E+02
      1.073  0.1152E+01  0.2576E+02
      1.158  0.1104E+01  0.2585E+02
      1.243  0.1269E+01  0.2595E+02
      1.328  0.0000E+00  0.2600E+02
      1.414  0.0000E+00  0.2600E+02
      1.499  0.0000E+00  0.2600E+02
      1.584  0.0000E+00  0.2600E+02
      1.669  0.0000E+00  0.2600E+02
      1.754  0.0000E+00  0.2600E+02
      1.840  0.0000E+00  0.2600E+02
      1.925  0.0000E+00  0.2600E+02
      2.010  0.2372E-01  0.2600E+02
      2.095  0.1406E+00  0.2601E+02
      2.180  0.2575E+00  0.2602E+02
      2.266  0.3744E+00  0.2605E+02
      2.351  0.4913E+00  0.2609E+02
      2.436  0.3164E+00  0.2612E+02
      2.521  0.3384E+00  0.2614E+02
      2.606  0.3603E+00  0.2617E+02
      2.692  0.3823E+00  0.2621E+02
      2.777  0.4552E+00  0.2624E+02
      2.862  0.5979E+00  0.2628E+02
      2.947  0.7405E+00  0.2634E+02
      3.033  0.8667E+00  0.2641E+02
      3.118  0.9740E+00  0.2649E+02
      3.203  0.1101E+01  0.2658E+02
      3.288  0.1656E+01  0.2669E+02
      3.373  0.1685E+01  0.2683E+02
      3.459  0.1714E+01  0.2697E+02
      3.544  0.2062E+01  0.2716E+02
      3.629  0.2092E+01  0.2734E+02
      3.714  0.2052E+01  0.2752E+02
      3.799  0.1611E+01  0.2767E+02
      3.885  0.1171E+01  0.2779E+02
      3.970  0.1603E+01  0.2790E+02
      4.055  0.5546E+00  0.2799E+02
      4.140  0.0000E+00  0.2800E+02
      4.226  0.0000E+00  0.2800E+02
      4.311  0.0000E+00  0.2800E+02
      4.396  0.0000E+00  0.2800E+02
      4.481  0.0000E+00  0.2800E+02
      4.566  0.0000E+00  0.2800E+02
      4.652  0.0000E+00  0.2800E+02
      4.737  0.0000E+00  0.2800E+02
      4.822  0.0000E+00  0.2800E+02
      4.907  0.0000E+00  0.2800E+02
      4.992  0.0000E+00  0.2800E+02
      5.078  0.0000E+00  0.2800E+02
      5.163  0.0000E+00  0.2800E+02
      5.248  0.0000E+00  0.2800E+02
      5.333  0.0000E+00  0.2800E+02
      5.418  0.0000E+00  0.2800E+02
      5.504  0.0000E+00  0.2800E+02
      5.589  0.0000E+00  0.2800E+02
      5.674  0.0000E+00  0.2800E+02
      5.759  0.0000E+00  0.2800E+02
      5.845  0.0000E+00  0.2800E+02
      5.930  0.0000E+00  0.2800E+02
      6.015  0.0000E+00  0.2800E+02
      6.100  0.0000E+00  0.2800E+02
