    3    3    1    1
  0.7897505E+02  0.3190316E-09  0.3190316E-09  0.2687900E-08  0.5000000E-15
  1.000000000000000E-004
  CAR 
 unknown system                          
     18     10     14
 
  0.0000000E+00  0.0000000E+00  0.0000000E+00  0.1562500E-01
    1      -17.463402   1.000000
    2      -16.255359   1.000000
    3       -8.983780   1.000000
    4       -6.022923   1.000000
    5       -6.022919   1.000000
    6       -5.161630   1.000000
    7       -4.917301   1.000000
    8       -4.917266   1.000000
    9       -3.441490   1.000000
   10       -0.669713   0.000000
   11       -0.669687   0.000000
   12       -0.445969   0.000000
   13       -0.445954   0.000000
   14        1.992723   0.000000
 
  0.1250000E+00  0.0000000E+00  0.0000000E+00  0.9375000E-01
    1      -17.249232   1.000000
    2      -16.152964   1.000000
    3       -8.739230   1.000000
    4       -6.486321   1.000000
    5       -5.969622   1.000000
    6       -5.788485   1.000000
    7       -5.253017   1.000000
    8       -4.484052   1.000000
    9       -3.579865   1.000000
   10       -0.949896   0.000000
   11       -0.884110   0.000000
   12       -0.682576   0.000000
   13       -0.314918   0.000000
   14        2.362426   0.000000
 
  0.2500000E+00  0.0000000E+00  0.0000000E+00  0.9375000E-01
    1      -16.680475   1.000000
    2      -15.884152   1.000000
    3       -8.373075   1.000000
    4       -7.212907   1.000000
    5       -6.950456   1.000000
    6       -5.888023   1.000000
    7       -5.201380   1.000000
    8       -4.735644   1.000000
    9       -4.147764   1.000000
   10       -1.274163   0.000000
   11       -1.097433   0.000000
   12       -0.555481   0.000000
   13        0.302009   0.000000
   14        3.177895   0.000000
 
  0.3750000E+00  0.0000000E+00  0.0000000E+00  0.9375000E-01
    1      -16.005340   1.000000
    2      -15.575683   1.000000
    3       -8.810332   1.000000
    4       -7.817877   1.000000
    5       -7.345788   1.000000
    6       -6.385361   1.000000
    7       -5.144952   1.000000
    8       -4.610796   1.000000
    9       -4.342907   1.000000
   10       -1.279065   0.000000
   11       -1.000226   0.000000
   12        0.163052   0.000000
   13        0.695306   0.000000
   14        3.701507   0.000000
 
  0.5000000E+00  0.0000000E+00  0.0000000E+00  0.4687500E-01
    1      -15.677069   1.000000
    2      -15.432335   1.000000
    3       -9.143035   1.000000
    4       -8.182833   1.000000
    5       -7.472068   1.000000
    6       -6.565934   1.000000
    7       -5.283794   1.000000
    8       -4.383662   1.000000
    9       -4.062064   1.000000
   10       -1.256833   0.000000
   11       -0.740847   0.000000
   12        0.461679   0.000000
   13        0.810728   0.000000
   14        2.740918   0.000000
 
  0.1250000E+00  0.1250000E+00  0.0000000E+00  0.9375000E-01
    1      -16.856408   1.000000
    2      -15.965923   1.000000
    3       -8.391925   1.000000
    4       -7.050337   1.000000
    5       -6.531757   1.000000
    6       -6.066867   1.000000
    7       -5.448989   1.000000
    8       -4.349541   1.000000
    9       -3.951720   1.000000
   10       -1.349212   0.000000
   11       -0.970977   0.000000
   12       -0.959292   0.000000
   13        0.279866   0.000000
   14        2.992806   0.000000
 
  0.2500000E+00  0.1250000E+00  0.0000000E+00  0.1875000E+00
    1      -16.222800   1.000000
    2      -15.667342   1.000000
    3       -8.454615   1.000000
    4       -7.477001   1.000000
    5       -7.213973   1.000000
    6       -6.571169   1.000000
    7       -5.349531   1.000000
    8       -4.711777   1.000000
    9       -4.235273   1.000000
   10       -1.432630   0.000000
   11       -0.984194   0.000000
   12       -0.489313   0.000000
   13        0.787620   0.000000
   14        3.947521   0.000000
 
  0.3750000E+00  0.1250000E+00  0.0000000E+00  0.1875000E+00
    1      -15.692308   1.000000
    2      -15.423389   1.000000
    3       -8.855658   1.000000
    4       -8.240049   1.000000
    5       -7.344312   1.000000
    6       -6.587985   1.000000
    7       -5.334340   1.000000
    8       -5.193616   1.000000
    9       -3.908340   1.000000
   10       -1.237937   0.000000
   11       -0.727654   0.000000
   12        0.132462   0.000000
   13        0.821250   0.000000
   14        3.267812   0.000000
 
  0.2500000E+00  0.2500000E+00  0.0000000E+00  0.9375000E-01
    1      -15.707265   1.000000
    2      -15.414399   1.000000
    3       -8.495246   1.000000
    4       -8.290797   1.000000
    5       -7.017187   1.000000
    6       -6.636316   1.000000
    7       -6.317181   1.000000
    8       -5.060155   1.000000
    9       -3.937218   1.000000
   10       -1.288900   0.000000
   11       -0.677947   0.000000
   12       -0.366128   0.000000
   13        1.109265   0.000000
   14        4.100185   0.000000
 
  0.3750000E+00  0.2500000E+00  0.0000000E+00  0.9375000E-01
    1      -15.472362   1.000000
    2      -15.295232   1.000000
    3       -8.675205   1.000000
    4       -8.326275   1.000000
    5       -7.301472   1.000000
    6       -6.638866   1.000000
    7       -6.408690   1.000000
    8       -5.446452   1.000000
    9       -3.569786   1.000000
   10       -1.614596   0.000000
   11       -0.307720   0.000000
   12       -0.127305   0.000000
   13        1.254521   0.000000
   14        3.510827   0.000000
