 vasp.5.4.4.18Apr17-6-g9f103f2a35 (build Jun 30 2017 11:15:00) complex          
  
 executed on    STALLO_VASP_5.4.4 date 2019.11.08  11:57:50
 running on    4 total cores
 distrk:  each k-point on    4 cores,    1 groups
 distr:  one band on NCORES_PER_BAND=   2 cores,    2 groups


--------------------------------------------------------------------------------------------------------


 INCAR:
 POTCAR:   PAW_PBE Mo 08Apr2002                   
 POTCAR:    PAW_PBE S 17Jan2003                   
 POTCAR:   PAW_PBE Mo 08Apr2002                   
   VRHFIN =Mo: 4p5s4d                                                           
   LEXCH  = PE                                                                  
   EATOM  =   217.5180 eV,   15.9871 Ry                                         
                                                                                
   TITEL  = PAW_PBE Mo 08Apr2002                                                
   LULTRA =        F    use ultrasoft PP ?                                      
   IUNSCR =        1    unscreen: 0-lin 1-nonlin 2-no                           
   RPACOR =    2.200    partial core radius                                     
   POMASS =   95.940; ZVAL   =    6.000    mass and valenz                      
   RCORE  =    2.750    outmost cutoff radius                                   
   RWIGS  =    2.750; RWIGS  =    1.455    wigner-seitz radius (au A)           
   ENMAX  =  224.584; ENMIN  =  168.438 eV                                      
   RCLOC  =    2.111    cutoff for local pot                                    
   LCOR   =        T    correct aug charges                                     
   LPAW   =        T    paw PP                                                  
   EAUG   =  345.278                                                            
   DEXC   =    -.088                                                            
   RMAX   =    3.077    core radius for proj-oper                               
   RAUG   =    1.300    factor for augmentation sphere                          
   RDEP   =    2.815    radius for radial grids                                 
   QCUT   =   -4.063; QGAM   =    8.126    optimization parameters              
                                                                                
   Description                                                                  
     l     E      TYP  RCUT    TYP  RCUT                                        
     2   .000     23  2.500                                                     
     2   .000     23  2.500                                                     
     0   .000     23  2.600                                                     
     0  1.000     23  2.600                                                     
     1   .400     23  2.750                                                     
     1  2.000     23  2.750                                                     
     3   .000      7   .000                                                     
  local pseudopotential read in
  partial core-charges read in
  atomic valenz-charges read in
  non local Contribution for L=           2  read in
    real space projection operators read in
  non local Contribution for L=           2  read in
    real space projection operators read in
  non local Contribution for L=           0  read in
    real space projection operators read in
  non local Contribution for L=           0  read in
    real space projection operators read in
  non local Contribution for L=           1  read in
    real space projection operators read in
  non local Contribution for L=           1  read in
    real space projection operators read in
    PAW grid and wavefunctions read in
 
   number of l-projection  operators is LMAX  =           6
   number of lm-projection operators is LMMAX =          18
 
 POTCAR:    PAW_PBE S 17Jan2003                   
   VRHFIN =S : s2p4                                                             
   LEXCH  = PE                                                                  
   EATOM  =   276.8230 eV,   20.3459 Ry                                         
                                                                                
   TITEL  = PAW_PBE S 17Jan2003                                                 
   LULTRA =        F    use ultrasoft PP ?                                      
   IUNSCR =        1    unscreen: 0-lin 1-nonlin 2-no                           
   RPACOR =    1.500    partial core radius                                     
   POMASS =   32.066; ZVAL   =    6.000    mass and valenz                      
   RCORE  =    1.900    outmost cutoff radius                                   
   RWIGS  =    2.200; RWIGS  =    1.164    wigner-seitz radius (au A)           
   ENMAX  =  280.000; ENMIN  =  194.016 eV                                      
   ICORE  =        2    local potential                                         
   LCOR   =        T    correct aug charges                                     
   LPAW   =        T    paw PP                                                  
   EAUG   =  335.092                                                            
   DEXC   =     .000                                                            
   RMAX   =    2.867    core radius for proj-oper                               
   RAUG   =    1.300    factor for augmentation sphere                          
   RDEP   =    1.954    radius for radial grids                                 
   QCUT   =   -4.360; QGAM   =    8.721    optimization parameters              
                                                                                
   Description                                                                  
     l     E      TYP  RCUT    TYP  RCUT                                        
     0   .000     23  1.900                                                     
     0   .000     23  1.900                                                     
     1   .000     23  1.900                                                     
     1   .000     23  1.900                                                     
     2   .000     23  1.900                                                     
  local pseudopotential read in
  partial core-charges read in
  atomic valenz-charges read in
  non local Contribution for L=           0  read in
    real space projection operators read in
  non local Contribution for L=           0  read in
    real space projection operators read in
  non local Contribution for L=           1  read in
    real space projection operators read in
  non local Contribution for L=           1  read in
    real space projection operators read in
    PAW grid and wavefunctions read in
 
   number of l-projection  operators is LMAX  =           4
   number of lm-projection operators is LMMAX =           8
 
 PAW_PBE Mo 08Apr2002                   :
 energy of atom  1       EATOM= -217.5180
 kinetic energy error for atom=    0.0025 (will be added to EATOM!!)
  PAW_PBE S 17Jan2003                   :
 energy of atom  2       EATOM= -276.8230
 kinetic energy error for atom=    0.0046 (will be added to EATOM!!)
 
 
 POSCAR: MoS2_mp-2815_computed                   
  positions in cartesian coordinates
  velocities in cartesian coordinates
  No initial velocities read in
 exchange correlation table for  LEXCH =        8
   RHO(1)=    0.500       N(1)  =     2000
   RHO(2)=  100.500       N(2)  =     4000
 


--------------------------------------------------------------------------------------------------------


 ion  position               nearest neighbor table
   1  0.333  0.667  0.138-   3 2.42   2 2.42   2 2.42   3 2.42   3 2.42   2 2.42
   2  0.667  0.333  0.080-   1 2.42   1 2.42   1 2.42
   3  0.667  0.333  0.197-   1 2.42   1 2.42   1 2.42
 
  LATTYP: Found a hexagonal cell.
 ALAT       =     3.1903157300
 C/A-ratio  =     8.4251862746
  
  Lattice vectors:
  
 A1 = (   3.1903157300,   0.0000000000,   0.0000000000)
 A2 = (  -1.5951578650,   2.7628944683,   0.0000000000)
 A3 = (   0.0000000000,   0.0000000000,  26.8790043000)


Analysis of symmetry for initial positions (statically):
=====================================================================
 Subroutine PRICEL returns:
 Original cell was already a primitive cell.
 

 Routine SETGRP: Setting up the symmetry group for a 
 hexagonal supercell.


 Subroutine GETGRP returns: Found 12 space group operations
 (whereof  6 operations were pure point group operations)
 out of a pool of 24 trial point group operations.


The static configuration has the point symmetry C_3v.
 The point group associated with its full space group is D_3h.


Analysis of symmetry for dynamics (positions and initial velocities):
=====================================================================
 Subroutine PRICEL returns:
 Original cell was already a primitive cell.
 

 Routine SETGRP: Setting up the symmetry group for a 
 hexagonal supercell.


 Subroutine GETGRP returns: Found 12 space group operations
 (whereof  6 operations were pure point group operations)
 out of a pool of 24 trial point group operations.


The dynamic configuration has the point symmetry C_3v.
 The point group associated with its full space group is D_3h.


 Subroutine INISYM returns: Found 12 space group operations
 (whereof  6 operations are pure point group operations),
 and found     1 'primitive' translations

 
 
 KPOINTS: k-density: 4.0                          

Automatic generation of k-mesh.
Space group operators:
 irot       det(A)        alpha          n_x          n_y          n_z        tau_x        tau_y        tau_z
    1     1.000000     0.000001     1.000000     0.000000     0.000000     0.000000     0.000000     0.000000
    2     1.000000   120.000000     0.000000     0.000000    -1.000000     0.000000     0.000000     0.000000
    3     1.000000   120.000000     0.000000     0.000000     1.000000     0.000000     0.000000     0.000000
    4    -1.000000   179.999999     1.000000    -0.000000     0.000000     0.000000     0.000000     0.000000
    5    -1.000000   180.000000     0.500000    -0.866025     0.000000     0.000000     0.000000     0.000000
    6    -1.000000   180.000000    -0.500000    -0.866025     0.000000     0.000000     0.000000     0.000000
    7    -1.000000    60.000000     0.000000     0.000000    -1.000000    -0.000000     0.000000     0.276777
    8    -1.000000   180.000000     0.000000     0.000000     1.000000     0.000000     0.000000     0.276777
    9    -1.000000    60.000000     0.000000     0.000000     1.000000     0.000000     0.000001     0.276777
   10     1.000000   180.000000     0.866025    -0.500000     0.000000     0.000000     0.000000     0.276777
   11     1.000000   180.000000     0.000000     1.000000     0.000000     0.000000     0.000000     0.276777
   12     1.000000   179.999999     0.866025     0.500000     0.000000    -0.000000     0.000001     0.276777
 
 Subroutine IBZKPT returns following result:
 ===========================================
 
 Found     10 irreducible k-points:
 
 Following reciprocal coordinates:
            Coordinates               Weight
  0.000000  0.000000  0.000000      1.000000
  0.125000  0.000000  0.000000      6.000000
  0.250000  0.000000  0.000000      6.000000
  0.375000  0.000000  0.000000      6.000000
  0.500000  0.000000  0.000000      3.000000
  0.125000  0.125000  0.000000      6.000000
  0.250000  0.125000  0.000000     12.000000
  0.375000  0.125000  0.000000     12.000000
  0.250000  0.250000  0.000000      6.000000
  0.375000  0.250000  0.000000      6.000000
 
 Following cartesian coordinates:
            Coordinates               Weight
  0.000000  0.000000  0.000000      1.000000
  0.039181  0.022621  0.000000      6.000000
  0.078362  0.045242  0.000000      6.000000
  0.117543  0.067864  0.000000      6.000000
  0.156724  0.090485  0.000000      3.000000
  0.039181  0.067864  0.000000      6.000000
  0.078362  0.090485  0.000000     12.000000
  0.117543  0.113106  0.000000     12.000000
  0.078362  0.135727  0.000000      6.000000
  0.117543  0.158348  0.000000      6.000000
 
 TETIRR: Found     36 inequivalent tetrahedra from      384


--------------------------------------------------------------------------------------------------------




 Dimension of arrays:
   k-points           NKPTS =     10   k-points in BZ     NKDIM =     10   number of bands    NBANDS=     14
   number of dos      NEDOS =    301   number of ions     NIONS =      3
   non local maximal  LDIM  =      6   non local SUM 2l+1 LMDIM =     18
   total plane-waves  NPLWV =  35840
   max r-space proj   IRMAX =      1   max aug-charges    IRDMAX=   9911
   dimension x,y,z NGX =    16 NGY =   16 NGZ =  140
   dimension x,y,z NGXF=    32 NGYF=   32 NGZF=  280
   support grid    NGXF=    32 NGYF=   32 NGZF=  280
   ions per type =               1   2
   NGX,Y,Z   is equivalent  to a cutoff of   8.34,  8.34,  8.66 a.u.
   NGXF,Y,Z  is equivalent  to a cutoff of  16.68, 16.68, 17.32 a.u.

 SYSTEM =  unknown system                          
 POSCAR =  MoS2_mp-2815_computed                   

 Startparameter for this run:
   NWRITE =      2    write-flag & timer
   PREC   = normal    normal or accurate (medium, high low for compatibility)
   ISTART =      0    job   : 0-new  1-cont  2-samecut
   ICHARG =      2    charge: 1-file 2-atom 10-const
   ISPIN  =      1    spin polarized calculation?
   LNONCOLLINEAR =      F non collinear calculations
   LSORBIT =      F    spin-orbit coupling
   INIWAV =      1    electr: 0-lowe 1-rand  2-diag
   LASPH  =      F    aspherical Exc in radial PAW
   METAGGA=      F    non-selfconsistent MetaGGA calc.

 Electronic Relaxation 1
   ENCUT  =  400.0 eV  29.40 Ry    5.42 a.u.   5.20  5.20 43.83*2*pi/ulx,y,z
   ENINI  =  400.0     initial cutoff
   ENAUG  =  345.3 eV  augmentation charge cutoff
   NELM   =     60;   NELMIN=  4; NELMDL= -5     # of ELM steps 
   EDIFF  = 0.1E-04   stopping-criterion for ELM
   LREAL  =      F    real-space projection
   NLSPLINE    = F    spline interpolate recip. space projectors
   LCOMPAT=      F    compatible to vasp.4.4
   GGA_COMPAT  = T    GGA compatible to vasp.4.4-vasp.4.6
   LMAXPAW     = -100 max onsite density
   LMAXMIX     =    2 max onsite mixed and CHGCAR
   VOSKOWN=      0    Vosko Wilk Nusair interpolation
   ROPT   =    0.00000   0.00000
 Ionic relaxation
   EDIFFG = 0.1E-03   stopping-criterion for IOM
   NSW    =      0    number of steps for IOM
   NBLOCK =      1;   KBLOCK =      1    inner block; outer block 
   IBRION =     -1    ionic relax: 0-MD 1-quasi-New 2-CG
   NFREE  =      0    steps in history (QN), initial steepest desc. (CG)
   ISIF   =      2    stress and relaxation
   IWAVPR =     10    prediction:  0-non 1-charg 2-wave 3-comb
   ISYM   =      2    0-nonsym 1-usesym 2-fastsym
   LCORR  =      T    Harris-Foulkes like correction to forces

   POTIM  = 0.5000    time-step for ionic-motion
   TEIN   =    0.0    initial temperature
   TEBEG  =    0.0;   TEEND  =   0.0 temperature during run
   SMASS  =  -3.00    Nose mass-parameter (am)
   estimated Nose-frequenzy (Omega)   =  0.10E-29 period in steps =****** mass=  -0.233E-27a.u.
   SCALEE = 1.0000    scale energy and forces
   NPACO  =    256;   APACO  = 16.0  distance and # of slots for P.C.
   PSTRESS=    0.0 pullay stress

  Mass of Ions in am
   POMASS =  95.94 32.07
  Ionic Valenz
   ZVAL   =   6.00  6.00
  Atomic Wigner-Seitz radii
   RWIGS  =  -1.00 -1.00
  virtual crystal weights 
   VCA    =   1.00  1.00
   NELECT =      18.0000    total number of electrons
   NUPDOWN=      -1.0000    fix difference up-down

 DOS related values:
   EMIN   =  10.00;   EMAX   =-10.00  energy-range for DOS
   EFERMI =   0.00
   ISMEAR =    -5;   SIGMA  =   0.20  broadening in eV -4-tet -1-fermi 0-gaus

 Electronic relaxation 2 (details)
   IALGO  =     68    algorithm
   LDIAG  =      T    sub-space diagonalisation (order eigenvalues)
   LSUBROT=      F    optimize rotation matrix (better conditioning)
   TURBO    =      0    0=normal 1=particle mesh
   IRESTART =      0    0=no restart 2=restart with 2 vectors
   NREBOOT  =      0    no. of reboots
   NMIN     =      0    reboot dimension
   EREF     =   0.00    reference energy to select bands
   IMIX   =      4    mixing-type and parameters
     AMIX     =   0.40;   BMIX     =  1.00
     AMIX_MAG =   1.60;   BMIX_MAG =  1.00
     AMIN     =   0.10
     WC   =   100.;   INIMIX=   1;  MIXPRE=   1;  MAXMIX= -45

 Intra band minimization:
   WEIMIN = 0.0000     energy-eigenvalue tresh-hold
   EBREAK =  0.18E-06  absolut break condition
   DEPER  =   0.30     relativ break condition  

   TIME   =   0.40     timestep for ELM

  volume/ion in A,a.u.               =      78.98       532.95
  Fermi-wavevector in a.u.,A,eV,Ry     =   0.693365  1.310270  6.541070  0.480755
  Thomas-Fermi vector in A             =   1.775558
 
 Write flags
   LWAVE        =      F    write WAVECAR
   LDOWNSAMPLE  =      F    k-point downsampling of WAVECAR
   LCHARG       =      T    write CHGCAR
   LVTOT        =      F    write LOCPOT, total local potential
   LVHAR        =      F    write LOCPOT, Hartree potential only
   LELF         =      F    write electronic localiz. function (ELF)
   LORBIT       =      0    0 simple, 1 ext, 2 COOP (PROOUT), +10 PAW based schemes


 Dipole corrections
   LMONO  =      F    monopole corrections only (constant potential shift)
   LDIPOL =      F    correct potential (dipole corrections)
   IDIPOL =      0    1-x, 2-y, 3-z, 4-all directions 
   EPSILON=  1.0000000 bulk dielectric constant

 Exchange correlation treatment:
   GGA     =    --    GGA type
   LEXCH   =     8    internal setting for exchange type
   VOSKOWN=      0    Vosko Wilk Nusair interpolation
   LHFCALC =     F    Hartree Fock is set to
   LHFONE  =     F    Hartree Fock one center treatment
   AEXX    =    0.0000 exact exchange contribution

 Linear response parameters
   LEPSILON=     F    determine dielectric tensor
   LRPA    =     F    only Hartree local field effects (RPA)
   LNABLA  =     F    use nabla operator in PAW spheres
   LVEL    =     F    velocity operator in full k-point grid
   LINTERFAST=   F  fast interpolation
   KINTER  =     0    interpolate to denser k-point grid
   CSHIFT  =0.1000    complex shift for real part using Kramers Kronig
   OMEGAMAX=  -1.0    maximum frequency
   DEG_THRESHOLD= 0.2000000E-02 threshold for treating states as degnerate
   RTIME   =   -0.100 relaxation time in fs
  (WPLASMAI=    0.000 imaginary part of plasma frequency in eV, 0.658/RTIME)
   DFIELD  = 0.0000000 0.0000000 0.0000000 field for delta impulse in time
 
 Orbital magnetization related:
   ORBITALMAG=     F  switch on orbital magnetization
   LCHIMAG   =     F  perturbation theory with respect to B field
   DQ        =  0.001000  dq finite difference perturbation B field
   LLRAUG    =     F  two centre corrections for induced B field



--------------------------------------------------------------------------------------------------------


 Static calculation
 charge density and potential will be updated during run
 non-spin polarized calculation
 RMM-DIIS sequential band-by-band and
  variant of blocked Davidson during initial phase
 perform sub-space diagonalisation
    before iterative eigenvector-optimisation
 modified Broyden-mixing scheme, WC =      100.0
 initial mixing is a Kerker type mixing with AMIX =  0.4000 and BMIX =      1.0000
 Hartree-type preconditioning will be used
 using additional bands            5
 reciprocal scheme for non local part
 use partial core corrections
 calculate Harris-corrections to forces 
   (improved forces if not selfconsistent)
 use gradient corrections 
 use of overlap-Matrix (Vanderbilt PP)
 Fermi weights with tetrahedron method with Bloechl corrections


--------------------------------------------------------------------------------------------------------


  energy-cutoff  :      400.00
  volume of cell :      236.93
      direct lattice vectors                 reciprocal lattice vectors
     3.190315730  0.000000000  0.000000000     0.313448600  0.180969634  0.000000000
    -1.595157865  2.762894468  0.000000000     0.000000000  0.361939267  0.000000000
     0.000000000  0.000000000 26.879004300     0.000000000  0.000000000  0.037203759

  length of vectors
     3.190315730  3.190315730 26.879004300     0.361939267  0.361939267  0.037203759


 
 k-points in units of 2pi/SCALE and weight: k-density: 4.0                          
   0.00000000  0.00000000  0.00000000       0.016
   0.03918108  0.02262120  0.00000000       0.094
   0.07836215  0.04524241  0.00000000       0.094
   0.11754323  0.06786361  0.00000000       0.094
   0.15672430  0.09048482  0.00000000       0.047
   0.03918108  0.06786361  0.00000000       0.094
   0.07836215  0.09048482  0.00000000       0.188
   0.11754323  0.11310602  0.00000000       0.188
   0.07836215  0.13572723  0.00000000       0.094
   0.11754323  0.15834843  0.00000000       0.094
 
 k-points in reciprocal lattice and weights: k-density: 4.0                          
   0.00000000  0.00000000  0.00000000       0.016
   0.12500000  0.00000000  0.00000000       0.094
   0.25000000  0.00000000  0.00000000       0.094
   0.37500000  0.00000000  0.00000000       0.094
   0.50000000  0.00000000  0.00000000       0.047
   0.12500000  0.12500000  0.00000000       0.094
   0.25000000  0.12500000  0.00000000       0.188
   0.37500000  0.12500000  0.00000000       0.188
   0.25000000  0.25000000  0.00000000       0.094
   0.37500000  0.25000000  0.00000000       0.094
 
 position of ions in fractional coordinates (direct lattice) 
   0.33333300  0.66666700  0.13838872
   0.66666700  0.33333300  0.08016914
   0.66666600  0.33333300  0.19660830
 
 position of ions in cartesian coordinates  (Angst):
  -0.00000160  1.84193057  3.71975108
   1.59515946  0.92096390  2.15486668
   1.59515627  0.92096390  5.28463547
 


--------------------------------------------------------------------------------------------------------


 k-point  1 :   0.0000 0.0000 0.0000  plane waves:    4299
 k-point  2 :   0.1250 0.0000 0.0000  plane waves:    4287
 k-point  3 :   0.2500 0.0000 0.0000  plane waves:    4295
 k-point  4 :   0.3750 0.0000 0.0000  plane waves:    4331
 k-point  5 :   0.5000 0.0000 0.0000  plane waves:    4328
 k-point  6 :   0.1250 0.1250 0.0000  plane waves:    4299
 k-point  7 :   0.2500 0.1250 0.0000  plane waves:    4311
 k-point  8 :   0.3750 0.1250 0.0000  plane waves:    4313
 k-point  9 :   0.2500 0.2500 0.0000  plane waves:    4297
 k-point 10 :   0.3750 0.2500 0.0000  plane waves:    4287

 maximum and minimum number of plane-waves per node :      2182     2137

 maximum number of plane-waves:      4331
 maximum index in each direction: 
   IXMAX=    5   IYMAX=    5   IZMAX=   43
   IXMIN=   -5   IYMIN=   -5   IZMIN=  -43


 parallel 3D FFT for wavefunctions:
    minimum data exchange during FFTs selected (reduces bandwidth)
 parallel 3D FFT for charge:
    minimum data exchange during FFTs selected (reduces bandwidth)


 total amount of memory used by VASP MPI-rank0    46605. kBytes
=======================================================================

   base      :      30000. kBytes
   nonl-proj :       6388. kBytes
   fftplans  :       2961. kBytes
   grid      :       4753. kBytes
   one-center:         31. kBytes
   wavefun   :       2472. kBytes
 
     INWAV:  cpu time    0.0000: real time    0.0005
 Broyden mixing: mesh for mixing (old mesh)
   NGX = 11   NGY = 11   NGZ = 87
  (NGX  = 32   NGY  = 32   NGZ  =280)
  gives a total of  10527 points

 initial charge density was supplied:
 charge density of overlapping atoms calculated
 number of electron      18.0000000 magnetization 
 keeping initial charge density in first step


--------------------------------------------------------------------------------------------------------


 Maximum index for augmentation-charges         2347 (set IRDMAX)


--------------------------------------------------------------------------------------------------------


 First call to EWALD:  gamma=   0.286
 Maximum number of real-space cells 6x 6x 1
 Maximum number of reciprocal cells 2x 2x10

    FEWALD:  cpu time    0.0020: real time    0.0015


--------------------------------------- Iteration      1(   1)  ---------------------------------------


    POTLOK:  cpu time    0.0420: real time    0.1335
    SETDIJ:  cpu time    0.0030: real time    0.0034
     EDDAV:  cpu time    0.1780: real time    0.1831
 BZINTS: Fermi energy:  6.628607; 18.000000 electrons
         Band energy: -12.967941;  BLOECHL correction: -0.217138
       DOS:  cpu time    0.0010: real time    0.0010
    --------------------------------------------
      LOOP:  cpu time    0.2240: real time    0.3210

 eigenvalue-minimisations  :   280
 total energy-change (2. order) : 0.1304763E+03  (-0.5244965E+03)
 number of electron      18.0000000 magnetization 
 augmentation part       18.0000000 magnetization 

 Free energy of the ion-electron system (eV)
  ---------------------------------------------------
  alpha Z        PSCENC =        12.51390764
  Ewald energy   TEWEN  =      4286.25630342
  -Hartree energ DENC   =     -4967.71356795
  -exchange      EXHF   =         0.00000000
  -V(xc)+E(xc)   XCENC  =       -36.31055727
  PAW double counting   =       406.88651198     -329.34073203
  entropy T*S    EENTRO =         0.00000000
  eigenvalues    EBANDS =       -12.96794140
  atomic energy  EATOM  =       771.15234512
  Solvation  Ediel_sol  =         0.00000000
  ---------------------------------------------------
  free energy    TOTEN  =       130.47626952 eV

  energy without entropy =      130.47626952  energy(sigma->0) =      130.47626952


--------------------------------------------------------------------------------------------------------




--------------------------------------- Iteration      1(   2)  ---------------------------------------


     EDDAV:  cpu time    0.2740: real time    0.2750
 BZINTS: Fermi energy: -2.355845; 18.000000 electrons
         Band energy:-151.013834;  BLOECHL correction:  0.000000
       DOS:  cpu time    0.0000: real time    0.0002
    --------------------------------------------
      LOOP:  cpu time    0.2740: real time    0.2752

 eigenvalue-minimisations  :   492
 total energy-change (2. order) :-0.1380459E+03  (-0.1305653E+03)
 number of electron      18.0000000 magnetization 
 augmentation part       18.0000000 magnetization 

 Free energy of the ion-electron system (eV)
  ---------------------------------------------------
  alpha Z        PSCENC =        12.51390764
  Ewald energy   TEWEN  =      4286.25630342
  -Hartree energ DENC   =     -4967.71356795
  -exchange      EXHF   =         0.00000000
  -V(xc)+E(xc)   XCENC  =       -36.31055727
  PAW double counting   =       406.88651198     -329.34073203
  entropy T*S    EENTRO =         0.00000000
  eigenvalues    EBANDS =      -151.01383437
  atomic energy  EATOM  =       771.15234512
  Solvation  Ediel_sol  =         0.00000000
  ---------------------------------------------------
  free energy    TOTEN  =        -7.56962345 eV

  energy without entropy =       -7.56962345  energy(sigma->0) =       -7.56962345


--------------------------------------------------------------------------------------------------------




--------------------------------------- Iteration      1(   3)  ---------------------------------------


     EDDAV:  cpu time    0.2220: real time    0.2218
 BZINTS: Fermi energy: -3.372278; 18.000000 electrons
         Band energy:-166.535254;  BLOECHL correction:  0.000000
       DOS:  cpu time    0.0000: real time    0.0002
    --------------------------------------------
      LOOP:  cpu time    0.2220: real time    0.2220

 eigenvalue-minimisations  :   388
 total energy-change (2. order) :-0.1552142E+02  (-0.1538345E+02)
 number of electron      18.0000000 magnetization 
 augmentation part       18.0000000 magnetization 

 Free energy of the ion-electron system (eV)
  ---------------------------------------------------
  alpha Z        PSCENC =        12.51390764
  Ewald energy   TEWEN  =      4286.25630342
  -Hartree energ DENC   =     -4967.71356795
  -exchange      EXHF   =         0.00000000
  -V(xc)+E(xc)   XCENC  =       -36.31055727
  PAW double counting   =       406.88651198     -329.34073203
  entropy T*S    EENTRO =         0.00000000
  eigenvalues    EBANDS =      -166.53525413
  atomic energy  EATOM  =       771.15234512
  Solvation  Ediel_sol  =         0.00000000
  ---------------------------------------------------
  free energy    TOTEN  =       -23.09104321 eV

  energy without entropy =      -23.09104321  energy(sigma->0) =      -23.09104321


--------------------------------------------------------------------------------------------------------




--------------------------------------- Iteration      1(   4)  ---------------------------------------


     EDDAV:  cpu time    0.2030: real time    0.2039
 BZINTS: Fermi energy: -3.314410; 18.000000 electrons
         Band energy:-166.842549;  BLOECHL correction:  0.000000
       DOS:  cpu time    0.0000: real time    0.0003
    --------------------------------------------
      LOOP:  cpu time    0.2030: real time    0.2042

 eigenvalue-minimisations  :   354
 total energy-change (2. order) :-0.3072952E+00  (-0.3060558E+00)
 number of electron      18.0000000 magnetization 
 augmentation part       18.0000000 magnetization 

 Free energy of the ion-electron system (eV)
  ---------------------------------------------------
  alpha Z        PSCENC =        12.51390764
  Ewald energy   TEWEN  =      4286.25630342
  -Hartree energ DENC   =     -4967.71356795
  -exchange      EXHF   =         0.00000000
  -V(xc)+E(xc)   XCENC  =       -36.31055727
  PAW double counting   =       406.88651198     -329.34073203
  entropy T*S    EENTRO =         0.00000000
  eigenvalues    EBANDS =      -166.84254934
  atomic energy  EATOM  =       771.15234512
  Solvation  Ediel_sol  =         0.00000000
  ---------------------------------------------------
  free energy    TOTEN  =       -23.39833842 eV

  energy without entropy =      -23.39833842  energy(sigma->0) =      -23.39833842


--------------------------------------------------------------------------------------------------------




--------------------------------------- Iteration      1(   5)  ---------------------------------------


     EDDAV:  cpu time    0.2090: real time    0.2121
 BZINTS: Fermi energy: -3.332485; 18.000000 electrons
         Band energy:-166.851130;  BLOECHL correction:  0.000000
       DOS:  cpu time    0.0000: real time    0.0002
    CHARGE:  cpu time    0.0160: real time    0.0163
    MIXING:  cpu time    0.0020: real time    0.0016
    --------------------------------------------
      LOOP:  cpu time    0.2270: real time    0.2302

 eigenvalue-minimisations  :   364
 total energy-change (2. order) :-0.8580542E-02  (-0.8578693E-02)
 number of electron      18.0000009 magnetization 
 augmentation part       -0.9452465 magnetization 

 Broyden mixing:
  rms(total) = 0.68850E+00    rms(broyden)= 0.68848E+00
  rms(prec ) = 0.74577E+00
  weight for this iteration     100.00

 Free energy of the ion-electron system (eV)
  ---------------------------------------------------
  alpha Z        PSCENC =        12.51390764
  Ewald energy   TEWEN  =      4286.25630342
  -Hartree energ DENC   =     -4967.71356795
  -exchange      EXHF   =         0.00000000
  -V(xc)+E(xc)   XCENC  =       -36.31055727
  PAW double counting   =       406.88651198     -329.34073203
  entropy T*S    EENTRO =         0.00000000
  eigenvalues    EBANDS =      -166.85112988
  atomic energy  EATOM  =       771.15234512
  Solvation  Ediel_sol  =         0.00000000
  ---------------------------------------------------
  free energy    TOTEN  =       -23.40691896 eV

  energy without entropy =      -23.40691896  energy(sigma->0) =      -23.40691896


--------------------------------------------------------------------------------------------------------




--------------------------------------- Iteration      1(   6)  ---------------------------------------


    POTLOK:  cpu time    0.0350: real time    0.0364
    SETDIJ:  cpu time    0.0030: real time    0.0024
    EDDIAG:  cpu time    0.0340: real time    0.0342
  RMM-DIIS:  cpu time    0.1480: real time    0.1477
    ORTHCH:  cpu time    0.0030: real time    0.0038
 BZINTS: Fermi energy: -4.402115; 18.000000 electrons
         Band energy:-167.340431;  BLOECHL correction:  0.000000
       DOS:  cpu time    0.0000: real time    0.0002
    CHARGE:  cpu time    0.0160: real time    0.0159
    MIXING:  cpu time    0.0020: real time    0.0013
    --------------------------------------------
      LOOP:  cpu time    0.2410: real time    0.2420

 eigenvalue-minimisations  :   295
 total energy-change (2. order) : 0.1160513E+01  (-0.5447634E+00)
 number of electron      18.0000007 magnetization 
 augmentation part       -0.3989058 magnetization 

 Broyden mixing:
  rms(total) = 0.26180E+00    rms(broyden)= 0.26179E+00
  rms(prec ) = 0.30740E+00
  weight for this iteration     100.00

 eigenvalues of (default mixing * dielectric matrix)
  average eigenvalue GAMMA=   0.8334
  0.8334

 Free energy of the ion-electron system (eV)
  ---------------------------------------------------
  alpha Z        PSCENC =        12.51390764
  Ewald energy   TEWEN  =      4286.25630342
  -Hartree energ DENC   =     -4966.05926916
  -exchange      EXHF   =         0.00000000
  -V(xc)+E(xc)   XCENC  =       -35.42497735
  PAW double counting   =       423.95521784     -347.29950258
  entropy T*S    EENTRO =         0.00000000
  eigenvalues    EBANDS =      -167.34043105
  atomic energy  EATOM  =       771.15234512
  Solvation  Ediel_sol  =         0.00000000
  ---------------------------------------------------
  free energy    TOTEN  =       -22.24640611 eV

  energy without entropy =      -22.24640611  energy(sigma->0) =      -22.24640611


--------------------------------------------------------------------------------------------------------




--------------------------------------- Iteration      1(   7)  ---------------------------------------


    POTLOK:  cpu time    0.0320: real time    0.0326
    SETDIJ:  cpu time    0.0030: real time    0.0024
    EDDIAG:  cpu time    0.0340: real time    0.0338
  RMM-DIIS:  cpu time    0.1420: real time    0.1425
    ORTHCH:  cpu time    0.0040: real time    0.0038
 BZINTS: Fermi energy: -3.847530; 18.000000 electrons
         Band energy:-161.202940;  BLOECHL correction:  0.000000
       DOS:  cpu time    0.0000: real time    0.0002
    CHARGE:  cpu time    0.0160: real time    0.0159
    MIXING:  cpu time    0.0010: real time    0.0013
    --------------------------------------------
      LOOP:  cpu time    0.2320: real time    0.2326

 eigenvalue-minimisations  :   291
 total energy-change (2. order) : 0.3852524E+00  (-0.5527773E-01)
 number of electron      18.0000008 magnetization 
 augmentation part       -0.5989066 magnetization 

 Broyden mixing:
  rms(total) = 0.14988E+00    rms(broyden)= 0.14987E+00
  rms(prec ) = 0.15822E+00
  weight for this iteration     100.00

 eigenvalues of (default mixing * dielectric matrix)
  average eigenvalue GAMMA=   1.3622
  0.6662  2.0581

 Free energy of the ion-electron system (eV)
  ---------------------------------------------------
  alpha Z        PSCENC =        12.51390764
  Ewald energy   TEWEN  =      4286.25630342
  -Hartree energ DENC   =     -4971.43608624
  -exchange      EXHF   =         0.00000000
  -V(xc)+E(xc)   XCENC  =       -35.56911629
  PAW double counting   =       441.40086546     -364.97643305
  entropy T*S    EENTRO =         0.00000000
  eigenvalues    EBANDS =      -161.20293973
  atomic energy  EATOM  =       771.15234512
  Solvation  Ediel_sol  =         0.00000000
  ---------------------------------------------------
  free energy    TOTEN  =       -21.86115367 eV

  energy without entropy =      -21.86115367  energy(sigma->0) =      -21.86115367


--------------------------------------------------------------------------------------------------------




--------------------------------------- Iteration      1(   8)  ---------------------------------------


    POTLOK:  cpu time    0.0320: real time    0.0322
    SETDIJ:  cpu time    0.0030: real time    0.0024
    EDDIAG:  cpu time    0.0340: real time    0.0338
  RMM-DIIS:  cpu time    0.1500: real time    0.1505
    ORTHCH:  cpu time    0.0040: real time    0.0038
 BZINTS: Fermi energy: -3.706666; 18.000000 electrons
         Band energy:-156.989748;  BLOECHL correction:  0.000000
       DOS:  cpu time    0.0000: real time    0.0002
    CHARGE:  cpu time    0.0160: real time    0.0159
    MIXING:  cpu time    0.0020: real time    0.0019
    --------------------------------------------
      LOOP:  cpu time    0.2410: real time    0.2408

 eigenvalue-minimisations  :   305
 total energy-change (2. order) : 0.5972729E-01  (-0.2329895E-01)
 number of electron      18.0000008 magnetization 
 augmentation part       -0.5520884 magnetization 

 Broyden mixing:
  rms(total) = 0.35518E-01    rms(broyden)= 0.35516E-01
  rms(prec ) = 0.37862E-01
  weight for this iteration     100.00

 eigenvalues of (default mixing * dielectric matrix)
  average eigenvalue GAMMA=   1.4992
  1.9164  1.9164  0.6648

 Free energy of the ion-electron system (eV)
  ---------------------------------------------------
  alpha Z        PSCENC =        12.51390764
  Ewald energy   TEWEN  =      4286.25630342
  -Hartree energ DENC   =     -4975.34275540
  -exchange      EXHF   =         0.00000000
  -V(xc)+E(xc)   XCENC  =       -35.29984837
  PAW double counting   =       465.02207143     -389.11370187
  entropy T*S    EENTRO =         0.00000000
  eigenvalues    EBANDS =      -156.98974835
  atomic energy  EATOM  =       771.15234512
  Solvation  Ediel_sol  =         0.00000000
  ---------------------------------------------------
  free energy    TOTEN  =       -21.80142639 eV

  energy without entropy =      -21.80142639  energy(sigma->0) =      -21.80142639


--------------------------------------------------------------------------------------------------------




--------------------------------------- Iteration      1(   9)  ---------------------------------------


    POTLOK:  cpu time    0.0310: real time    0.0322
    SETDIJ:  cpu time    0.0030: real time    0.0024
    EDDIAG:  cpu time    0.0330: real time    0.0337
  RMM-DIIS:  cpu time    0.1700: real time    0.1692
    ORTHCH:  cpu time    0.0030: real time    0.0038
 BZINTS: Fermi energy: -3.634703; 18.000000 electrons
         Band energy:-155.673226;  BLOECHL correction:  0.000000
       DOS:  cpu time    0.0000: real time    0.0002
    CHARGE:  cpu time    0.0160: real time    0.0161
    MIXING:  cpu time    0.0020: real time    0.0015
    --------------------------------------------
      LOOP:  cpu time    0.2580: real time    0.2590

 eigenvalue-minimisations  :   336
 total energy-change (2. order) : 0.4812078E-02  (-0.8727117E-03)
 number of electron      18.0000008 magnetization 
 augmentation part       -0.5469222 magnetization 

 Broyden mixing:
  rms(total) = 0.96663E-02    rms(broyden)= 0.96654E-02
  rms(prec ) = 0.11915E-01
  weight for this iteration     100.00

 eigenvalues of (default mixing * dielectric matrix)
  average eigenvalue GAMMA=   1.5076
  0.6672  1.0476  2.4378  1.8779

 Free energy of the ion-electron system (eV)
  ---------------------------------------------------
  alpha Z        PSCENC =        12.51390764
  Ewald energy   TEWEN  =      4286.25630342
  -Hartree energ DENC   =     -4976.62809802
  -exchange      EXHF   =         0.00000000
  -V(xc)+E(xc)   XCENC  =       -35.24623723
  PAW double counting   =       470.43148476     -394.60309404
  entropy T*S    EENTRO =         0.00000000
  eigenvalues    EBANDS =      -155.67322596
  atomic energy  EATOM  =       771.15234512
  Solvation  Ediel_sol  =         0.00000000
  ---------------------------------------------------
  free energy    TOTEN  =       -21.79661431 eV

  energy without entropy =      -21.79661431  energy(sigma->0) =      -21.79661431


--------------------------------------------------------------------------------------------------------




--------------------------------------- Iteration      1(  10)  ---------------------------------------


    POTLOK:  cpu time    0.0320: real time    0.0354
    SETDIJ:  cpu time    0.0030: real time    0.0024
    EDDIAG:  cpu time    0.0340: real time    0.0341
  RMM-DIIS:  cpu time    0.1700: real time    0.1690
    ORTHCH:  cpu time    0.0030: real time    0.0038
 BZINTS: Fermi energy: -3.577026; 18.000000 electrons
         Band energy:-154.540907;  BLOECHL correction:  0.000000
       DOS:  cpu time    0.0000: real time    0.0002
    CHARGE:  cpu time    0.0160: real time    0.0160
    MIXING:  cpu time    0.0010: real time    0.0015
    --------------------------------------------
      LOOP:  cpu time    0.2590: real time    0.2625

 eigenvalue-minimisations  :   334
 total energy-change (2. order) : 0.7407347E-03  (-0.1732428E-03)
 number of electron      18.0000008 magnetization 
 augmentation part       -0.5515102 magnetization 

 Broyden mixing:
  rms(total) = 0.44201E-02    rms(broyden)= 0.44200E-02
  rms(prec ) = 0.60719E-02
  weight for this iteration     100.00

 eigenvalues of (default mixing * dielectric matrix)
  average eigenvalue GAMMA=   1.6683
  0.6678  1.0359  2.1663  2.2357  2.2357

 Free energy of the ion-electron system (eV)
  ---------------------------------------------------
  alpha Z        PSCENC =        12.51390764
  Ewald energy   TEWEN  =      4286.25630342
  -Hartree energ DENC   =     -4977.75047672
  -exchange      EXHF   =         0.00000000
  -V(xc)+E(xc)   XCENC  =       -35.22531023
  PAW double counting   =       472.69901226     -396.90074769
  entropy T*S    EENTRO =         0.00000000
  eigenvalues    EBANDS =      -154.54090738
  atomic energy  EATOM  =       771.15234512
  Solvation  Ediel_sol  =         0.00000000
  ---------------------------------------------------
  free energy    TOTEN  =       -21.79587357 eV

  energy without entropy =      -21.79587357  energy(sigma->0) =      -21.79587357


--------------------------------------------------------------------------------------------------------




--------------------------------------- Iteration      1(  11)  ---------------------------------------


    POTLOK:  cpu time    0.0320: real time    0.0319
    SETDIJ:  cpu time    0.0030: real time    0.0024
    EDDIAG:  cpu time    0.0340: real time    0.0340
  RMM-DIIS:  cpu time    0.1620: real time    0.1619
    ORTHCH:  cpu time    0.0030: real time    0.0038
 BZINTS: Fermi energy: -3.519645; 18.000000 electrons
         Band energy:-153.414200;  BLOECHL correction:  0.000000
       DOS:  cpu time    0.0010: real time    0.0002
    CHARGE:  cpu time    0.0160: real time    0.0160
    MIXING:  cpu time    0.0010: real time    0.0016
    --------------------------------------------
      LOOP:  cpu time    0.2520: real time    0.2519

 eigenvalue-minimisations  :   315
 total energy-change (2. order) : 0.8084352E-04  (-0.1697230E-03)
 number of electron      18.0000008 magnetization 
 augmentation part       -0.5477431 magnetization 

 Broyden mixing:
  rms(total) = 0.55578E-02    rms(broyden)= 0.55577E-02
  rms(prec ) = 0.63980E-02
  weight for this iteration     100.00

 eigenvalues of (default mixing * dielectric matrix)
  average eigenvalue GAMMA=   1.6742
  2.9340  2.6745  0.6684  0.9313  1.4185  1.4185

 Free energy of the ion-electron system (eV)
  ---------------------------------------------------
  alpha Z        PSCENC =        12.51390764
  Ewald energy   TEWEN  =      4286.25630342
  -Hartree energ DENC   =     -4978.90050951
  -exchange      EXHF   =         0.00000000
  -V(xc)+E(xc)   XCENC  =       -35.21160786
  PAW double counting   =       472.13800699     -396.33003851
  entropy T*S    EENTRO =         0.00000000
  eigenvalues    EBANDS =      -153.41420003
  atomic energy  EATOM  =       771.15234512
  Solvation  Ediel_sol  =         0.00000000
  ---------------------------------------------------
  free energy    TOTEN  =       -21.79579273 eV

  energy without entropy =      -21.79579273  energy(sigma->0) =      -21.79579273


--------------------------------------------------------------------------------------------------------




--------------------------------------- Iteration      1(  12)  ---------------------------------------


    POTLOK:  cpu time    0.0330: real time    0.0327
    SETDIJ:  cpu time    0.0030: real time    0.0024
    EDDIAG:  cpu time    0.0330: real time    0.0334
  RMM-DIIS:  cpu time    0.1530: real time    0.1527
    ORTHCH:  cpu time    0.0030: real time    0.0038
 BZINTS: Fermi energy: -3.484241; 18.000000 electrons
         Band energy:-152.753314;  BLOECHL correction:  0.000000
       DOS:  cpu time    0.0000: real time    0.0002
    CHARGE:  cpu time    0.0160: real time    0.0159
    MIXING:  cpu time    0.0020: real time    0.0017
    --------------------------------------------
      LOOP:  cpu time    0.2430: real time    0.2427

 eigenvalue-minimisations  :   303
 total energy-change (2. order) : 0.1984615E-03  (-0.5614210E-04)
 number of electron      18.0000008 magnetization 
 augmentation part       -0.5505369 magnetization 

 Broyden mixing:
  rms(total) = 0.17633E-02    rms(broyden)= 0.17632E-02
  rms(prec ) = 0.23516E-02
  weight for this iteration     100.00

 eigenvalues of (default mixing * dielectric matrix)
  average eigenvalue GAMMA=   1.9426
  3.8297  2.7250  2.7250  0.6685  0.9632  1.4376  1.2489

 Free energy of the ion-electron system (eV)
  ---------------------------------------------------
  alpha Z        PSCENC =        12.51390764
  Ewald energy   TEWEN  =      4286.25630342
  -Hartree energ DENC   =     -4979.56693148
  -exchange      EXHF   =         0.00000000
  -V(xc)+E(xc)   XCENC  =       -35.20836506
  PAW double counting   =       472.30894512     -396.49848537
  entropy T*S    EENTRO =         0.00000000
  eigenvalues    EBANDS =      -152.75331366
  atomic energy  EATOM  =       771.15234512
  Solvation  Ediel_sol  =         0.00000000
  ---------------------------------------------------
  free energy    TOTEN  =       -21.79559427 eV

  energy without entropy =      -21.79559427  energy(sigma->0) =      -21.79559427


--------------------------------------------------------------------------------------------------------




--------------------------------------- Iteration      1(  13)  ---------------------------------------


    POTLOK:  cpu time    0.0340: real time    0.0336
    SETDIJ:  cpu time    0.0020: real time    0.0024
    EDDIAG:  cpu time    0.0340: real time    0.0335
  RMM-DIIS:  cpu time    0.1400: real time    0.1398
    ORTHCH:  cpu time    0.0030: real time    0.0038
 BZINTS: Fermi energy: -3.445706; 18.000000 electrons
         Band energy:-152.042481;  BLOECHL correction:  0.000000
       DOS:  cpu time    0.0000: real time    0.0002
    CHARGE:  cpu time    0.0160: real time    0.0159
    MIXING:  cpu time    0.0020: real time    0.0018
    --------------------------------------------
      LOOP:  cpu time    0.2310: real time    0.2311

 eigenvalue-minimisations  :   290
 total energy-change (2. order) :-0.2653771E-03  (-0.1571616E-04)
 number of electron      18.0000008 magnetization 
 augmentation part       -0.5489129 magnetization 

 Broyden mixing:
  rms(total) = 0.20250E-02    rms(broyden)= 0.20250E-02
  rms(prec ) = 0.22771E-02
  weight for this iteration     100.00

 eigenvalues of (default mixing * dielectric matrix)
  average eigenvalue GAMMA=   1.9041
  4.7490  2.7094  2.3827  1.4198  1.4198  0.6686  0.9418  0.9418

 Free energy of the ion-electron system (eV)
  ---------------------------------------------------
  alpha Z        PSCENC =        12.51390764
  Ewald energy   TEWEN  =      4286.25630342
  -Hartree energ DENC   =     -4980.27968393
  -exchange      EXHF   =         0.00000000
  -V(xc)+E(xc)   XCENC  =       -35.20157071
  PAW double counting   =       472.25629463     -396.45097448
  entropy T*S    EENTRO =         0.00000000
  eigenvalues    EBANDS =      -152.04248133
  atomic energy  EATOM  =       771.15234512
  Solvation  Ediel_sol  =         0.00000000
  ---------------------------------------------------
  free energy    TOTEN  =       -21.79585965 eV

  energy without entropy =      -21.79585965  energy(sigma->0) =      -21.79585965


--------------------------------------------------------------------------------------------------------




--------------------------------------- Iteration      1(  14)  ---------------------------------------


    POTLOK:  cpu time    0.0340: real time    0.0338
    SETDIJ:  cpu time    0.0020: real time    0.0024
    EDDIAG:  cpu time    0.0340: real time    0.0335
  RMM-DIIS:  cpu time    0.1300: real time    0.1304
    ORTHCH:  cpu time    0.0040: real time    0.0038
 BZINTS: Fermi energy: -3.436973; 18.000000 electrons
         Band energy:-151.886053;  BLOECHL correction:  0.000000
       DOS:  cpu time    0.0000: real time    0.0002
    CHARGE:  cpu time    0.0160: real time    0.0159
    MIXING:  cpu time    0.0020: real time    0.0018
    --------------------------------------------
      LOOP:  cpu time    0.2220: real time    0.2219

 eigenvalue-minimisations  :   252
 total energy-change (2. order) :-0.3403341E-04  (-0.2551010E-05)
 number of electron      18.0000008 magnetization 
 augmentation part       -0.5500880 magnetization 

 Broyden mixing:
  rms(total) = 0.50307E-03    rms(broyden)= 0.50305E-03
  rms(prec ) = 0.69145E-03
  weight for this iteration     100.00

 eigenvalues of (default mixing * dielectric matrix)
  average eigenvalue GAMMA=   2.1589
  6.4245  2.9622  2.3896  2.3896  1.5120  0.6686  1.1798  0.9517  0.9517

 Free energy of the ion-electron system (eV)
  ---------------------------------------------------
  alpha Z        PSCENC =        12.51390764
  Ewald energy   TEWEN  =      4286.25630342
  -Hartree energ DENC   =     -4980.43857100
  -exchange      EXHF   =         0.00000000
  -V(xc)+E(xc)   XCENC  =       -35.20370834
  PAW double counting   =       472.07692263     -396.26704007
  entropy T*S    EENTRO =         0.00000000
  eigenvalues    EBANDS =      -151.88605309
  atomic energy  EATOM  =       771.15234512
  Solvation  Ediel_sol  =         0.00000000
  ---------------------------------------------------
  free energy    TOTEN  =       -21.79589368 eV

  energy without entropy =      -21.79589368  energy(sigma->0) =      -21.79589368


--------------------------------------------------------------------------------------------------------




--------------------------------------- Iteration      1(  15)  ---------------------------------------


    POTLOK:  cpu time    0.0340: real time    0.0372
    SETDIJ:  cpu time    0.0030: real time    0.0024
    EDDIAG:  cpu time    0.0340: real time    0.0335
  RMM-DIIS:  cpu time    0.1120: real time    0.1120
    ORTHCH:  cpu time    0.0030: real time    0.0038
 BZINTS: Fermi energy: -3.427775; 18.000000 electrons
         Band energy:-151.730080;  BLOECHL correction:  0.000000
       DOS:  cpu time    0.0000: real time    0.0002
    CHARGE:  cpu time    0.0160: real time    0.0159
    MIXING:  cpu time    0.0020: real time    0.0020
    --------------------------------------------
      LOOP:  cpu time    0.2040: real time    0.2070

 eigenvalue-minimisations  :   196
 total energy-change (2. order) :-0.1031245E-03  (-0.1137149E-05)
 number of electron      18.0000008 magnetization 
 augmentation part       -0.5498531 magnetization 

 Broyden mixing:
  rms(total) = 0.28244E-03    rms(broyden)= 0.28242E-03
  rms(prec ) = 0.37599E-03
  weight for this iteration     100.00

 eigenvalues of (default mixing * dielectric matrix)
  average eigenvalue GAMMA=   2.1434
  6.5186  3.5514  2.6201  1.7542  1.7542  1.5694  0.6686  1.0481  1.0126  0.9366

 Free energy of the ion-electron system (eV)
  ---------------------------------------------------
  alpha Z        PSCENC =        12.51390764
  Ewald energy   TEWEN  =      4286.25630342
  -Hartree energ DENC   =     -4980.59469931
  -exchange      EXHF   =         0.00000000
  -V(xc)+E(xc)   XCENC  =       -35.20351240
  PAW double counting   =       472.10440434     -396.29466564
  entropy T*S    EENTRO =         0.00000000
  eigenvalues    EBANDS =      -151.73007998
  atomic energy  EATOM  =       771.15234512
  Solvation  Ediel_sol  =         0.00000000
  ---------------------------------------------------
  free energy    TOTEN  =       -21.79599680 eV

  energy without entropy =      -21.79599680  energy(sigma->0) =      -21.79599680


--------------------------------------------------------------------------------------------------------




--------------------------------------- Iteration      1(  16)  ---------------------------------------


    POTLOK:  cpu time    0.0350: real time    0.0348
    SETDIJ:  cpu time    0.0030: real time    0.0024
    EDDIAG:  cpu time    0.0340: real time    0.0340
  RMM-DIIS:  cpu time    0.1090: real time    0.1088
    ORTHCH:  cpu time    0.0030: real time    0.0038
 BZINTS: Fermi energy: -3.423884; 18.000000 electrons
         Band energy:-151.669128;  BLOECHL correction:  0.000000
       DOS:  cpu time    0.0000: real time    0.0002
    CHARGE:  cpu time    0.0160: real time    0.0159
    MIXING:  cpu time    0.0020: real time    0.0021
    --------------------------------------------
      LOOP:  cpu time    0.2020: real time    0.2020

 eigenvalue-minimisations  :   185
 total energy-change (2. order) :-0.3118500E-04  (-0.4781006E-06)
 number of electron      18.0000008 magnetization 
 augmentation part       -0.5499946 magnetization 

 Broyden mixing:
  rms(total) = 0.17561E-03    rms(broyden)= 0.17559E-03
  rms(prec ) = 0.22112E-03
  weight for this iteration     100.00

 eigenvalues of (default mixing * dielectric matrix)
  average eigenvalue GAMMA=   2.3033
  7.3234  3.9182  3.0144  2.6413  2.1261  1.5565  0.6686  1.0973  1.0973  0.9729
  0.9206

 Free energy of the ion-electron system (eV)
  ---------------------------------------------------
  alpha Z        PSCENC =        12.51390764
  Ewald energy   TEWEN  =      4286.25630342
  -Hartree energ DENC   =     -4980.65476505
  -exchange      EXHF   =         0.00000000
  -V(xc)+E(xc)   XCENC  =       -35.20341151
  PAW double counting   =       472.15984957     -396.35112949
  entropy T*S    EENTRO =         0.00000000
  eigenvalues    EBANDS =      -151.66912769
  atomic energy  EATOM  =       771.15234512
  Solvation  Ediel_sol  =         0.00000000
  ---------------------------------------------------
  free energy    TOTEN  =       -21.79602799 eV

  energy without entropy =      -21.79602799  energy(sigma->0) =      -21.79602799


--------------------------------------------------------------------------------------------------------




--------------------------------------- Iteration      1(  17)  ---------------------------------------


    POTLOK:  cpu time    0.0350: real time    0.0343
    SETDIJ:  cpu time    0.0020: real time    0.0024
    EDDIAG:  cpu time    0.0340: real time    0.0341
  RMM-DIIS:  cpu time    0.1000: real time    0.0991
    ORTHCH:  cpu time    0.0030: real time    0.0039
 BZINTS: Fermi energy: -3.422104; 18.000000 electrons
         Band energy:-151.631058;  BLOECHL correction:  0.000000
       DOS:  cpu time    0.0000: real time    0.0002
    CHARGE:  cpu time    0.0160: real time    0.0159
    MIXING:  cpu time    0.0020: real time    0.0022
    --------------------------------------------
      LOOP:  cpu time    0.1920: real time    0.1921

 eigenvalue-minimisations  :   167
 total energy-change (2. order) :-0.4505875E-04  (-0.3350545E-06)
 number of electron      18.0000008 magnetization 
 augmentation part       -0.5500078 magnetization 

 Broyden mixing:
  rms(total) = 0.14231E-03    rms(broyden)= 0.14229E-03
  rms(prec ) = 0.16419E-03
  weight for this iteration     100.00

 eigenvalues of (default mixing * dielectric matrix)
  average eigenvalue GAMMA=   2.3209
  7.7498  4.9436  2.9290  2.4960  2.1122  1.4980  1.4980  0.6686  1.0477  1.0477
  0.9303  0.9303

 Free energy of the ion-electron system (eV)
  ---------------------------------------------------
  alpha Z        PSCENC =        12.51390764
  Ewald energy   TEWEN  =      4286.25630342
  -Hartree energ DENC   =     -4980.69374555
  -exchange      EXHF   =         0.00000000
  -V(xc)+E(xc)   XCENC  =       -35.20355795
  PAW double counting   =       472.11370402     -396.30397167
  entropy T*S    EENTRO =         0.00000000
  eigenvalues    EBANDS =      -151.63105808
  atomic energy  EATOM  =       771.15234512
  Solvation  Ediel_sol  =         0.00000000
  ---------------------------------------------------
  free energy    TOTEN  =       -21.79607305 eV

  energy without entropy =      -21.79607305  energy(sigma->0) =      -21.79607305


--------------------------------------------------------------------------------------------------------




--------------------------------------- Iteration      1(  18)  ---------------------------------------


    POTLOK:  cpu time    0.0340: real time    0.0340
    SETDIJ:  cpu time    0.0030: real time    0.0024
    EDDIAG:  cpu time    0.0340: real time    0.0340
  RMM-DIIS:  cpu time    0.0880: real time    0.0874
    ORTHCH:  cpu time    0.0030: real time    0.0038
 BZINTS: Fermi energy: -3.422251; 18.000000 electrons
         Band energy:-151.632245;  BLOECHL correction:  0.000000
       DOS:  cpu time    0.0000: real time    0.0002
    --------------------------------------------
      LOOP:  cpu time    0.1620: real time    0.1618

 eigenvalue-minimisations  :    86
 total energy-change (2. order) :-0.7711381E-05  (-0.4331661E-07)
 number of electron      18.0000008 magnetization 
 augmentation part       -0.5500078 magnetization 

 Free energy of the ion-electron system (eV)
  ---------------------------------------------------
  alpha Z        PSCENC =        12.51390764
  Ewald energy   TEWEN  =      4286.25630342
  -Hartree energ DENC   =     -4980.69237147
  -exchange      EXHF   =         0.00000000
  -V(xc)+E(xc)   XCENC  =       -35.20352667
  PAW double counting   =       472.12325679     -396.31375077
  entropy T*S    EENTRO =         0.00000000
  eigenvalues    EBANDS =      -151.63224482
  atomic energy  EATOM  =       771.15234512
  Solvation  Ediel_sol  =         0.00000000
  ---------------------------------------------------
  free energy    TOTEN  =       -21.79608076 eV

  energy without entropy =      -21.79608076  energy(sigma->0) =      -21.79608076


--------------------------------------------------------------------------------------------------------




 average (electrostatic) potential at core
  the test charge radii are     1.2296  0.9698
  (the norm of the test charge is              1.0000)
       1 -46.8752       2 -94.7134       3 -94.7134
 
 
 
 E-fermi :  -3.4223     XC(G=0):  -2.8706     alpha+bet : -2.6672


 k-point     1 :       0.0000    0.0000    0.0000
  band No.  band energies     occupation 
      1     -17.4634      2.00000
      2     -16.2554      2.00000
      3      -8.9838      2.00000
      4      -6.0229      2.00000
      5      -6.0229      2.00000
      6      -5.1616      2.00000
      7      -4.9173      2.00000
      8      -4.9173      2.00000
      9      -3.4415      2.00000
     10      -0.6697      0.00000
     11      -0.6697      0.00000
     12      -0.4460      0.00000
     13      -0.4460      0.00000
     14       1.9927      0.00000

 k-point     2 :       0.1250    0.0000    0.0000
  band No.  band energies     occupation 
      1     -17.2492      2.00000
      2     -16.1530      2.00000
      3      -8.7392      2.00000
      4      -6.4863      2.00000
      5      -5.9696      2.00000
      6      -5.7885      2.00000
      7      -5.2530      2.00000
      8      -4.4841      2.00000
      9      -3.5799      2.00000
     10      -0.9499      0.00000
     11      -0.8841      0.00000
     12      -0.6826      0.00000
     13      -0.3149      0.00000
     14       2.3624      0.00000

 k-point     3 :       0.2500    0.0000    0.0000
  band No.  band energies     occupation 
      1     -16.6805      2.00000
      2     -15.8842      2.00000
      3      -8.3731      2.00000
      4      -7.2129      2.00000
      5      -6.9505      2.00000
      6      -5.8880      2.00000
      7      -5.2014      2.00000
      8      -4.7356      2.00000
      9      -4.1478      2.00000
     10      -1.2742      0.00000
     11      -1.0974      0.00000
     12      -0.5555      0.00000
     13       0.3020      0.00000
     14       3.1779      0.00000

 k-point     4 :       0.3750    0.0000    0.0000
  band No.  band energies     occupation 
      1     -16.0053      2.00000
      2     -15.5757      2.00000
      3      -8.8103      2.00000
      4      -7.8179      2.00000
      5      -7.3458      2.00000
      6      -6.3854      2.00000
      7      -5.1450      2.00000
      8      -4.6108      2.00000
      9      -4.3429      2.00000
     10      -1.2791      0.00000
     11      -1.0002      0.00000
     12       0.1631      0.00000
     13       0.6953      0.00000
     14       3.7015      0.00000

 k-point     5 :       0.5000    0.0000    0.0000
  band No.  band energies     occupation 
      1     -15.6771      2.00000
      2     -15.4323      2.00000
      3      -9.1430      2.00000
      4      -8.1828      2.00000
      5      -7.4721      2.00000
      6      -6.5659      2.00000
      7      -5.2838      2.00000
      8      -4.3837      2.00000
      9      -4.0621      2.00000
     10      -1.2568      0.00000
     11      -0.7408      0.00000
     12       0.4617      0.00000
     13       0.8107      0.00000
     14       2.7409      0.00000

 k-point     6 :       0.1250    0.1250    0.0000
  band No.  band energies     occupation 
      1     -16.8564      2.00000
      2     -15.9659      2.00000
      3      -8.3919      2.00000
      4      -7.0503      2.00000
      5      -6.5318      2.00000
      6      -6.0669      2.00000
      7      -5.4490      2.00000
      8      -4.3495      2.00000
      9      -3.9517      2.00000
     10      -1.3492      0.00000
     11      -0.9710      0.00000
     12      -0.9593      0.00000
     13       0.2799      0.00000
     14       2.9928      0.00000

 k-point     7 :       0.2500    0.1250    0.0000
  band No.  band energies     occupation 
      1     -16.2228      2.00000
      2     -15.6673      2.00000
      3      -8.4546      2.00000
      4      -7.4770      2.00000
      5      -7.2140      2.00000
      6      -6.5712      2.00000
      7      -5.3495      2.00000
      8      -4.7118      2.00000
      9      -4.2353      2.00000
     10      -1.4326      0.00000
     11      -0.9842      0.00000
     12      -0.4893      0.00000
     13       0.7876      0.00000
     14       3.9475      0.00000

 k-point     8 :       0.3750    0.1250    0.0000
  band No.  band energies     occupation 
      1     -15.6923      2.00000
      2     -15.4234      2.00000
      3      -8.8557      2.00000
      4      -8.2400      2.00000
      5      -7.3443      2.00000
      6      -6.5880      2.00000
      7      -5.3343      2.00000
      8      -5.1936      2.00000
      9      -3.9083      2.00000
     10      -1.2379      0.00000
     11      -0.7277      0.00000
     12       0.1325      0.00000
     13       0.8213      0.00000
     14       3.2678      0.00000

 k-point     9 :       0.2500    0.2500    0.0000
  band No.  band energies     occupation 
      1     -15.7073      2.00000
      2     -15.4144      2.00000
      3      -8.4952      2.00000
      4      -8.2908      2.00000
      5      -7.0172      2.00000
      6      -6.6363      2.00000
      7      -6.3172      2.00000
      8      -5.0602      2.00000
      9      -3.9372      2.00000
     10      -1.2889      0.00000
     11      -0.6779      0.00000
     12      -0.3661      0.00000
     13       1.1093      0.00000
     14       4.1002      0.00000

 k-point    10 :       0.3750    0.2500    0.0000
  band No.  band energies     occupation 
      1     -15.4724      2.00000
      2     -15.2952      2.00000
      3      -8.6752      2.00000
      4      -8.3263      2.00000
      5      -7.3015      2.00000
      6      -6.6389      2.00000
      7      -6.4087      2.00000
      8      -5.4465      2.00000
      9      -3.5698      2.00000
     10      -1.6146      0.00000
     11      -0.3077      0.00000
     12      -0.1273      0.00000
     13       1.2545      0.00000
     14       3.5108      0.00000


--------------------------------------------------------------------------------------------------------


 soft charge-density along one line, spin component           1
         0         1         2         3         4         5         6         7         8         9
 total charge-density along one line
 
 pseudopotential strength for first ion, spin component:           1
 -9.986  -0.000   0.000   0.000   0.000   0.102   0.000  -0.000
 -0.000  -9.987  -0.000  -0.000   0.000   0.000   0.102   0.000
  0.000  -0.000  -9.966  -0.000  -0.000  -0.000   0.000   0.101
  0.000  -0.000  -0.000  -9.987  -0.000  -0.000   0.000   0.000
  0.000   0.000  -0.000  -0.000  -9.986  -0.000  -0.000   0.000
  0.102   0.000  -0.000  -0.000  -0.000   0.098  -0.000   0.000
  0.000   0.102   0.000   0.000  -0.000  -0.000   0.098   0.000
 -0.000   0.000   0.101   0.000   0.000   0.000   0.000   0.098
 -0.000   0.000   0.000   0.102   0.000   0.000  -0.000  -0.000
 -0.000  -0.000   0.000   0.000   0.102   0.000   0.000  -0.000
  0.000  -0.000  -0.005   0.000  -0.000  -0.000   0.000   0.000
 -0.000   0.000   0.001  -0.000   0.000   0.000  -0.000  -0.000
 -0.000   0.000  -0.000  -0.000  -0.007   0.000   0.000   0.000
 -0.000   0.000  -0.000  -0.000  -0.000  -0.000  -0.000  -0.000
 -0.007  -0.000   0.000   0.000  -0.000  -0.000  -0.000  -0.000
  0.000  -0.000   0.000   0.000   0.004  -0.000   0.000  -0.000
  0.000  -0.000   0.000   0.000   0.000  -0.000   0.000   0.000
  0.004   0.000  -0.000  -0.000   0.000   0.000  -0.000   0.000
 total augmentation occupancy for first ion, spin component:           1
  0.965   0.000  -0.000   0.000  -0.000   0.602  -0.000  -0.000   0.000   0.000  -0.000   0.000   0.000  -0.000  -0.066  -0.000
  0.000   0.907  -0.000   0.000   0.000   0.000   0.840   0.000   0.000  -0.000   0.000   0.000   0.000   0.000   0.000   0.000
 -0.000  -0.000   1.029   0.000   0.000  -0.000   0.000   0.502  -0.000   0.000   0.111  -0.019  -0.000  -0.000   0.000   0.000
  0.000   0.000   0.000   0.907   0.000   0.000   0.000  -0.000   0.840   0.000   0.000   0.000   0.000  -0.000   0.000   0.000
 -0.000   0.000   0.000  -0.000   0.965  -0.000  -0.000   0.000   0.000   0.602   0.000  -0.000  -0.066   0.000  -0.000   0.007
  0.602  -0.000  -0.000   0.000   0.000   0.679   0.000  -0.000  -0.000  -0.000   0.000   0.000   0.000  -0.000  -0.136  -0.000
  0.000   0.840   0.000   0.000   0.000   0.000   1.082   0.000   0.000   0.000   0.000   0.000   0.000  -0.000  -0.000   0.000
 -0.000   0.000   0.502  -0.000   0.000  -0.000   0.000   0.477  -0.000   0.000   0.059  -0.021  -0.000  -0.000   0.000   0.000
  0.000   0.000   0.000   0.840   0.000   0.000   0.000   0.000   1.082   0.000  -0.000   0.000   0.000   0.000   0.000   0.000
 -0.000   0.000   0.000  -0.000   0.602  -0.000  -0.000   0.000   0.000   0.679   0.000   0.000  -0.136   0.000  -0.000   0.023
 -0.000   0.000   0.111   0.000   0.000   0.000   0.000   0.059  -0.000   0.000   1.207  -0.186   0.000  -0.000   0.000   0.000
  0.000   0.000  -0.019   0.000  -0.000   0.000   0.000  -0.021   0.000   0.000  -0.186   0.042   0.000   0.000   0.000  -0.000
  0.000   0.000  -0.000  -0.000  -0.066   0.000   0.000  -0.000   0.000  -0.136   0.000  -0.000   0.217   0.000   0.000  -0.032
  0.000   0.000  -0.000   0.000   0.000  -0.000   0.000   0.000  -0.000   0.000  -0.000  -0.000   0.000   0.264   0.000  -0.000
 -0.066   0.000   0.000  -0.000  -0.000  -0.136   0.000   0.000   0.000  -0.000   0.000   0.000   0.000  -0.000   0.217  -0.000
 -0.000   0.000   0.000   0.000   0.007  -0.000  -0.000   0.000   0.000   0.023   0.000  -0.000  -0.032  -0.000  -0.000   0.005
 -0.000  -0.000   0.000   0.000   0.000  -0.000   0.000  -0.000  -0.000   0.000   0.000   0.000   0.000  -0.038  -0.000   0.000
  0.007   0.000  -0.000  -0.000   0.000   0.023   0.000  -0.000   0.000   0.000  -0.000   0.000  -0.000   0.000  -0.032   0.000


------------------------ aborting loop because EDIFF is reached ----------------------------------------


    CHARGE:  cpu time    0.0150: real time    0.0161
    FORLOC:  cpu time    0.0030: real time    0.0034
    FORNL :  cpu time    0.0320: real time    0.0314
    STRESS:  cpu time    0.1650: real time    0.1657
    FORCOR:  cpu time    0.0390: real time    0.0386
    FORHAR:  cpu time    0.0090: real time    0.0089
    MIXING:  cpu time    0.0020: real time    0.0023
    OFIELD:  cpu time    0.0000: real time    0.0000

  DFT-D2 method for vdW energy calculation
  -------------------------------------------------------------------

  Parameters of vdW forcefield:
         C6(Jnm^6/mol)     R0(A)
   -----------------------------
   Mo      24.670          1.639
   S        5.570          1.683

  IVDW =   1
  VDW_RADIUS =    50.000 A
  VDW_S6 =     0.750
  VDW_SR =     1.000
  VDW_D =    20.000
  LVDW_EWALD = F

  Number of pair interactions contributing to vdW energy:   12957
  Edisp (eV):   -0.59091
    FORVDW:  cpu time    0.0120: real time    0.0182

  FORCE on cell =-STRESS in cart. coord.  units (eV):
  Direction    XX          YY          ZZ          XY          YZ          ZX
  --------------------------------------------------------------------------------------
  Alpha Z    12.51391    12.51391    12.51391
  Ewald    4853.12264  4853.12308 -5419.98957     0.00019     0.00000     0.00012
  Hartree  4942.42472  4942.42473 -4904.15408     0.00002     0.00000    -0.00000
  E(xc)     -70.29333   -70.29334   -70.89799    -0.00001    -0.00000    -0.00000
  Local  -10076.25817-10076.25856 10037.46838    -0.00026     0.00000    -0.00006
  n-local   127.15254   125.77372   131.67274    -0.25312    -0.00001    -0.00001
  augment   -25.56525   -25.56511   -26.66759     0.00012    -0.00000    -0.00000
  Kinetic   235.88968   238.69136   239.80793    -7.41161     0.00001     0.00001
  Fock        0.00000     0.00000     0.00000     0.00000     0.00000     0.00000
  vdW         0.16041     0.16041    -0.13425     0.00000     0.00000    -0.00000
  -------------------------------------------------------------------------------------
  Total      -0.14133    -0.14133    -0.38052     0.00000     0.00000     0.00000
  in kB      -0.95574    -0.95574    -2.57320     0.00000     0.00000     0.00000
  external pressure =       -1.49 kB  Pullay stress =        0.00 kB


 VOLUME and BASIS-vectors are now :
 -----------------------------------------------------------------------------
  energy-cutoff  :      400.00
  volume of cell :      236.93
      direct lattice vectors                 reciprocal lattice vectors
     3.190315730  0.000000000  0.000000000     0.313448600  0.180969634  0.000000000
    -1.595157865  2.762894468  0.000000000     0.000000000  0.361939267  0.000000000
     0.000000000  0.000000000 26.879004300     0.000000000  0.000000000  0.037203759

  length of vectors
     3.190315730  3.190315730 26.879004300     0.361939267  0.361939267  0.037203759


 FORCES acting on ions
    electron-ion (+dipol)            ewald-force                    non-local-force                 convergence-correction
 -----------------------------------------------------------------------------------------------
   -.102E-04 -.140E-05 -.241E-04   0.931E-04 -.108E-03 0.307E-06   0.173E-16 0.000E+00 0.000E+00   0.151E-08 -.215E-08 0.181E-06
   -.850E-03 0.500E-03 0.579E+03   -.864E-04 0.538E-04 -.584E+03   0.373E-16 0.347E-17 0.480E+01   -.131E-07 0.680E-08 0.244E-02
   0.861E-03 0.488E-03 -.579E+03   -.674E-05 0.538E-04 0.584E+03   0.295E-16 0.173E-17 -.480E+01   0.136E-07 0.680E-08 -.244E-02
 -----------------------------------------------------------------------------------------------
   0.776E-06 0.986E-03 -.523E-05   0.897E-14 0.972E-14 -.114E-12   0.841E-16 0.520E-17 0.888E-15   0.208E-08 0.115E-07 0.490E-06
 
 
 POSITION                                       TOTAL-FORCE (eV/Angst)
 -----------------------------------------------------------------------------------
     -0.00000      1.84193      3.71975         0.000000     -0.000000     -0.000000
      1.59516      0.92096      2.15487        -0.000000      0.000000      0.113641
      1.59516      0.92096      5.28464         0.000000      0.000000     -0.113641
 -----------------------------------------------------------------------------------
    total drift:                                0.000001      0.000986     -0.000005


--------------------------------------------------------------------------------------------------------



  FREE ENERGIE OF THE ION-ELECTRON SYSTEM (eV)
  ---------------------------------------------------
  free  energy   TOTEN  =       -22.38698982 eV

  energy  without entropy=      -22.38698982  energy(sigma->0) =      -22.38698982
 


--------------------------------------------------------------------------------------------------------


    POTLOK:  cpu time    0.0360: real time    0.0363


--------------------------------------------------------------------------------------------------------


     LOOP+:  cpu time    4.7013: real time    5.0933
    4ORBIT:  cpu time    0.0000: real time    0.0000
 BZINTS: Fermi energy: -3.422251; 18.000000 electrons
         Band energy:-151.632245;  BLOECHL correction:  0.000000

 total amount of memory used by VASP MPI-rank0    46605. kBytes
=======================================================================

   base      :      30000. kBytes
   nonl-proj :       6388. kBytes
   fftplans  :       2961. kBytes
   grid      :       4753. kBytes
   one-center:         31. kBytes
   wavefun   :       2472. kBytes
 
  
  
 General timing and accounting informations for this job:
 ========================================================
  
                  Total CPU time used (sec):        5.694
                            User time (sec):        5.537
                          System time (sec):        0.157
                         Elapsed time (sec):        6.563
  
                   Maximum memory used (kb):       40448.
                   Average memory used (kb):           0.
  
                          Minor page faults:        11254
                          Major page faults:          200
                 Voluntary context switches:         2549
