perl: warning: Setting locale failed.
perl: warning: Please check that your locale settings:
	LANGUAGE = (unset),
	LC_ALL = (unset),
	LC_CTYPE = "UTF-8",
	LANG = "en_US.iso885915"
    are supported and installed on your system.
perl: warning: Falling back to the standard locale ("C").
Starting job 28532688 ("jobname") on c15-12 at Fri Nov 8 11:57:49 CET 2019
 running on    4 total cores
 distrk:  each k-point on    4 cores,    1 groups
 distr:  one band on    2 cores,    2 groups
 using from now: INCAR     
 vasp.5.4.4.18Apr17-6-g9f103f2a35 (build Jun 30 2017 11:15:00) complex          
  
 POSCAR found type information on POSCAR  Mo S 
 POSCAR found :  2 types and       3 ions
 scaLAPACK will be used
 LDA part: xc-table for Pade appr. of Perdew
 POSCAR, INCAR and KPOINTS ok, starting setup
 FFT: planning ...
 WAVECAR not read
 entering main loop
       N       E                     dE             d eps       ncg     rms          rms(c)
DAV:   1     0.130476269516E+03    0.13048E+03   -0.52450E+03   280   0.752E+02
DAV:   2    -0.756962345140E+01   -0.13805E+03   -0.13057E+03   492   0.164E+02
DAV:   3    -0.230910432134E+02   -0.15521E+02   -0.15383E+02   388   0.710E+01
DAV:   4    -0.233983384183E+02   -0.30730E+00   -0.30606E+00   354   0.126E+01
DAV:   5    -0.234069189606E+02   -0.85805E-02   -0.85787E-02   364   0.201E+00    0.688E+00
RMM:   6    -0.222464061126E+02    0.11605E+01   -0.54476E+00   295   0.124E+01    0.262E+00
RMM:   7    -0.218611536707E+02    0.38525E+00   -0.55278E-01   291   0.340E+00    0.150E+00
RMM:   8    -0.218014263856E+02    0.59727E-01   -0.23299E-01   305   0.250E+00    0.355E-01
RMM:   9    -0.217966143078E+02    0.48121E-02   -0.87271E-03   336   0.606E-01    0.967E-02
RMM:  10    -0.217958735731E+02    0.74073E-03   -0.17324E-03   334   0.222E-01    0.442E-02
RMM:  11    -0.217957927296E+02    0.80844E-04   -0.16972E-03   315   0.193E-01    0.556E-02
RMM:  12    -0.217955942681E+02    0.19846E-03   -0.56142E-04   303   0.133E-01    0.176E-02
RMM:  13    -0.217958596452E+02   -0.26538E-03   -0.15716E-04   290   0.703E-02    0.203E-02
RMM:  14    -0.217958936786E+02   -0.34033E-04   -0.25510E-05   252   0.272E-02    0.503E-03
RMM:  15    -0.217959968031E+02   -0.10312E-03   -0.11371E-05   196   0.171E-02    0.282E-03
RMM:  16    -0.217960279881E+02   -0.31185E-04   -0.47810E-06   185   0.949E-03    0.176E-03
RMM:  17    -0.217960730468E+02   -0.45059E-04   -0.33505E-06   167   0.793E-03    0.142E-03
RMM:  18    -0.217960807582E+02   -0.77114E-05   -0.43317E-07    86   0.402E-03
   1 F= -.22386990E+02 E0= -.22386990E+02  d E =0.000000E+00

Currently Loaded Modulefiles:
  1) Anaconda3/5.1.0       3) vesta/3.3.8           5) intel/2016.1
  2) gnuplot/5.0.4         4) imagemagick/6.7.9-0   6) vasp/5.4.1.Feb16

Job script resource usage:
       JobID  MaxVMSize     MaxRSS 
------------ ---------- ---------- 
28532688.ba+    216888K      2389K 

Job step resource usage:
       JobID    JobName  AllocCPUS  MaxVMSize     MaxRSS    Elapsed ExitCode 
------------ ---------- ---------- ---------- ---------- ---------- -------- 
28532688        jobname          4                         00:00:09      0:0 
28532688.0    pmi_proxy          1    279832K       524K   00:00:08      0:0 

Job 28532688 ("jobname") completed on c15-12 at Fri Nov 8 11:57:57 CET 2019
