<?xml version="1.0" encoding="ISO-8859-1"?>
<modeling>
 <generator>
  <i name="program" type="string">vasp </i>
  <i name="version" type="string">5.4.4.18Apr17-6-g9f103f2a35  </i>
  <i name="subversion" type="string">(build Jun 30 2017 11:15:00) complex            parallel </i>
  <i name="platform" type="string">STALLO_VASP_5.4.4 </i>
  <i name="date" type="string">2019 11 08 </i>
  <i name="time" type="string">11:57:50 </i>
 </generator>
 <incar>
  <i type="string" name="PREC">normal    ! low/normal/accurate</i>
  <i type="string" name="ALGO"> Fast      ! Algorithm for electronic re</i>
  <i type="int" name="ISPIN">     1</i>
  <i type="int" name="NELMIN">     4</i>
  <i name="EDIFF">      0.00001000</i>
  <i type="int" name="NSW">     0</i>
  <i name="ENCUT">    400.00000000</i>
  <i type="logical" name="LREAL"> F  </i>
  <i type="int" name="ISMEAR">    -5</i>
  <i name="SIGMA">      0.20000000</i>
  <i type="logical" name="LWAVE"> F  </i>
  <v type="int" name="KPOINT_BSE">    -1     0     0     0</v>
 </incar>
 <structure name="primitive_cell" >
  <crystal>
   <varray name="basis" >
    <v>       3.19031573       0.00000000       0.00000000 </v>
    <v>      -1.59515786       2.76289447       0.00000000 </v>
    <v>       0.00000000       0.00000000      26.87900430 </v>
   </varray>
   <i name="volume">    236.92513614 </i>
   <varray name="rec_basis" >
    <v>       0.31344860       0.18096963       0.00000000 </v>
    <v>       0.00000000       0.36193927       0.00000000 </v>
    <v>       0.00000000       0.00000000       0.03720376 </v>
   </varray>
  </crystal>
  <varray name="positions" >
   <v>       0.33333300      -0.33333300       0.13838872 </v>
   <v>      -0.33333400       0.33333300       0.19660830 </v>
   <v>      -0.33333300       0.33333300       0.08016914 </v>
  </varray>
 </structure>
 <varray name="primitive_index" >
  <v type="int" >        1 </v>
  <v type="int" >        3 </v>
  <v type="int" >        2 </v>
 </varray>
 <kpoints>
  <generation param="Gamma">
   <v type="int" name="divisions">       8        8        1 </v>
   <v name="usershift">      0.00000000       0.00000000       0.00000000 </v>
   <v name="genvec1">      0.12500000       0.00000000       0.00000000 </v>
   <v name="genvec2">      0.00000000       0.12500000       0.00000000 </v>
   <v name="genvec3">      0.00000000       0.00000000       1.00000000 </v>
   <v name="shift">      0.00000000       0.00000000       0.00000000 </v>
  </generation>
  <varray name="kpointlist" >
   <v>       0.00000000       0.00000000       0.00000000 </v>
   <v>       0.12500000       0.00000000       0.00000000 </v>
   <v>       0.25000000       0.00000000       0.00000000 </v>
   <v>       0.37500000       0.00000000       0.00000000 </v>
   <v>       0.50000000       0.00000000       0.00000000 </v>
   <v>       0.12500000       0.12500000       0.00000000 </v>
   <v>       0.25000000       0.12500000       0.00000000 </v>
   <v>       0.37500000       0.12500000       0.00000000 </v>
   <v>       0.25000000       0.25000000       0.00000000 </v>
   <v>       0.37500000       0.25000000       0.00000000 </v>
  </varray>
  <varray name="weights" >
   <v>       0.01562500 </v>
   <v>       0.09375000 </v>
   <v>       0.09375000 </v>
   <v>       0.09375000 </v>
   <v>       0.04687500 </v>
   <v>       0.09375000 </v>
   <v>       0.18750000 </v>
   <v>       0.18750000 </v>
   <v>       0.09375000 </v>
   <v>       0.09375000 </v>
  </varray>
  <varray name="tetrahedronlist"  type="int" >
   <v type="int" >       12        2        2        2        6 </v>
   <v type="int" >       12        1        2        2        2 </v>
   <v type="int" >        6        1        1        2        2 </v>
   <v type="int" >        6        2        2        6        6 </v>
   <v type="int" >       12        3        6        6        7 </v>
   <v type="int" >       12        2        3        6        6 </v>
   <v type="int" >       12        2        2        3        6 </v>
   <v type="int" >       12        3        6        7        7 </v>
   <v type="int" >       12        3        3        6        7 </v>
   <v type="int" >       12        2        3        3        6 </v>
   <v type="int" >       12        4        7        7        8 </v>
   <v type="int" >       12        3        4        7        7 </v>
   <v type="int" >       12        3        3        4        7 </v>
   <v type="int" >       12        4        7        8        8 </v>
   <v type="int" >       12        4        4        7        8 </v>
   <v type="int" >       12        3        4        4        7 </v>
   <v type="int" >       12        5        8        8        8 </v>
   <v type="int" >       12        4        5        8        8 </v>
   <v type="int" >       12        4        4        5        8 </v>
   <v type="int" >        6        5        5        8        8 </v>
   <v type="int" >       12        4        5        5        8 </v>
   <v type="int" >       12        7        7        7        9 </v>
   <v type="int" >       12        6        7        7        7 </v>
   <v type="int" >        6        6        6        7        7 </v>
   <v type="int" >        6        7        7        9        9 </v>
   <v type="int" >       12        8        9        9       10 </v>
   <v type="int" >       12        7        8        9        9 </v>
   <v type="int" >       12        7        7        8        9 </v>
   <v type="int" >       12        8        9       10       10 </v>
   <v type="int" >       12        8        8        9       10 </v>
   <v type="int" >       12        7        8        8        9 </v>
   <v type="int" >        6        8        8       10       10 </v>
   <v type="int" >       12        8        8        8       10 </v>
   <v type="int" >        6       10       10       10       10 </v>
   <v type="int" >       12        9       10       10       10 </v>
   <v type="int" >        6        9        9       10       10 </v>
  </varray>
  <i name="volumeweight">      0.00260417 </i>
 </kpoints>
 <parameters>
  <separator name="general" >
   <i type="string" name="SYSTEM">unknown system</i>
   <i type="logical" name="LCOMPAT"> F  </i>
  </separator>
  <separator name="electronic" >
   <i type="string" name="PREC">normal</i>
   <i name="ENMAX">    400.00000000</i>
   <i name="ENAUG">    345.27800000</i>
   <i name="EDIFF">      0.00001000</i>
   <i type="int" name="IALGO">    68</i>
   <i type="int" name="IWAVPR">    10</i>
   <i type="int" name="NBANDS">    14</i>
   <i name="NELECT">     18.00000000</i>
   <i type="int" name="TURBO">     0</i>
   <i type="int" name="IRESTART">     0</i>
   <i type="int" name="NREBOOT">     0</i>
   <i type="int" name="NMIN">     0</i>
   <i name="EREF">      0.00000000</i>
   <separator name="electronic smearing" >
    <i type="int" name="ISMEAR">    -5</i>
    <i name="SIGMA">      0.20000000</i>
    <i name="KSPACING">      0.50000000</i>
    <i type="logical" name="KGAMMA"> T  </i>
   </separator>
   <separator name="electronic projectors" >
    <i type="logical" name="LREAL"> F  </i>
    <v name="ROPT">      0.00000000      0.00000000</v>
    <i type="int" name="LMAXPAW">  -100</i>
    <i type="int" name="LMAXMIX">     2</i>
    <i type="logical" name="NLSPLINE"> F  </i>
   </separator>
   <separator name="electronic startup" >
    <i type="int" name="ISTART">     0</i>
    <i type="int" name="ICHARG">     2</i>
    <i type="int" name="INIWAV">     1</i>
   </separator>
   <separator name="electronic spin" >
    <i type="int" name="ISPIN">     1</i>
    <i type="logical" name="LNONCOLLINEAR"> F  </i>
    <v name="MAGMOM">      1.00000000      1.00000000      1.00000000</v>
    <i name="NUPDOWN">     -1.00000000</i>
    <i type="logical" name="LSORBIT"> F  </i>
    <v name="SAXIS">      0.00000000      0.00000000      1.00000000</v>
    <i type="logical" name="LSPIRAL"> F  </i>
    <v name="QSPIRAL">      0.00000000      0.00000000      0.00000000</v>
    <i type="logical" name="LZEROZ"> F  </i>
   </separator>
   <separator name="electronic exchange-correlation" >
    <i type="logical" name="LASPH"> F  </i>
    <i type="logical" name="LMETAGGA"> F  </i>
   </separator>
   <separator name="electronic convergence" >
    <i type="int" name="NELM">    60</i>
    <i type="int" name="NELMDL">    -5</i>
    <i type="int" name="NELMIN">     4</i>
    <i name="ENINI">    400.00000000</i>
    <separator name="electronic convergence detail" >
     <i type="logical" name="LDIAG"> T  </i>
     <i type="logical" name="LSUBROT"> F  </i>
     <i name="WEIMIN">      0.00000000</i>
     <i name="EBREAK">      0.00000018</i>
     <i name="DEPER">      0.30000000</i>
     <i type="int" name="NRMM">     4</i>
     <i name="TIME">      0.40000000</i>
    </separator>
   </separator>
   <separator name="electronic mixer" >
    <i name="AMIX">      0.40000000</i>
    <i name="BMIX">      1.00000000</i>
    <i name="AMIN">      0.10000000</i>
    <i name="AMIX_MAG">      1.60000000</i>
    <i name="BMIX_MAG">      1.00000000</i>
    <separator name="electronic mixer details" >
     <i type="int" name="IMIX">     4</i>
     <i type="logical" name="MIXFIRST"> F  </i>
     <i type="int" name="MAXMIX">   -45</i>
     <i name="WC">    100.00000000</i>
     <i type="int" name="INIMIX">     1</i>
     <i type="int" name="MIXPRE">     1</i>
     <i type="int" name="MREMOVE">     5</i>
    </separator>
   </separator>
   <separator name="electronic dipolcorrection" >
    <i type="logical" name="LDIPOL"> F  </i>
    <i type="logical" name="LMONO"> F  </i>
    <i type="int" name="IDIPOL">     0</i>
    <i name="EPSILON">      1.00000000</i>
    <v name="DIPOL">   -100.00000000   -100.00000000   -100.00000000</v>
    <i name="EFIELD">      0.00000000</i>
   </separator>
  </separator>
  <separator name="grids" >
   <i type="int" name="NGX">    16</i>
   <i type="int" name="NGY">    16</i>
   <i type="int" name="NGZ">   140</i>
   <i type="int" name="NGXF">    32</i>
   <i type="int" name="NGYF">    32</i>
   <i type="int" name="NGZF">   280</i>
   <i type="logical" name="ADDGRID"> F  </i>
  </separator>
  <separator name="ionic" >
   <i type="int" name="NSW">     0</i>
   <i type="int" name="IBRION">    -1</i>
   <i type="int" name="MDALGO">     0</i>
   <i type="int" name="ISIF">     2</i>
   <i name="PSTRESS">      0.00000000</i>
   <i name="EDIFFG">      0.00010000</i>
   <i type="int" name="NFREE">     0</i>
   <i name="POTIM">      0.50000000</i>
   <i name="SMASS">     -3.00000000</i>
   <i name="SCALEE">      1.00000000</i>
  </separator>
  <separator name="ionic md" >
   <i name="TEBEG">      0.00010000</i>
   <i name="TEEND">      0.00010000</i>
   <i type="int" name="NBLOCK">     1</i>
   <i type="int" name="KBLOCK">     1</i>
   <i type="int" name="NPACO">   256</i>
   <i name="APACO">     16.00000000</i>
  </separator>
  <separator name="symmetry" >
   <i type="int" name="ISYM">     2</i>
   <i name="SYMPREC">      0.00001000</i>
  </separator>
  <separator name="dos" >
   <i type="int" name="LORBIT">     0</i>
   <v name="RWIGS">     -1.00000000     -1.00000000</v>
   <i type="int" name="NEDOS">   301</i>
   <i name="EMIN">     10.00000000</i>
   <i name="EMAX">    -10.00000000</i>
   <i name="EFERMI">      0.00000000</i>
  </separator>
  <separator name="writing" >
   <i type="int" name="NWRITE">     2</i>
   <i type="logical" name="LWAVE"> F  </i>
   <i type="logical" name="LDOWNSAMPLE"> F  </i>
   <i type="logical" name="LCHARG"> T  </i>
   <i type="logical" name="LPARD"> F  </i>
   <i type="logical" name="LVTOT"> F  </i>
   <i type="logical" name="LVHAR"> F  </i>
   <i type="logical" name="LELF"> F  </i>
   <i type="logical" name="LOPTICS"> F  </i>
   <v name="STM">      0.00000000      0.00000000      0.00000000      0.00000000      0.00000000      0.00000000      0.00000000</v>
  </separator>
  <separator name="performance" >
   <i type="int" name="NPAR">     2</i>
   <i type="int" name="NSIM">     4</i>
   <i type="int" name="NBLK">    -1</i>
   <i type="logical" name="LPLANE"> T  </i>
   <i type="logical" name="LSCALAPACK"> T  </i>
   <i type="logical" name="LSCAAWARE"> F  </i>
   <i type="logical" name="LSCALU"> F  </i>
   <i type="logical" name="LASYNC"> F  </i>
   <i type="logical" name="LORBITALREAL"> F  </i>
  </separator>
  <separator name="miscellaneous" >
   <i type="int" name="IDIOT">     3</i>
   <i type="int" name="ISPECIAL">     0</i>
   <i type="logical" name="LMUSIC"> F  </i>
   <v name="POMASS">     95.94000000     32.06600000</v>
   <v name="DARWINR">      0.00000000      0.00000000</v>
   <v name="DARWINV">      1.00000000      1.00000000</v>
   <i type="logical" name="LCORR"> T  </i>
  </separator>
  <i type="logical" name="GGA_COMPAT"> T  </i>
  <i type="logical" name="LBERRY"> F  </i>
  <i type="int" name="ICORELEVEL">     0</i>
  <i type="logical" name="LDAU"> F  </i>
  <i type="int" name="I_CONSTRAINED_M">     0</i>
  <separator name="electronic exchange-correlation" >
   <i type="string" name="GGA">--</i>
   <i type="int" name="VOSKOWN">     0</i>
   <i type="logical" name="LHFCALC"> F  </i>
   <i type="string" name="PRECFOCK"></i>
   <i type="logical" name="LSYMGRAD"> F  </i>
   <i type="logical" name="LHFONE"> F  </i>
   <i type="logical" name="LRHFCALC"> F  </i>
   <i type="logical" name="LTHOMAS"> F  </i>
   <i type="logical" name="LMODELHF"> F  </i>
   <i name="ENCUT4O">     -1.00000000</i>
   <i type="int" name="EXXOEP">     0</i>
   <i type="int" name="FOURORBIT">     0</i>
   <i name="AEXX">      0.00000000</i>
   <i name="HFALPHA">      0.00000000</i>
   <i name="MCALPHA">      0.00000000</i>
   <i name="ALDAX">      1.00000000</i>
   <i name="AGGAX">      1.00000000</i>
   <i name="ALDAC">      1.00000000</i>
   <i name="AGGAC">      1.00000000</i>
   <i type="int" name="NKREDX">     1</i>
   <i type="int" name="NKREDY">     1</i>
   <i type="int" name="NKREDZ">     1</i>
   <i type="logical" name="SHIFTRED"> F  </i>
   <i type="logical" name="ODDONLY"> F  </i>
   <i type="logical" name="EVENONLY"> F  </i>
   <i type="int" name="LMAXFOCK">     0</i>
   <i type="int" name="NMAXFOCKAE">     0</i>
   <i type="logical" name="LFOCKAEDFT"> F  </i>
   <i name="HFSCREEN">      0.00000000</i>
   <i name="HFSCREENC">      0.00000000</i>
   <i type="int" name="NBANDSGWLOW">     0</i>
  </separator>
  <separator name="vdW DFT" >
   <i type="logical" name="LUSE_VDW"> F  </i>
   <i name="Zab_VDW">     -0.84910000</i>
   <i name="PARAM1">      0.12340000</i>
   <i name="PARAM2">      1.00000000</i>
   <i name="PARAM3">      0.00000000</i>
  </separator>
  <separator name="model GW" >
   <i type="int" name="MODEL_GW">     0</i>
   <i name="MODEL_EPS0">     47.38502723</i>
   <i name="MODEL_ALPHA">      1.00000000</i>
  </separator>
  <separator name="linear response parameters" >
   <i type="logical" name="LEPSILON"> F  </i>
   <i type="logical" name="LRPA"> F  </i>
   <i type="logical" name="LNABLA"> F  </i>
   <i type="logical" name="LVEL"> F  </i>
   <i type="int" name="KINTER">     0</i>
   <i name="CSHIFT">      0.10000000</i>
   <i name="OMEGAMAX">     -1.00000000</i>
   <i name="DEG_THRESHOLD">      0.00200000</i>
   <i name="RTIME">     -0.10000000</i>
   <i name="WPLASMAI">      0.00000000</i>
   <v name="DFIELD">      0.00000000      0.00000000      0.00000000</v>
   <v name="WPLASMA">      0.00000000      0.00000000      0.00000000      0.00000000      0.00000000      0.00000000      0.00000000      0.00000000      0.00000000</v>
  </separator>
  <separator name="orbital magnetization" >
   <i type="logical" name="NUCIND"> F  </i>
   <v name="MAGPOS">      0.00000000      0.00000000      0.00000000</v>
   <i type="logical" name="LNICSALL"> T  </i>
   <i type="logical" name="ORBITALMAG"> F  </i>
   <i type="logical" name="LMAGBLOCH"> F  </i>
   <i type="logical" name="LCHIMAG"> F  </i>
   <i type="logical" name="LGAUGE"> T  </i>
   <i type="int" name="MAGATOM">     0</i>
   <v name="MAGDIPOL">      0.00000000      0.00000000      0.00000000</v>
   <v name="AVECCONST">      0.00000000      0.00000000      0.00000000</v>
  </separator>
  <separator name="response functions" >
   <i type="logical" name="LADDER"> F  </i>
   <i type="logical" name="LRPAFORCE"> F  </i>
   <i type="logical" name="LFXC"> F  </i>
   <i type="logical" name="LHARTREE"> T  </i>
   <i type="int" name="IBSE">     0</i>
   <v type="int" name="KPOINT">    -1     0     0     0</v>
   <i type="logical" name="LTCTE"> F  </i>
   <i type="logical" name="LTETE"> F  </i>
   <i type="logical" name="LTRIPLET"> F  </i>
   <i type="logical" name="LFXCEPS"> F  </i>
   <i type="logical" name="LFXHEG"> F  </i>
   <i type="int" name="NATURALO">     2</i>
   <i type="logical" name="L2ORDER"> F  </i>
   <i type="logical" name="LMP2LT"> F  </i>
   <i type="logical" name="LUSEW"> F  </i>
   <i name="ENCUTGW">     -2.00000000</i>
   <i name="ENCUTGWSOFT">     -2.00000000</i>
   <i name="ENCUTLF">     -1.00000000</i>
   <i type="int" name="LMAXMP2">    -1</i>
   <i name="SCISSOR">      0.00000000</i>
   <i type="int" name="NOMEGA">     0</i>
   <i type="int" name="NOMEGAR">     0</i>
   <i type="int" name="NBANDSGW">    -1</i>
   <i type="int" name="NBANDSO">    -1</i>
   <i type="int" name="NBANDSV">    -1</i>
   <i type="int" name="NELM">     1</i>
   <i type="int" name="NELMHF">     1</i>
   <i type="int" name="DIM">     3</i>
   <i type="int" name="ANTIRES">     0</i>
   <i name="OMEGAMAX">    -30.00000000</i>
   <i name="OMEGAMIN">    -30.00000000</i>
   <i name="OMEGATL">   -200.00000000</i>
   <i type="int" name="OMEGAGRID">   140</i>
   <i name="CSHIFT">     -0.10000000</i>
   <i type="logical" name="SELFENERGY"> F  </i>
   <i type="logical" name="LSPECTRAL"> F  </i>
   <i type="logical" name="LSPECTRALGW"> F  </i>
   <i type="logical" name="LSINGLES"> F  </i>
   <i type="logical" name="LFERMIGW"> F  </i>
   <i type="logical" name="ODDONLYGW"> F  </i>
   <i type="logical" name="EVENONLYGW"> F  </i>
   <i type="int" name="NKREDLFX">     1</i>
   <i type="int" name="NKREDLFY">     1</i>
   <i type="int" name="NKREDLFZ">     1</i>
   <i type="int" name="MAXMEM">  2800</i>
   <i type="int" name="TELESCOPE">     0</i>
   <i type="int" name="TAUPAR">     1</i>
   <i type="int" name="OMEGAPAR">    -1</i>
   <i name="LAMBDA">      1.00000000</i>
  </separator>
  <separator name="External order field" >
   <i name="OFIELD_KAPPA">      0.00000000</i>
   <v name="OFIELD_K">      0.00000000      0.00000000      0.00000000</v>
   <i name="OFIELD_Q6_NEAR">      0.00000000</i>
   <i name="OFIELD_Q6_FAR">      0.00000000</i>
   <i name="OFIELD_A">      0.00000000</i>
  </separator>
 </parameters>
 <atominfo>
  <atoms>       3 </atoms>
  <types>       2 </types>
  <array name="atoms" >
   <dimension dim="1">ion</dimension>
   <field type="string">element</field>
   <field type="int">atomtype</field>
   <set>
    <rc><c>Mo</c><c>   1</c></rc>
    <rc><c>S </c><c>   2</c></rc>
    <rc><c>S </c><c>   2</c></rc>
   </set>
  </array>
  <array name="atomtypes" >
   <dimension dim="1">type</dimension>
   <field type="int">atomspertype</field>
   <field type="string">element</field>
   <field>mass</field>
   <field>valence</field>
   <field type="string">pseudopotential</field>
   <set>
    <rc><c>   1</c><c>Mo</c><c>     95.94000000</c><c>      6.00000000</c><c> PAW_PBE Mo 08Apr2002                   </c></rc>
    <rc><c>   2</c><c>S </c><c>     32.06600000</c><c>      6.00000000</c><c>  PAW_PBE S 17Jan2003                   </c></rc>
   </set>
  </array>
 </atominfo>
 <structure name="initialpos" >
  <crystal>
   <varray name="basis" >
    <v>       3.19031573       0.00000000       0.00000000 </v>
    <v>      -1.59515786       2.76289447       0.00000000 </v>
    <v>       0.00000000       0.00000000      26.87900430 </v>
   </varray>
   <i name="volume">    236.92513614 </i>
   <varray name="rec_basis" >
    <v>       0.31344860       0.18096963       0.00000000 </v>
    <v>       0.00000000       0.36193927       0.00000000 </v>
    <v>       0.00000000       0.00000000       0.03720376 </v>
   </varray>
  </crystal>
  <varray name="positions" >
   <v>       0.33333300       0.66666700       0.13838872 </v>
   <v>       0.66666700       0.33333300       0.08016914 </v>
   <v>       0.66666600       0.33333300       0.19660830 </v>
  </varray>
 </structure>
 <calculation>
  <scstep>
   <time name="dav">    0.18    0.18</time>
   <time name="total">    0.22    0.32</time>
   <energy>
    <i name="alphaZ">     12.51390764 </i>
    <i name="ewald">   4286.25630342 </i>
    <i name="hartreedc">  -4967.71356795 </i>
    <i name="XCdc">    -36.31055727 </i>
    <i name="pawpsdc">    406.88651198 </i>
    <i name="pawaedc">   -329.34073203 </i>
    <i name="eentropy">      0.00000000 </i>
    <i name="bandstr">    -12.96794140 </i>
    <i name="atom">    771.15234512 </i>
    <i name="e_fr_energy">    130.47626952 </i>
    <i name="e_wo_entrp">    130.47626952 </i>
    <i name="e_0_energy">    130.47626952 </i>
   </energy>
  </scstep>
  <scstep>
   <time name="dav">    0.27    0.28</time>
   <time name="total">    0.27    0.28</time>
   <energy>
    <i name="e_fr_energy">     -7.56962345 </i>
    <i name="e_wo_entrp">     -7.56962345 </i>
    <i name="e_0_energy">     -7.56962345 </i>
   </energy>
  </scstep>
  <scstep>
   <time name="dav">    0.22    0.22</time>
   <time name="total">    0.22    0.22</time>
   <energy>
    <i name="e_fr_energy">    -23.09104321 </i>
    <i name="e_wo_entrp">    -23.09104321 </i>
    <i name="e_0_energy">    -23.09104321 </i>
   </energy>
  </scstep>
  <scstep>
   <time name="dav">    0.20    0.20</time>
   <time name="total">    0.20    0.20</time>
   <energy>
    <i name="e_fr_energy">    -23.39833842 </i>
    <i name="e_wo_entrp">    -23.39833842 </i>
    <i name="e_0_energy">    -23.39833842 </i>
   </energy>
  </scstep>
  <scstep>
   <time name="dav">    0.21    0.21</time>
   <time name="total">    0.23    0.23</time>
   <energy>
    <i name="e_fr_energy">    -23.40691896 </i>
    <i name="e_wo_entrp">    -23.40691896 </i>
    <i name="e_0_energy">    -23.40691896 </i>
   </energy>
  </scstep>
  <scstep>
   <time name="diag">    0.03    0.03</time>
   <time name="diis">    0.15    0.15</time>
   <time name="orth">    0.00    0.00</time>
   <time name="total">    0.24    0.24</time>
   <energy>
    <i name="e_fr_energy">    -22.24640611 </i>
    <i name="e_wo_entrp">    -22.24640611 </i>
    <i name="e_0_energy">    -22.24640611 </i>
   </energy>
  </scstep>
  <scstep>
   <time name="diag">    0.03    0.03</time>
   <time name="diis">    0.14    0.14</time>
   <time name="orth">    0.00    0.00</time>
   <time name="total">    0.23    0.23</time>
   <energy>
    <i name="e_fr_energy">    -21.86115367 </i>
    <i name="e_wo_entrp">    -21.86115367 </i>
    <i name="e_0_energy">    -21.86115367 </i>
   </energy>
  </scstep>
  <scstep>
   <time name="diag">    0.03    0.03</time>
   <time name="diis">    0.15    0.15</time>
   <time name="orth">    0.00    0.00</time>
   <time name="total">    0.24    0.24</time>
   <energy>
    <i name="e_fr_energy">    -21.80142639 </i>
    <i name="e_wo_entrp">    -21.80142639 </i>
    <i name="e_0_energy">    -21.80142639 </i>
   </energy>
  </scstep>
  <scstep>
   <time name="diag">    0.03    0.03</time>
   <time name="diis">    0.17    0.17</time>
   <time name="orth">    0.00    0.00</time>
   <time name="total">    0.26    0.26</time>
   <energy>
    <i name="e_fr_energy">    -21.79661431 </i>
    <i name="e_wo_entrp">    -21.79661431 </i>
    <i name="e_0_energy">    -21.79661431 </i>
   </energy>
  </scstep>
  <scstep>
   <time name="diag">    0.03    0.03</time>
   <time name="diis">    0.17    0.17</time>
   <time name="orth">    0.00    0.00</time>
   <time name="total">    0.26    0.26</time>
   <energy>
    <i name="e_fr_energy">    -21.79587357 </i>
    <i name="e_wo_entrp">    -21.79587357 </i>
    <i name="e_0_energy">    -21.79587357 </i>
   </energy>
  </scstep>
  <scstep>
   <time name="diag">    0.03    0.03</time>
   <time name="diis">    0.16    0.16</time>
   <time name="orth">    0.00    0.00</time>
   <time name="total">    0.25    0.25</time>
   <energy>
    <i name="e_fr_energy">    -21.79579273 </i>
    <i name="e_wo_entrp">    -21.79579273 </i>
    <i name="e_0_energy">    -21.79579273 </i>
   </energy>
  </scstep>
  <scstep>
   <time name="diag">    0.03    0.03</time>
   <time name="diis">    0.15    0.15</time>
   <time name="orth">    0.00    0.00</time>
   <time name="total">    0.24    0.24</time>
   <energy>
    <i name="e_fr_energy">    -21.79559427 </i>
    <i name="e_wo_entrp">    -21.79559427 </i>
    <i name="e_0_energy">    -21.79559427 </i>
   </energy>
  </scstep>
  <scstep>
   <time name="diag">    0.03    0.03</time>
   <time name="diis">    0.14    0.14</time>
   <time name="orth">    0.00    0.00</time>
   <time name="total">    0.23    0.23</time>
   <energy>
    <i name="e_fr_energy">    -21.79585965 </i>
    <i name="e_wo_entrp">    -21.79585965 </i>
    <i name="e_0_energy">    -21.79585965 </i>
   </energy>
  </scstep>
  <scstep>
   <time name="diag">    0.03    0.03</time>
   <time name="diis">    0.13    0.13</time>
   <time name="orth">    0.00    0.00</time>
   <time name="total">    0.22    0.22</time>
   <energy>
    <i name="e_fr_energy">    -21.79589368 </i>
    <i name="e_wo_entrp">    -21.79589368 </i>
    <i name="e_0_energy">    -21.79589368 </i>
   </energy>
  </scstep>
  <scstep>
   <time name="diag">    0.03    0.03</time>
   <time name="diis">    0.11    0.11</time>
   <time name="orth">    0.00    0.00</time>
   <time name="total">    0.20    0.21</time>
   <energy>
    <i name="e_fr_energy">    -21.79599680 </i>
    <i name="e_wo_entrp">    -21.79599680 </i>
    <i name="e_0_energy">    -21.79599680 </i>
   </energy>
  </scstep>
  <scstep>
   <time name="diag">    0.03    0.03</time>
   <time name="diis">    0.11    0.11</time>
   <time name="orth">    0.00    0.00</time>
   <time name="total">    0.20    0.20</time>
   <energy>
    <i name="e_fr_energy">    -21.79602799 </i>
    <i name="e_wo_entrp">    -21.79602799 </i>
    <i name="e_0_energy">    -21.79602799 </i>
   </energy>
  </scstep>
  <scstep>
   <time name="diag">    0.03    0.03</time>
   <time name="diis">    0.10    0.10</time>
   <time name="orth">    0.00    0.00</time>
   <time name="total">    0.19    0.19</time>
   <energy>
    <i name="e_fr_energy">    -21.79607305 </i>
    <i name="e_wo_entrp">    -21.79607305 </i>
    <i name="e_0_energy">    -21.79607305 </i>
   </energy>
  </scstep>
  <scstep>
   <time name="diag">    0.03    0.03</time>
   <time name="diis">    0.09    0.09</time>
   <time name="orth">    0.00    0.00</time>
   <time name="total">    0.16    0.16</time>
   <energy>
    <i name="alphaZ">     12.51390764 </i>
    <i name="ewald">   4286.25630342 </i>
    <i name="hartreedc">  -4980.69237147 </i>
    <i name="XCdc">    -35.20352667 </i>
    <i name="pawpsdc">    472.12325679 </i>
    <i name="pawaedc">   -396.31375077 </i>
    <i name="eentropy">      0.00000000 </i>
    <i name="bandstr">   -151.63224482 </i>
    <i name="atom">    771.15234512 </i>
    <i name="e_fr_energy">    -21.79608076 </i>
    <i name="e_wo_entrp">    -21.79608076 </i>
    <i name="e_0_energy">    -21.79608076 </i>
   </energy>
  </scstep>
  <structure>
   <crystal>
    <varray name="basis" >
     <v>       3.19031573       0.00000000       0.00000000 </v>
     <v>      -1.59515786       2.76289447       0.00000000 </v>
     <v>       0.00000000       0.00000000      26.87900430 </v>
    </varray>
    <i name="volume">    236.92513614 </i>
    <varray name="rec_basis" >
     <v>       0.31344860       0.18096963       0.00000000 </v>
     <v>       0.00000000       0.36193927       0.00000000 </v>
     <v>       0.00000000       0.00000000       0.03720376 </v>
    </varray>
   </crystal>
   <varray name="positions" >
    <v>       0.33333300       0.66666700       0.13838872 </v>
    <v>       0.66666700       0.33333300       0.08016914 </v>
    <v>       0.66666600       0.33333300       0.19660830 </v>
   </varray>
  </structure>
  <varray name="forces" >
   <v>       0.00000000      -0.00000000      -0.00000000 </v>
   <v>      -0.00000000       0.00000000       0.11364059 </v>
   <v>       0.00000000       0.00000000      -0.11364059 </v>
  </varray>
  <varray name="stress" >
   <v>      -0.95573631       0.00000000       0.00000000 </v>
   <v>       0.00000000      -0.95573631       0.00000000 </v>
   <v>       0.00000000       0.00000000      -2.57320393 </v>
  </varray>
  <energy>
   <i name="e_fr_energy">    -22.38698982 </i>
   <i name="e_wo_entrp">    -22.38698982 </i>
   <i name="e_0_energy">      0.00000000 </i>
  </energy>
  <time name="totalsc">    4.70    5.09</time>
  <eigenvalues>
   <array>
    <dimension dim="1">band</dimension>
    <dimension dim="2">kpoint</dimension>
    <dimension dim="3">spin</dimension>
    <field>eigene</field>
    <field>occ</field>
    <set>
     <set comment="spin 1">
      <set comment="kpoint 1">
       <r>  -17.4634    1.0000 </r>
       <r>  -16.2554    1.0000 </r>
       <r>   -8.9838    1.0000 </r>
       <r>   -6.0229    1.0000 </r>
       <r>   -6.0229    1.0000 </r>
       <r>   -5.1616    1.0000 </r>
       <r>   -4.9173    1.0000 </r>
       <r>   -4.9173    1.0000 </r>
       <r>   -3.4415    1.0000 </r>
       <r>   -0.6697    0.0000 </r>
       <r>   -0.6697    0.0000 </r>
       <r>   -0.4460    0.0000 </r>
       <r>   -0.4460    0.0000 </r>
       <r>    1.9927    0.0000 </r>
      </set>
      <set comment="kpoint 2">
       <r>  -17.2492    1.0000 </r>
       <r>  -16.1530    1.0000 </r>
       <r>   -8.7392    1.0000 </r>
       <r>   -6.4863    1.0000 </r>
       <r>   -5.9696    1.0000 </r>
       <r>   -5.7885    1.0000 </r>
       <r>   -5.2530    1.0000 </r>
       <r>   -4.4841    1.0000 </r>
       <r>   -3.5799    1.0000 </r>
       <r>   -0.9499    0.0000 </r>
       <r>   -0.8841    0.0000 </r>
       <r>   -0.6826    0.0000 </r>
       <r>   -0.3149    0.0000 </r>
       <r>    2.3624    0.0000 </r>
      </set>
      <set comment="kpoint 3">
       <r>  -16.6805    1.0000 </r>
       <r>  -15.8842    1.0000 </r>
       <r>   -8.3731    1.0000 </r>
       <r>   -7.2129    1.0000 </r>
       <r>   -6.9505    1.0000 </r>
       <r>   -5.8880    1.0000 </r>
       <r>   -5.2014    1.0000 </r>
       <r>   -4.7356    1.0000 </r>
       <r>   -4.1478    1.0000 </r>
       <r>   -1.2742    0.0000 </r>
       <r>   -1.0974    0.0000 </r>
       <r>   -0.5555    0.0000 </r>
       <r>    0.3020    0.0000 </r>
       <r>    3.1779    0.0000 </r>
      </set>
      <set comment="kpoint 4">
       <r>  -16.0053    1.0000 </r>
       <r>  -15.5757    1.0000 </r>
       <r>   -8.8103    1.0000 </r>
       <r>   -7.8179    1.0000 </r>
       <r>   -7.3458    1.0000 </r>
       <r>   -6.3854    1.0000 </r>
       <r>   -5.1450    1.0000 </r>
       <r>   -4.6108    1.0000 </r>
       <r>   -4.3429    1.0000 </r>
       <r>   -1.2791    0.0000 </r>
       <r>   -1.0002    0.0000 </r>
       <r>    0.1631    0.0000 </r>
       <r>    0.6953    0.0000 </r>
       <r>    3.7015    0.0000 </r>
      </set>
      <set comment="kpoint 5">
       <r>  -15.6771    1.0000 </r>
       <r>  -15.4323    1.0000 </r>
       <r>   -9.1430    1.0000 </r>
       <r>   -8.1828    1.0000 </r>
       <r>   -7.4721    1.0000 </r>
       <r>   -6.5659    1.0000 </r>
       <r>   -5.2838    1.0000 </r>
       <r>   -4.3837    1.0000 </r>
       <r>   -4.0621    1.0000 </r>
       <r>   -1.2568    0.0000 </r>
       <r>   -0.7408    0.0000 </r>
       <r>    0.4617    0.0000 </r>
       <r>    0.8107    0.0000 </r>
       <r>    2.7409    0.0000 </r>
      </set>
      <set comment="kpoint 6">
       <r>  -16.8564    1.0000 </r>
       <r>  -15.9659    1.0000 </r>
       <r>   -8.3919    1.0000 </r>
       <r>   -7.0503    1.0000 </r>
       <r>   -6.5318    1.0000 </r>
       <r>   -6.0669    1.0000 </r>
       <r>   -5.4490    1.0000 </r>
       <r>   -4.3495    1.0000 </r>
       <r>   -3.9517    1.0000 </r>
       <r>   -1.3492    0.0000 </r>
       <r>   -0.9710    0.0000 </r>
       <r>   -0.9593    0.0000 </r>
       <r>    0.2799    0.0000 </r>
       <r>    2.9928    0.0000 </r>
      </set>
      <set comment="kpoint 7">
       <r>  -16.2228    1.0000 </r>
       <r>  -15.6673    1.0000 </r>
       <r>   -8.4546    1.0000 </r>
       <r>   -7.4770    1.0000 </r>
       <r>   -7.2140    1.0000 </r>
       <r>   -6.5712    1.0000 </r>
       <r>   -5.3495    1.0000 </r>
       <r>   -4.7118    1.0000 </r>
       <r>   -4.2353    1.0000 </r>
       <r>   -1.4326    0.0000 </r>
       <r>   -0.9842    0.0000 </r>
       <r>   -0.4893    0.0000 </r>
       <r>    0.7876    0.0000 </r>
       <r>    3.9475    0.0000 </r>
      </set>
      <set comment="kpoint 8">
       <r>  -15.6923    1.0000 </r>
       <r>  -15.4234    1.0000 </r>
       <r>   -8.8557    1.0000 </r>
       <r>   -8.2400    1.0000 </r>
       <r>   -7.3443    1.0000 </r>
       <r>   -6.5880    1.0000 </r>
       <r>   -5.3343    1.0000 </r>
       <r>   -5.1936    1.0000 </r>
       <r>   -3.9083    1.0000 </r>
       <r>   -1.2379    0.0000 </r>
       <r>   -0.7277    0.0000 </r>
       <r>    0.1325    0.0000 </r>
       <r>    0.8213    0.0000 </r>
       <r>    3.2678    0.0000 </r>
      </set>
      <set comment="kpoint 9">
       <r>  -15.7073    1.0000 </r>
       <r>  -15.4144    1.0000 </r>
       <r>   -8.4952    1.0000 </r>
       <r>   -8.2908    1.0000 </r>
       <r>   -7.0172    1.0000 </r>
       <r>   -6.6363    1.0000 </r>
       <r>   -6.3172    1.0000 </r>
       <r>   -5.0602    1.0000 </r>
       <r>   -3.9372    1.0000 </r>
       <r>   -1.2889    0.0000 </r>
       <r>   -0.6779    0.0000 </r>
       <r>   -0.3661    0.0000 </r>
       <r>    1.1093    0.0000 </r>
       <r>    4.1002    0.0000 </r>
      </set>
      <set comment="kpoint 10">
       <r>  -15.4724    1.0000 </r>
       <r>  -15.2952    1.0000 </r>
       <r>   -8.6752    1.0000 </r>
       <r>   -8.3263    1.0000 </r>
       <r>   -7.3015    1.0000 </r>
       <r>   -6.6389    1.0000 </r>
       <r>   -6.4087    1.0000 </r>
       <r>   -5.4465    1.0000 </r>
       <r>   -3.5698    1.0000 </r>
       <r>   -1.6146    0.0000 </r>
       <r>   -0.3077    0.0000 </r>
       <r>   -0.1273    0.0000 </r>
       <r>    1.2545    0.0000 </r>
       <r>    3.5108    0.0000 </r>
      </set>
     </set>
    </set>
   </array>
  </eigenvalues>
  <separator name="orbital magnetization" >
   <v name="MAGDIPOLOUT">      0.00000000      0.00000000      0.00000000</v>
  </separator>
  <dos>
   <i name="efermi">     -3.42225097 </i>
   <total>
    <array>
     <dimension dim="1">gridpoints</dimension>
     <dimension dim="2">spin</dimension>
     <field>energy</field>
     <field>total</field>
     <field>integrated</field>
     <set>
      <set comment="spin 1">
       <r>   -19.4634     0.0000     0.0000 </r>
       <r>   -19.3782     0.0000     0.0000 </r>
       <r>   -19.2930     0.0000     0.0000 </r>
       <r>   -19.2078     0.0000     0.0000 </r>
       <r>   -19.1226     0.0000     0.0000 </r>
       <r>   -19.0373     0.0000     0.0000 </r>
       <r>   -18.9521     0.0000     0.0000 </r>
       <r>   -18.8669     0.0000     0.0000 </r>
       <r>   -18.7817     0.0000     0.0000 </r>
       <r>   -18.6965     0.0000     0.0000 </r>
       <r>   -18.6113     0.0000     0.0000 </r>
       <r>   -18.5261     0.0000     0.0000 </r>
       <r>   -18.4409     0.0000     0.0000 </r>
       <r>   -18.3556     0.0000     0.0000 </r>
       <r>   -18.2704     0.0000     0.0000 </r>
       <r>   -18.1852     0.0000     0.0000 </r>
       <r>   -18.1000     0.0000     0.0000 </r>
       <r>   -18.0148     0.0000     0.0000 </r>
       <r>   -17.9296     0.0000     0.0000 </r>
       <r>   -17.8444     0.0000     0.0000 </r>
       <r>   -17.7592     0.0000     0.0000 </r>
       <r>   -17.6740     0.0000     0.0000 </r>
       <r>   -17.5887     0.0000     0.0000 </r>
       <r>   -17.5035     0.0000     0.0000 </r>
       <r>   -17.4183     0.1843     0.0042 </r>
       <r>   -17.3331     0.5326     0.0347 </r>
       <r>   -17.2479     0.4779     0.0944 </r>
       <r>   -17.1627     0.5174     0.1368 </r>
       <r>   -17.0775     0.5569     0.1826 </r>
       <r>   -16.9923     0.5964     0.2317 </r>
       <r>   -16.9070     0.6359     0.2842 </r>
       <r>   -16.8218     0.6622     0.3398 </r>
       <r>   -16.7366     0.6693     0.3966 </r>
       <r>   -16.6514     0.6853     0.4540 </r>
       <r>   -16.5662     0.7183     0.5138 </r>
       <r>   -16.4810     0.7513     0.5765 </r>
       <r>   -16.3958     0.7843     0.6419 </r>
       <r>   -16.3106     0.8174     0.7101 </r>
       <r>   -16.2253     1.3871     0.7892 </r>
       <r>   -16.1401     2.0611     0.9708 </r>
       <r>   -16.0549     2.3560     1.1590 </r>
       <r>   -15.9697     2.6757     1.3727 </r>
       <r>   -15.8845     2.8917     1.6102 </r>
       <r>   -15.7993     3.2298     1.8710 </r>
       <r>   -15.7141     3.5685     2.1606 </r>
       <r>   -15.6289     4.2219     2.6174 </r>
       <r>   -15.5437     4.2443     2.9750 </r>
       <r>   -15.4584     3.7663     3.3666 </r>
       <r>   -15.3732     3.3492     3.7768 </r>
       <r>   -15.2880     0.0000     4.0000 </r>
       <r>   -15.2028     0.0000     4.0000 </r>
       <r>   -15.1176     0.0000     4.0000 </r>
       <r>   -15.0324     0.0000     4.0000 </r>
       <r>   -14.9472     0.0000     4.0000 </r>
       <r>   -14.8620     0.0000     4.0000 </r>
       <r>   -14.7767     0.0000     4.0000 </r>
       <r>   -14.6915     0.0000     4.0000 </r>
       <r>   -14.6063     0.0000     4.0000 </r>
       <r>   -14.5211     0.0000     4.0000 </r>
       <r>   -14.4359     0.0000     4.0000 </r>
       <r>   -14.3507     0.0000     4.0000 </r>
       <r>   -14.2655     0.0000     4.0000 </r>
       <r>   -14.1803     0.0000     4.0000 </r>
       <r>   -14.0950     0.0000     4.0000 </r>
       <r>   -14.0098     0.0000     4.0000 </r>
       <r>   -13.9246     0.0000     4.0000 </r>
       <r>   -13.8394     0.0000     4.0000 </r>
       <r>   -13.7542     0.0000     4.0000 </r>
       <r>   -13.6690     0.0000     4.0000 </r>
       <r>   -13.5838     0.0000     4.0000 </r>
       <r>   -13.4986     0.0000     4.0000 </r>
       <r>   -13.4134     0.0000     4.0000 </r>
       <r>   -13.3281     0.0000     4.0000 </r>
       <r>   -13.2429     0.0000     4.0000 </r>
       <r>   -13.1577     0.0000     4.0000 </r>
       <r>   -13.0725     0.0000     4.0000 </r>
       <r>   -12.9873     0.0000     4.0000 </r>
       <r>   -12.9021     0.0000     4.0000 </r>
       <r>   -12.8169     0.0000     4.0000 </r>
       <r>   -12.7317     0.0000     4.0000 </r>
       <r>   -12.6464     0.0000     4.0000 </r>
       <r>   -12.5612     0.0000     4.0000 </r>
       <r>   -12.4760     0.0000     4.0000 </r>
       <r>   -12.3908     0.0000     4.0000 </r>
       <r>   -12.3056     0.0000     4.0000 </r>
       <r>   -12.2204     0.0000     4.0000 </r>
       <r>   -12.1352     0.0000     4.0000 </r>
       <r>   -12.0500     0.0000     4.0000 </r>
       <r>   -11.9647     0.0000     4.0000 </r>
       <r>   -11.8795     0.0000     4.0000 </r>
       <r>   -11.7943     0.0000     4.0000 </r>
       <r>   -11.7091     0.0000     4.0000 </r>
       <r>   -11.6239     0.0000     4.0000 </r>
       <r>   -11.5387     0.0000     4.0000 </r>
       <r>   -11.4535     0.0000     4.0000 </r>
       <r>   -11.3683     0.0000     4.0000 </r>
       <r>   -11.2831     0.0000     4.0000 </r>
       <r>   -11.1978     0.0000     4.0000 </r>
       <r>   -11.1126     0.0000     4.0000 </r>
       <r>   -11.0274     0.0000     4.0000 </r>
       <r>   -10.9422     0.0000     4.0000 </r>
       <r>   -10.8570     0.0000     4.0000 </r>
       <r>   -10.7718     0.0000     4.0000 </r>
       <r>   -10.6866     0.0000     4.0000 </r>
       <r>   -10.6014     0.0000     4.0000 </r>
       <r>   -10.5161     0.0000     4.0000 </r>
       <r>   -10.4309     0.0000     4.0000 </r>
       <r>   -10.3457     0.0000     4.0000 </r>
       <r>   -10.2605     0.0000     4.0000 </r>
       <r>   -10.1753     0.0000     4.0000 </r>
       <r>   -10.0901     0.0000     4.0000 </r>
       <r>   -10.0049     0.0000     4.0000 </r>
       <r>    -9.9197     0.0000     4.0000 </r>
       <r>    -9.8345     0.0000     4.0000 </r>
       <r>    -9.7492     0.0000     4.0000 </r>
       <r>    -9.6640     0.0000     4.0000 </r>
       <r>    -9.5788     0.0000     4.0000 </r>
       <r>    -9.4936     0.0000     4.0000 </r>
       <r>    -9.4084     0.0000     4.0000 </r>
       <r>    -9.3232     0.0000     4.0000 </r>
       <r>    -9.2380     0.0000     4.0000 </r>
       <r>    -9.1528     0.0000     4.0000 </r>
       <r>    -9.0675     0.4675     4.0176 </r>
       <r>    -8.9823     0.9997     4.0800 </r>
       <r>    -8.8971     1.7945     4.1990 </r>
       <r>    -8.8119     2.6335     4.3952 </r>
       <r>    -8.7267     2.8489     4.6362 </r>
       <r>    -8.6415     3.8223     4.9524 </r>
       <r>    -8.5563     3.1576     5.2498 </r>
       <r>    -8.4711     4.9005     5.5197 </r>
       <r>    -8.3858     3.9444     5.9748 </r>
       <r>    -8.3006     5.2552     6.1664 </r>
       <r>    -8.2154     2.7448     6.4983 </r>
       <r>    -8.1302     1.3280     6.6381 </r>
       <r>    -8.0450     1.1925     6.7455 </r>
       <r>    -7.9598     1.0569     6.8413 </r>
       <r>    -7.8746     0.9214     6.9256 </r>
       <r>    -7.7894     0.8328     6.9990 </r>
       <r>    -7.7042     0.8376     7.0702 </r>
       <r>    -7.6189     0.8423     7.1418 </r>
       <r>    -7.5337     0.8471     7.2138 </r>
       <r>    -7.4485     1.8759     7.3017 </r>
       <r>    -7.3633     4.8314     7.5875 </r>
       <r>    -7.2781     5.1760     8.1213 </r>
       <r>    -7.1929     5.1543     8.5417 </r>
       <r>    -7.1077     3.2627     8.9003 </r>
       <r>    -7.0225     1.4531     9.0989 </r>
       <r>    -6.9372     1.1870     9.2073 </r>
       <r>    -6.8520     1.0909     9.3043 </r>
       <r>    -6.7668     0.9948     9.3932 </r>
       <r>    -6.6816     0.8986     9.4739 </r>
       <r>    -6.5964    11.6790    10.0489 </r>
       <r>    -6.5112     3.8340    10.6353 </r>
       <r>    -6.4260     2.3976    10.9025 </r>
       <r>    -6.3408     2.3938    11.1859 </r>
       <r>    -6.2555     1.8385    11.3526 </r>
       <r>    -6.1703     1.7268    11.5045 </r>
       <r>    -6.0851     1.6151    11.6469 </r>
       <r>    -5.9999     3.4794    11.8121 </r>
       <r>    -5.9147     2.1513    12.0594 </r>
       <r>    -5.8295     1.6891    12.2362 </r>
       <r>    -5.7443     0.8722    12.3351 </r>
       <r>    -5.6591     0.8657    12.4091 </r>
       <r>    -5.5739     0.8593    12.4826 </r>
       <r>    -5.4886     0.8529    12.5556 </r>
       <r>    -5.4034     3.7010    12.7338 </r>
       <r>    -5.3182     9.3331    13.2434 </r>
       <r>    -5.2330     7.0226    13.9603 </r>
       <r>    -5.1478     1.8745    14.3477 </r>
       <r>    -5.0626     1.4996    14.4849 </r>
       <r>    -4.9774     1.4514    14.6104 </r>
       <r>    -4.8922     1.4750    14.7331 </r>
       <r>    -4.8069     1.6585    14.8666 </r>
       <r>    -4.7217     4.2124    15.0322 </r>
       <r>    -4.6365     3.2866    15.4288 </r>
       <r>    -4.5513     2.2962    15.6412 </r>
       <r>    -4.4661     2.7202    15.8447 </r>
       <r>    -4.3809     0.6800    15.9893 </r>
       <r>    -4.2957     1.3671    16.0323 </r>
       <r>    -4.2105     4.2318    16.2748 </r>
       <r>    -4.1252     3.7127    16.6108 </r>
       <r>    -4.0400     3.3946    16.9142 </r>
       <r>    -3.9548     3.0290    17.1879 </r>
       <r>    -3.8696     2.1141    17.4117 </r>
       <r>    -3.7844     1.8004    17.5785 </r>
       <r>    -3.6992     1.4867    17.7185 </r>
       <r>    -3.6140     1.1730    17.8318 </r>
       <r>    -3.5288     0.8546    17.9627 </r>
       <r>    -3.4436     0.0202    18.0000 </r>
       <r>    -3.3583     0.0000    18.0000 </r>
       <r>    -3.2731     0.0000    18.0000 </r>
       <r>    -3.1879     0.0000    18.0000 </r>
       <r>    -3.1027     0.0000    18.0000 </r>
       <r>    -3.0175     0.0000    18.0000 </r>
       <r>    -2.9323     0.0000    18.0000 </r>
       <r>    -2.8471     0.0000    18.0000 </r>
       <r>    -2.7619     0.0000    18.0000 </r>
       <r>    -2.6766     0.0000    18.0000 </r>
       <r>    -2.5914     0.0000    18.0000 </r>
       <r>    -2.5062     0.0000    18.0000 </r>
       <r>    -2.4210     0.0000    18.0000 </r>
       <r>    -2.3358     0.0000    18.0000 </r>
       <r>    -2.2506     0.0000    18.0000 </r>
       <r>    -2.1654     0.0000    18.0000 </r>
       <r>    -2.0802     0.0000    18.0000 </r>
       <r>    -1.9950     0.0000    18.0000 </r>
       <r>    -1.9097     0.0000    18.0000 </r>
       <r>    -1.8245     0.0000    18.0000 </r>
       <r>    -1.7393     0.0000    18.0000 </r>
       <r>    -1.6541     0.0000    18.0000 </r>
       <r>    -1.5689     0.6950    18.0603 </r>
       <r>    -1.4837     0.9175    18.1290 </r>
       <r>    -1.3985     5.8435    18.3577 </r>
       <r>    -1.3133     8.2449    18.9750 </r>
       <r>    -1.2280     0.9480    19.7091 </r>
       <r>    -1.1428     0.8014    19.7836 </r>
       <r>    -1.0576     3.6073    19.9045 </r>
       <r>    -0.9724     6.2075    20.5076 </r>
       <r>    -0.8872     5.6223    20.9349 </r>
       <r>    -0.8020     4.7807    21.3285 </r>
       <r>    -0.7168     4.0617    21.8261 </r>
       <r>    -0.6316     3.2922    22.1421 </r>
       <r>    -0.5463     2.4559    22.3866 </r>
       <r>    -0.4611     2.7178    22.5941 </r>
       <r>    -0.3759     2.6271    22.8142 </r>
       <r>    -0.2907     1.8711    23.0724 </r>
       <r>    -0.2055     2.3690    23.2530 </r>
       <r>    -0.1203     2.0359    23.5017 </r>
       <r>    -0.0351     1.9754    23.6726 </r>
       <r>     0.0501     1.9149    23.8384 </r>
       <r>     0.1353     1.7515    23.9986 </r>
       <r>     0.2206     1.9155    24.1719 </r>
       <r>     0.3058     1.6234    24.3188 </r>
       <r>     0.3910     1.2507    24.4413 </r>
       <r>     0.4762     0.9584    24.5326 </r>
       <r>     0.5614     1.0581    24.6185 </r>
       <r>     0.6466     1.1578    24.7129 </r>
       <r>     0.7318     3.0006    24.8476 </r>
       <r>     0.8170    13.8082    25.2806 </r>
       <r>     0.9023     1.8084    25.5098 </r>
       <r>     0.9875     1.4800    25.6499 </r>
       <r>     1.0727     1.1516    25.7621 </r>
       <r>     1.1579     1.1044    25.8530 </r>
       <r>     1.2431     1.2688    25.9541 </r>
       <r>     1.3283     0.0000    26.0000 </r>
       <r>     1.4135     0.0000    26.0000 </r>
       <r>     1.4987     0.0000    26.0000 </r>
       <r>     1.5840     0.0000    26.0000 </r>
       <r>     1.6692     0.0000    26.0000 </r>
       <r>     1.7544     0.0000    26.0000 </r>
       <r>     1.8396     0.0000    26.0000 </r>
       <r>     1.9248     0.0000    26.0000 </r>
       <r>     2.0100     0.0237    26.0002 </r>
       <r>     2.0952     0.1406    26.0072 </r>
       <r>     2.1804     0.2575    26.0242 </r>
       <r>     2.2656     0.3744    26.0511 </r>
       <r>     2.3509     0.4913    26.0880 </r>
       <r>     2.4361     0.3164    26.1164 </r>
       <r>     2.5213     0.3384    26.1443 </r>
       <r>     2.6065     0.3603    26.1740 </r>
       <r>     2.6917     0.3823    26.2057 </r>
       <r>     2.7769     0.4552    26.2401 </r>
       <r>     2.8621     0.5979    26.2850 </r>
       <r>     2.9473     0.7405    26.3420 </r>
       <r>     3.0326     0.8667    26.4108 </r>
       <r>     3.1178     0.9740    26.4893 </r>
       <r>     3.2030     1.1010    26.5771 </r>
       <r>     3.2882     1.6560    26.6864 </r>
       <r>     3.3734     1.6849    26.8288 </r>
       <r>     3.4586     1.7139    26.9736 </r>
       <r>     3.5438     2.0615    27.1626 </r>
       <r>     3.6290     2.0919    27.3396 </r>
       <r>     3.7143     2.0519    27.5187 </r>
       <r>     3.7995     1.6114    27.6747 </r>
       <r>     3.8847     1.1709    27.7933 </r>
       <r>     3.9699     1.6027    27.8956 </r>
       <r>     4.0551     0.5546    27.9875 </r>
       <r>     4.1403     0.0000    28.0000 </r>
       <r>     4.2255     0.0000    28.0000 </r>
       <r>     4.3107     0.0000    28.0000 </r>
       <r>     4.3959     0.0000    28.0000 </r>
       <r>     4.4812     0.0000    28.0000 </r>
       <r>     4.5664     0.0000    28.0000 </r>
       <r>     4.6516     0.0000    28.0000 </r>
       <r>     4.7368     0.0000    28.0000 </r>
       <r>     4.8220     0.0000    28.0000 </r>
       <r>     4.9072     0.0000    28.0000 </r>
       <r>     4.9924     0.0000    28.0000 </r>
       <r>     5.0776     0.0000    28.0000 </r>
       <r>     5.1629     0.0000    28.0000 </r>
       <r>     5.2481     0.0000    28.0000 </r>
       <r>     5.3333     0.0000    28.0000 </r>
       <r>     5.4185     0.0000    28.0000 </r>
       <r>     5.5037     0.0000    28.0000 </r>
       <r>     5.5889     0.0000    28.0000 </r>
       <r>     5.6741     0.0000    28.0000 </r>
       <r>     5.7593     0.0000    28.0000 </r>
       <r>     5.8445     0.0000    28.0000 </r>
       <r>     5.9298     0.0000    28.0000 </r>
       <r>     6.0150     0.0000    28.0000 </r>
       <r>     6.1002     0.0000    28.0000 </r>
      </set>
     </set>
    </array>
   </total>
  </dos>
 </calculation>
 <structure name="finalpos" >
  <crystal>
   <varray name="basis" >
    <v>       3.19031573       0.00000000       0.00000000 </v>
    <v>      -1.59515786       2.76289447       0.00000000 </v>
    <v>       0.00000000       0.00000000      26.87900430 </v>
   </varray>
   <i name="volume">    236.92513614 </i>
   <varray name="rec_basis" >
    <v>       0.31344860       0.18096963       0.00000000 </v>
    <v>       0.00000000       0.36193927       0.00000000 </v>
    <v>       0.00000000       0.00000000       0.03720376 </v>
   </varray>
  </crystal>
  <varray name="positions" >
   <v>       0.33333300       0.66666700       0.13838872 </v>
   <v>       0.66666700       0.33333300       0.08016914 </v>
   <v>       0.66666600       0.33333300       0.19660830 </v>
  </varray>
 </structure>
</modeling>
