unknown system                          
   1.00000000000000     
     3.190316    0.000000    0.000000
    -1.595158    2.762894    0.000000
     0.000000    0.000000   14.879004
   Mo   S 
     2     4
Direct
  0.333333  0.666667  0.250000
  0.666667  0.333333  0.750000
  0.333333  0.666667  0.855174
  0.666667  0.333333  0.144826
  0.666666  0.333333  0.355174
  0.333334  0.666667  0.644826
 
   40   40  192
 0.49885     0.50129     0.50861     0.52079     0.53777     0.55943     0.58556     0.61587     0.64998     0.68734    
 0.72720     0.76864     0.81054     0.85168     0.89083     0.92670     0.95809     0.98385      1.0030      1.0148    
  1.0188      1.0148      1.0030     0.98380     0.95802     0.92662     0.89073     0.85159     0.81044     0.76855    
 0.72712     0.68726     0.64991     0.61581     0.58551     0.55939     0.53774     0.52077     0.50860     0.50129    
 0.50129     0.50129     0.50617     0.51592     0.53052     0.54987     0.57381     0.60210     0.63441     0.67026    
 0.70903     0.74988     0.79178     0.83355     0.87395     0.91171     0.94559     0.97438     0.99703      1.0126    
  1.0206      1.0206      1.0126     0.99699     0.97433     0.94552     0.91162     0.87385     0.83344     0.79168    
 0.74979     0.70896     0.67020     0.63435     0.60205     0.57377     0.54984     0.53050     0.51591     0.50616    
 0.50860     0.50616     0.50860     0.51592     0.52811     0.54511     0.56681     0.59302     0.62345     0.65772    
 0.69527     0.73537     0.77709     0.81931     0.86083     0.90036     0.93663     0.96839     0.99446      1.0139    
  1.0258      1.0298      1.0258      1.0138     0.99441     0.96833     0.93655     0.90027     0.86073     0.81921    
 0.77699     0.73529     0.69520     0.65765     0.62340     0.59297     0.56677     0.54508     0.52808     0.51591    
 0.52077     0.51591     0.51591     0.52078     0.53052     0.54511     0.56448     0.58852     0.61697     0.64952    
 0.68570     0.72487     0.76620     0.80866     0.85107     0.89219     0.93072     0.96534     0.99479      1.0180    
  1.0339      1.0421      1.0421      1.0339      1.0179     0.99473     0.96526     0.93063     0.89210     0.85098    
 0.80857     0.76612     0.72480     0.68563     0.64946     0.61691     0.58847     0.56445     0.54508     0.53050    
 0.53774     0.53050     0.52809     0.53051     0.53776     0.54986     0.56680     0.58851     0.61482     0.64548    
 0.68009     0.71811     0.75879     0.80120     0.84422     0.88665     0.92720     0.96451     0.99724      1.0241    
  1.0442      1.0565      1.0607      1.0565      1.0441      1.0241     0.99717     0.96443     0.92712     0.88657    
 0.84414     0.80112     0.75872     0.71804     0.68002     0.64542     0.61477     0.58847     0.56677     0.54984    
 0.55939     0.54984     0.54509     0.54509     0.54985     0.55941     0.57380     0.59301     0.61696     0.64547    
 0.67824     0.71480     0.75451     0.79652     0.83980     0.88318     0.92540     0.96511      1.0009      1.0315    
  1.0555      1.0721      1.0805      1.0805      1.0721      1.0555      1.0314      1.0009     0.96504     0.92533    
 0.88311     0.83972     0.79645     0.75444     0.71474     0.67818     0.64542     0.61692     0.59297     0.57377    
 0.58551     0.57378     0.56678     0.56447     0.56679     0.57379     0.58554     0.60208     0.62344     0.64950    
 0.68007     0.71479     0.75311     0.79428     0.83736     0.88124     0.92469     0.96638      1.0049      1.0388    
  1.0668      1.0876      1.1004      1.1048      1.1004      1.0876      1.0668      1.0388      1.0049     0.96631    
 0.92461     0.88116     0.83728     0.79421     0.75305     0.71474     0.68003     0.64946     0.62340     0.60205    
 0.61582     0.60206     0.59298     0.58849     0.58849     0.59300     0.60208     0.61584     0.63439     0.65770    
 0.68568     0.71809     0.75449     0.79427     0.83657     0.88037     0.92450     0.96765      1.0084      1.0453    
  1.0769      1.1018      1.1191      1.1278      1.1278      1.1191      1.1018      1.0769      1.0453      1.0084    
 0.96758     0.92442     0.88030     0.83651     0.79421     0.75444     0.71804     0.68563     0.65765     0.63434    
 0.64991     0.63435     0.62341     0.61693     0.61480     0.61695     0.62343     0.63438     0.64995     0.67024    
 0.69525     0.72485     0.75877     0.79650     0.83733     0.88036     0.92447     0.96840      1.0108      1.0501    
  1.0849      1.1136      1.1351      1.1483      1.1528      1.1483      1.1351      1.1136      1.0849      1.0501    
  1.0107     0.96834     0.92440     0.88030     0.83728     0.79644     0.75872     0.72480     0.69520     0.67019    
 0.68726     0.67020     0.65767     0.64947     0.64544     0.64545     0.64949     0.65769     0.67023     0.68730    
 0.70900     0.73534     0.76617     0.80117     0.83977     0.88120     0.92447     0.96839      1.0116      1.0527    
  1.0900      1.1220      1.1474      1.1649      1.1738      1.1738      1.1649      1.1473      1.1220      1.0900    
  1.0526      1.0116     0.96834     0.92443     0.88116     0.83972     0.80111     0.76613     0.73529     0.70895    
 0.72711     0.70896     0.69522     0.68565     0.68005     0.67821     0.68007     0.68568     0.69524     0.70900    
 0.72716     0.74984     0.77704     0.80862     0.84419     0.88315     0.92465     0.96762      1.0108      1.0527    
  1.0917      1.1264      1.1551      1.1765      1.1898      1.1943      1.1898      1.1765      1.1551      1.1264    
  1.0917      1.0526      1.0107     0.96758     0.92462     0.88311     0.84414     0.80857     0.77700     0.74979    
 0.76854     0.74980     0.73531     0.72483     0.71806     0.71477     0.71478     0.71809     0.72485     0.73534    
 0.74984     0.76859     0.79172     0.81925     0.85102     0.88661     0.92536     0.96635      1.0084      1.0501    
  1.0900      1.1264      1.1577      1.1825      1.1997      1.2085      1.2086      1.1998      1.1825      1.1577    
  1.1264      1.0900      1.0501      1.0084     0.96632     0.92533     0.88657     0.85097     0.81922     0.79168    
 0.81044     0.79168     0.77701     0.76614     0.75874     0.75447     0.75309     0.75449     0.75877     0.76618    
 0.77706     0.79174     0.81049     0.83348     0.86076     0.89213     0.92714     0.96506      1.0049      1.0453    
  1.0849      1.1220      1.1551      1.1826      1.2031      1.2159      1.2202      1.2159      1.2031      1.1825    
  1.1551      1.1220      1.0849      1.0453      1.0049     0.96505     0.92712     0.89209     0.86072     0.83345    
 0.85159     0.83345     0.81922     0.80859     0.80114     0.79647     0.79425     0.79426     0.79650     0.80117    
 0.80863     0.81928     0.83351     0.85164     0.87389     0.90030     0.93065     0.96443      1.0009      1.0388    
  1.0769      1.1136      1.1473      1.1765      1.1998      1.2159      1.2241      1.2241      1.2159      1.1998    
  1.1765      1.1474      1.1136      1.0769      1.0388      1.0009     0.96444     0.93063     0.90026     0.87385    
 0.89074     0.87385     0.86073     0.85099     0.84417     0.83975     0.83731     0.83655     0.83734     0.83978    
 0.84420     0.85104     0.86080     0.87391     0.89078     0.91166     0.93658     0.96526     0.99716      1.0314    
  1.0668      1.1018      1.1350      1.1649      1.1898      1.2086      1.2202      1.2241      1.2202      1.2086    
  1.1898      1.1649      1.1351      1.1018      1.0668      1.0314     0.99718     0.96526     0.93655     0.91163    
 0.92662     0.91163     0.90027     0.89211     0.88659     0.88314     0.88119     0.88034     0.88036     0.88122    
 0.88317     0.88664     0.89217     0.90033     0.91168     0.92666     0.94555     0.96834     0.99472      1.0241    
  1.0554      1.0876      1.1190      1.1483      1.1738      1.1943      1.2086      1.2159      1.2159      1.2086    
  1.1943      1.1738      1.1483      1.1191      1.0876      1.0555      1.0241     0.99474     0.96832     0.94551    
 0.95802     0.94552     0.93655     0.93063     0.92713     0.92536     0.92464     0.92446     0.92445     0.92449    
 0.92468     0.92540     0.92719     0.93070     0.93661     0.94556     0.95805     0.97435     0.99441      1.0179    
  1.0441      1.0720      1.1004      1.1278      1.1528      1.1738      1.1898      1.1998      1.2031      1.1998    
  1.1898      1.1738      1.1528      1.1278      1.1004      1.0721      1.0441      1.0179     0.99441     0.97432    
 0.98379     0.97433     0.96833     0.96526     0.96444     0.96507     0.96635     0.96761     0.96838     0.96839    
 0.96764     0.96638     0.96512     0.96451     0.96534     0.96838     0.97436     0.98382     0.99699      1.0138    
  1.0339      1.0564      1.0805      1.1047      1.1278      1.1483      1.1649      1.1765      1.1825      1.1825    
  1.1765      1.1649      1.1483      1.1278      1.1048      1.0805      1.0565      1.0339      1.0138     0.99698    
  1.0030     0.99698     0.99442     0.99474     0.99719      1.0009      1.0049      1.0084      1.0108      1.0116    
  1.0108      1.0084      1.0049      1.0009     0.99726     0.99481     0.99447     0.99702      1.0030      1.0126    
  1.0258      1.0420      1.0606      1.0805      1.1004      1.1190      1.1351      1.1474      1.1551      1.1577    
  1.1551      1.1474      1.1351      1.1191      1.1005      1.0805      1.0607      1.0421      1.0258      1.0126    
  1.0148      1.0126      1.0138      1.0179      1.0241      1.0314      1.0388      1.0453      1.0501      1.0527    
  1.0527      1.0501      1.0453      1.0389      1.0315      1.0242      1.0180      1.0139      1.0126      1.0148    
  1.0206      1.0298      1.0420      1.0564      1.0720      1.0876      1.1018      1.1136      1.1220      1.1264    
  1.1264      1.1220      1.1136      1.1018      1.0876      1.0721      1.0565      1.0421      1.0298      1.0206    
  1.0188      1.0206      1.0258      1.0339      1.0442      1.0555      1.0668      1.0769      1.0849      1.0900    
  1.0918      1.0900      1.0849      1.0769      1.0668      1.0555      1.0442      1.0340      1.0258      1.0206    
  1.0188      1.0206      1.0258      1.0339      1.0441      1.0554      1.0667      1.0769      1.0849      1.0900    
  1.0917      1.0900      1.0849      1.0769      1.0668      1.0555      1.0442      1.0339      1.0258      1.0206    
  1.0148      1.0206      1.0298      1.0421      1.0565      1.0721      1.0876      1.1019      1.1137      1.1221    
  1.1264      1.1264      1.1221      1.1137      1.1019      1.0877      1.0721      1.0566      1.0421      1.0299    
  1.0206      1.0148      1.0126      1.0138      1.0179      1.0241      1.0314      1.0388      1.0453      1.0501    
  1.0527      1.0527      1.0501      1.0453      1.0388      1.0314      1.0241      1.0180      1.0139      1.0126    
  1.0030      1.0126      1.0258      1.0421      1.0607      1.0806      1.1005      1.1191      1.1351      1.1474    
  1.1551      1.1578      1.1551      1.1474      1.1351      1.1191      1.1005      1.0806      1.0607      1.0421    
  1.0258      1.0126      1.0030     0.99698     0.99440     0.99473     0.99718      1.0009      1.0049      1.0084    
  1.0108      1.0116      1.0108      1.0084      1.0049      1.0009     0.99723     0.99479     0.99447     0.99703    
 0.98384     0.99702      1.0139      1.0339      1.0565      1.0806      1.1048      1.1279      1.1484      1.1650    
  1.1766      1.1826      1.1826      1.1766      1.1650      1.1484      1.1279      1.1049      1.0806      1.0566    
  1.0340      1.0139     0.99702     0.98382     0.97433     0.96832     0.96527     0.96445     0.96506     0.96634    
 0.96762     0.96839     0.96839     0.96764     0.96639     0.96512     0.96450     0.96533     0.96839     0.97439    
 0.95809     0.97438     0.99447      1.0180      1.0442      1.0721      1.1005      1.1279      1.1528      1.1739    
  1.1899      1.1998      1.2032      1.1998      1.1899      1.1739      1.1529      1.1279      1.1005      1.0722    
  1.0442      1.0180     0.99447     0.97438     0.95805     0.94553     0.93657     0.93065     0.92714     0.92536    
 0.92466     0.92448     0.92447     0.92449     0.92469     0.92541     0.92720     0.93070     0.93663     0.94560    
 0.92671     0.94559     0.96839     0.99480      1.0242      1.0555      1.0876      1.1191      1.1484      1.1739    
  1.1944      1.2086      1.2160      1.2159      1.2086      1.1944      1.1739      1.1484      1.1191      1.0877    
  1.0556      1.0242     0.99480     0.96839     0.94558     0.92666     0.91166     0.90030     0.89213     0.88660    
 0.88314     0.88121     0.88037     0.88037     0.88123     0.88319     0.88666     0.89218     0.90035     0.91172    
 0.89084     0.91172     0.93663     0.96534     0.99725      1.0315      1.0668      1.1019      1.1351      1.1650    
  1.1899      1.2086      1.2203      1.2242      1.2203      1.2086      1.1899      1.1649      1.1351      1.1019    
  1.0668      1.0315     0.99724     0.96533     0.93662     0.91169     0.89078     0.87389     0.86077     0.85101    
 0.84417     0.83977     0.83734     0.83657     0.83735     0.83980     0.84423     0.85107     0.86082     0.87395    
 0.85169     0.87395     0.90036     0.93072     0.96452      1.0009      1.0389      1.0769      1.1137      1.1474    
  1.1766      1.1998      1.2160      1.2242      1.2242      1.2160      1.1998      1.1766      1.1474      1.1137    
  1.0770      1.0389      1.0009     0.96450     0.93070     0.90033     0.87390     0.85164     0.83350     0.81926    
 0.80861     0.80116     0.79650     0.79427     0.79428     0.79652     0.80120     0.80866     0.81930     0.83354    
 0.81054     0.83355     0.86083     0.89219     0.92721     0.96514      1.0049      1.0454      1.0849      1.1221    
  1.1551      1.1826      1.2032      1.2160      1.2203      1.2159      1.2032      1.1826      1.1551      1.1221    
  1.0849      1.0454      1.0049     0.96512     0.92719     0.89217     0.86079     0.83349     0.81049     0.79173    
 0.77705     0.76617     0.75877     0.75450     0.75311     0.75451     0.75879     0.76621     0.77709     0.79177    
 0.76863     0.79178     0.81932     0.85108     0.88667     0.92543     0.96642      1.0084      1.0502      1.0900    
  1.1264      1.1578      1.1826      1.1998      1.2086      1.2086      1.1998      1.1826      1.1578      1.1264    
  1.0900      1.0501      1.0084     0.96639     0.92540     0.88665     0.85105     0.81927     0.79173     0.76859    
 0.74984     0.73534     0.72485     0.71809     0.71480     0.71480     0.71811     0.72488     0.73538     0.74988    
 0.72720     0.74989     0.77710     0.80867     0.84424     0.88321     0.92472     0.96768      1.0108      1.0527    
  1.0918      1.1264      1.1551      1.1766      1.1899      1.1944      1.1899      1.1766      1.1551      1.1264    
  1.0917      1.0527      1.0108     0.96764     0.92467     0.88318     0.84421     0.80863     0.77705     0.74984    
 0.72716     0.70900     0.69524     0.68568     0.68008     0.67824     0.68008     0.68570     0.69528     0.70904    
 0.68733     0.70904     0.73539     0.76623     0.80122     0.83983     0.88127     0.92454     0.96844      1.0117    
  1.0527      1.0900      1.1221      1.1474      1.1650      1.1739      1.1739      1.1650      1.1474      1.1221    
  1.0900      1.0527      1.0116     0.96839     0.92447     0.88121     0.83978     0.80118     0.76618     0.73534    
 0.70900     0.68730     0.67023     0.65769     0.64951     0.64547     0.64547     0.64952     0.65772     0.67027    
 0.64998     0.67027     0.69528     0.72490     0.75882     0.79655     0.83739     0.88042     0.92451     0.96844    
  1.0108      1.0502      1.0849      1.1137      1.1351      1.1484      1.1528      1.1484      1.1351      1.1137    
  1.0849      1.0501      1.0108     0.96839     0.92445     0.88035     0.83733     0.79650     0.75877     0.72485    
 0.69524     0.67024     0.64995     0.63438     0.62344     0.61696     0.61482     0.61697     0.62345     0.63441    
 0.61588     0.63441     0.65773     0.68572     0.71813     0.75454     0.79432     0.83662     0.88041     0.92453    
 0.96768      1.0085      1.0454      1.0770      1.1019      1.1191      1.1279      1.1279      1.1191      1.1019    
  1.0769      1.0453      1.0084     0.96762     0.92447     0.88035     0.83655     0.79426     0.75449     0.71808    
 0.68567     0.65769     0.63438     0.61584     0.60208     0.59301     0.58851     0.58851     0.59302     0.60210    
 0.58556     0.60211     0.62347     0.64954     0.68011     0.71483     0.75315     0.79432     0.83739     0.88127    
 0.92472     0.96641      1.0049      1.0389      1.0668      1.0877      1.1005      1.1048      1.1005      1.0876    
  1.0668      1.0388      1.0049     0.96634     0.92464     0.88120     0.83732     0.79425     0.75309     0.71477    
 0.68006     0.64949     0.62343     0.60208     0.58554     0.57380     0.56680     0.56449     0.56681     0.57381    
 0.55943     0.57382     0.59303     0.61699     0.64550     0.67827     0.71483     0.75454     0.79655     0.83983    
 0.88321     0.92543     0.96513      1.0009      1.0315      1.0555      1.0721      1.0806      1.0806      1.0721    
  1.0555      1.0314      1.0009     0.96506     0.92535     0.88313     0.83975     0.79648     0.75448     0.71477    
 0.67821     0.64545     0.61694     0.59300     0.57379     0.55941     0.54986     0.54510     0.54511     0.54987    
 0.53777     0.54988     0.56682     0.58853     0.61485     0.64550     0.68011     0.71813     0.75882     0.80122    
 0.84425     0.88668     0.92721     0.96451     0.99724      1.0242      1.0442      1.0565      1.0607      1.0565    
  1.0442      1.0241     0.99720     0.96445     0.92713     0.88658     0.84416     0.80114     0.75874     0.71807    
 0.68005     0.64545     0.61480     0.58849     0.56679     0.54986     0.53776     0.53051     0.52810     0.53052    
 0.52079     0.53053     0.54512     0.56450     0.58853     0.61699     0.64954     0.68572     0.72490     0.76622    
 0.80867     0.85109     0.89220     0.93072     0.96534     0.99479      1.0180      1.0339      1.0421      1.0421    
  1.0339      1.0179     0.99474     0.96527     0.93064     0.89211     0.85099     0.80858     0.76614     0.72482    
 0.68565     0.64948     0.61694     0.58849     0.56446     0.54509     0.53051     0.52078     0.51592     0.51592    
 0.50861     0.51593     0.52811     0.54512     0.56682     0.59303     0.62347     0.65773     0.69529     0.73538    
 0.77709     0.81931     0.86083     0.90037     0.93664     0.96840     0.99447      1.0139      1.0258      1.0298    
  1.0258      1.0138     0.99441     0.96832     0.93655     0.90028     0.86074     0.81923     0.77701     0.73530    
 0.69521     0.65766     0.62341     0.59298     0.56678     0.54509     0.52809     0.51592     0.50860     0.50617    
 0.50129     0.50617     0.51593     0.53053     0.54988     0.57382     0.60211     0.63442     0.67027     0.70904    
 0.74989     0.79177     0.83354     0.87395     0.91172     0.94560     0.97440     0.99703      1.0126      1.0206    
  1.0206      1.0126     0.99698     0.97432     0.94551     0.91162     0.87385     0.83345     0.79169     0.74980    
 0.70896     0.67020     0.63435     0.60206     0.57377     0.54984     0.53050     0.51591     0.50616     0.50129    
 0.50680     0.50933     0.51691     0.52954     0.54717     0.56969     0.59689     0.62847     0.66403     0.70299    
 0.74458     0.78783     0.83160     0.87461     0.91557     0.95314     0.98603      1.0130      1.0331      1.0455    
  1.0497      1.0455      1.0331      1.0130     0.98596     0.95305     0.91547     0.87451     0.83150     0.78774    
 0.74449     0.70291     0.66396     0.62841     0.59684     0.56965     0.54714     0.52951     0.51689     0.50932    
 0.50932     0.50933     0.51462     0.52521     0.54110     0.56222     0.58841     0.61943     0.65489     0.69427    
 0.73688     0.78178     0.82785     0.87381     0.91830     0.95994     0.99732      1.0291      1.0541      1.0714    
  1.0802      1.0801      1.0713      1.0541      1.0291     0.99725     0.95985     0.91820     0.87370     0.82774    
 0.78169     0.73680     0.69421     0.65483     0.61937     0.58837     0.56218     0.54107     0.52519     0.51461    
 0.51690     0.51414     0.51690     0.52521     0.53907     0.55849     0.58336     0.61348     0.64853     0.68804    
 0.73136     0.77763     0.82578     0.87452     0.92249     0.96820      1.0102      1.0470      1.0772      1.0997    
  1.1135      1.1182      1.1135      1.0996      1.0772      1.0469      1.0101     0.96811     0.92239     0.87442    
 0.82568     0.77755     0.73129     0.68798     0.64847     0.61343     0.58332     0.55846     0.53905     0.52519    
 0.52952     0.52376     0.52376     0.52953     0.54109     0.55848     0.58168     0.61053     0.64480     0.68405    
 0.72771     0.77500     0.82488     0.87612     0.92734     0.97703      1.0236      1.0655      1.1012      1.1293    
  1.1486      1.1585      1.1585      1.1486      1.1292      1.1011      1.0654      1.0235     0.97694     0.92726    
 0.87604     0.82480     0.77492     0.72765     0.68399     0.64474     0.61049     0.58164     0.55846     0.54107    
 0.54714     0.53816     0.53517     0.53816     0.54715     0.56221     0.58335     0.61053     0.64356     0.68211    
 0.72566     0.77350     0.82467     0.87801     0.93212     0.98550      1.0365      1.0835      1.1247      1.1586    
  1.1839      1.1994      1.2047      1.1994      1.1839      1.1586      1.1247      1.0834      1.0364     0.98542    
 0.93204     0.87793     0.82460     0.77343     0.72559     0.68205     0.64351     0.61049     0.58332     0.56218    
 0.56965     0.55724     0.55108     0.55108     0.55725     0.56967     0.58840     0.61347     0.64478     0.68210    
 0.72499     0.77283     0.82474     0.87962     0.93612     0.99274      1.0478      1.0997      1.1464      1.1863    
  1.2177      1.2393      1.2504      1.2504      1.2393      1.2177      1.1862      1.1463      1.0996      1.0478    
 0.99266     0.93604     0.87954     0.82467     0.77276     0.72493     0.68205     0.64474     0.61343     0.58837    
 0.59684     0.58086     0.57135     0.56819     0.57135     0.58087     0.59686     0.61941     0.64851     0.68403    
 0.72564     0.77281     0.82479     0.88053     0.93877     0.99803      1.0567      1.1129      1.1648      1.2106    
  1.2482      1.2763      1.2936      1.2995      1.2936      1.2763      1.2482      1.2105      1.1648      1.1128    
  1.0566     0.99794     0.93869     0.88046     0.82472     0.77276     0.72559     0.68399     0.64847     0.61938    
 0.62841     0.60877     0.59579     0.58936     0.58937     0.59581     0.60878     0.62844     0.65487     0.68802    
 0.72769     0.77347     0.82472     0.88051     0.93968      1.0008      1.0623      1.1223      1.1789      1.2301    
  1.2739      1.3085      1.3324      1.3446      1.3446      1.3324      1.3085      1.2739      1.2301      1.1788    
  1.1222      1.0622      1.0007     0.93961     0.88045     0.82467     0.77343     0.72765     0.68797     0.65483    
 0.66396     0.64064     0.62417     0.61440     0.61117     0.61441     0.62419     0.64066     0.66399     0.69425    
 0.73133     0.77497     0.82465     0.87959     0.93874      1.0008      1.0642      1.1271      1.1877      1.2438    
  1.2933      1.3343      1.3648      1.3837      1.3900      1.3837      1.3648      1.3342      1.2933      1.2438    
  1.1876      1.1270      1.0641      1.0007     0.93869     0.87954     0.82460     0.77493     0.73129     0.69420    
 0.70291     0.67603     0.65612     0.64302     0.63655     0.63656     0.64304     0.65613     0.67605     0.70294    
 0.73684     0.77760     0.82484     0.87798     0.93609     0.99799      1.0622      1.1271      1.1907      1.2508    
  1.3054      1.3522      1.3892      1.4148      1.4278      1.4279      1.4148      1.3892      1.3522      1.3054    
  1.2508      1.1906      1.1270      1.0622     0.99795     0.93604     0.87792     0.82480     0.77755     0.73680    
 0.74449     0.71430     0.69114     0.67485     0.66522     0.66205     0.66524     0.67487     0.69116     0.71434    
 0.74453     0.78173     0.82572     0.87608     0.93209     0.99271      1.0566      1.1222      1.1877      1.2508    
  1.3095      1.3614      1.4043      1.4364      1.4562      1.4629      1.4562      1.4364      1.4043      1.3614    
  1.3095      1.2508      1.1876      1.1222      1.0566     0.99266     0.93203     0.87604     0.82569     0.78169    
 0.78773     0.75465     0.72857     0.70935     0.69677     0.69056     0.69057     0.69679     0.70937     0.72860    
 0.75470     0.78778     0.82778     0.87446     0.92729     0.98545      1.0478      1.1129      1.1789      1.2438    
  1.3054      1.3614      1.4094      1.4475      1.4738      1.4873      1.4873      1.4738      1.4475      1.4094    
  1.3614      1.3054      1.2438      1.1788      1.1128      1.0478     0.98541     0.92725     0.87443     0.82775    
 0.83150     0.79607     0.76753     0.74579     0.73058     0.72163     0.71869     0.72165     0.73061     0.74581    
 0.76758     0.79613     0.83154     0.87374     0.92242     0.97697      1.0365      1.0996      1.1648      1.2301    
  1.2933      1.3522      1.4043      1.4475      1.4798      1.4997      1.5065      1.4997      1.4798      1.4475    
  1.4043      1.3522      1.2933      1.2301      1.1648      1.0996      1.0364     0.97693     0.92238     0.87371    
 0.87452     0.83741     0.80702     0.78326     0.76590     0.75461     0.74907     0.74908     0.75463     0.76593    
 0.78330     0.80707     0.83747     0.87456     0.91824     0.96814      1.0235      1.0834      1.1463      1.2105    
  1.2739      1.3342      1.3892      1.4364      1.4738      1.4997      1.5130      1.5130      1.4997      1.4738    
  1.4364      1.3892      1.3343      1.2739      1.2105      1.1463      1.0834      1.0235     0.96811     0.91821    
 0.91549     0.87744     0.84588     0.82075     0.80180     0.78868     0.78101     0.77850     0.78104     0.78871    
 0.80183     0.82080     0.84594     0.87749     0.91552     0.95989      1.0101      1.0654      1.1247      1.1862    
  1.2482      1.3085      1.3648      1.4148      1.4562      1.4873      1.5065      1.5130      1.5065      1.4873    
  1.4562      1.4148      1.3648      1.3085      1.2482      1.1862      1.1247      1.0654      1.0101     0.95985    
 0.95306     0.91489     0.88292     0.85713     0.83726     0.82292     0.81369     0.80920     0.80922     0.81373    
 0.82295     0.83730     0.85719     0.88298     0.91493     0.95310     0.99728      1.0469      1.1011      1.1586    
  1.2176      1.2763      1.3324      1.3836      1.4278      1.4629      1.4873      1.4997      1.4997      1.4873    
  1.4629      1.4278      1.3837      1.3324      1.2763      1.2176      1.1586      1.1011      1.0469     0.99724    
 0.98596     0.94850     0.91694     0.89124     0.87118     0.85632     0.84618     0.84032     0.83843     0.84035    
 0.84622     0.85635     0.87123     0.89131     0.91699     0.94854     0.98599      1.0291      1.0771      1.1292    
  1.1838      1.2393      1.2936      1.3446      1.3900      1.4278      1.4562      1.4738      1.4798      1.4738    
  1.4562      1.4278      1.3900      1.3446      1.2936      1.2393      1.1839      1.1292      1.0771      1.0290    
  1.0130     0.97709     0.94674     0.92193     0.90242     0.88778     0.87745     0.87093     0.86779     0.86781    
 0.87096     0.87749     0.88782     0.90249     0.92200     0.94678     0.97712      1.0130      1.0541      1.0996    
  1.1485      1.1994      1.2503      1.2994      1.3446      1.3837      1.4148      1.4364      1.4475      1.4475    
  1.4364      1.4148      1.3837      1.3446      1.2995      1.2504      1.1994      1.1486      1.0997      1.0541    
  1.0331     0.99957     0.97121     0.94805     0.92986     0.91617     0.90642     0.89998     0.89635     0.89519    
 0.89636     0.90000     0.90645     0.91623     0.92993     0.94811     0.97125     0.99960      1.0331      1.0713    
  1.1135      1.1584      1.2046      1.2503      1.2936      1.3324      1.3648      1.3892      1.4043      1.4094    
  1.4043      1.3892      1.3648      1.3324      1.2936      1.2504      1.2047      1.1585      1.1135      1.0713    
  1.0455      1.0151     0.98941     0.96860     0.95243     0.94042     0.93195     0.92635     0.92301     0.92146    
 0.92147     0.92302     0.92637     0.93199     0.94048     0.95249     0.96866     0.98945      1.0151      1.0455    
  1.0801      1.1182      1.1584      1.1994      1.2393      1.2763      1.3085      1.3343      1.3522      1.3614    
  1.3614      1.3522      1.3343      1.3085      1.2763      1.2393      1.1994      1.1585      1.1182      1.0802    
  1.0497      1.0230      1.0006     0.98276     0.96922     0.95953     0.95302     0.94897     0.94666     0.94552    
 0.94519     0.94553     0.94667     0.94899     0.95306     0.95957     0.96928     0.98282      1.0007      1.0230    
  1.0497      1.0801      1.1135      1.1486      1.1838      1.2176      1.2482      1.2739      1.2933      1.3054    
  1.3095      1.3054      1.2933      1.2739      1.2482      1.2177      1.1839      1.1486      1.1135      1.0802    