   6   6   0   0
  0.2185851E+02  0.3190316E-09  0.3190316E-09  0.1487900E-08  0.5000000E-15
  1.000000000000000E-004
  CAR 
 unknown system                          
      7.97321417    -12.97853338  301      4.16708234      1.00000000
    -12.979  0.0000E+00  0.0000E+00
    -12.909  0.0000E+00  0.0000E+00
    -12.839  0.0000E+00  0.0000E+00
    -12.769  0.0000E+00  0.0000E+00
    -12.699  0.0000E+00  0.0000E+00
    -12.629  0.0000E+00  0.0000E+00
    -12.559  0.0000E+00  0.0000E+00
    -12.490  0.0000E+00  0.0000E+00
    -12.420  0.0000E+00  0.0000E+00
    -12.350  0.0000E+00  0.0000E+00
    -12.280  0.0000E+00  0.0000E+00
    -12.210  0.0000E+00  0.0000E+00
    -12.140  0.1192E-14  0.8327E-16
    -12.071  0.5445E-13  0.3886E-14
    -12.001  0.2370E-11  0.1694E-12
    -11.931  0.8065E-10  0.5802E-11
    -11.861  0.2158E-08  0.1565E-09
    -11.791  0.4545E-07  0.3331E-08
    -11.721  0.7530E-06  0.5592E-07
    -11.652  0.9818E-05  0.7416E-06
    -11.582  0.1008E-03  0.7780E-05
    -11.512  0.8144E-03  0.6466E-04
    -11.442  0.5183E-02  0.4266E-03
    -11.372  0.2598E-01  0.2241E-02
    -11.302  0.1026E+00  0.9407E-02
    -11.233  0.3192E+00  0.3170E-01
    -11.163  0.7826E+00  0.8636E-01
    -11.093  0.1512E+01  0.1920E+00
    -11.023  0.2302E+01  0.3528E+00
    -10.953  0.2763E+01  0.5458E+00
    -10.883  0.2614E+01  0.7283E+00
    -10.814  0.1949E+01  0.8645E+00
    -10.744  0.1146E+01  0.9445E+00
    -10.674  0.5306E+00  0.9815E+00
    -10.604  0.1936E+00  0.9950E+00
    -10.534  0.5569E-01  0.9989E+00
    -10.464  0.1262E-01  0.9998E+00
    -10.394  0.2278E-02  0.1000E+01
    -10.325  0.5590E-03  0.1000E+01
    -10.255  0.1799E-02  0.1000E+01
    -10.185  0.1013E-01  0.1001E+01
    -10.115  0.4586E-01  0.1004E+01
    -10.045  0.1639E+00  0.1016E+01
     -9.975  0.4627E+00  0.1048E+01
     -9.906  0.1031E+01  0.1120E+01
     -9.836  0.1815E+01  0.1247E+01
     -9.766  0.2524E+01  0.1423E+01
     -9.696  0.2775E+01  0.1617E+01
     -9.626  0.2429E+01  0.1786E+01
     -9.556  0.1767E+01  0.1910E+01
     -9.487  0.1336E+01  0.2003E+01
     -9.417  0.1676E+01  0.2120E+01
     -9.347  0.3114E+01  0.2338E+01
     -9.277  0.5514E+01  0.2723E+01
     -9.207  0.8145E+01  0.3292E+01
     -9.137  0.1008E+02  0.3996E+01
     -9.068  0.1098E+02  0.4763E+01
     -8.998  0.1115E+02  0.5541E+01
     -8.928  0.1074E+02  0.6292E+01
     -8.858  0.9445E+01  0.6951E+01
     -8.788  0.7137E+01  0.7450E+01
     -8.718  0.4434E+01  0.7759E+01
     -8.649  0.2212E+01  0.7914E+01
     -8.579  0.8760E+00  0.7975E+01
     -8.509  0.2741E+00  0.7994E+01
     -8.439  0.6762E-01  0.7999E+01
     -8.369  0.1314E-01  0.8000E+01
     -8.299  0.2010E-02  0.8000E+01
     -8.229  0.2419E-03  0.8000E+01
     -8.160  0.2290E-04  0.8000E+01
     -8.090  0.1706E-05  0.8000E+01
     -8.020  0.9993E-07  0.8000E+01
     -7.950  0.4602E-08  0.8000E+01
     -7.880  0.1666E-09  0.8000E+01
     -7.810  0.4745E-11  0.8000E+01
     -7.741  0.1049E-12  0.8000E+01
     -7.671  0.0000E+00  0.8000E+01
     -7.601  0.0000E+00  0.8000E+01
     -7.531  0.0000E+00  0.8000E+01
     -7.461  0.0000E+00  0.8000E+01
     -7.391  0.0000E+00  0.8000E+01
     -7.322  0.0000E+00  0.8000E+01
     -7.252  0.0000E+00  0.8000E+01
     -7.182  0.0000E+00  0.8000E+01
     -7.112  0.0000E+00  0.8000E+01
     -7.042  0.0000E+00  0.8000E+01
     -6.972  0.0000E+00  0.8000E+01
     -6.903  0.0000E+00  0.8000E+01
     -6.833  0.0000E+00  0.8000E+01
     -6.763  0.0000E+00  0.8000E+01
     -6.693  0.0000E+00  0.8000E+01
     -6.623  0.0000E+00  0.8000E+01
     -6.553  0.0000E+00  0.8000E+01
     -6.483  0.0000E+00  0.8000E+01
     -6.414  0.0000E+00  0.8000E+01
     -6.344  0.0000E+00  0.8000E+01
     -6.274  0.0000E+00  0.8000E+01
     -6.204  0.0000E+00  0.8000E+01
     -6.134  0.0000E+00  0.8000E+01
     -6.064  0.0000E+00  0.8000E+01
     -5.995  0.0000E+00  0.8000E+01
     -5.925  0.0000E+00  0.8000E+01
     -5.855  0.0000E+00  0.8000E+01
     -5.785  0.0000E+00  0.8000E+01
     -5.715  0.0000E+00  0.8000E+01
     -5.645  0.0000E+00  0.8000E+01
     -5.576  0.0000E+00  0.8000E+01
     -5.506  0.0000E+00  0.8000E+01
     -5.436  0.0000E+00  0.8000E+01
     -5.366  0.0000E+00  0.8000E+01
     -5.296  0.0000E+00  0.8000E+01
     -5.226  0.0000E+00  0.8000E+01
     -5.157  0.0000E+00  0.8000E+01
     -5.087  0.0000E+00  0.8000E+01
     -5.017  0.0000E+00  0.8000E+01
     -4.947  0.0000E+00  0.8000E+01
     -4.877  0.0000E+00  0.8000E+01
     -4.807  0.0000E+00  0.8000E+01
     -4.738  0.0000E+00  0.8000E+01
     -4.668  0.0000E+00  0.8000E+01
     -4.598  0.0000E+00  0.8000E+01
     -4.528  0.0000E+00  0.8000E+01
     -4.458  0.0000E+00  0.8000E+01
     -4.388  0.0000E+00  0.8000E+01
     -4.318  0.0000E+00  0.8000E+01
     -4.249  0.0000E+00  0.8000E+01
     -4.179  0.0000E+00  0.8000E+01
     -4.109  0.0000E+00  0.8000E+01
     -4.039  0.0000E+00  0.8000E+01
     -3.969  0.0000E+00  0.8000E+01
     -3.899  0.0000E+00  0.8000E+01
     -3.830  0.2146E-13  0.8000E+01
     -3.760  0.1058E-11  0.8000E+01
     -3.690  0.4046E-10  0.8000E+01
     -3.620  0.1220E-08  0.8000E+01
     -3.550  0.2893E-07  0.8000E+01
     -3.480  0.5404E-06  0.8000E+01
     -3.411  0.7952E-05  0.8000E+01
     -3.341  0.9218E-04  0.8000E+01
     -3.271  0.8423E-03  0.8000E+01
     -3.201  0.6069E-02  0.8000E+01
     -3.131  0.3450E-01  0.8003E+01
     -3.061  0.1549E+00  0.8014E+01
     -2.992  0.5493E+00  0.8052E+01
     -2.922  0.1541E+01  0.8160E+01
     -2.852  0.3428E+01  0.8399E+01
     -2.782  0.6062E+01  0.8823E+01
     -2.712  0.8562E+01  0.9420E+01
     -2.642  0.9744E+01  0.1010E+02
     -2.572  0.9075E+01  0.1073E+02
     -2.503  0.7103E+01  0.1123E+02
     -2.433  0.4853E+01  0.1157E+02
     -2.363  0.3005E+01  0.1178E+02
     -2.293  0.1709E+01  0.1190E+02
     -2.223  0.8745E+00  0.1196E+02
     -2.153  0.4017E+00  0.1199E+02
     -2.084  0.2317E+00  0.1200E+02
     -2.014  0.3949E+00  0.1203E+02
     -1.944  0.1080E+01  0.1211E+02
     -1.874  0.2554E+01  0.1229E+02
     -1.804  0.4799E+01  0.1262E+02
     -1.734  0.7118E+01  0.1312E+02
     -1.665  0.8326E+01  0.1370E+02
     -1.595  0.7681E+01  0.1424E+02
     -1.525  0.5592E+01  0.1463E+02
     -1.455  0.3234E+01  0.1485E+02
     -1.385  0.1577E+01  0.1496E+02
     -1.315  0.9650E+00  0.1503E+02
     -1.246  0.1401E+01  0.1513E+02
     -1.176  0.2838E+01  0.1533E+02
     -1.106  0.5007E+01  0.1568E+02
     -1.036  0.7123E+01  0.1617E+02
     -0.966  0.8107E+01  0.1674E+02
     -0.896  0.7379E+01  0.1725E+02
     -0.827  0.5369E+01  0.1763E+02
     -0.757  0.3121E+01  0.1785E+02
     -0.687  0.1448E+01  0.1795E+02
     -0.617  0.5376E+00  0.1799E+02
     -0.547  0.1729E+00  0.1800E+02
     -0.477  0.1147E+00  0.1801E+02
     -0.407  0.3152E+00  0.1803E+02
     -0.338  0.9623E+00  0.1810E+02
     -0.268  0.2360E+01  0.1826E+02
     -0.198  0.4561E+01  0.1858E+02
     -0.128  0.6948E+01  0.1906E+02
     -0.058  0.8367E+01  0.1965E+02
      0.012  0.8061E+01  0.2021E+02
      0.081  0.6501E+01  0.2067E+02
      0.151  0.5045E+01  0.2102E+02
      0.221  0.4694E+01  0.2135E+02
      0.291  0.5264E+01  0.2171E+02
      0.361  0.5720E+01  0.2211E+02
      0.431  0.5216E+01  0.2248E+02
      0.500  0.3808E+01  0.2274E+02
      0.570  0.2198E+01  0.2290E+02
      0.640  0.1001E+01  0.2297E+02
      0.710  0.3660E+00  0.2299E+02
      0.780  0.1393E+00  0.2300E+02
      0.850  0.1742E+00  0.2301E+02
      0.919  0.4967E+00  0.2305E+02
      0.989  0.1319E+01  0.2314E+02
      1.059  0.2906E+01  0.2334E+02
      1.129  0.5265E+01  0.2371E+02
      1.199  0.7818E+01  0.2426E+02
      1.269  0.9535E+01  0.2492E+02
      1.338  0.9743E+01  0.2560E+02
      1.408  0.8846E+01  0.2622E+02
      1.478  0.7938E+01  0.2678E+02
      1.548  0.7602E+01  0.2731E+02
      1.618  0.7390E+01  0.2782E+02
      1.688  0.6588E+01  0.2828E+02
      1.758  0.5192E+01  0.2865E+02
      1.827  0.4000E+01  0.2892E+02
      1.897  0.3935E+01  0.2920E+02
      1.967  0.5285E+01  0.2957E+02
      2.037  0.7387E+01  0.3008E+02
      2.107  0.9062E+01  0.3072E+02
      2.177  0.9652E+01  0.3139E+02
      2.246  0.9588E+01  0.3206E+02
      2.316  0.9609E+01  0.3273E+02
      2.386  0.9605E+01  0.3340E+02
      2.456  0.8760E+01  0.3401E+02
      2.526  0.6738E+01  0.3449E+02
      2.596  0.4217E+01  0.3478E+02
      2.665  0.2182E+01  0.3493E+02
      2.735  0.1109E+01  0.3501E+02
      2.805  0.8793E+00  0.3507E+02
      2.875  0.1101E+01  0.3515E+02
      2.945  0.1374E+01  0.3524E+02
      3.015  0.1447E+01  0.3534E+02
      3.084  0.1322E+01  0.3544E+02
      3.154  0.1200E+01  0.3552E+02
      3.224  0.1247E+01  0.3561E+02
      3.294  0.1399E+01  0.3571E+02
      3.364  0.1437E+01  0.3581E+02
      3.434  0.1223E+01  0.3589E+02
      3.504  0.8321E+00  0.3595E+02
      3.573  0.4477E+00  0.3598E+02
      3.643  0.1899E+00  0.3599E+02
      3.713  0.6344E-01  0.3600E+02
      3.783  0.1668E-01  0.3600E+02
      3.853  0.3453E-02  0.3600E+02
      3.923  0.5625E-03  0.3600E+02
      3.992  0.7209E-04  0.3600E+02
      4.062  0.7268E-05  0.3600E+02
      4.132  0.5780E-06  0.3600E+02
      4.202  0.7468E-07  0.3600E+02
      4.272  0.7157E-06  0.3600E+02
      4.342  0.1035E-04  0.3600E+02
      4.411  0.1179E-03  0.3600E+02
      4.481  0.1057E-02  0.3600E+02
      4.551  0.7454E-02  0.3600E+02
      4.621  0.4137E-01  0.3600E+02
      4.691  0.1807E+00  0.3602E+02
      4.761  0.6213E+00  0.3606E+02
      4.830  0.1682E+01  0.3618E+02
      4.900  0.3583E+01  0.3643E+02
      4.970  0.6013E+01  0.3685E+02
      5.040  0.7945E+01  0.3740E+02
      5.110  0.8267E+01  0.3798E+02
      5.180  0.6776E+01  0.3845E+02
      5.249  0.4390E+01  0.3876E+02
      5.319  0.2315E+01  0.3892E+02
      5.389  0.1251E+01  0.3901E+02
      5.459  0.1385E+01  0.3910E+02
      5.529  0.2762E+01  0.3930E+02
      5.599  0.5288E+01  0.3967E+02
      5.669  0.8377E+01  0.4025E+02
      5.738  0.1090E+02  0.4101E+02
      5.808  0.1178E+02  0.4184E+02
      5.878  0.1075E+02  0.4259E+02
      5.948  0.8408E+01  0.4317E+02
      6.018  0.5699E+01  0.4357E+02
      6.088  0.3351E+01  0.4381E+02
      6.157  0.1697E+01  0.4392E+02
      6.227  0.7290E+00  0.4397E+02
      6.297  0.2617E+00  0.4399E+02
      6.367  0.7734E-01  0.4400E+02
      6.437  0.1859E-01  0.4400E+02
      6.507  0.3598E-02  0.4400E+02
      6.576  0.5571E-03  0.4400E+02
      6.646  0.6867E-04  0.4400E+02
      6.716  0.6712E-05  0.4400E+02
      6.786  0.5189E-06  0.4400E+02
      6.856  0.3167E-07  0.4400E+02
      6.926  0.1524E-08  0.4400E+02
      6.995  0.5774E-10  0.4400E+02
      7.065  0.1721E-11  0.4400E+02
      7.135  0.4054E-13  0.4400E+02
      7.205  0.7948E-15  0.4400E+02
      7.275  0.0000E+00  0.4400E+02
      7.345  0.0000E+00  0.4400E+02
      7.415  0.0000E+00  0.4400E+02
      7.484  0.0000E+00  0.4400E+02
      7.554  0.0000E+00  0.4400E+02
      7.624  0.0000E+00  0.4400E+02
      7.694  0.0000E+00  0.4400E+02
      7.764  0.0000E+00  0.4400E+02
      7.834  0.0000E+00  0.4400E+02
      7.903  0.0000E+00  0.4400E+02
      7.973  0.0000E+00  0.4400E+02
