       N       E                     dE             d eps       ncg     rms          rms(c)
DAV:   1     0.235605327162E+03    0.23561E+03   -0.17238E+04    88   0.165E+03
DAV:   2    -0.237621324981E+02   -0.25937E+03   -0.25083E+03   116   0.296E+02
DAV:   3    -0.448755135847E+02   -0.21113E+02   -0.21008E+02   128   0.797E+01
DAV:   4    -0.454057349226E+02   -0.53022E+00   -0.52976E+00   114   0.140E+01
DAV:   5    -0.454250007472E+02   -0.19266E-01   -0.19264E-01   120   0.236E+00    0.101E+01
RMM:   6    -0.429469199315E+02    0.24781E+01   -0.28224E+01   100   0.206E+01    0.390E+00
RMM:   7    -0.421524370027E+02    0.79448E+00   -0.23545E+00    95   0.621E+00    0.203E+00
RMM:   8    -0.420657631561E+02    0.86674E-01   -0.82808E-01    96   0.349E+00    0.700E-01
RMM:   9    -0.420449145155E+02    0.20849E-01   -0.10716E-01   105   0.163E+00    0.253E-01
RMM:  10    -0.420443865722E+02    0.52794E-03   -0.16305E-02   113   0.559E-01    0.141E-01
RMM:  11    -0.420430788253E+02    0.13077E-02   -0.49360E-03   111   0.273E-01    0.296E-02
RMM:  12    -0.420431987177E+02   -0.11989E-03   -0.83914E-04   117   0.116E-01    0.236E-02
RMM:  13    -0.420431823018E+02    0.16416E-04   -0.10652E-04   105   0.455E-02    0.787E-03
RMM:  14    -0.420431826478E+02   -0.34598E-06   -0.48167E-05    86   0.286E-02
   1 F= -.42043183E+02 E0= -.42043183E+02  d E =-.106094E-08
