perl: warning: Setting locale failed.
perl: warning: Please check that your locale settings:
	LANGUAGE = (unset),
	LC_ALL = (unset),
	LC_CTYPE = "UTF-8",
	LANG = "en_US.iso885915"
    are supported and installed on your system.
perl: warning: Falling back to the standard locale ("C").
Starting job 28531725 ("jobname") on c14-15 at Fri Nov 8 10:38:59 CET 2019
 running on    4 total cores
 distrk:  each k-point on    4 cores,    1 groups
 distr:  one band on    2 cores,    2 groups
 using from now: INCAR     
 vasp.5.4.4.18Apr17-6-g9f103f2a35 (build Jun 30 2017 11:15:00) complex          
  
 POSCAR found type information on POSCAR  Mo S 
 POSCAR found :  2 types and       6 ions
 scaLAPACK will be used
 LDA part: xc-table for Pade appr. of Perdew
 POSCAR, INCAR and KPOINTS ok, starting setup
 FFT: planning ...
 WAVECAR not read
 WARNING: random wavefunctions but no delay for mixing, default for NELMDL
 entering main loop
       N       E                     dE             d eps       ncg     rms          rms(c)
DAV:   1     0.235605327162E+03    0.23561E+03   -0.17238E+04    88   0.165E+03
DAV:   2    -0.237621324981E+02   -0.25937E+03   -0.25083E+03   116   0.296E+02
DAV:   3    -0.448755135847E+02   -0.21113E+02   -0.21008E+02   128   0.797E+01
DAV:   4    -0.454057349226E+02   -0.53022E+00   -0.52976E+00   114   0.140E+01
DAV:   5    -0.454250007472E+02   -0.19266E-01   -0.19264E-01   120   0.236E+00    0.101E+01
RMM:   6    -0.429469199315E+02    0.24781E+01   -0.28224E+01   100   0.206E+01    0.390E+00
RMM:   7    -0.421524370027E+02    0.79448E+00   -0.23545E+00    95   0.621E+00    0.203E+00
RMM:   8    -0.420657631561E+02    0.86674E-01   -0.82808E-01    96   0.349E+00    0.700E-01
RMM:   9    -0.420449145155E+02    0.20849E-01   -0.10716E-01   105   0.163E+00    0.253E-01
RMM:  10    -0.420443865722E+02    0.52794E-03   -0.16305E-02   113   0.559E-01    0.141E-01
RMM:  11    -0.420430788253E+02    0.13077E-02   -0.49360E-03   111   0.273E-01    0.296E-02
RMM:  12    -0.420431987177E+02   -0.11989E-03   -0.83914E-04   117   0.116E-01    0.236E-02
RMM:  13    -0.420431823018E+02    0.16416E-04   -0.10652E-04   105   0.455E-02    0.787E-03
RMM:  14    -0.420431826478E+02   -0.34598E-06   -0.48167E-05    86   0.286E-02
 Error reading item 'IVDW' from file INCAR
   1 F= -.42043183E+02 E0= -.42043183E+02  d E =-.106094E-08

Currently Loaded Modulefiles:
  1) Anaconda3/5.1.0       3) vesta/3.3.8           5) intel/2016.1
  2) gnuplot/5.0.4         4) imagemagick/6.7.9-0   6) vasp/5.4.1.Feb16

Job script resource usage:
       JobID  MaxVMSize     MaxRSS 
------------ ---------- ---------- 
28531725.ba+    216888K      2349K 

Job step resource usage:
       JobID    JobName  AllocCPUS  MaxVMSize     MaxRSS    Elapsed ExitCode 
------------ ---------- ---------- ---------- ---------- ---------- -------- 
28531725        jobname          4                         00:00:05      0:0 
28531725.0    pmi_proxy          1    279832K       522K   00:00:04      0:0 

Job 28531725 ("jobname") completed on c14-15 at Fri Nov 8 10:39:03 CET 2019
