unknown system                          
   1.00000000000000     
     3.190316    0.000000    0.000000
    -1.595158    2.762894    0.000000
     0.000000    0.000000   34.879004
   Mo   S 
     1     2
Direct
  0.333333  0.666667  0.106647
  0.666667  0.333333  0.061781
  0.666666  0.333333  0.151513
 
   24   24  280
 0.48036     0.48734     0.50622     0.53913     0.58953     0.65661     0.73460     0.81661     0.89672     0.96997    
  1.0315      1.0741      1.0871      1.0647      1.0155     0.95682     0.89672     0.82828     0.74624     0.66096    
 0.58951     0.53903     0.50586     0.48634     0.48699     0.48766     0.50504     0.53996     0.59491     0.67070    
 0.76501     0.87241     0.98335      1.0856      1.1708      1.2364      1.2771      1.2800      1.2359      1.1547    
  1.0592     0.96433     0.86947     0.77178     0.67799     0.59920     0.54128     0.50434     0.50639     0.49508    
 0.50578     0.54057     0.59929     0.67987     0.78205     0.90539      1.0425      1.1777      1.2949      1.3860    
  1.4490      1.4795      1.4667      1.4026      1.2932      1.1600      1.0259     0.90151     0.78707     0.68375    
 0.59906     0.53994     0.54114     0.51390     0.51010     0.53800     0.59939     0.68552     0.79258     0.92503    
  1.0796      1.2399      1.3881      1.5125      1.6018      1.6482      1.6537      1.6205      1.5398      1.4061    
  1.2395      1.0739     0.92658     0.79466     0.67965     0.59376     0.58951     0.54691     0.52419     0.53359    
 0.58952     0.68046     0.79129     0.92880      1.0985      1.2802      1.4503      1.6040      1.7322      1.8078    
  1.8194      1.7890      1.7322      1.6298      1.4686      1.2784      1.0985     0.93613     0.78654     0.66568    
 0.64669     0.58860     0.55158     0.53532     0.57112     0.66018     0.77250     0.90580      1.0824      1.2889    
  1.4821      1.6511      1.8110      1.9389      1.9865      1.9555      1.8916      1.8053      1.6656      1.4739    
  1.2758      1.0942     0.91777     0.75686     0.71406     0.63068     0.58657     0.55065     0.55447     0.62857    
 0.74175     0.86453      1.0261      1.2452      1.4708      1.6557      1.8219      1.9880      2.1013      2.1120    
  2.0508      1.9644      1.8380      1.6493      1.4364      1.2436      1.0586     0.86813     0.79845     0.67387    
 0.61830     0.57653     0.54963     0.59230     0.70199     0.82295     0.95716      1.1564      1.4041      1.6212    
  1.7891      1.9548      2.1110      2.1872      2.1659      2.0970      1.9923      1.8169      1.5883      1.3742    
  1.1879     0.99082     0.89672     0.72717     0.64267     0.60035     0.55768     0.55919     0.64707     0.77469    
 0.89672      1.0561      1.2908      1.5395      1.7322      1.8900      2.0487      2.1650      2.1894      2.1508    
  2.0830      1.9508      1.7322      1.4928      1.2927      1.1035     0.98850     0.79311     0.66713     0.61294    
 0.57020     0.53957     0.58320     0.70109     0.82901     0.96156      1.1553      1.4043      1.6307      1.8055    
  1.9635      2.0971      2.1517      2.1297      2.0823      2.0014      1.8323      1.5949      1.3729      1.1857    
  1.0519     0.85884     0.70046     0.61841     0.57661     0.53663     0.53567     0.61416     0.73700     0.86223    
  1.0176      1.2335      1.4670      1.6654      1.8376      1.9932      2.0852      2.0832      2.0326      1.9702    
  1.8558      1.6578      1.4308      1.2346      1.0820     0.90552     0.73937     0.62782     0.57390     0.53800    
 0.51692     0.54948     0.64065     0.75491     0.88649      1.0619      1.2713      1.4698      1.6461      1.8159    
  1.9523      2.0020      1.9687      1.9033      1.8135      1.6634      1.4602      1.2594      1.0871     0.92398    
 0.76909     0.64447     0.56957     0.53018     0.50851     0.51651     0.56956     0.65686     0.76682     0.90991    
  1.0871      1.2681      1.4305      1.5849      1.7322      1.8330      1.8541      1.8111      1.7322      1.6138    
  1.4485      1.2623      1.0726     0.91826     0.77775     0.65913     0.57206     0.51809     0.49203     0.49279    
 0.52284     0.58016     0.66263     0.77602     0.92253      1.0847      1.2370      1.3711      1.4931      1.5968    
  1.6592      1.6639      1.6141      1.5201      1.3895      1.2342      1.0359     0.89647     0.76674     0.66086    
 0.57886     0.51603     0.47681     0.46795     0.48564     0.52153     0.57669     0.65913     0.77117     0.90579    
  1.0497      1.1850      1.2951      1.3763      1.4343      1.4658      1.4547      1.3922      1.2910      1.1695    
 0.97539     0.86195     0.74531     0.64880     0.57929     0.52334     0.47780     0.45602     0.46122     0.48147    
 0.51412     0.56924     0.64814     0.74302     0.85481     0.98383      1.1065      1.1916      1.2378      1.2653    
  1.2740      1.2432      1.1702      1.0769     0.89672     0.81385     0.71885     0.63103     0.56959     0.52642    
 0.48796     0.46177     0.45775     0.46673     0.48129     0.51342     0.56956     0.63429     0.70054     0.78640    
 0.89672     0.99793      1.0583      1.0857      1.0985      1.0885      1.0420     0.97177     0.81007     0.75354    
 0.68623     0.61415     0.55825     0.52281     0.49454     0.47219     0.46617     0.47196     0.47648     0.48776    
 0.52411     0.57731     0.62269     0.66288     0.72322     0.80364     0.87306     0.91353     0.93391     0.93766    
 0.91392     0.86522     0.72563     0.68838     0.64700     0.59805     0.55391     0.52477     0.50401     0.48601    
 0.47899     0.48521     0.49013     0.48853     0.49954     0.53622     0.58110     0.61288     0.63810     0.67416    
 0.71853     0.75624     0.78232     0.79668     0.79154     0.76367     0.65102     0.62823     0.60621     0.58065    
 0.55531     0.53844     0.52836     0.51787     0.50990     0.51234     0.51963     0.51817     0.51046     0.51511    
 0.54022     0.57285     0.59854     0.61654     0.63216     0.64751     0.66322     0.67783     0.68346     0.67295    
 0.58953     0.57897     0.57066     0.56355     0.55765     0.55714     0.56288     0.56855     0.56959     0.57011    
 0.57451     0.57733     0.56957     0.55284     0.54015     0.54228     0.55768     0.57570     0.58665     0.58915    
 0.58952     0.59352     0.59876     0.59801     0.54109     0.54073     0.54344     0.55066     0.56174     0.57710    
 0.59809     0.62265     0.64392     0.65625     0.66090     0.66260     0.66056     0.64716     0.61845     0.58322    
 0.55737     0.54874     0.55069     0.55154     0.54720     0.54214     0.54061     0.54126     0.50604     0.51244    
 0.52406     0.54340     0.57048     0.60261     0.63821     0.67770     0.71867     0.75272     0.77127     0.77425    
 0.76891     0.75867     0.73709     0.69681     0.64249     0.59046     0.55456     0.53532     0.52401     0.51420    
 0.50648     0.50370     0.48596     0.49472     0.51182     0.54008     0.58135     0.63244     0.68776     0.74439    
 0.80154     0.85515     0.89585     0.91414     0.90846     0.88684     0.85822     0.82218     0.77073     0.70232    
 0.63007     0.57172     0.53388     0.51041     0.49447     0.48570     0.63712     0.64915     0.68309     0.74125    
 0.82702     0.93856      1.0678      1.2042      1.3378      1.4588      1.5580      1.6248      1.6460      1.6149    
  1.5411      1.4448      1.3378      1.2166      1.0801     0.94317     0.82702     0.74116     0.68272     0.64807    
 0.64877     0.64946     0.68079     0.74323     0.83852     0.96612      1.1213      1.2952      1.4734      1.6383    
  1.7761      1.8798      1.9409      1.9440      1.8794      1.7591      1.6104      1.4534      1.2921      1.1284    
 0.97372     0.84300     0.74464     0.68009     0.68325     0.66298     0.68263     0.74388     0.84522     0.98261    
  1.1532      1.3533      1.5707      1.7840      1.9706      2.1165      2.2151      2.2582      2.2337      2.1341    
  1.9689      1.7655      1.5533      1.3491      1.1584     0.98665     0.84499     0.74320     0.74334     0.69474    
 0.69077     0.74009     0.84317     0.98848      1.1690      1.3861      1.6322      1.8848      2.1196      2.3175    
  2.4603      2.5350      2.5409      2.4801      2.3462      2.1386      1.8844      1.6261      1.3877      1.1712    
 0.98234     0.83725     0.82702     0.74830     0.71278     0.73428     0.82701     0.97630      1.1628      1.3900    
  1.6597      1.9458      2.2178      2.4633      2.6654      2.7888      2.8160      2.7689      2.6654      2.4904    
  2.2369      1.9439      1.6597      1.3978      1.1579     0.96078     0.92817     0.81812     0.75360     0.73648    
 0.79972     0.94237      1.1292      1.3536      1.6350      1.9549      2.2624      2.5390      2.7925      2.9900    
  3.0737      3.0410      2.9402      2.7864      2.5543      2.2537      1.9411      1.6475      1.3663      1.1127    
  1.0462     0.89481     0.80795     0.75622     0.77413     0.89263      1.0754      1.2870      1.5535      1.8904    
  2.2392      2.5438      2.8192      3.0755      3.2480      3.2778      3.1948      3.0506      2.8362      2.5371    
  2.2030      1.8887      1.5877      1.2907      1.1851     0.97736     0.86407     0.79139     0.76301     0.83663    
  1.0070      1.2111      1.4460      1.7617      2.1364      2.4813      2.7693      3.0405      3.2768      3.3955    
  3.3731      3.2621      3.0799      2.7986      2.4467      2.1050      1.7948      1.4813      1.3378      1.0724    
 0.91619     0.82881     0.76910     0.78538     0.92074      1.1224      1.3378      1.6073      1.9664      2.3460    
  2.6654      2.9386      3.1926      3.3721      3.4177      3.3571      3.2288      3.0025      2.6654      2.2967    
  1.9684      1.6571      1.4782      1.1790     0.96970     0.85784     0.78414     0.75188     0.82648      1.0054    
  1.2167      1.4498      1.7598      2.1360      2.4908      2.7863      3.0495      3.2621      3.3581      3.3349    
  3.2466      3.0894      2.8146      2.4531      2.1028      1.7918      1.5795      1.2799      1.0309     0.88099    
 0.79656     0.74058     0.75349     0.87658      1.0695      1.2834      1.5433      1.8768      2.2340      2.5532    
  2.8353      3.0808      3.2310      3.2475      3.1756      3.0566      2.8545      2.5452      2.1958      1.8780    
  1.6331      1.3522      1.0934     0.90750     0.80188     0.73853     0.71635     0.77624     0.92116      1.1099    
  1.3321      1.6119      1.9347      2.2480      2.5328      2.7973      3.0042      3.0902      3.0551      2.9525    
  2.7947      2.5511      2.2379      1.9222      1.6460      1.3838      1.1388     0.93811     0.80584     0.73049    
 0.69600     0.71604     0.80584     0.95126      1.1365      1.3689      1.6460      1.9314      2.1956      2.4425    
  2.6654      2.8157      2.8532      2.7926      2.6654      2.4730      2.2145      1.9253      1.6231      1.3778    
  1.1529     0.96076     0.81483     0.71968     0.67225     0.67291     0.72448     0.82331     0.96448      1.1510    
  1.3822      1.6360      1.8805      2.1009      2.2970      2.4557      2.5476      2.5524      2.4739      2.3255    
  2.1203      1.8775      1.5625      1.3427      1.1364     0.96257     0.82428     0.71900     0.65324     0.63547    
 0.66236     0.72471     0.82205     0.96073      1.1409      1.3525      1.5772      1.7911      1.9709      2.1071    
  2.2008      2.2452      2.2222      2.1239      1.9667      1.7747      1.4644      1.2831      1.0997     0.94273    
 0.82235     0.72656     0.65334     0.61752     0.62296     0.65722     0.71699     0.81185     0.94192      1.0972    
  1.2757      1.4733      1.6602      1.7987      1.8827      1.9301      1.9391      1.8882      1.7763      1.6292    
  1.3378      1.2007      1.0503     0.91101     0.80585     0.72823     0.66479     0.62354     0.61470     0.62871    
 0.65789     0.71476     0.80584     0.91428      1.0310      1.1719      1.3378      1.4888      1.5874      1.6386    
  1.6597      1.6414      1.5702      1.4614      1.1975      1.1001     0.98976     0.87660     0.78551     0.72271    
 0.67481     0.63994     0.62813     0.63412     0.64436     0.66778     0.72420     0.80547     0.88546     0.96524    
  1.0683      1.1906      1.2959      1.3618      1.3955      1.3993      1.3622      1.2877      1.0584     0.99267    
 0.92064     0.84211     0.77272     0.72467     0.69134     0.66593     0.65548     0.66106     0.66703     0.66849    
 0.68669     0.73670     0.80122     0.85776     0.91143     0.97770      1.0508      1.1120      1.1535      1.1734    
  1.1631      1.1199     0.93272     0.89228     0.85128     0.80796     0.76843     0.74247     0.72838     0.71753    
 0.71106     0.71514     0.72271     0.71964     0.70974     0.71447     0.74428     0.78686     0.82692     0.86226    
 0.89633     0.92894     0.95822     0.98046     0.98632     0.96839     0.82702     0.80798     0.79120     0.77770    
 0.76908     0.77035     0.78203     0.79617     0.80585     0.81285     0.81981     0.82037     0.80584     0.77975    
 0.75814     0.75464     0.76910     0.79056     0.80805     0.81864     0.82701     0.83708     0.84469     0.84174    
 0.74330     0.74179     0.74505     0.75626     0.77585     0.80433     0.84218     0.88541     0.92441     0.95051    
 0.96264     0.96444     0.95509     0.92793     0.88106     0.82649     0.78349     0.76213     0.75629     0.75354    
 0.74858     0.74447     0.74395     0.74459     0.68289     0.69323     0.71264     0.74498     0.79100     0.84758    
 0.91153     0.98087      1.0501      1.1074      1.1411      1.1491      1.1386      1.1137      1.0696      1.0010    
 0.91599     0.83474     0.77423     0.73647     0.71258     0.69508     0.68336     0.67936     0.64767     0.66265    
 0.69257     0.74106     0.81042     0.89664     0.99202      1.0906      1.1879      1.2761      1.3420      1.3734    
  1.3674      1.3325      1.2792      1.2096      1.1183      1.0073     0.89415     0.80032     0.73459     0.69108    
 0.66233     0.64736     0.84418     0.86492     0.92434      1.0236      1.1644      1.3423      1.5456      1.7597    
  1.9690      2.1579      2.3112      2.4129      2.4461      2.4024      2.2932      2.1430      1.9689      1.7728    
  1.5588      1.3472      1.1645      1.0236     0.92396     0.86376     0.86451     0.86522     0.91916      1.0253    
  1.1828      1.3877      1.6316      1.9013      2.1771      2.4344      2.6515      2.8139      2.9066      2.9099    
  2.8135      2.6334      2.4048      2.1560      1.8982      1.6392      1.3957      1.1875      1.0268     0.91847    
 0.92451     0.89025     0.92386      1.0260      1.1921      1.4139      1.6844      1.9959      2.3316      2.6629    
  2.9582      3.1931      3.3505      3.4148      3.3702      3.2116      2.9565      2.6434      2.3131      1.9915    
  1.6898      1.4181      1.1918      1.0253      1.0259     0.94502     0.94083      1.0224      1.1877      1.4200    
  1.7076      2.0480      2.4298      2.8245      3.1985      3.5203      3.7571      3.8828      3.8890      3.7781    
  3.5508      3.2187      2.8240      2.4232      2.0496      1.7099      1.4135      1.1814      1.1645      1.0327    
 0.97842      1.0179      1.1645      1.3984      1.6944      2.0519      2.4702      2.9182      3.3569      3.7616    
  4.0982      4.3116      4.3699      4.2906      4.0982      3.7903      3.3771      2.9160      2.4702      2.0602    
  1.6893      1.3821      1.3314      1.1464      1.0423      1.0242      1.1270      1.3464      1.6399      1.9961    
  2.4325      2.9277      3.4230      3.8889      4.3161      4.6487      4.8051      4.7704      4.5958      4.3097    
  3.9050      3.4139      2.9131      2.4459      2.0096      1.6226      1.5229      1.2746      1.1267      1.0527    
  1.0909      1.2724      1.5539      1.8928      2.3134      2.8303      3.3794      3.8939      4.3739      4.8070    
  5.1000      5.1708      5.0438      4.7807      4.3918      3.8868      3.3412      2.8286      2.3495      1.8967    
  1.7395      1.4136      1.2183      1.1018      1.0717      1.1892      1.4450      1.7672      2.1483      2.6393    
  3.2163      3.7807      4.2916      4.7700      5.1698      5.3779      5.3543      5.1543      4.8118      4.3226    
  3.7441      3.1831      2.6744      2.1855      1.9689      1.5666      1.3086      1.1571      1.0736      1.1111    
  1.3133      1.6195      1.9689      2.4016      2.9540      3.5506      4.0983      4.5941      5.0414      5.3533    
  5.4450      5.3375      5.0797      4.6618      4.0982      3.4984      2.9560      2.4542      2.1784      1.7285    
  1.4001      1.2056      1.0877      1.0536      1.1725      1.4378      1.7681      2.1482      2.6342      3.2137    
  3.7895      4.3090      4.7795      5.1543      5.3385      5.3138      5.1378      4.8216      4.3389      3.7496    
  3.1785      2.6681      2.3339      1.8765      1.4962      1.2477      1.1010      1.0220      1.0555      1.2431    
  1.5370      1.8802      2.2955      2.8107      3.3705      3.9020      4.3902      4.8126      5.0820      5.1387    
  5.0235      4.7869      4.4105      3.8935      3.3301      2.8119      2.4217      1.9828      1.5870      1.2910    
  1.1076      1.0027     0.97925      1.0805      1.3056      1.6046      1.9616      2.3992      2.9000      3.4040    
  3.8805      4.3205      4.6635      4.8226      4.7855      4.6090      4.3179      3.8998      3.3932      2.8868    
  2.4461      2.0320      1.6509      1.3343      1.1127     0.98005     0.92510     0.96467      1.1127      1.3484    
  1.6485      2.0163      2.4461      2.8966      3.3299      3.7383      4.0983      4.3407      4.4098      4.3161    
  4.0982      3.7707      3.3499      2.8900      2.4111      2.0257      1.6713      1.3640      1.1226     0.95812    
 0.87381     0.87437     0.96296      1.1315      1.3680      1.6692      2.0303      2.4248      2.8147      3.1766    
  3.4987      3.7537      3.8979      3.9030      3.7728      3.5289      3.1971      2.8114      2.3158      1.9728    
  1.6484      1.3659      1.1326     0.95158     0.83641     0.80155     0.84583     0.95751      1.1303      1.3639    
  1.6531      1.9832      2.3316      2.6673      2.9585      3.1853      3.3389      3.4049      3.3614      3.2031    
  2.9542      2.6500      2.1636      1.8798      1.5938      1.3393      1.1304     0.95941     0.83029     0.76462    
 0.77029     0.83437     0.94948      1.1194      1.3383      1.5911      1.8722      2.1732      2.4575      2.6784    
  2.8223      2.9015      2.9110      2.8280      2.6549      2.4248      1.9690      1.7512      1.5168      1.2948    
  1.1127     0.96691     0.84840     0.77091     0.74961     0.77631     0.84125     0.95296      1.1127      1.2981    
  1.4963      1.7210      1.9689      2.1934      2.3493      2.4366      2.4702      2.4393      2.3310      2.1646    
  1.7527      1.5958      1.4213      1.2432      1.0904     0.97178     0.87643     0.80626     0.77571     0.78191    
 0.81081     0.86916     0.97351      1.1113      1.2524      1.3954      1.5623      1.7454      1.9021      2.0049    
  2.0579      2.0618      2.0052      1.8936      1.5360      1.4298      1.3132      1.1890      1.0759     0.98814    
 0.92027     0.86716     0.83871     0.83832     0.85068     0.86976     0.91541      1.0008      1.1059      1.2056    
  1.3036      1.4140      1.5277      1.6218      1.6847      1.7122      1.6947      1.6301      1.3362      1.2720    
  1.2047      1.1350      1.0711      1.0240     0.99197     0.96635     0.94902     0.94754     0.95541     0.95790    
 0.95811     0.97734      1.0259      1.0905      1.1551      1.2164      1.2762      1.3321      1.3794      1.4116    
  1.4177      1.3900      1.1644      1.1357      1.1090      1.0873      1.0736      1.0731      1.0856      1.1015    
  1.1127      1.1206      1.1280      1.1284      1.1127      1.0842      1.0604      1.0564      1.0736      1.1010    
  1.1268      1.1470      1.1645      1.1813      1.1916      1.1862      1.0258      1.0258      1.0332      1.0527    
  1.0854      1.1312      1.1891      1.2524      1.3088      1.3474      1.3660      1.3679      1.3523      1.3126    
  1.2478      1.1724      1.1091      1.0709      1.0528      1.0422      1.0330      1.0271      1.0261      1.0267    
 0.92413     0.94346     0.97831      1.0331      1.1088      1.2009      1.3037      1.4120      1.5166      1.6018    
  1.6532      1.6672      1.6507      1.6086      1.5371      1.4332      1.3084      1.1873      1.0910      1.0241    
 0.97821     0.94539     0.92462     0.91763     0.86334     0.88996     0.94275      1.0250      1.1383      1.2766    
  1.4291      1.5859      1.7379      1.8725      1.9721      2.0209      2.0146      1.9620      1.8758      1.7608    
  1.6152      1.4453      1.2739      1.1276      1.0182     0.94117     0.88954     0.86296      1.1268      1.1604    
  1.2569      1.4150      1.6331      1.9034      2.2108      2.5360      2.8573      3.1499      3.3881      3.5457    
  3.5982      3.5345      3.3689      3.1341      2.8573      2.5501      2.2248      1.9086      1.6332      1.4150    
  1.2565      1.1591      1.1599      1.1607      1.2464      1.4136      1.6576      1.9704      2.3402      2.7496    
  3.1726      3.5741      3.9185      4.1768      4.3214      4.3249      4.1763      3.8993      3.5428      3.1504    
  2.7465      2.3482      1.9789      1.6625      1.4152      1.2457      1.2571      1.2037      1.2564      1.4143    
  1.6692      2.0083      2.4212      2.8973      3.4144      3.9331      4.4054      4.7871      5.0425      5.1417    
  5.0634      4.8068      4.4036      3.9124      3.3947      2.8926      2.4269      2.0127      1.6689      1.4136    
  1.4174      1.2934      1.2889      1.4137      1.6627      2.0147      2.4545      2.9778      3.5699      4.1926    
  4.7953      5.3227      5.7161      5.9266      5.9332      5.7385      5.3552      4.8166      4.1919      3.5627    
  2.9794      2.4568      2.0078      1.6561      1.6332      1.4310      1.3522      1.4153      1.6331      1.9817    
  2.4316      2.9818      3.6304      4.3393      5.0531      5.7227      6.2826      6.6451      6.7549      6.6229    
  6.2827      5.7532      5.0744      4.3369      3.6305      2.9907      2.4263      1.9644      1.8918      1.6070    
  1.4511      1.4319      1.5865      1.9078      2.3490      2.8973      3.5725      4.3492      5.1547      5.9359    
  6.6512      7.2054      7.4809      7.4440      7.1491      6.6442      5.9530      5.1451      4.3338      3.5868    
  2.9118      2.3306      2.1867      1.8068      1.5787      1.4761      1.5407      1.8044      2.2197      2.7408    
  3.3951      4.1985      5.0768      5.9411      6.7608      7.4837      7.9716      8.1093      7.9119      7.4557    
  6.7799      5.9337      5.0363      4.1968      3.4334      2.7448      2.5147      2.0241      1.7195      1.5465    
  1.5145      1.6885      2.0575      2.5442      3.1424      3.9082      4.8141      5.7429      6.6251      7.4442    
  8.1084      8.4601      8.4351      8.0921      7.4886      6.6579      5.7041      4.7788      3.9454      3.1817    
  2.8573      2.2590      1.8626      1.6275      1.5138      1.5787      1.8676      2.3150      2.8573      3.5394    
  4.4010      5.3550      6.2827      7.1473      7.9094      8.4340      8.5998      8.4173      7.9500      7.2192    
  6.2827      5.2996      4.4031      3.5952      3.1716      2.5007      2.0078      1.7042      1.5299      1.4938    
  1.6691      2.0477      2.5426      3.1394      3.9002      4.8091      5.7506      6.6424      7.4537      8.0919    
  8.4184      8.3921      8.0742      7.4984      6.6742      5.7083      4.7717      3.9361      3.4120      2.7188    
  2.1543      1.7746      1.5482      1.4405      1.5000      1.7698      2.1975      2.7226      3.3712      4.1732    
  5.0638      5.9471      6.7765      7.4888      7.9525      8.0755      7.8904      7.4617      6.7981      5.9381    
  5.0209      4.1746      3.5550      2.8771      2.2870      1.8437      1.5610      1.4046      1.3797      1.5323    
  1.8594      2.3058      2.8547      3.5310      4.3144      5.1303      5.9242      6.6546      7.2210      7.5001    
  7.4608      7.1632      6.6519      5.9446      5.1188      4.3004      3.5982      2.9537      2.3787      1.9073    
  1.5721      1.3692      1.2896      1.3528      1.5721      1.9223      2.3763      2.9370      3.5982      4.3108    
  5.0206      5.6961      6.2827      6.6773      6.7990      6.6511      6.2826      5.7306      5.0419      4.3038    
  3.5437      2.9471      2.4087      1.9482      1.5866      1.3385      1.2106      1.2111      1.3434      1.5961    
  1.9524      2.4065      2.9519      3.5584      4.1776      4.7696      5.2998      5.7144      5.9455      5.9507    
  5.7345      5.3320      4.7915      4.1740      3.3928      2.8665      2.3762      1.9502      1.5986      1.3277    
  1.1555      1.1011      1.1652      1.3338      1.5963      1.9480      2.3809      2.8776      3.4097      3.9353    
  4.4057      4.7812      5.0340      5.1355      5.0578      4.8001      4.4013      3.9169      3.1558      2.7222    
  2.2943      1.9126      1.5949      1.3358      1.1435      1.0447      1.0505      1.1477      1.3255      1.5834    
  1.9114      2.2913      2.7143      3.1662      3.5986      3.9495      4.1902      4.3216      4.3314      4.1961    
  3.9247      3.5641      2.8573      2.5246      2.1761      1.8480      1.5721      1.3476      1.1679      1.0512    
  1.0166      1.0569      1.1605      1.3331      1.5721      1.8511      2.1544      2.4928      2.8573      3.1900    
  3.4332      3.5771      3.6304      3.5797      3.4138      3.1596      2.5288      2.2899      2.0302      1.7700    
  1.5429      1.3604      1.2133      1.1060      1.0562      1.0627      1.1108      1.2058      1.3624      1.5649    
  1.7795      2.0029      2.2545      2.5209      2.7505      2.9069      2.9883      2.9924      2.9070      2.7416    
  2.2007      2.0414      1.8675      1.6866      1.5216      1.3892      1.2846      1.2036      1.1578      1.1518    
  1.1702      1.2062      1.2795      1.4026      1.5533      1.7042      1.8575      2.0245      2.1917      2.3297    
  2.4215      2.4593      2.4319      2.3385      1.8970      1.8041      1.7050      1.6040      1.5122      1.4424    
  1.3931      1.3547      1.3289      1.3235      1.3316      1.3380      1.3460      1.3777      1.4445      1.5329    
  1.6255      1.7174      1.8084      1.8926      1.9616      2.0059      2.0122      1.9728      1.6331      1.5957    
  1.5599      1.5310      1.5138      1.5143      1.5317      1.5544      1.5721      1.5847      1.5940      1.5929    
  1.5721      1.5363      1.5051      1.4966      1.5138      1.5456      1.5788      1.6076      1.6331      1.6560    
  1.6686      1.6610      1.4173      1.4237      1.4415      1.4761      1.5290      1.6001      1.6867      1.7795    
  1.8625      1.9211      1.9503      1.9524      1.9265      1.8667      1.7747      1.6690      1.5766      1.5137    
  1.4762      1.4511      1.4313      1.4187      1.4144      1.4151      1.2567      1.2918      1.3521      1.4414    
  1.5597      1.7010      1.8576      2.0205      2.1759      2.3026      2.3810      2.4043      2.3785      2.3099    
  2.1976      2.0429      1.8624      1.6866      1.5408      1.4318      1.3520      1.2938      1.2572      1.2448    
  1.1587      1.2034      1.2910      1.4228      1.5983      1.8089      2.0406      2.2795      2.5107      2.7146    
  2.8657      2.9419      2.9352      2.8550      2.7181      2.5350      2.3105      2.0578      1.8060      1.5869    
  1.4156      1.2893      1.2029      1.1583      1.5146      1.5648      1.7099      1.9455      2.2671      2.6651    
  3.1225      3.6160      4.1139      4.5761      4.9567      5.2097      5.2956      5.1977      4.9361      4.5592    
  4.1140      3.6311      3.1375      2.6707      2.2671      1.9454      1.7095      1.5635      1.5644      1.5652    
  1.6915      1.9376      2.2966      2.7592      3.3130      3.9377      4.5977      5.2393      5.8010      6.2254    
  6.4605      6.4641      6.2247      5.7805      5.2061      4.5742      3.9345      3.3216      2.7682      2.3018    
  1.9393      1.6906      1.7101      1.6329      1.7094      1.9383      2.3100      2.8118      3.4345      4.1673    
  4.9802      5.8146      6.5917      7.2296      7.6568      7.8172      7.6791      7.2507      6.5899      5.7927    
  4.9593      4.1621      3.4405      2.8164      2.3097      1.9375      1.9480      1.7699      1.7651      1.9440    
  2.3019      2.8185      3.4822      4.2921      5.2297      6.2392      7.2371      8.1238      8.7919      9.1515    
  9.1585      8.8158      8.1584      7.2598      6.2383      5.2219      4.2937      3.4847      2.8112      2.2949    
  2.2671      1.9746      1.8652      1.9578      2.2671      2.7712      3.4454      4.2962      5.3235      6.4758    
  7.6662      8.7982      9.7485      10.372      10.573      10.348      9.7485      8.8307      7.6888      6.4731    
  5.3235      4.3058      3.4398      2.7527      2.6528      2.2344      2.0129      1.9925      2.2126      2.6700    
  3.3224      4.1671      5.2321      6.4861      7.8287      9.1603      10.378      11.318      11.801      11.762    
  11.258      10.371      9.1784      7.8185      6.4698      5.2476      4.1827      3.3028      3.0970      2.5327    