unknown system                          
   1.00000000000000     
     3.190316    0.000000    0.000000
    -1.595158    2.762894    0.000000
     0.000000    0.000000   34.879004
   Mo   S 
     1     2
Direct
  0.333333  0.666667  0.106647
  0.666667  0.333333  0.061781
  0.666666  0.333333  0.151513
 
   24   24  280
 0.48036140883E+00 0.48734105851E+00 0.50621683450E+00 0.53912895514E+00 0.58953349197E+00
 0.65660883599E+00 0.73459752616E+00 0.81660515765E+00 0.89672389032E+00 0.96997386081E+00
 0.10315301564E+01 0.10740767765E+01 0.10870656047E+01 0.10646753383E+01 0.10154704781E+01
 0.95682230618E+00 0.89671871166E+00 0.82828071134E+00 0.74624221319E+00 0.66095614242E+00
 0.58951207013E+00 0.53903278312E+00 0.50586460127E+00 0.48633506128E+00 0.48699066646E+00
 0.48766041670E+00 0.50503824922E+00 0.53996167670E+00 0.59490588490E+00 0.67070358295E+00
 0.76501296439E+00 0.87241023545E+00 0.98335430293E+00 0.10856467327E+01 0.11708384243E+01
 0.12363601994E+01 0.12770953629E+01 0.12800159376E+01 0.12359488618E+01 0.11546824376E+01
 0.10591686814E+01 0.96433033505E+00 0.86946950124E+00 0.77178153761E+00 0.67798823925E+00
 0.59920069951E+00 0.54127892359E+00 0.50433627095E+00 0.50639102324E+00 0.49508322477E+00
 0.50577719534E+00 0.54057344456E+00 0.59928691554E+00 0.67987131054E+00 0.78204696721E+00
 0.90538781113E+00 0.10424986055E+01 0.11776556880E+01 0.12948525939E+01 0.13859570733E+01
 0.14490062618E+01 0.14794524965E+01 0.14667016017E+01 0.14025520159E+01 0.12932117245E+01
 0.11600339372E+01 0.10258664601E+01 0.90151027297E+00 0.78706759320E+00 0.68375194467E+00
 0.59905876631E+00 0.53993648881E+00 0.54113558746E+00 0.51389607524E+00 0.51010082296E+00
 0.53800263928E+00 0.59938855068E+00 0.68551780265E+00 0.79258163399E+00 0.92502808623E+00
 0.10796464836E+01 0.12398555497E+01 0.13881463924E+01 0.15125143004E+01 0.16017664002E+01
 0.16481879886E+01 0.16537162201E+01 0.16205277484E+01 0.15398012610E+01 0.14061494561E+01
 0.12394609491E+01 0.10738863494E+01 0.92658330355E+00 0.79465529483E+00 0.67965109947E+00
 0.59375741373E+00 0.58951205569E+00 0.54690757452E+00 0.52418860703E+00 0.53358980348E+00
 0.58951721421E+00 0.68046329020E+00 0.79129469552E+00 0.92879813738E+00 0.10985336967E+01
 0.12802212624E+01 0.14503471452E+01 0.16039745955E+01 0.17321761293E+01 0.18078476071E+01
 0.18193825333E+01 0.17890093601E+01 0.17321730448E+01 0.16297775921E+01 0.14686080358E+01
 0.12784089868E+01 0.10985369999E+01 0.93612955260E+00 0.78654118494E+00 0.66568358022E+00
 0.64669425773E+00 0.58859816565E+00 0.55158239563E+00 0.53532339196E+00 0.57112225603E+00
 0.66017510136E+00 0.77249848291E+00 0.90579977015E+00 0.10823893991E+01 0.12889358425E+01
 0.14821008262E+01 0.16511219269E+01 0.18109917439E+01 0.19388546673E+01 0.19865089306E+01
 0.19554533238E+01 0.18915592213E+01 0.18053014667E+01 0.16655953078E+01 0.14739343462E+01
 0.12757961578E+01 0.10942471015E+01 0.91777019931E+00 0.75686407417E+00 0.71405628704E+00
 0.63068367978E+00 0.58657290325E+00 0.55065026658E+00 0.55446720214E+00 0.62856792952E+00
 0.74174710449E+00 0.86452563273E+00 0.10261272055E+01 0.12452209432E+01 0.14707942185E+01
 0.16557267183E+01 0.18219448171E+01 0.19879971195E+01 0.21012611542E+01 0.21120221658E+01
 0.20508451869E+01 0.19644221590E+01 0.18380238977E+01 0.16493354077E+01 0.14364221008E+01
 0.12435617787E+01 0.10585788133E+01 0.86812708989E+00 0.79844668688E+00 0.67387262698E+00
 0.61829896024E+00 0.57653243787E+00 0.54962795234E+00 0.59229653245E+00 0.70199300983E+00
 0.82294693735E+00 0.95716166707E+00 0.11563569667E+01 0.14041235295E+01 0.16211696070E+01
 0.17890748831E+01 0.19548271960E+01 0.21110232062E+01 0.21871787606E+01 0.21659077613E+01
 0.20969851090E+01 0.19922581694E+01 0.18168775855E+01 0.15882945228E+01 0.13742126051E+01
 0.11878699307E+01 0.99082391492E+00 0.89671871928E+00 0.72716912966E+00 0.64266918171E+00
 0.60034944994E+00 0.55767718698E+00 0.55918741244E+00 0.64706901373E+00 0.77468759386E+00
 0.89672275537E+00 0.10561370702E+01 0.12907762711E+01 0.15395092509E+01 0.17321790028E+01
 0.18900465047E+01 0.20487157358E+01 0.21649875572E+01 0.21894310601E+01 0.21508036763E+01
 0.20830311156E+01 0.19507592304E+01 0.17321730780E+01 0.14927603588E+01 0.12926853108E+01
 0.11034511969E+01 0.98850214954E+00 0.79310968293E+00 0.66712582826E+00 0.61294303200E+00
 0.57019528839E+00 0.53957143332E+00 0.58320168674E+00 0.70109453265E+00 0.82901496382E+00
 0.96156042485E+00 0.11553301272E+01 0.14042936694E+01 0.16306914743E+01 0.18055315272E+01
 0.19635439187E+01 0.20970697845E+01 0.21517292830E+01 0.21296609489E+01 0.20823403578E+01
 0.20013950447E+01 0.18323382708E+01 0.15949468152E+01 0.13728702388E+01 0.11857066917E+01
 0.10519254390E+01 0.85883560898E+00 0.70045939803E+00 0.61840615354E+00 0.57660781993E+00
 0.53663090143E+00 0.53567101675E+00 0.61416077099E+00 0.73699809103E+00 0.86222621690E+00
 0.10176428073E+01 0.12335288518E+01 0.14669764459E+01 0.16654285275E+01 0.18376199643E+01
 0.19932257397E+01 0.20851706977E+01 0.20831872115E+01 0.20326202930E+01 0.19702490466E+01
 0.18558374956E+01 0.16578170744E+01 0.14307731003E+01 0.12346064655E+01 0.10819753060E+01
 0.90551826429E+00 0.73937318094E+00 0.62782208055E+00 0.57390489177E+00 0.53800026221E+00
 0.51692485455E+00 0.54948037065E+00 0.64065316111E+00 0.75490907384E+00 0.88649380119E+00
 0.10619307116E+01 0.12712921631E+01 0.14697898769E+01 0.16461305612E+01 0.18159153904E+01
 0.19522845859E+01 0.20019611808E+01 0.19686991719E+01 0.19032968412E+01 0.18134985380E+01
 0.16633851274E+01 0.14601545358E+01 0.12593755718E+01 0.10870656465E+01 0.92397566351E+00
 0.76909072684E+00 0.64446936484E+00 0.56957110141E+00 0.53017761051E+00 0.50850776022E+00
 0.51651200907E+00 0.56956114535E+00 0.65686210602E+00 0.76681795309E+00 0.90990560972E+00
 0.10870705828E+01 0.12681247661E+01 0.14305214844E+01 0.15848791038E+01 0.17321790433E+01
 0.18330414869E+01 0.18541307525E+01 0.18111211123E+01 0.17321762029E+01 0.16137961844E+01
 0.14484798524E+01 0.12623072346E+01 0.10725672688E+01 0.91826494098E+00 0.77775432264E+00
 0.65913365061E+00 0.57206028635E+00 0.51808946179E+00 0.49203381905E+00 0.49278893912E+00
 0.52283848664E+00 0.58016123082E+00 0.66263496089E+00 0.77601684122E+00 0.92252863276E+00
 0.10847362672E+01 0.12370364133E+01 0.13711042856E+01 0.14930616316E+01 0.15968412209E+01
 0.16592343014E+01 0.16638742689E+01 0.16141141589E+01 0.15201227855E+01 0.13894646795E+01
 0.12341950692E+01 0.10358819074E+01 0.89646885011E+00 0.76673775970E+00 0.66085664604E+00
 0.57886279869E+00 0.51603365133E+00 0.47680776994E+00 0.46795206814E+00 0.48563727930E+00
 0.52153276040E+00 0.57669279902E+00 0.65912738386E+00 0.77116970684E+00 0.90579180742E+00
 0.10497460387E+01 0.11850119309E+01 0.12951280248E+01 0.13762875784E+01 0.14342565950E+01
 0.14658409290E+01 0.14546988973E+01 0.13922472825E+01 0.12910273218E+01 0.11694960104E+01
 0.97538868381E+00 0.86195021660E+00 0.74530501837E+00 0.64879840542E+00 0.57929373351E+00
 0.52334388971E+00 0.47779578242E+00 0.45601914490E+00 0.46121551037E+00 0.48147062572E+00
 0.51411990988E+00 0.56924079378E+00 0.64814436069E+00 0.74302396803E+00 0.85481340349E+00
 0.98382940129E+00 0.11064900032E+01 0.11916058420E+01 0.12378081476E+01 0.12652631296E+01
 0.12739870426E+01 0.12431675735E+01 0.11702428747E+01 0.10768914801E+01 0.89672390808E+00
 0.81385066334E+00 0.71884529617E+00 0.63103258964E+00 0.56959158753E+00 0.52641790714E+00
 0.48795773163E+00 0.46177347045E+00 0.45775093832E+00 0.46673341504E+00 0.48128554998E+00
 0.51341530891E+00 0.56956112512E+00 0.63428592147E+00 0.70054314938E+00 0.78640243117E+00
 0.89672276554E+00 0.99792841738E+00 0.10583131515E+01 0.10857185982E+01 0.10985337346E+01
 0.10884764105E+01 0.10419722062E+01 0.97176601084E+00 0.81007081482E+00 0.75354185493E+00
 0.68622862733E+00 0.61415273295E+00 0.55825269799E+00 0.52280613445E+00 0.49454249373E+00
 0.47218794610E+00 0.46617181964E+00 0.47196438746E+00 0.47648447156E+00 0.48776413114E+00
 0.52411020216E+00 0.57731072886E+00 0.62269315428E+00 0.66288033403E+00 0.72321513450E+00
 0.80364334070E+00 0.87305802331E+00 0.91352728431E+00 0.93391285120E+00 0.93766135605E+00
 0.91392022624E+00 0.86522028577E+00 0.72562746519E+00 0.68837600093E+00 0.64700003538E+00
 0.59805210650E+00 0.55391222400E+00 0.52476955445E+00 0.50400858700E+00 0.48601009348E+00
 0.47898765626E+00 0.48520862180E+00 0.49012956647E+00 0.48852624436E+00 0.49953770749E+00
 0.53622284700E+00 0.58109604135E+00 0.61288348828E+00 0.63809895400E+00 0.67415703430E+00
 0.71853126039E+00 0.75623856901E+00 0.78232462213E+00 0.79668249292E+00 0.79154347469E+00
 0.76367054134E+00 0.65101896861E+00 0.62823347132E+00 0.60620593777E+00 0.58064958387E+00
 0.55531348761E+00 0.53843853535E+00 0.52836138660E+00 0.51786556408E+00 0.50989531797E+00
 0.51233920426E+00 0.51962547154E+00 0.51817369591E+00 0.51045517961E+00 0.51511046974E+00
 0.54022275733E+00 0.57284507908E+00 0.59853565660E+00 0.61654071489E+00 0.63215979355E+00
 0.64750704569E+00 0.66322437006E+00 0.67782512577E+00 0.68346315479E+00 0.67295299208E+00
 0.58953349324E+00 0.57896615357E+00 0.57065713924E+00 0.56354853322E+00 0.55764881793E+00
 0.55713895934E+00 0.56288229613E+00 0.56855145054E+00 0.56959157476E+00 0.57011451960E+00
 0.57451106449E+00 0.57733420931E+00 0.56957106845E+00 0.55284053420E+00 0.54015287398E+00
 0.54227985656E+00 0.55767718369E+00 0.57569758221E+00 0.58665313866E+00 0.58914854814E+00
 0.58951722991E+00 0.59352135001E+00 0.59876050332E+00 0.59801468712E+00 0.54108749160E+00
 0.54073223222E+00 0.54343644265E+00 0.55065806579E+00 0.56174266285E+00 0.57709724703E+00
 0.59809160900E+00 0.62264562447E+00 0.64392382023E+00 0.65625073893E+00 0.66089614952E+00
 0.66260173297E+00 0.66056043995E+00 0.64715953162E+00 0.61844563887E+00 0.58322172495E+00
 0.55736987289E+00 0.54873593328E+00 0.55068975683E+00 0.55154379343E+00 0.54719739407E+00
 0.54214299583E+00 0.54061295588E+00 0.54126461379E+00 0.50603972648E+00 0.51243930691E+00
 0.52405784113E+00 0.54339693984E+00 0.57048002209E+00 0.60261409187E+00 0.63820706624E+00
 0.67769622635E+00 0.71866817477E+00 0.75271784212E+00 0.77126658475E+00 0.77424674569E+00
 0.76891362839E+00 0.75867115975E+00 0.73709145360E+00 0.69680762926E+00 0.64249207691E+00
 0.59046297092E+00 0.55456408927E+00 0.53532247944E+00 0.52401148590E+00 0.51420166505E+00
 0.50648073045E+00 0.50369582278E+00 0.48595919833E+00 0.49471896675E+00 0.51182313232E+00
 0.54007655633E+00 0.58134869002E+00 0.63244147150E+00 0.68775981181E+00 0.74439327061E+00
 0.80153608067E+00 0.85515352892E+00 0.89585264603E+00 0.91414115849E+00 0.90846123808E+00
 0.88683647059E+00 0.85821944289E+00 0.82217531445E+00 0.77072538103E+00 0.70232480941E+00
 0.63006752278E+00 0.57172209636E+00 0.53387666158E+00 0.51041139763E+00 0.49446704694E+00
 0.48570181144E+00 0.63711547828E+00 0.64914661728E+00 0.68308549483E+00 0.74124655079E+00
 0.82702375982E+00 0.93855766902E+00 0.10677540904E+01 0.12042405577E+01 0.13377951153E+01
 0.14587750787E+01 0.15580346524E+01 0.16247696540E+01 0.16459839622E+01 0.16148759575E+01
 0.15410706781E+01 0.14448301002E+01 0.13377550470E+01 0.12165977429E+01 0.10800963530E+01
 0.94317121282E+00 0.82701614650E+00 0.74116433311E+00 0.68271814214E+00 0.64807344604E+00
 0.64876983854E+00 0.64945662109E+00 0.68079075289E+00 0.74322995619E+00 0.83852334141E+00
 0.96611738835E+00 0.11213078396E+01 0.12951593336E+01 0.14734170277E+01 0.16383478999E+01
 0.17761223236E+01 0.18797833040E+01 0.19408633238E+01 0.19439739778E+01 0.18793878885E+01
 0.17590759761E+01 0.16104266918E+01 0.14534324746E+01 0.12921488607E+01 0.11284447085E+01
 0.97372130570E+00 0.84300069822E+00 0.74463739525E+00 0.68009425123E+00 0.68324964045E+00
 0.66298397307E+00 0.68262865137E+00 0.74387528855E+00 0.84522219246E+00 0.98261380813E+00
 0.11532246398E+01 0.13532763897E+01 0.15707446737E+01 0.17840003430E+01 0.19706146309E+01
 0.21165443045E+01 0.22150610808E+01 0.22582153445E+01 0.22337157255E+01 0.21340502874E+01
 0.19689377313E+01 0.17655130456E+01 0.15532576030E+01 0.13491276758E+01 0.11584057457E+01
 0.98664987138E+00 0.84499081655E+00 0.74320279977E+00 0.74334448027E+00 0.69473668330E+00
 0.69077058118E+00 0.74008697368E+00 0.84317111144E+00 0.98847509139E+00 0.11690490698E+01
 0.13861258479E+01 0.16322046390E+01 0.18848203367E+01 0.21196138498E+01 0.23174608299E+01
 0.24603115304E+01 0.25350276648E+01 0.25408521110E+01 0.24800838096E+01 0.23462319243E+01
 0.21386120729E+01 0.18844034240E+01 0.16260765236E+01 0.13876920541E+01 0.11712227160E+01
 0.98233873535E+00 0.83725496091E+00 0.82701613206E+00 0.74830301804E+00 0.71278045310E+00
 0.73428066842E+00 0.82700917712E+00 0.97629803961E+00 0.11628027750E+01 0.13899692083E+01
 0.16596648998E+01 0.19458106317E+01 0.22177583425E+01 0.24632826233E+01 0.26654381089E+01
 0.27887504859E+01 0.28160462848E+01 0.27689219107E+01 0.26654331408E+01 0.24904193435E+01
 0.22369241668E+01 0.19438525971E+01 0.16596776045E+01 0.13977558374E+01 0.11578742611E+01
 0.96078098227E+00 0.92816855052E+00 0.81811506096E+00 0.75360203280E+00 0.73648243051E+00
 0.79972155667E+00 0.94236857905E+00 0.11291719136E+01 0.13535762270E+01 0.16349713063E+01
 0.19549269965E+01 0.22623793256E+01 0.25390475362E+01 0.27924652266E+01 0.29900112738E+01
 0.30737058002E+01 0.30409794743E+01 0.29401637232E+01 0.27864426913E+01 0.25542616094E+01
 0.22537489985E+01 0.19410938676E+01 0.16475212922E+01 0.13662613278E+01 0.11127456801E+01
 0.10461797089E+01 0.89481124486E+00 0.80794689223E+00 0.75621557442E+00 0.77413362018E+00
 0.89262964679E+00 0.10754308097E+01 0.12869799636E+01 0.15535228806E+01 0.18904256522E+01
 0.22391710862E+01 0.25438219581E+01 0.28192338642E+01 0.30754523336E+01 0.32479674215E+01
 0.32778266015E+01 0.31948363976E+01 0.30506077785E+01 0.28361916249E+01 0.25371279837E+01
 0.22030075139E+01 0.18887145444E+01 0.15877057504E+01 0.12907142886E+01 0.11851355211E+01
 0.97735845036E+00 0.86407240602E+00 0.79139241963E+00 0.76300974277E+00 0.83663269923E+00
 0.10070351467E+01 0.12110810464E+01 0.14459682573E+01 0.17616504169E+01 0.21364310128E+01
 0.24813077352E+01 0.27693315417E+01 0.30404837416E+01 0.32768239497E+01 0.33954572106E+01
 0.33730623605E+01 0.32620635864E+01 0.30799390382E+01 0.27986403337E+01 0.24467131998E+01
 0.21049696818E+01 0.17948442885E+01 0.14813291431E+01 0.13377550547E+01 0.10723787138E+01
 0.91618532721E+00 0.82880728115E+00 0.76909815648E+00 0.78537523685E+00 0.92074121157E+00
 0.11223977671E+01 0.13377611564E+01 0.16072900159E+01 0.19664362616E+01 0.23459580480E+01
 0.26654440587E+01 0.29385658273E+01 0.31925903202E+01 0.33720912614E+01 0.34177332269E+01
 0.33571490215E+01 0.32287530443E+01 0.30025419611E+01 0.26654331740E+01 0.22966762280E+01
 0.19684062413E+01 0.16571058713E+01 0.14782368108E+01 0.11789708397E+01 0.96970354302E+00
 0.85783908105E+00 0.78413578711E+00 0.75187568322E+00 0.82648455983E+00 0.10054008343E+01
 0.12166619309E+01 0.14497626890E+01 0.17598033029E+01 0.21359647984E+01 0.24908306786E+01
 0.27863273734E+01 0.30495089101E+01 0.32621000302E+01 0.33581224031E+01 0.33348502302E+01
 0.32465508743E+01 0.30893888400E+01 0.28145725657E+01 0.24531192479E+01 0.21027745912E+01
 0.17917863101E+01 0.15794914680E+01 0.12799038075E+01 0.10309421353E+01 0.88098772495E+00
 0.79656261623E+00 0.74058020542E+00 0.75348533789E+00 0.87658082204E+00 0.10694571100E+01
 0.12834246901E+01 0.15433020704E+01 0.18767956072E+01 0.22339926635E+01 0.25532007150E+01
 0.28352716330E+01 0.30807846503E+01 0.32310111109E+01 0.32474927056E+01 0.31756300134E+01
 0.30565721905E+01 0.28544670760E+01 0.25451632561E+01 0.21958264715E+01 0.18779533315E+01
 0.16330969956E+01 0.13521579897E+01 0.10933918229E+01 0.90750070635E+00 0.80188357656E+00
 0.73852842216E+00 0.71634748637E+00 0.77624029608E+00 0.92116410656E+00 0.11098675470E+01
 0.13321184375E+01 0.16119291963E+01 0.19347115438E+01 0.22479925160E+01 0.25328487302E+01
 0.27972511374E+01 0.30041624302E+01 0.30901669941E+01 0.30551003675E+01 0.29525257036E+01
 0.27947276101E+01 0.25510685311E+01 0.22378633654E+01 0.19221874328E+01 0.16459840040E+01
 0.13837716180E+01 0.11388180809E+01 0.93811440384E+00 0.80584099717E+00 0.73049388898E+00
 0.69600001545E+00 0.71603895503E+00 0.80583682737E+00 0.95125509992E+00 0.11364742363E+01
 0.13689383461E+01 0.16459984962E+01 0.19314064913E+01 0.21955718730E+01 0.24425080261E+01
 0.26654440991E+01 0.28157097575E+01 0.28531505175E+01 0.27925519577E+01 0.26654381824E+01
 0.24730473866E+01 0.22145295950E+01 0.19252509933E+01 0.16231477538E+01 0.13777867619E+01
 0.11528941638E+01 0.96075517777E+00 0.81483238771E+00 0.71968487630E+00 0.67224728861E+00
 0.67291237382E+00 0.72447743325E+00 0.82331257200E+00 0.96447943290E+00 0.11510270786E+01
 0.13822323915E+01 0.16360341108E+01 0.18805485092E+01 0.21009361550E+01 0.22969605849E+01
 0.24557294402E+01 0.25475748816E+01 0.25524282633E+01 0.24739046713E+01 0.23255249463E+01
 0.21202972512E+01 0.18774649940E+01 0.15625085675E+01 0.13426519335E+01 0.11364012984E+01
 0.96256892803E+00 0.82428310204E+00 0.71900423039E+00 0.65324298726E+00 0.63547433714E+00
 0.66236007502E+00 0.72470763168E+00 0.82205291786E+00 0.96072651540E+00 0.11409481542E+01
 0.13524704621E+01 0.15772489666E+01 0.17910790258E+01 0.19709101795E+01 0.21070998123E+01
 0.22007805807E+01 0.22452457028E+01 0.22222322588E+01 0.21239250307E+01 0.19666722710E+01
 0.17746877490E+01 0.14643579778E+01 0.12831196591E+01 0.10997170886E+01 0.94272540381E+00
 0.82234811880E+00 0.72655549183E+00 0.65334214630E+00 0.61752358239E+00 0.62295523752E+00
 0.65722204920E+00 0.71699375708E+00 0.81184577039E+00 0.94192201583E+00 0.10972294468E+01
 0.12757108526E+01 0.14733245605E+01 0.16602484762E+01 0.17986955656E+01 0.18827118326E+01
 0.19300795339E+01 0.19391496109E+01 0.18882230938E+01 0.17762865056E+01 0.16291994625E+01
 0.13377951331E+01 0.12007024240E+01 0.10503286325E+01 0.91101492730E+00 0.80585346083E+00
 0.72823263996E+00 0.66479220616E+00 0.62353885268E+00 0.61470093729E+00 0.62871399085E+00
 0.65788618155E+00 0.71475772325E+00 0.80583680713E+00 0.91428472125E+00 0.10310363395E+01
 0.11719136063E+01 0.13377611666E+01 0.14887721296E+01 0.15874395446E+01 0.16386323584E+01
 0.16596649377E+01 0.16413661479E+01 0.15702131981E+01 0.14613790236E+01 0.11974897639E+01
 0.11001056091E+01 0.98975524297E+00 0.87660135737E+00 0.78550998987E+00 0.72270863550E+00
 0.67480739967E+00 0.63994227185E+00 0.62812967565E+00 0.63411924800E+00 0.64435613953E+00
 0.66778350735E+00 0.72420411200E+00 0.80547407167E+00 0.88546260430E+00 0.96524331747E+00
 0.10682714055E+01 0.11906315994E+01 0.12958617532E+01 0.13618280678E+01 0.13954623483E+01
 0.13993188075E+01 0.13621582038E+01 0.12877121456E+01 0.10584428067E+01 0.99267345212E+00
 0.92064233619E+00 0.84210814560E+00 0.77271631429E+00 0.72467499589E+00 0.69133701167E+00
 0.66592560046E+00 0.65548090803E+00 0.66105600977E+00 0.66702817071E+00 0.66849437345E+00
 0.68668873996E+00 0.73669949723E+00 0.80121741418E+00 0.85776028059E+00 0.91142992907E+00
 0.97770392185E+00 0.10508254705E+01 0.11120382740E+01 0.11534914788E+01 0.11733602196E+01
 0.11630674464E+01 0.11198732559E+01 0.93272290392E+00 0.89228129850E+00 0.85128103330E+00
 0.80795967116E+00 0.76842620302E+00 0.74246805858E+00 0.72837877775E+00 0.71753061587E+00
 0.71105622834E+00 0.71513783259E+00 0.72270800030E+00 0.71963571965E+00 0.70974314553E+00
 0.71447266156E+00 0.74428401103E+00 0.78685519790E+00 0.82691603457E+00 0.86226018130E+00
 0.89633346052E+00 0.92893874744E+00 0.95821934466E+00 0.98046017398E+00 0.98631760208E+00
 0.96838658648E+00 0.82702376109E+00 0.80797701579E+00 0.79119737665E+00 0.77770002033E+00
 0.76908156241E+00 0.77034911901E+00 0.78202760918E+00 0.79617264683E+00 0.80585344807E+00
 0.81285337534E+00 0.81980920368E+00 0.82036615659E+00 0.80584096421E+00 0.77975069511E+00
 0.75814184135E+00 0.75464094153E+00 0.76909815319E+00 0.79056011651E+00 0.80805027464E+00
 0.81863607987E+00 0.82700919282E+00 0.83707911449E+00 0.84469070391E+00 0.84173880979E+00
 0.74330474182E+00 0.74179275863E+00 0.74505018674E+00 0.75626180273E+00 0.77584635106E+00
 0.80432867805E+00 0.84218094154E+00 0.88541035442E+00 0.92441473719E+00 0.95051205485E+00
 0.96264172495E+00 0.96443530718E+00 0.95508854835E+00 0.92792546928E+00 0.88106050371E+00
 0.82649056135E+00 0.78348990740E+00 0.76213395915E+00 0.75628835810E+00 0.75354326418E+00
 0.74858279068E+00 0.74447091450E+00 0.74394809331E+00 0.74459176054E+00 0.68288725810E+00
 0.69323049159E+00 0.71264462673E+00 0.74497739049E+00 0.79099913078E+00 0.84757723769E+00
 0.91152927300E+00 0.98087344303E+00 0.10501303824E+01 0.11074309364E+01 0.11410734163E+01
 0.11491412463E+01 0.11386198537E+01 0.11137438201E+01 0.10695611485E+01 0.10009792632E+01
 0.91598709370E+00 0.83474116737E+00 0.77422848902E+00 0.73646839097E+00 0.71258220326E+00
 0.69508171411E+00 0.68335839154E+00 0.67935616575E+00 0.64767367477E+00 0.66265257716E+00
 0.69257245131E+00 0.74106192361E+00 0.81041592338E+00 0.89664311408E+00 0.99201539730E+00
 0.10905657601E+01 0.11878878343E+01 0.12760638130E+01 0.13419938637E+01 0.13733757733E+01
 0.13673826955E+01 0.13324640433E+01 0.12792457757E+01 0.12095885248E+01 0.11182813341E+01
 0.10073477478E+01 0.89415322216E+00 0.80032340034E+00 0.73458614568E+00 0.69108358055E+00
 0.66232592954E+00 0.64736398944E+00 0.84417812354E+00 0.86491531124E+00 0.92433548868E+00
 0.10236248117E+01 0.11644463613E+01 0.13423261121E+01 0.15456483755E+01 0.17596912631E+01
 0.19689783945E+01 0.21578765931E+01 0.23112098135E+01 0.24128920088E+01 0.24460658845E+01
 0.24024110325E+01 0.22931984583E+01 0.21430481119E+01 0.19689391453E+01 0.17728415225E+01
 0.15587661596E+01 0.13472265786E+01 0.11644737621E+01 0.10235928631E+01 0.92396141761E+00
 0.86375517596E+00 0.86450502571E+00 0.86521683827E+00 0.91916402929E+00 0.10253098245E+01
 0.11828078350E+01 0.13877440284E+01 0.16316346943E+01 0.19012966392E+01 0.21771053479E+01
 0.24344042721E+01 0.26515147210E+01 0.28138858840E+01 0.29065913888E+01 0.29098973434E+01
 0.28134676725E+01 0.26334323530E+01 0.24048467439E+01 0.21560461556E+01 0.18982264950E+01
 0.16392154334E+01 0.13957413533E+01 0.11875154518E+01 0.10268239512E+01 0.91846503418E+00
 0.92450735525E+00 0.89025279205E+00 0.92386497431E+00 0.10260023079E+01 0.11920981196E+01
 0.14139082318E+01 0.16844273582E+01 0.19959171825E+01 0.23315703427E+01 0.26628864357E+01
 0.29582349729E+01 0.31930539045E+01 0.33504847527E+01 0.34147924370E+01 0.33702342077E+01
 0.32116016734E+01 0.29565134640E+01 0.26433969638E+01 0.23130970895E+01 0.19914660698E+01
 0.16897996386E+01 0.14181075023E+01 0.11918394371E+01 0.10252862117E+01 0.10258639236E+01
 0.94501883241E+00 0.94083496808E+00 0.10224332098E+01 0.11876710369E+01 0.14200298358E+01
 0.17076377937E+01 0.20480106034E+01 0.24297864724E+01 0.28244886524E+01 0.31985462120E+01
 0.35203014778E+01 0.37571288786E+01 0.38827643774E+01 0.38889577108E+01 0.37781213162E+01
 0.35508097137E+01 0.32186625871E+01 0.28239923601E+01 0.24232019999E+01 0.20495795196E+01
 0.17099054929E+01 0.14135488516E+01 0.11814190558E+01 0.11644737477E+01 0.10327082435E+01
 0.97841948649E+00 0.10178778588E+01 0.11644557231E+01 0.13984277316E+01 0.16943714529E+01
 0.20519113281E+01 0.24701684203E+01 0.29181648774E+01 0.33568653525E+01 0.37616285896E+01
 0.40982347748E+01 0.43116041104E+01 0.43698620664E+01 0.42906471157E+01 0.40982381020E+01
 0.37902969807E+01 0.33770559755E+01 0.29160238736E+01 0.24701918553E+01 0.20602346449E+01
 0.16892537146E+01 0.13820653173E+01 0.13313818578E+01 0.11464324828E+01 0.10422562581E+01
 0.10241756812E+01 0.11270280566E+01 0.13464081469E+01 0.16399190668E+01 0.19960617298E+01
 0.24325303861E+01 0.29276993620E+01 0.34230147821E+01 0.38888769304E+01 0.43161090929E+01
 0.46486764471E+01 0.48050807735E+01 0.47704008931E+01 0.45958274998E+01 0.43096664737E+01
 0.39049663021E+01 0.34139058191E+01 0.29131053408E+01 0.24458929429E+01 0.20095983815E+01
 0.16226208893E+01 0.15228800471E+01 0.12746252900E+01 0.11267091294E+01 0.10526852461E+01
 0.10909439656E+01 0.12723629552E+01 0.15539120231E+01 0.18928136791E+01 0.23133785491E+01
 0.28303109515E+01 0.33793579287E+01 0.38938664042E+01 0.43738875897E+01 0.48070425854E+01
 0.50999953371E+01 0.51708469048E+01 0.50437669874E+01 0.47807425894E+01 0.43918398403E+01
 0.38868340167E+01 0.33411698541E+01 0.28285509951E+01 0.23495291447E+01 0.18966887789E+01
 0.17395253377E+01 0.14135696690E+01 0.12182845512E+01 0.11018312311E+01 0.10717383909E+01
 0.11891592782E+01 0.14450057854E+01 0.17671550822E+01 0.21482893414E+01 0.26393391802E+01
 0.32163214524E+01 0.37806563077E+01 0.42915800062E+01 0.47699717399E+01 0.51697696259E+01
 0.53779142649E+01 0.53542976148E+01 0.51542915710E+01 0.48117712109E+01 0.43225628182E+01
 0.37440546186E+01 0.31830753196E+01 0.26744255684E+01 0.21855370419E+01 0.19689391530E+01
 0.15666127111E+01 0.13085616439E+01 0.11571005587E+01 0.10735713967E+01 0.11111031183E+01
 0.13132979615E+01 0.16194596989E+01 0.19689419156E+01 0.24016004374E+01 0.29539508133E+01
 0.35505613939E+01 0.40982503951E+01 0.45941285551E+01 0.50413893595E+01 0.53532713286E+01
 0.54449979963E+01 0.53374684696E+01 0.50796531025E+01 0.46618175654E+01 0.40982381352E+01
 0.34983933347E+01 0.29559675346E+01 0.24542422354E+01 0.21784191671E+01 0.17284565594E+01
 0.14001116878E+01 0.12055947179E+01 0.10877120370E+01 0.10536346386E+01 0.11724739371E+01
 0.14377747699E+01 0.17681191085E+01 0.21481637060E+01 0.26342459851E+01 0.32137014456E+01
 0.37894828357E+01 0.43090203826E+01 0.47794746703E+01 0.51543473512E+01 0.53384970456E+01
 0.53138021794E+01 0.51377634342E+01 0.48216166618E+01 0.43389443705E+01 0.37495965259E+01
 0.31785182338E+01 0.26680535743E+01 0.23338528440E+01 0.18765322758E+01 0.14962334385E+01
 0.12477046660E+01 0.11010233783E+01 0.10220212432E+01 0.10555167331E+01 0.12431180615E+01
 0.15369937719E+01 0.18801912214E+01 0.22954781663E+01 0.28106637192E+01 0.33705157020E+01
 0.39020406264E+01 0.43902109379E+01 0.48125581538E+01 0.50820437460E+01 0.51387410200E+01
 0.50234548648E+01 0.47869485040E+01 0.44105164533E+01 0.38935163705E+01 0.33301257973E+01
 0.28119299715E+01 0.24216786969E+01 0.19828088035E+01 0.15870251886E+01 0.12909608483E+01
 0.11076118241E+01 0.10027288445E+01 0.97925349590E+00 0.10805259146E+01 0.13055751839E+01
 0.16046230602E+01 0.19616441677E+01 0.23992250354E+01 0.29000321689E+01 0.34039867975E+01
 0.38804854141E+01 0.43205486623E+01 0.46635415535E+01 0.48225555819E+01 0.47854873917E+01
 0.46089889896E+01 0.43179456056E+01 0.38997609567E+01 0.33932372303E+01 0.28868044268E+01
 0.24460659264E+01 0.20319563370E+01 0.16509004806E+01 0.13343391780E+01 0.11126695551E+01
 0.98004923100E+00 0.92509900639E+00 0.96466650420E+00 0.11126672376E+01 0.13483644529E+01
 0.16485012128E+01 0.20162503452E+01 0.24460893095E+01 0.28965826266E+01 0.33298613158E+01
 0.37382937021E+01 0.40982504355E+01 0.43407143216E+01 0.44097737115E+01 0.43161357459E+01
 0.40982348483E+01 0.37706759580E+01 0.33499388276E+01 0.28900234645E+01 0.24111292549E+01
 0.20256807407E+01 0.16712686644E+01 0.13639796994E+01 0.11225685383E+01 0.95811521144E+00
 0.87381160789E+00 0.87437113854E+00 0.96296351101E+00 0.11314992851E+01 0.13679529448E+01
 0.16692156001E+01 0.20303056734E+01 0.24248306325E+01 0.28147140761E+01 0.31765676039E+01
 0.34986533078E+01 0.37536781059E+01 0.38979167827E+01 0.39029588622E+01 0.37727920391E+01
 0.35289105637E+01 0.31971043062E+01 0.28113732630E+01 0.23157901715E+01 0.19728034274E+01
 0.16484342595E+01 0.13658972838E+01 0.11325727419E+01 0.95158003358E+00 0.83641470124E+00
 0.80154870969E+00 0.84583250883E+00 0.95750759295E+00 0.11302786119E+01 0.13639025723E+01
 0.16530815737E+01 0.19831994200E+01 0.23315522153E+01 0.26673294513E+01 0.29585311742E+01
 0.31852928902E+01 0.33388915117E+01 0.34048824996E+01 0.33614457117E+01 0.32031049076E+01
 0.29542006094E+01 0.26499770024E+01 0.21636211036E+01 0.18798259631E+01 0.15938151622E+01
 0.13392706176E+01 0.11304064816E+01 0.95940631662E+00 0.83029162660E+00 0.76461567422E+00
 0.77028820056E+00 0.83437293446E+00 0.94947550573E+00 0.11194168159E+01 0.13382908436E+01
 0.15910999450E+01 0.18721591713E+01 0.21732151082E+01 0.24574902784E+01 0.26783999033E+01
 0.28222789192E+01 0.29015350271E+01 0.29109832127E+01 0.28279621075E+01 0.26548543857E+01
 0.24248344781E+01 0.19689784122E+01 0.17512453265E+01 0.15167662021E+01 0.12948307322E+01
 0.11126602904E+01 0.96691206164E+00 0.84839794233E+00 0.77091027948E+00 0.74961450082E+00
 0.77631459802E+00 0.84125217240E+00 0.95295539924E+00 0.11126672174E+01 0.12980784277E+01
 0.14963394056E+01 0.17209771838E+01 0.19689419257E+01 0.21933764324E+01 0.23492646816E+01
 0.24366042412E+01 0.24701684583E+01 0.24392863234E+01 0.23310244278E+01 0.21645846311E+01
 0.17527152630E+01 0.15958464694E+01 0.14212611331E+01 0.12432112844E+01 0.10903977129E+01
 0.97178259807E+00 0.87642647670E+00 0.80626002328E+00 0.77570515163E+00 0.78191136003E+00
 0.81081231965E+00 0.86915791948E+00 0.97350859141E+00 0.11113447254E+01 0.12523816513E+01
 0.13954277022E+01 0.15623383617E+01 0.17453900810E+01 0.19020772762E+01 0.20049304228E+01
 0.20578615170E+01 0.20618328853E+01 0.20051808042E+01 0.18935707877E+01 0.15359597667E+01
 0.14298247607E+01 0.13131792434E+01 0.11889715890E+01 0.10758642495E+01 0.98813579033E+00
 0.92026845409E+00 0.86716286991E+00 0.83870931913E+00 0.83832370269E+00 0.85068365270E+00
 0.86976123773E+00 0.91541040583E+00 0.10008087344E+01 0.11058597302E+01 0.12055574012E+01
 0.13036093539E+01 0.14139771988E+01 0.15277145404E+01 0.16217867675E+01 0.16846828317E+01
 0.17121964581E+01 0.16946619292E+01 0.16300969666E+01 0.13362067953E+01 0.12720309584E+01
 0.12046856283E+01 0.11349720589E+01 0.10710726348E+01 0.10239512352E+01 0.99196752268E+00
 0.96635072135E+00 0.94902184277E+00 0.94754249427E+00 0.95541175399E+00 0.95789655028E+00
 0.95811179923E+00 0.97734190583E+00 0.10258529993E+01 0.10905498471E+01 0.11551291336E+01
 0.12163561715E+01 0.12761947194E+01 0.13321076060E+01 0.13793822296E+01 0.14116394533E+01