    3    3    1    1
  0.1024804E+03  0.3190316E-09  0.3190316E-09  0.3487900E-08  0.5000000E-15
  1.000000000000000E-004
  CAR 
 unknown system                          
     18     10     14
 
  0.0000000E+00  0.0000000E+00  0.0000000E+00  0.1562500E-01
    1      -18.048357   1.000000
    2      -16.840010   1.000000
    3       -9.558304   1.000000
    4       -6.596356   1.000000
    5       -6.596099   1.000000
    6       -5.736813   1.000000
    7       -5.489167   1.000000
    8       -5.488700   1.000000
    9       -4.014256   1.000000
   10       -1.240153   0.000000
   11       -1.239370   0.000000
   12       -1.017617   0.000000
   13       -1.016936   0.000000
   14        1.386147   0.000000
 
  0.1250000E+00  0.0000000E+00  0.0000000E+00  0.9375000E-01
    1      -17.834297   1.000000
    2      -16.737546   1.000000
    3       -9.313351   1.000000
    4       -7.060738   1.000000
    5       -6.543458   1.000000
    6       -6.362039   1.000000
    7       -5.825116   1.000000
    8       -5.057512   1.000000
    9       -4.153006   1.000000
   10       -1.522546   0.000000
   11       -1.456025   0.000000
   12       -1.254508   0.000000
   13       -0.885541   0.000000
   14        1.751601   0.000000
 
  0.2500000E+00  0.0000000E+00  0.0000000E+00  0.9375000E-01
    1      -17.265754   1.000000
    2      -16.468652   1.000000
    3       -8.947454   1.000000
    4       -7.788998   1.000000
    5       -7.525098   1.000000
    6       -6.461865   1.000000
    7       -5.776042   1.000000
    8       -5.309673   1.000000
    9       -4.721505   1.000000
   10       -1.846942   0.000000
   11       -1.671482   0.000000
   12       -1.128615   0.000000
   13       -0.270749   0.000000
   14        2.576059   0.000000
 
  0.3750000E+00 -0.5551115E-16  0.0000000E+00  0.9375000E-01
    1      -16.590840   1.000000
    2      -16.160070   1.000000
    3       -9.386774   1.000000
    4       -8.394052   1.000000
    5       -7.920322   1.000000
    6       -6.960201   1.000000
    7       -5.718780   1.000000
    8       -5.186347   1.000000
    9       -4.915687   1.000000
   10       -1.854184   0.000000
   11       -1.574544   0.000000
   12       -0.409758   0.000000
   13        0.122017   0.000000
   14        3.146131   0.000000
 
  0.5000000E+00  0.0000000E+00  0.0000000E+00  0.4687500E-01
    1      -16.262546   1.000000
    2      -16.016716   1.000000
    3       -9.719602   1.000000
    4       -8.760158   1.000000
    5       -8.045534   1.000000
    6       -7.141377   1.000000
    7       -5.856929   1.000000
    8       -4.959235   1.000000
    9       -4.634034   1.000000
   10       -1.832580   0.000000
   11       -1.318073   0.000000
   12       -0.109971   0.000000
   13        0.237501   0.000000
   14        2.192182   0.000000
 
  0.1250000E+00  0.1250000E+00  0.0000000E+00  0.9375000E-01
    1      -17.441605   1.000000
    2      -16.550414   1.000000
    3       -8.965704   1.000000
    4       -7.625885   1.000000
    5       -7.106097   1.000000
    6       -6.639413   1.000000
    7       -6.023611   1.000000
    8       -4.922919   1.000000
    9       -4.525614   1.000000
   10       -1.921753   0.000000
   11       -1.544296   0.000000
   12       -1.531966   0.000000
   13       -0.291501   0.000000
   14        2.348065   0.000000
 
  0.2500000E+00  0.1250000E+00  0.0000000E+00  0.1875000E+00
    1      -16.808235   1.000000
    2      -16.251799   1.000000
    3       -9.030069   1.000000
    4       -8.052452   1.000000
    5       -7.789192   1.000000
    6       -7.145087   1.000000
    7       -5.924562   1.000000
    8       -5.285954   1.000000
    9       -4.809423   1.000000
   10       -2.005662   0.000000
   11       -1.558974   0.000000
   12       -1.061982   0.000000
   13        0.213807   0.000000
   14        3.333007   0.000000
 
  0.3750000E+00  0.1250000E+00  0.0000000E+00  0.1875000E+00
    1      -16.277809   1.000000
    2      -16.007839   1.000000
    3       -9.431897   1.000000
    4       -8.816043   1.000000
    5       -7.918092   1.000000
    6       -7.162505   1.000000
    7       -5.909351   1.000000
    8       -5.767032   1.000000
    9       -4.482535   1.000000
   10       -1.813634   0.000000
   11       -1.303484   0.000000
   12       -0.438020   0.000000
   13        0.248026   0.000000
   14        2.717494   0.000000
 
  0.2500000E+00  0.2500000E+00  0.0000000E+00  0.9375000E-01
    1      -16.292832   1.000000
    2      -15.998932   1.000000
    3       -9.071238   1.000000
    4       -8.865965   1.000000
    5       -7.591649   1.000000
    6       -7.210956   1.000000
    7       -6.891692   1.000000
    8       -5.634195   1.000000
    9       -4.512346   1.000000
   10       -1.864533   0.000000
   11       -1.252760   0.000000
   12       -0.936223   0.000000
   13        0.532109   0.000000
   14        3.548416   0.000000
 
  0.3750000E+00  0.2500000E+00  0.0000000E+00  0.9375000E-01
    1      -16.057885   1.000000
    2      -15.879866   1.000000
    3       -9.250584   1.000000
    4       -8.902115   1.000000
    5       -7.875096   1.000000
    6       -7.213176   1.000000
    7       -6.984848   1.000000
    8       -6.019648   1.000000
    9       -4.145037   1.000000
   10       -2.190893   0.000000
   11       -0.875292   0.000000
   12       -0.703446   0.000000
   13        0.675456   0.000000
   14        2.961743   0.000000
