unknown system                          
   1.00000000000000     
     3.190316    0.000000    0.000000
    -1.595158    2.762894    0.000000
     0.000000    0.000000   34.879004
   Mo   S 
     1     2
Direct
  0.333333  0.666667  0.106647
  0.666667  0.333333  0.061781
  0.666666  0.333333  0.151513
 
   12   12  140
 0.22041E-02 0.11593E-01 0.85532     0.51328E-03 0.99999     0.12065E-01 0.43599E-02 0.24040E-02 0.90011E-02 0.36983E-03
 0.13190E-01 0.63075E-02 0.32758E-02 0.14643E-02 0.13479E-02 0.22181E-02 0.15819E-01 0.67279E-02 0.57801E-01 0.36031E-02
 0.16686     0.27382E-02 0.19964E-02 0.31580E-02 0.61385E-03 0.25152E-02 0.22219E-02 0.15103E-02 0.22188E-01 0.11722E-01
 0.67412E-02 0.11746E-01 0.13589E-01 0.87587E-02 0.44743E-01 0.81619E-02 0.98431E-03 0.13916E-03 0.95377E-03 0.34435E-02
 0.36234E-02 0.17525E-02 0.93107E-02 0.27816E-02 0.58251E-01 0.93906E-01 0.33947E-01 0.12156E-02 0.16922E-01 0.77389E-02
 0.13713E-02 0.56058E-03 0.32004E-01 0.11520E-01 0.12841E-01 0.75790E-01 0.80744E-01 0.62588E-02 0.88833E-01 0.28368E-01
 0.11425E-02 0.87187E-03 0.93071E-04 0.86285E-04 0.32115E-03 0.15356E-01 0.11022E-01 0.90967E-01 0.67069E-02 0.81782E-02
 0.38650E-02 0.84573E-02 0.27347E-01 0.23575E-02 0.63341E-03 0.69193E-04 0.84002E-03 0.22720E-01 0.54199E-01 0.71961E-01
 0.59808E-01 0.34126E-02 0.43348E-01 0.13991E-01 0.82526E-02 0.47850     0.50809E-03 0.12632E-03 0.14299E-02 0.15704E-02
 0.32625E-01 0.21421E-02 0.10498E-01 0.47439E-02 0.89785E-02 0.63660     0.85689E-02 0.12788     0.63157     0.24226E-03
 0.23831E-02 0.38980E-03 0.46298E-03 0.68373E-03 0.30249     0.14993E-02 0.86463     0.83384     0.81858E-02 0.55685E-03
 0.99949     0.46935E-02 0.83339E-03 0.10310E-03 0.18972E-03 0.75781E-04 0.45498E-02 0.60789E-02 0.97971     0.12063E-02
 0.14637E-02 0.61393E-01 0.67843E-02 0.34283E-03 0.68747E-02 0.56116E-03 0.28999E-03 0.20963E-03 0.45740E-02 0.22653E-03
 0.15723E-01 0.48677     0.28210E-02 0.16775E-02 0.10503E-02 0.11007E-02 0.37703E-02 0.12531E-02 0.63370E-02 0.35599E-03
 0.20170E-01 0.40197E-03 0.54834E-03 0.21930E-02 0.35384E-02 0.79400E-02 0.26849E-01 0.35426E-02 0.18923     0.61523    
 0.27199E-01 0.52717E-01 0.26296E-01 0.25638E-02 0.17400     0.64993E-02 0.47740E-02 0.31346E-02 0.52504E-02 0.60201E-01
 0.61862E-01 0.53135E-01 0.81458     0.35315E-01 0.86241     0.56142E-01 0.10826E-01 0.85864E-02 0.24428E-02 0.44730    
 0.58730E-02 0.93306E-02 0.79238E-01 0.22170     0.91377E-01 0.11391     0.15464     0.74990E-01 0.11368     0.46344    
 0.19356E-01 0.66417E-03 0.50309E-01 0.12239E-01 0.84638E-01 0.19618E-01 0.96772E-01 0.60390E-01 0.20997     0.80647    
 0.55837     0.10300E-01 0.99889     0.71059E-02 0.10274     0.25904E-02 0.50465E-01 0.31543     0.14970     0.23510    
 0.92405     0.14965     0.54334     0.10806     0.93085E-02 0.21942E-01 0.42487E-03 0.12001E-02 0.20129E-02 0.63474    
 0.86411E-01 0.80886     0.16158     0.65679E-01 0.61708E-01 0.14848     0.99394     0.94641E-02 0.13461     0.24362E-03
 0.95423     0.23805E-01 0.10353     0.85420     0.45560     0.54601E-01 0.38396     0.10795     0.41411E-01 0.64395E-01
 0.14238E-02 0.70987E-02 0.80679E-03 0.25395E-02 0.17061     0.14982E-01 0.62533E-01 0.80587E-01 0.79148E-01 0.62759    
 0.33294E-01 0.82987E-01 0.77743E-02 0.40406E-03 0.13670E-02 0.41546E-01 0.12884E-02 0.15906E-01 0.25985     0.12184E-01
 0.32448     0.35505     0.94211     0.26659E-02 0.81763E-02 0.64133E-02 0.61240E-02 0.25036E-03 0.10992E-01 0.36452E-03
 0.10309     0.42486     0.14404     0.78527E-02 0.47593E-02 0.21525E-01 0.45881E-02 0.11304E-02 0.45007E-02 0.81581E-01
 0.10284E-02 0.46397E-02 0.30716E-02 0.95060E-03 0.13448E-01 0.50681E-01 0.44339E-02 0.30225E-02 0.28087E-02 0.44338E-01
 0.10049E-01 0.64278E-02 0.87215     0.22268E-02 0.78469E-01 0.89235E-02 0.15358E-02 0.38596E-02 0.39984E-02 0.79180E-02
 0.26636E-01 0.16447E-01 0.22276     0.70693     0.13349     0.77666     0.79320E-01 0.12373E-01 0.46713E-01 0.73827E-02
 0.63956E-02 0.52421E-02 0.15370E-01 0.98415     0.17649     0.21993     0.78038     0.17967     0.63192     0.83821    
 0.42866E-01 0.20214E-01 0.78089E-02 0.18345E-01 0.13377E-01 0.40341E-01 0.22925     0.97691     0.32223     0.99461    
 0.37472     0.27181     0.26265     0.50426     0.83494     0.25863E-02 0.64291E-01 0.34061E-01 0.97776     0.12760    
 0.98033     0.26660     0.95853     0.62958     0.86788     0.58817E-01 0.42595     0.15191E-01 0.14724E-01 0.92412E-02
 0.11402     0.94056     0.37272     0.94597     0.69219     0.37571     0.87848     0.27526     0.56032E-01 0.80814    
 0.19970E-02 0.35221E-01 0.10750E-01 0.79037     0.28810     0.62206     0.38576     0.94628     0.26755     0.99840    
 0.61277     0.47764E-01 0.24409     0.13141E-02 0.12346     0.81800E-01 0.26843     0.79286     0.90026     0.25490    
 0.90613     0.32702     0.15748     0.14921     0.87872E-02 0.40743     0.40133E-02 0.14383E-01 0.25102     0.77085E-01
 0.21840     0.91342     0.28711     0.53407     0.99408E-01 0.98949E-01 0.22114E-01 0.23085E-02 0.51688E-02 0.37642E-01
 0.63423E-02 0.56067     0.25365     0.66394E-01 0.37179     0.37549     0.19447     0.96211E-02 0.12062E-01 0.11146E-01
 0.15480E-01 0.15447E-02 0.28109     0.17767E-02 0.38816E-01 0.29739     0.16353     0.35644E-01 0.12118E-01 0.15194E-01
 0.71562E-02 0.41832E-02 0.16120E-01 0.86710     0.54728E-02 0.92550     0.55348E-02 0.32686E-02 0.20452E-01 0.44950E-01
 0.61869E-02 0.52806E-02 0.65352E-02 0.20774     0.33865E-01 0.36669E-01 0.39129     0.11664E-01 0.41205E-01 0.28216    
 0.36236E-02 0.57481E-02 0.57372E-02 0.10976E-01 0.35771E-01 0.50264E-01 0.29797     0.57083     0.36229     0.82768    
 0.17647     0.40307E-01 0.46959E-01 0.10684E-01 0.98679E-02 0.88670E-02 0.31657E-01 0.43108     0.36525     0.51878    
 0.78956     0.52479     0.71263     0.81922     0.11338     0.36066E-01 0.18354E-01 0.19029E-01 0.25163E-01 0.11339    
 0.45575     0.84922     0.70536     0.94771     0.72168     0.60234     0.47014     0.34429     0.35269     0.77856E-02
 0.40886E-01 0.71880E-01 0.75435     0.46548     0.95221     0.73348     0.93941     0.83300     0.81700     0.21785    
 0.39159     0.29414E-01 0.19164E-01 0.24090E-01 0.21232     0.79401     0.72457     0.93593     0.89672     0.78880    
 0.88055     0.53369     0.20952     0.32274     0.63372E-02 0.26951     0.35381E-01 0.63131     0.61142     0.83136    
 0.79380     0.97842     0.69136     0.89096     0.59488     0.11185     0.53463E-01 0.38578E-02 0.46368E-01 0.13621    
 0.46553     0.80222     0.88329     0.68267     0.88012     0.64196     0.35275     0.18023     0.18049E-01 0.22003E-01
 0.56716E-02 0.23231E-01 0.22722     0.24495     0.49996     0.92605     0.61698     0.66211     0.20779     0.11577    
 0.26228E-01 0.43187E-02 0.42156E-02 0.11788E-01 0.14120E-01 0.36791     0.32382     0.23257     0.52048     0.49203    
 0.15622     0.24465E-01 0.18516E-01 0.11989E-01 0.93890E-02 0.34955E-02 0.26775E-01 0.58484E-02 0.45887E-01 0.19299    
 0.22058     0.10470     0.24391E-01 0.22073E-01 0.13703E-01 0.10585E-01 0.23235E-01 0.73147E-01 0.13189E-01 0.74619E-01
 0.11694E-01 0.90071E-02 0.32112E-01 0.53347E-01 0.97007E-02 0.10195E-01 0.14324E-01 0.84196E-01 0.69601E-01 0.97994E-01
 0.24667     0.37260E-01 0.51657E-01 0.59477E-01 0.81165E-02 0.92443E-02 0.97633E-02 0.16621E-01 0.52303E-01 0.11811    
 0.41843     0.62894     0.58314     0.72622     0.32706     0.10099     0.62025E-01 0.16500E-01 0.15692E-01 0.14791E-01
 0.54382E-01 0.39267     0.55265     0.71325     0.82757     0.74432     0.77985     0.72883     0.22420     0.57768E-01
 0.35460E-01 0.25068E-01 0.43128E-01 0.23113     0.63130     0.84779     0.84399     0.91821     0.84545     0.77640    
 0.63671     0.37566     0.28694     0.17537E-01 0.47585E-01 0.13595     0.70835     0.72714     0.91989     0.87930    
 0.92972     0.88668     0.84102     0.45399     0.47301     0.56105E-01 0.28134E-01 0.54538E-01 0.35690     0.79883    
 0.84814     0.92842     0.92452     0.89197     0.89123     0.71004     0.44474     0.28233     0.16347E-01 0.99099E-01
 0.95499E-01 0.66868     0.77360     0.88534     0.89341     0.94231     0.84911     0.86087     0.67311     0.23146    
 0.71302E-01 0.11092E-01 0.68350E-01 0.24424     0.62842     0.83484     0.89052     0.84871     0.88874     0.78733    
 0.54626     0.28234     0.45417E-01 0.33363E-01 0.15339E-01 0.52842E-01 0.31728     0.46938     0.70116     0.87452    
 0.78270     0.75682     0.36101     0.18143     0.50112E-01 0.12745E-01 0.12488E-01 0.23656E-01 0.34706E-01 0.29446    
 0.43785     0.46652     0.65655     0.61242     0.20131     0.53670E-01 0.32229E-01 0.23003E-01 0.20932E-01 0.11114E-01
 0.35335E-01 0.15503E-01 0.71414E-01 0.22999     0.30639     0.22066     0.43129E-01 0.33153E-01 0.23505E-01 0.23597E-01
 0.47457E-01 0.91205E-01 0.33931E-01 0.65291E-01 0.21263E-01 0.19182E-01 0.50074E-01 0.70590E-01 0.15531E-01 0.17445E-01
 0.26365E-01 0.97917E-01 0.14076     0.21941     0.31697     0.98508E-01 0.82764E-01 0.55587E-01 0.14932E-01 0.15045E-01
 0.15058E-01 0.24008E-01 0.79347E-01 0.22354     0.54357     0.70626     0.71221     0.75135     0.48450     0.19963    
 0.89945E-01 0.23995E-01 0.23227E-01 0.22433E-01 0.89260E-01 0.45079     0.67607     0.81098     0.87273     0.84538    
 0.83550     0.75154     0.34876     0.92160E-01 0.61540E-01 0.31659E-01 0.70391E-01 0.36271     0.72818     0.87861    
 0.90596     0.93468     0.90498     0.85598     0.73086     0.45299     0.35505     0.31829E-01 0.62671E-01 0.22967    
 0.74674     0.83877     0.93461     0.93475     0.94851     0.92440     0.87811     0.62287     0.57987     0.10250    
 0.39501E-01 0.10764     0.50499     0.83961     0.90663     0.94791     0.95130     0.93802     0.92039     0.80522    
 0.61908     0.35835     0.32681E-01 0.95026E-01 0.19576     0.73462     0.85400     0.92505     0.93834     0.95185    
 0.91417     0.88647     0.74535     0.36327     0.10159     0.22005E-01 0.10141     0.36474     0.72987     0.87705    
 0.91950     0.91419     0.91859     0.86096     0.67630     0.39369     0.88530E-01 0.41349E-01 0.27797E-01 0.95720E-01
 0.42084     0.63119     0.80481     0.88850     0.85845     0.82375     0.51241     0.28108     0.84510E-01 0.24730E-01
 0.21662E-01 0.34699E-01 0.67976E-01 0.36117     0.55790     0.63155     0.74026     0.70170     0.28960     0.10447    
 0.51071E-01 0.34027E-01 0.32712E-01 0.22849E-01 0.42770E-01 0.31956E-01 0.11889     0.31903     0.40434     0.35203    
 0.71439E-01 0.48420E-01 0.35493E-01 0.43075E-01 0.82343E-01 0.12473     0.68349E-01 0.77457E-01 0.33296E-01 0.33932E-01
 0.78406E-01 0.10305     0.23100E-01 0.25095E-01 0.42694E-01 0.14326     0.24852     0.35694     0.41304     0.20088    
 0.13700     0.66634E-01 0.22433E-01 0.22538E-01 0.20065E-01 0.33090E-01 0.11764     0.33831     0.64173     0.76941    
 0.78793     0.79637     0.59746     0.30953     0.13189     0.33152E-01 0.32139E-01 0.31714E-01 0.13598     0.51931    
 0.74251     0.85085     0.88986     0.87883     0.86317     0.78240     0.44804     0.13986     0.97311E-01 0.40879E-01
 0.10868     0.46704     0.77520     0.88560     0.91355     0.92922     0.91181     0.87682     0.77666     0.52845    
 0.46110     0.50278E-01 0.91802E-01 0.32514     0.78476     0.86827     0.92679     0.93075     0.93789     0.92129    
 0.88819     0.70539     0.66172     0.17530     0.56207E-01 0.19144     0.60671     0.86504     0.91254     0.93755    
 0.93880     0.93291     0.91906     0.84740     0.71939     0.47888     0.58989E-01 0.13057     0.31821     0.79149    
 0.88181     0.92471     0.93279     0.93903     0.91966     0.89874     0.80295     0.49384     0.17205     0.42423E-01
 0.17533     0.48654     0.79740     0.89347     0.91895     0.91725     0.91890     0.88528     0.75834     0.51581    
 0.17274     0.73470E-01 0.58371E-01 0.17971     0.54089     0.72520     0.84763     0.89152     0.87776     0.85451    
 0.62455     0.40146     0.14962     0.53521E-01 0.46273E-01 0.66165E-01 0.12900     0.47884     0.65025     0.71542    
 0.78184     0.75570     0.38816     0.17669     0.84133E-01 0.58122E-01 0.64355E-01 0.50766E-01 0.67454E-01 0.58555E-01
 0.19105     0.42394     0.48782     0.45831     0.11013     0.71647E-01 0.54410E-01 0.75915E-01 0.14717     0.20824    
 0.13226     0.11537     0.50992E-01 0.54341E-01 0.11894     0.14991     0.32334E-01 0.34424E-01 0.66258E-01 0.21210    
 0.37681     0.49646     0.52806     0.32388     0.21917     0.90864E-01 0.31379E-01 0.31420E-01 0.25982E-01 0.44986E-01
 0.16072     0.42375     0.69495     0.79846     0.82143     0.81553     0.64921     0.40429     0.18347     0.44796E-01
 0.43126E-01 0.44202E-01 0.18434     0.57110     0.76509     0.85179     0.87780     0.87335     0.86159     0.78846    
 0.50553     0.19479     0.14265     0.52537E-01 0.15766     0.52416     0.78855     0.86196     0.87890     0.88445    
 0.87567     0.85848     0.79105     0.56921     0.54631     0.72964E-01 0.12966     0.40416     0.79363     0.85317    
 0.87518     0.85433     0.86207     0.87028     0.86668     0.73403     0.68891     0.27404     0.75876E-01 0.29726    
 0.64950     0.86381     0.87584     0.86190     0.83539     0.85791     0.88009     0.85318     0.76645     0.55919    
 0.99109E-01 0.17384     0.43319     0.81073     0.87484     0.88059     0.85757     0.86182     0.87746     0.88568    
 0.83027     0.57429     0.25976     0.71903E-01 0.26469     0.56327     0.83000     0.88191     0.88076     0.86771    
 0.88262     0.87514     0.79367     0.60080     0.26178     0.11732     0.99719E-01 0.27457     0.60970     0.76687    
 0.85194     0.86828     0.85779     0.85283     0.68349     0.49330     0.22333     0.95111E-01 0.79600E-01 0.10769    
 0.20735     0.57235     0.68675     0.74592     0.79149     0.77438     0.46253     0.25013     0.13063     0.95053E-01
 0.10762     0.92436E-01 0.10183     0.95056E-01 0.28296     0.50039     0.53930     0.52640     0.15267     0.10270    
 0.83505E-01 0.12173     0.22098     0.29152     0.21360     0.16842     0.73199E-01 0.81439E-01 0.16821     0.20056    
 0.44391E-01 0.47596E-01 0.96947E-01 0.28220     0.47483     0.59058     0.60006     0.42751     0.31674     0.12092    
 0.42738E-01 0.43082E-01 0.34823E-01 0.60100E-01 0.19772     0.47106     0.71908     0.81286     0.83851     0.81886    
 0.67221     0.48282     0.22568     0.58404E-01 0.57012E-01 0.59736E-01 0.22249     0.59521     0.76392     0.83546    
 0.85244     0.85265     0.84546     0.77243     0.53275     0.24269     0.19369     0.65042E-01 0.20816     0.54129    
 0.78119     0.81801     0.80238     0.78240     0.79702     0.81805     0.78569     0.56970     0.57166     0.10511    
 0.15700     0.47341     0.77875     0.81473     0.75392     0.61019     0.61882     0.74956     0.82312     0.74176    
 0.68856     0.38117     0.10103     0.38720     0.66973     0.84796     0.79699     0.61877     0.45037     0.61603    
 0.79931     0.84221     0.79545     0.59163     0.16696     0.21303     0.54499     0.81055     0.85340     0.77869    
 0.61573     0.61579     0.77765     0.85910     0.84408     0.63484     0.35901     0.12133     0.35709     0.62986    
 0.84705     0.85667     0.80040     0.74827     0.80528     0.85048     0.80822     0.66794     0.35460     0.19607    
 0.16475     0.38277     0.64969     0.79235     0.83993     0.82468     0.81465     0.83706     0.71023     0.56055    
 0.30996     0.16330     0.14230     0.17800     0.31202     0.62129     0.69043     0.75307     0.78174     0.77070    
 0.50487     0.31240     0.19226     0.15579     0.17999     0.16048     0.15348     0.15135     0.38426     0.52305    
 0.55902     0.55914     0.18873     0.13779     0.12359     0.18167     0.30688     0.38717     0.31536     0.22328    
 0.99882E-01 0.11982     0.21371     0.23783     0.59549E-01 0.64832E-01 0.13106     0.34324     0.54605     0.65703    
 0.65212     0.52199     0.40141     0.14291     0.57268E-01 0.58794E-01 0.47702E-01 0.77590E-01 0.22245     0.48937    
 0.73201     0.82713     0.85313     0.82125     0.69349     0.53759     0.24055     0.73426E-01 0.74156E-01 0.76002E-01
 0.24282     0.59388     0.76100     0.83105     0.84795     0.85196     0.84111     0.75499     0.54535     0.26499    
 0.23453     0.80631E-01 0.24214     0.53485     0.77141     0.79546     0.76168     0.72293     0.75513     0.79818    
 0.77608     0.54909     0.54728     0.14958     0.16884     0.52925     0.76195     0.79592     0.67397     0.44025    
 0.44547     0.67173     0.79857     0.75228     0.69150     0.44076     0.13322     0.41576     0.69275     0.84367    
 0.75526     0.44533     0.21860     0.44526     0.75526     0.84144     0.82193     0.58499     0.23848     0.23207    
 0.61642     0.81030     0.85196     0.72093     0.44527     0.44051     0.72273     0.85189     0.85602     0.67089    
 0.39347     0.16818     0.38330     0.67712     0.86012     0.85089     0.75617     0.67281     0.76277     0.84666    
 0.81967     0.70100     0.39386     0.24183     0.20422     0.42544     0.66442     0.81879     0.83906     0.80003    
 0.79176     0.83519     0.72462     0.59393     0.35738     0.20528     0.18304     0.22263     0.37460     0.61673    
 0.69237     0.76138     0.76993     0.76510     0.52331     0.35302     0.23922     0.20009     0.22292     0.20113    
 0.18970     0.21346     0.44765     0.50461     0.56029     0.56289     0.21256     0.17127     0.16214     0.22725    
 0.35259     0.43138     0.36989     0.24548     0.13019     0.17000     0.23716     0.25253     0.76605E-01 0.85195E-01
 0.16283     0.38543     0.58211     0.68467     0.67811     0.58848     0.43430     0.15586     0.77628E-01 0.77766E-01
 0.66912E-01 0.98007E-01 0.23239     0.46739     0.71207     0.81856     0.84450     0.80192     0.68837     0.53287    
 0.23312     0.92269E-01 0.95195E-01 0.93631E-01 0.24453     0.56817     0.74879     0.83214     0.85999     0.86632    
 0.84179     0.73359     0.53675     0.25960     0.24586     0.10128     0.24884     0.50553     0.75769     0.80540    
 0.79826     0.77539     0.79284     0.80883     0.75913     0.51774     0.49054     0.18150     0.16748     0.53698    
 0.74000     0.80594     0.72890     0.58523     0.58641     0.72893     0.80468     0.75377     0.67757     0.39575    
 0.14935     0.35936     0.69016     0.84543     0.79307     0.58590     0.40529     0.58872     0.79105     0.84422    
 0.81994     0.51651     0.23334     0.21015     0.57449     0.78989     0.86550     0.77610     0.58894     0.58001    
 0.77986     0.86052     0.84548     0.63345     0.33162     0.17736     0.32401     0.64727     0.84909     0.86032    
 0.79172     0.73231     0.79757     0.85911     0.80620     0.65221     0.35282     0.24013     0.21250     0.37045    
 0.61606     0.82038     0.84158     0.80575     0.80019     0.84030     0.70477     0.54528     0.32019     0.21213    
 0.20873     0.22914     0.33073     0.53562     0.67618     0.76075     0.75303     0.75162     0.50616     0.33478    
 0.22204     0.19484     0.22640     0.20782     0.18794     0.21784     0.40734     0.45750     0.54482     0.53445    
 0.22123     0.18644     0.16548     0.21136     0.31493     0.38435     0.32475     0.21257     0.14375     0.20110    
 0.23337     0.25108     0.96068E-01 0.10597     0.17615     0.36863     0.53539     0.63125     0.63272     0.55909    
 0.38130     0.16013     0.10355     0.98661E-01 0.10100     0.12821     0.22601     0.37819     0.60284     0.73328    
 0.76310     0.70706     0.59153     0.43507     0.21723     0.12163     0.12507     0.12006     0.23709     0.51266    
 0.68453     0.79068     0.84123     0.84871     0.80216     0.67050     0.48373     0.24635     0.23020     0.12435    
 0.23426     0.43895     0.70952     0.79769     0.81856     0.81307     0.81597     0.79800     0.70448     0.46264    
 0.39404     0.16528     0.14753     0.45687     0.67279     0.79119     0.77977     0.73779     0.73371     0.78094    
 0.79076     0.69969     0.58168     0.26554     0.12357     0.24079     0.59551     0.81087     0.81537     0.73271    
 0.66030     0.73847     0.81237     0.80569     0.73295     0.37988     0.17032     0.16290     0.41250     0.69352    
 0.84744     0.81681     0.73869     0.72782     0.82142     0.83778     0.76416     0.50979     0.26221     0.16880    
 0.26066     0.52310     0.76570     0.83713     0.81353     0.78552     0.81752     0.83956     0.71220     0.51779    
 0.30509     0.23974     0.22119     0.31226     0.49533     0.74039     0.80008     0.79292     0.78691     0.80717    
 0.59443     0.40053     0.26155     0.21979     0.23414     0.23387     0.26197     0.38552     0.58058     0.70475    
 0.69947     0.68951     0.42333     0.24028     0.16550     0.17877     0.23026     0.21694     0.17703     0.16576    
 0.27388     0.37008     0.49585     0.46476     0.21320     0.16652     0.12609     0.15797     0.25753     0.32650    
 0.25884     0.15839     0.11935     0.17771     0.21486     0.24630     0.12448     0.12439     0.15575     0.26898    
 0.39337     0.49732     0.50754     0.41303     0.25740     0.14626     0.12771     0.12723     0.16964     0.18779    
 0.21880     0.25312     0.40058     0.53167     0.56570     0.50408     0.39186     0.29203     0.21082     0.17711    
 0.18075     0.17089     0.24547     0.43957     0.52414     0.63065     0.71623     0.72150     0.64916     0.52541    
 0.39571     0.25218     0.21762     0.15660     0.22185     0.34476     0.60204     0.71391     0.74685     0.75439    
 0.75046     0.70327     0.58454     0.38323     0.27452     0.13473     0.12759     0.32221     0.51498     0.68600    
 0.73915     0.74018     0.73008     0.73824     0.69470     0.54787     0.38708     0.16850     0.10120     0.15407    
 0.40074     0.66985     0.74464     0.72846     0.70391     0.73773     0.74474     0.65275     0.52397     0.25484    
 0.12515     0.12560     0.26323     0.48947     0.72379     0.76239     0.73800     0.72415     0.76858     0.70549    
 0.56986     0.36564     0.17892     0.11338     0.18051     0.37435     0.56674     0.70323     0.74788     0.74326    
 0.74926     0.70993     0.50370     0.36873     0.20892     0.14068     0.13099     0.21208     0.35775     0.53708    
 0.63816     0.70444     0.68534     0.66472     0.39242     0.26337     0.18007     0.13026     0.13073     0.13729    
 0.17786     0.25603     0.38946     0.54758     0.58358     0.53500     0.29737     0.15705     0.12440     0.11913    
 0.13496     0.12964     0.11948     0.12285     0.17262     0.25735     0.41742     0.37050     0.20390     0.14127    
 0.10044     0.11888     0.17851     0.22118     0.17545     0.12130     0.99163E-01 0.14336     0.20338     0.26004    
 0.17920     0.14946     0.13060     0.17801     0.25820     0.35305     0.36597     0.26950     0.16448     0.12830    
 0.15550     0.18272     0.28748     0.30026     0.24117     0.18773     0.25336     0.31249     0.32656     0.29637    
 0.24114     0.21702     0.24263     0.27691     0.28179     0.26064     0.30988     0.39568     0.32812     0.36959    
 0.43617     0.43067     0.38740     0.35111     0.33548     0.30513     0.24536     0.22176     0.24090     0.28132    
 0.47768     0.51884     0.50819     0.52359     0.52593     0.49646     0.43307     0.32914     0.21106     0.14837    
 0.15087     0.24575     0.32210     0.47190     0.56366     0.56861     0.55321     0.55066     0.48999     0.36182    
 0.23921     0.14915     0.11653     0.13740     0.25616     0.40863     0.50622     0.55253     0.55236     0.56345    
 0.51966     0.38940     0.30487     0.16520     0.88946E-01 0.90120E-01 0.16464     0.28677     0.44367     0.53091    
 0.56468     0.54701     0.54082     0.41887     0.33214     0.19649     0.67493E-01 0.33720E-01 0.69128E-01 0.19956    
 0.32577     0.41894     0.52334     0.55594     0.52090     0.42476     0.29199     0.19685     0.63545E-01 0.21092E-01
 0.19276E-01 0.64476E-01 0.19311     0.31533     0.36985     0.51387     0.46948     0.40772     0.24664     0.16795    
 0.68236E-01 0.19231E-01 0.13874E-01 0.20164E-01 0.67557E-01 0.16497     0.24524     0.35006     0.44768     0.34271    
 0.22571     0.14031     0.89080E-01 0.35430E-01 0.19700E-01 0.19453E-01 0.35678E-01 0.86841E-01 0.15147     0.19828    
 0.36135     0.31109     0.22514     0.16383     0.11450     0.85251E-01 0.68713E-01 0.66791E-01 0.65690E-01 0.88029E-01
 0.11563     0.15984     0.22562     0.32868     0.28164     0.20024     0.15145     0.15835     0.16353     0.18927    
 0.19811     0.17090     0.14589     0.14821     0.21328     0.28249     0.41005     0.42750     0.28841     0.20172    
 0.21500     0.18855     0.17475     0.18380     0.19648     0.22761     0.31417     0.39142     0.39377     0.36423    
 0.44613     0.40601     0.22060     0.20626     0.21068     0.20112     0.21227     0.25891     0.34470     0.40129    
 0.31592     0.30711     0.28616     0.29550     0.41491     0.30522     0.23960     0.24118     0.25885     0.29555    
 0.33346     0.34163     0.22507     0.20730     0.22436     0.24981     0.21718     0.28712     0.31959     0.28185    
 0.27666     0.29709     0.29341     0.26253     0.19572     0.18021     0.16132     0.16999     0.21769     0.21756    
 0.23885     0.27982     0.27857     0.28147     0.25615     0.21308     0.18580     0.12510     0.77362E-01 0.77549E-01
 0.12150     0.18084     0.21443     0.23798     0.28352     0.27349     0.24662     0.19834     0.17861     0.94703E-01
 0.22112E-01 0.80618E-02 0.23200E-01 0.94703E-01 0.17325     0.20254     0.25425     0.30401     0.25174     0.20317    
 0.17982     0.94070E-01 0.12062E-01 0.67797E-03 0.57043E-03 0.12230E-01 0.93524E-01 0.19114     0.20014     0.31632    
 0.27481     0.22407     0.20749     0.12517     0.22582E-01 0.57561E-03 0.76600E-04 0.59396E-03 0.22585E-01 0.12378    
 0.20612     0.23964     0.37341     0.23585     0.22945     0.17339     0.77270E-01 0.84620E-02 0.56839E-03 0.62642E-03
 0.85037E-02 0.75226E-01 0.18020     0.21758     0.35939     0.33399     0.28438     0.23418     0.15756     0.74594E-01
 0.23232E-01 0.12406E-01 0.21552E-01 0.77024E-01 0.16229     0.22525     0.28458     0.44816     0.40411     0.26672    
 0.22571     0.18760     0.12124     0.92028E-01 0.95898E-01 0.12710     0.17740     0.20981     0.29589     0.38725    
 0.45639     0.46724     0.30070     0.23749     0.21821     0.15433     0.13548     0.15712     0.19450     0.24794    
 0.35078     0.44037     0.43434     0.41655     0.53984     0.38555     0.19615     0.17252     0.14928     0.14023    
 0.16782     0.24208     0.36604     0.44921     0.35469     0.33721     0.30101     0.35466     0.40604     0.21627    
 0.15759     0.15323     0.17038     0.22665     0.30786     0.36589     0.24671     0.24256     0.26979     0.24950    
 0.19650     0.24057     0.21773     0.17026     0.17352     0.20018     0.22709     0.24167     0.19470     0.20218    
 0.18560     0.19988     0.21812     0.16096     0.15778     0.17840     0.17070     0.17399     0.16966     0.16843    
 0.15596     0.12007     0.80565E-01 0.78644E-01 0.11463     0.15912     0.15035     0.14564     0.17549     0.17257    
 0.15169     0.14117     0.13796     0.72190E-01 0.15422E-01 0.54657E-02 0.16711E-01 0.70783E-01 0.13377     0.14767    
 0.16436     0.20817     0.16353     0.14540     0.15433     0.71074E-01 0.63282E-02 0.11708E-03 0.84724E-04 0.63661E-02
 0.71767E-01 0.15737     0.16214     0.23738     0.21900     0.17142     0.20855     0.11808     0.16100E-01 0.88845E-04
 0.94629E-04 0.89229E-04 0.16137E-01 0.11802     0.20866     0.21256     0.36341     0.21291     0.23483     0.20276    
 0.79405E-01 0.55864E-02 0.84690E-04 0.11832E-03 0.55502E-02 0.78430E-01 0.19821     0.25296     0.34946     0.38980    
 0.32751     0.26486     0.18192     0.78543E-01 0.16659E-01 0.61897E-02 0.15460E-01 0.79749E-01 0.18982     0.25838    
 0.32378     0.49353     0.45664     0.29813     0.27572     0.20270     0.11498     0.71435E-01 0.72922E-01 0.11974    
 0.20151     0.24329     0.33571     0.41998     0.39820     0.38884     0.25759     0.23411     0.21691     0.18698    
 0.19000     0.19779     0.19727     0.22094     0.30291     0.38521     0.37488     0.37722     0.46777     0.31141    
 0.23004     0.24663     0.22774     0.21583     0.22867     0.27023     0.33825     0.38605     0.30594     0.28326    
 0.25957     0.37558     0.40933     0.28477     0.27390     0.28197     0.28469     0.31409     0.34176     0.34136    
 0.22197     0.20213     0.22331     0.20514     0.23381     0.35158     0.34200     0.30151     0.31472     0.32743    
 0.31712     0.26577     0.19828     0.17175     0.15208     0.17875     0.21444     0.20981     0.27542     0.32345    
 0.31105     0.31054     0.28610     0.22899     0.19337     0.13019     0.77988E-01 0.74570E-01 0.12409     0.20510    
 0.22647     0.26475     0.31255     0.31603     0.27182     0.22118     0.19154     0.10299     0.24279E-01 0.98608E-02
 0.26095E-01 0.99543E-01 0.18760     0.23275     0.27518     0.33731     0.27561     0.22657     0.19608     0.10084    
 0.15328E-01 0.10364E-02 0.96769E-03 0.15264E-01 0.10319     0.19063     0.22995     0.31472     0.32019     0.22500    
 0.20867     0.12661     0.25360E-01 0.10005E-02 0.19858E-03 0.97085E-03 0.25435E-01 0.12791     0.21032     0.23992    
 0.38688     0.24432     0.20243     0.17940     0.76129E-01 0.96842E-02 0.96375E-03 0.11231E-02 0.95590E-02 0.76533E-01
 0.16628     0.23975     0.30324     0.38198     0.30057     0.20694     0.15070     0.77339E-01 0.26026E-01 0.14484E-01
 0.24946E-01 0.77046E-01 0.15728     0.20603     0.29539     0.40058     0.39435     0.26663     0.22954     0.16614    
 0.12481     0.10396     0.10343     0.12763     0.17328     0.20136     0.29012     0.36163     0.27166     0.25913    