       N       E                     dE             d eps       ncg     rms          rms(c)
DAV:   1     0.100223178138E+03    0.10022E+03   -0.41234E+03   296   0.495E+02
DAV:   2    -0.108034114346E+02   -0.11103E+03   -0.10476E+03   492   0.135E+02
DAV:   3    -0.231473737320E+02   -0.12344E+02   -0.12226E+02   388   0.591E+01
DAV:   4    -0.233641444551E+02   -0.21677E+00   -0.21471E+00   364   0.950E+00
DAV:   5    -0.233697967544E+02   -0.56523E-02   -0.56438E-02   340   0.145E+00    0.691E+00
RMM:   6    -0.222101320059E+02    0.11597E+01   -0.54057E+00   295   0.116E+01    0.263E+00
RMM:   7    -0.218282578740E+02    0.38187E+00   -0.57632E-01   292   0.332E+00    0.155E+00
RMM:   8    -0.217677614263E+02    0.60496E-01   -0.23523E-01   305   0.246E+00    0.347E-01
RMM:   9    -0.217630481001E+02    0.47133E-02   -0.83596E-03   336   0.552E-01    0.920E-02
RMM:  10    -0.217623579899E+02    0.69011E-03   -0.15793E-03   342   0.205E-01    0.432E-02
RMM:  11    -0.217623238808E+02    0.34109E-04   -0.16099E-03   315   0.177E-01    0.502E-02
RMM:  12    -0.217622551132E+02    0.68768E-04   -0.47412E-04   309   0.117E-01    0.149E-02
RMM:  13    -0.217627612077E+02   -0.50609E-03   -0.14908E-04   307   0.620E-02    0.180E-02
RMM:  14    -0.217628532757E+02   -0.92068E-04   -0.27015E-05   330   0.258E-02    0.526E-03
RMM:  15    -0.217630264543E+02   -0.17318E-03   -0.16152E-05   283   0.158E-02    0.401E-03
RMM:  16    -0.217630734511E+02   -0.46997E-04   -0.29116E-06   245   0.709E-03    0.250E-03
RMM:  17    -0.217631156737E+02   -0.42223E-04   -0.22254E-06   203   0.701E-03    0.214E-03
RMM:  18    -0.217631183472E+02   -0.26735E-05   -0.20462E-07   159   0.277E-03    0.179E-03
RMM:  19    -0.217631241843E+02   -0.58371E-05   -0.50989E-07   180   0.349E-03    0.175E-03
RMM:  20    -0.217631249413E+02   -0.75691E-06   -0.83583E-08   139   0.187E-03
   1 F= -.22353866E+02 E0= -.22353866E+02  d E =-.764761E-10
