<?xml version="1.0" encoding="ISO-8859-1"?>
<modeling>
 <generator>
  <i name="program" type="string">vasp </i>
  <i name="version" type="string">5.4.4.18Apr17-6-g9f103f2a35  </i>
  <i name="subversion" type="string">(build Jun 30 2017 11:15:00) complex            parallel </i>
  <i name="platform" type="string">STALLO_VASP_5.4.4 </i>
  <i name="date" type="string">2019 11 08 </i>
  <i name="time" type="string">11:47:44 </i>
 </generator>
 <incar>
  <i type="string" name="PREC">normal    ! low/normal/accurate</i>
  <i type="string" name="ALGO"> Fast      ! Algorithm for electronic re</i>
  <i type="int" name="ISPIN">     1</i>
  <i type="int" name="NELMIN">     4</i>
  <i name="EDIFF">      0.00000100</i>
  <i type="int" name="NSW">     0</i>
  <i name="ENCUT">    250.00000000</i>
  <i type="int" name="NEDOS">  2401</i>
  <i type="string" name="LREAL"> Auto      ! Projection in reciprocal sp</i>
  <i name="EMIN">    -12.00000000</i>
  <i name="EMAX">     12.00000000</i>
  <i type="int" name="ISMEAR">     0</i>
  <i name="SIGMA">      0.20000000</i>
  <i type="logical" name="LWAVE"> F  </i>
  <i type="int" name="LORBIT">    11</i>
  <i type="logical" name="LELF"> T  </i>
  <v type="int" name="KPOINT_BSE">    -1     0     0     0</v>
 </incar>
 <structure name="primitive_cell" >
  <crystal>
   <varray name="basis" >
    <v>       3.19031573       0.00000000       0.00000000 </v>
    <v>      -1.59515786       2.76289447       0.00000000 </v>
    <v>       0.00000000       0.00000000      34.87900430 </v>
   </varray>
   <i name="volume">    307.44118160 </i>
   <varray name="rec_basis" >
    <v>       0.31344860       0.18096963       0.00000000 </v>
    <v>       0.00000000       0.36193927       0.00000000 </v>
    <v>       0.00000000       0.00000000       0.02867054 </v>
   </varray>
  </crystal>
  <varray name="positions" >
   <v>       0.33333300      -0.33333300       0.10664728 </v>
   <v>      -0.33333400       0.33333300       0.15151337 </v>
   <v>      -0.33333300       0.33333300       0.06178120 </v>
  </varray>
 </structure>
 <varray name="primitive_index" >
  <v type="int" >        1 </v>
  <v type="int" >        3 </v>
  <v type="int" >        2 </v>
 </varray>
 <kpoints>
  <generation param="Gamma">
   <v type="int" name="divisions">       8        8        1 </v>
   <v name="usershift">      0.00000000       0.00000000       0.00000000 </v>
   <v name="genvec1">      0.12500000       0.00000000       0.00000000 </v>
   <v name="genvec2">      0.00000000       0.12500000       0.00000000 </v>
   <v name="genvec3">      0.00000000       0.00000000       1.00000000 </v>
   <v name="shift">      0.00000000       0.00000000       0.00000000 </v>
  </generation>
  <varray name="kpointlist" >
   <v>       0.00000000       0.00000000       0.00000000 </v>
   <v>       0.12500000       0.00000000       0.00000000 </v>
   <v>       0.25000000       0.00000000       0.00000000 </v>
   <v>       0.37500000      -0.00000000       0.00000000 </v>
   <v>       0.50000000       0.00000000       0.00000000 </v>
   <v>       0.12500000       0.12500000       0.00000000 </v>
   <v>       0.25000000       0.12500000       0.00000000 </v>
   <v>       0.37500000       0.12500000       0.00000000 </v>
   <v>       0.25000000       0.25000000       0.00000000 </v>
   <v>       0.37500000       0.25000000       0.00000000 </v>
  </varray>
  <varray name="weights" >
   <v>       0.01562500 </v>
   <v>       0.09375000 </v>
   <v>       0.09375000 </v>
   <v>       0.09375000 </v>
   <v>       0.04687500 </v>
   <v>       0.09375000 </v>
   <v>       0.18750000 </v>
   <v>       0.18750000 </v>
   <v>       0.09375000 </v>
   <v>       0.09375000 </v>
  </varray>
 </kpoints>
 <parameters>
  <separator name="general" >
   <i type="string" name="SYSTEM">unknown system</i>
   <i type="logical" name="LCOMPAT"> F  </i>
  </separator>
  <separator name="electronic" >
   <i type="string" name="PREC">normal</i>
   <i name="ENMAX">    250.00000000</i>
   <i name="ENAUG">    345.27800000</i>
   <i name="EDIFF">      0.00000100</i>
   <i type="int" name="IALGO">    68</i>
   <i type="int" name="IWAVPR">    10</i>
   <i type="int" name="NBANDS">    14</i>
   <i name="NELECT">     18.00000000</i>
   <i type="int" name="TURBO">     0</i>
   <i type="int" name="IRESTART">     0</i>
   <i type="int" name="NREBOOT">     0</i>
   <i type="int" name="NMIN">     0</i>
   <i name="EREF">      0.00000000</i>
   <separator name="electronic smearing" >
    <i type="int" name="ISMEAR">     0</i>
    <i name="SIGMA">      0.20000000</i>
    <i name="KSPACING">      0.50000000</i>
    <i type="logical" name="KGAMMA"> T  </i>
   </separator>
   <separator name="electronic projectors" >
    <i type="logical" name="LREAL"> T  </i>
    <v name="ROPT">     -0.00050000     -0.00050000</v>
    <i type="int" name="LMAXPAW">  -100</i>
    <i type="int" name="LMAXMIX">     2</i>
    <i type="logical" name="NLSPLINE"> F  </i>
   </separator>
   <separator name="electronic startup" >
    <i type="int" name="ISTART">     0</i>
    <i type="int" name="ICHARG">     2</i>
    <i type="int" name="INIWAV">     1</i>
   </separator>
   <separator name="electronic spin" >
    <i type="int" name="ISPIN">     1</i>
    <i type="logical" name="LNONCOLLINEAR"> F  </i>
    <v name="MAGMOM">      1.00000000      1.00000000      1.00000000</v>
    <i name="NUPDOWN">     -1.00000000</i>
    <i type="logical" name="LSORBIT"> F  </i>
    <v name="SAXIS">      0.00000000      0.00000000      1.00000000</v>
    <i type="logical" name="LSPIRAL"> F  </i>
    <v name="QSPIRAL">      0.00000000      0.00000000      0.00000000</v>
    <i type="logical" name="LZEROZ"> F  </i>
   </separator>
   <separator name="electronic exchange-correlation" >
    <i type="logical" name="LASPH"> F  </i>
    <i type="logical" name="LMETAGGA"> F  </i>
   </separator>
   <separator name="electronic convergence" >
    <i type="int" name="NELM">    60</i>
    <i type="int" name="NELMDL">    -5</i>
    <i type="int" name="NELMIN">     4</i>
    <i name="ENINI">    250.00000000</i>
    <separator name="electronic convergence detail" >
     <i type="logical" name="LDIAG"> T  </i>
     <i type="logical" name="LSUBROT"> F  </i>
     <i name="WEIMIN">      0.00000000</i>
     <i name="EBREAK">      0.00000002</i>
     <i name="DEPER">      0.30000000</i>
     <i type="int" name="NRMM">     4</i>
     <i name="TIME">      0.40000000</i>
    </separator>
   </separator>
   <separator name="electronic mixer" >
    <i name="AMIX">      0.40000000</i>
    <i name="BMIX">      1.00000000</i>
    <i name="AMIN">      0.10000000</i>
    <i name="AMIX_MAG">      1.60000000</i>
    <i name="BMIX_MAG">      1.00000000</i>
    <separator name="electronic mixer details" >
     <i type="int" name="IMIX">     4</i>
     <i type="logical" name="MIXFIRST"> F  </i>
     <i type="int" name="MAXMIX">   -45</i>
     <i name="WC">    100.00000000</i>
     <i type="int" name="INIMIX">     1</i>
     <i type="int" name="MIXPRE">     1</i>
     <i type="int" name="MREMOVE">     5</i>
    </separator>
   </separator>
   <separator name="electronic dipolcorrection" >
    <i type="logical" name="LDIPOL"> F  </i>
    <i type="logical" name="LMONO"> F  </i>
    <i type="int" name="IDIPOL">     0</i>
    <i name="EPSILON">      1.00000000</i>
    <v name="DIPOL">   -100.00000000   -100.00000000   -100.00000000</v>
    <i name="EFIELD">      0.00000000</i>
   </separator>
  </separator>
  <separator name="grids" >
   <i type="int" name="NGX">    12</i>
   <i type="int" name="NGY">    12</i>
   <i type="int" name="NGZ">   140</i>
   <i type="int" name="NGXF">    24</i>
   <i type="int" name="NGYF">    24</i>
   <i type="int" name="NGZF">   280</i>
   <i type="logical" name="ADDGRID"> F  </i>
  </separator>
  <separator name="ionic" >
   <i type="int" name="NSW">     0</i>
   <i type="int" name="IBRION">    -1</i>
   <i type="int" name="MDALGO">     0</i>
   <i type="int" name="ISIF">     2</i>
   <i name="PSTRESS">      0.00000000</i>
   <i name="EDIFFG">      0.00001000</i>
   <i type="int" name="NFREE">     0</i>
   <i name="POTIM">      0.50000000</i>
   <i name="SMASS">     -3.00000000</i>
   <i name="SCALEE">      1.00000000</i>
  </separator>
  <separator name="ionic md" >
   <i name="TEBEG">      0.00010000</i>
   <i name="TEEND">      0.00010000</i>
   <i type="int" name="NBLOCK">     1</i>
   <i type="int" name="KBLOCK">     1</i>
   <i type="int" name="NPACO">   256</i>
   <i name="APACO">     16.00000000</i>
  </separator>
  <separator name="symmetry" >
   <i type="int" name="ISYM">     2</i>
   <i name="SYMPREC">      0.00001000</i>
  </separator>
  <separator name="dos" >
   <i type="int" name="LORBIT">    11</i>
   <v name="RWIGS">     -1.00000000     -1.00000000</v>
   <i type="int" name="NEDOS">  2401</i>
   <i name="EMIN">    -12.00000000</i>
   <i name="EMAX">     12.00000000</i>
   <i name="EFERMI">      0.00000000</i>
  </separator>
  <separator name="writing" >
   <i type="int" name="NWRITE">     2</i>
   <i type="logical" name="LWAVE"> F  </i>
   <i type="logical" name="LDOWNSAMPLE"> F  </i>
   <i type="logical" name="LCHARG"> T  </i>
   <i type="logical" name="LPARD"> F  </i>
   <i type="logical" name="LVTOT"> F  </i>
   <i type="logical" name="LVHAR"> F  </i>
   <i type="logical" name="LELF"> T  </i>
   <i type="logical" name="LOPTICS"> F  </i>
   <v name="STM">      0.00000000      0.00000000      0.00000000      0.00000000      0.00000000      0.00000000      0.00000000</v>
  </separator>
  <separator name="performance" >
   <i type="int" name="NPAR">     2</i>
   <i type="int" name="NSIM">     4</i>
   <i type="int" name="NBLK">    -1</i>
   <i type="logical" name="LPLANE"> T  </i>
   <i type="logical" name="LSCALAPACK"> T  </i>
   <i type="logical" name="LSCAAWARE"> F  </i>
   <i type="logical" name="LSCALU"> F  </i>
   <i type="logical" name="LASYNC"> F  </i>
   <i type="logical" name="LORBITALREAL"> F  </i>
  </separator>
  <separator name="miscellaneous" >
   <i type="int" name="IDIOT">     3</i>
   <i type="int" name="ISPECIAL">     0</i>
   <i type="logical" name="LMUSIC"> F  </i>
   <v name="POMASS">     95.94000000     32.06600000</v>
   <v name="DARWINR">      0.00000000      0.00000000</v>
   <v name="DARWINV">      1.00000000      1.00000000</v>
   <i type="logical" name="LCORR"> T  </i>
  </separator>
  <i type="logical" name="GGA_COMPAT"> T  </i>
  <i type="logical" name="LBERRY"> F  </i>
  <i type="int" name="ICORELEVEL">     0</i>
  <i type="logical" name="LDAU"> F  </i>
  <i type="int" name="I_CONSTRAINED_M">     0</i>
  <separator name="electronic exchange-correlation" >
   <i type="string" name="GGA">--</i>
   <i type="int" name="VOSKOWN">     0</i>
   <i type="logical" name="LHFCALC"> F  </i>
   <i type="string" name="PRECFOCK"></i>
   <i type="logical" name="LSYMGRAD"> F  </i>
   <i type="logical" name="LHFONE"> F  </i>
   <i type="logical" name="LRHFCALC"> F  </i>
   <i type="logical" name="LTHOMAS"> F  </i>
   <i type="logical" name="LMODELHF"> F  </i>
   <i name="ENCUT4O">     -1.00000000</i>
   <i type="int" name="EXXOEP">     0</i>
   <i type="int" name="FOURORBIT">     0</i>
   <i name="AEXX">      0.00000000</i>
   <i name="HFALPHA">      0.00000000</i>
   <i name="MCALPHA">      0.00000000</i>
   <i name="ALDAX">      1.00000000</i>
   <i name="AGGAX">      1.00000000</i>
   <i name="ALDAC">      1.00000000</i>
   <i name="AGGAC">      1.00000000</i>
   <i type="int" name="NKREDX">     1</i>
   <i type="int" name="NKREDY">     1</i>
   <i type="int" name="NKREDZ">     1</i>
   <i type="logical" name="SHIFTRED"> F  </i>
   <i type="logical" name="ODDONLY"> F  </i>
   <i type="logical" name="EVENONLY"> F  </i>
   <i type="int" name="LMAXFOCK">     0</i>
   <i type="int" name="NMAXFOCKAE">     0</i>
   <i type="logical" name="LFOCKAEDFT"> F  </i>
   <i name="HFSCREEN">      0.00000000</i>
   <i name="HFSCREENC">      0.00000000</i>
   <i type="int" name="NBANDSGWLOW">     0</i>
  </separator>
  <separator name="vdW DFT" >
   <i type="logical" name="LUSE_VDW"> F  </i>
   <i name="Zab_VDW">     -0.84910000</i>
   <i name="PARAM1">      0.12340000</i>
   <i name="PARAM2">      1.00000000</i>
   <i name="PARAM3">      0.00000000</i>
  </separator>
  <separator name="model GW" >
   <i type="int" name="MODEL_GW">     0</i>
   <i name="MODEL_EPS0">     61.48823632</i>
   <i name="MODEL_ALPHA">      1.00000000</i>
  </separator>
  <separator name="linear response parameters" >
   <i type="logical" name="LEPSILON"> F  </i>
   <i type="logical" name="LRPA"> F  </i>
   <i type="logical" name="LNABLA"> F  </i>
   <i type="logical" name="LVEL"> F  </i>
   <i type="int" name="KINTER">     0</i>
   <i name="CSHIFT">      0.10000000</i>
   <i name="OMEGAMAX">     -1.00000000</i>
   <i name="DEG_THRESHOLD">      0.00200000</i>
   <i name="RTIME">     -0.10000000</i>
   <i name="WPLASMAI">      0.00000000</i>
   <v name="DFIELD">      0.00000000      0.00000000      0.00000000</v>
   <v name="WPLASMA">      0.00000000      0.00000000      0.00000000      0.00000000      0.00000000      0.00000000      0.00000000      0.00000000      0.00000000</v>
  </separator>
  <separator name="orbital magnetization" >
   <i type="logical" name="NUCIND"> F  </i>
   <v name="MAGPOS">      0.00000000      0.00000000      0.00000000</v>
   <i type="logical" name="LNICSALL"> T  </i>
   <i type="logical" name="ORBITALMAG"> F  </i>
   <i type="logical" name="LMAGBLOCH"> F  </i>
   <i type="logical" name="LCHIMAG"> F  </i>
   <i type="logical" name="LGAUGE"> T  </i>
   <i type="int" name="MAGATOM">     0</i>
   <v name="MAGDIPOL">      0.00000000      0.00000000      0.00000000</v>
   <v name="AVECCONST">      0.00000000      0.00000000      0.00000000</v>
  </separator>
  <separator name="response functions" >
   <i type="logical" name="LADDER"> F  </i>
   <i type="logical" name="LRPAFORCE"> F  </i>
   <i type="logical" name="LFXC"> F  </i>
   <i type="logical" name="LHARTREE"> T  </i>
   <i type="int" name="IBSE">     0</i>
   <v type="int" name="KPOINT">    -1     0     0     0</v>
   <i type="logical" name="LTCTE"> F  </i>
   <i type="logical" name="LTETE"> F  </i>
   <i type="logical" name="LTRIPLET"> F  </i>
   <i type="logical" name="LFXCEPS"> F  </i>
   <i type="logical" name="LFXHEG"> F  </i>
   <i type="int" name="NATURALO">     2</i>
   <i type="logical" name="L2ORDER"> F  </i>
   <i type="logical" name="LMP2LT"> F  </i>
   <i type="logical" name="LUSEW"> F  </i>
   <i name="ENCUTGW">     -2.00000000</i>
   <i name="ENCUTGWSOFT">     -2.00000000</i>
   <i name="ENCUTLF">     -1.00000000</i>
   <i type="int" name="LMAXMP2">    -1</i>
   <i name="SCISSOR">      0.00000000</i>
   <i type="int" name="NOMEGA">     0</i>
   <i type="int" name="NOMEGAR">     0</i>
   <i type="int" name="NBANDSGW">    -1</i>
   <i type="int" name="NBANDSO">    -1</i>
   <i type="int" name="NBANDSV">    -1</i>
   <i type="int" name="NELM">     1</i>
   <i type="int" name="NELMHF">     1</i>
   <i type="int" name="DIM">     3</i>
   <i type="int" name="ANTIRES">     0</i>
   <i name="OMEGAMAX">    -30.00000000</i>
   <i name="OMEGAMIN">    -30.00000000</i>
   <i name="OMEGATL">   -200.00000000</i>
   <i type="int" name="OMEGAGRID">   140</i>
   <i name="CSHIFT">     -0.10000000</i>
   <i type="logical" name="SELFENERGY"> F  </i>
   <i type="logical" name="LSPECTRAL"> F  </i>
   <i type="logical" name="LSPECTRALGW"> F  </i>
   <i type="logical" name="LSINGLES"> F  </i>
   <i type="logical" name="LFERMIGW"> F  </i>
   <i type="logical" name="ODDONLYGW"> F  </i>
   <i type="logical" name="EVENONLYGW"> F  </i>
   <i type="int" name="NKREDLFX">     1</i>
   <i type="int" name="NKREDLFY">     1</i>
   <i type="int" name="NKREDLFZ">     1</i>
   <i type="int" name="MAXMEM">  2800</i>
   <i type="int" name="TELESCOPE">     0</i>
   <i type="int" name="TAUPAR">     1</i>
   <i type="int" name="OMEGAPAR">    -1</i>
   <i name="LAMBDA">      1.00000000</i>
  </separator>
  <separator name="External order field" >
   <i name="OFIELD_KAPPA">      0.00000000</i>
   <v name="OFIELD_K">      0.00000000      0.00000000      0.00000000</v>
   <i name="OFIELD_Q6_NEAR">      0.00000000</i>
   <i name="OFIELD_Q6_FAR">      0.00000000</i>
   <i name="OFIELD_A">      0.00000000</i>
  </separator>
 </parameters>
 <atominfo>
  <atoms>       3 </atoms>
  <types>       2 </types>
  <array name="atoms" >
   <dimension dim="1">ion</dimension>
   <field type="string">element</field>
   <field type="int">atomtype</field>
   <set>
    <rc><c>Mo</c><c>   1</c></rc>
    <rc><c>S </c><c>   2</c></rc>
    <rc><c>S </c><c>   2</c></rc>
   </set>
  </array>
  <array name="atomtypes" >
   <dimension dim="1">type</dimension>
   <field type="int">atomspertype</field>
   <field type="string">element</field>
   <field>mass</field>
   <field>valence</field>
   <field type="string">pseudopotential</field>
   <set>
    <rc><c>   1</c><c>Mo</c><c>     95.94000000</c><c>      6.00000000</c><c> PAW_PBE Mo 08Apr2002                   </c></rc>
    <rc><c>   2</c><c>S </c><c>     32.06600000</c><c>      6.00000000</c><c>  PAW_PBE S 17Jan2003                   </c></rc>
   </set>
  </array>
 </atominfo>
 <structure name="initialpos" >
  <crystal>
   <varray name="basis" >
    <v>       3.19031573       0.00000000       0.00000000 </v>
    <v>      -1.59515786       2.76289447       0.00000000 </v>
    <v>       0.00000000       0.00000000      34.87900430 </v>
   </varray>
   <i name="volume">    307.44118160 </i>
   <varray name="rec_basis" >
    <v>       0.31344860       0.18096963       0.00000000 </v>
    <v>       0.00000000       0.36193927       0.00000000 </v>
    <v>       0.00000000       0.00000000       0.02867054 </v>
   </varray>
  </crystal>
  <varray name="positions" >
   <v>       0.33333300       0.66666700       0.10664728 </v>
   <v>       0.66666700       0.33333300       0.06178120 </v>
   <v>       0.66666600       0.33333300       0.15151337 </v>
  </varray>
 </structure>
 <calculation>
  <scstep>
   <time name="dav">    0.14    0.14</time>
   <time name="total">    0.17    0.23</time>
   <energy>
    <i name="alphaZ">      9.64366340 </i>
    <i name="ewald">   6457.05851647 </i>
    <i name="hartreedc">  -7124.51026122 </i>
    <i name="XCdc">    -36.31055189 </i>
    <i name="pawpsdc">    406.88651198 </i>
    <i name="pawaedc">   -329.34073203 </i>
    <i name="eentropy">     -0.06221142 </i>
    <i name="bandstr">    -54.21033291 </i>
    <i name="atom">    771.06857575 </i>
    <i name="e_fr_energy">    100.22317814 </i>
    <i name="e_wo_entrp">    100.28538956 </i>
    <i name="e_0_energy">    100.25428385 </i>
   </energy>
  </scstep>
  <scstep>
   <time name="dav">    0.21    0.21</time>
   <time name="total">    0.21    0.21</time>
   <energy>
    <i name="e_fr_energy">    -10.80341143 </i>
    <i name="e_wo_entrp">    -10.80341143 </i>
    <i name="e_0_energy">    -10.80341143 </i>
   </energy>
  </scstep>
  <scstep>
   <time name="dav">    0.17    0.17</time>
   <time name="total">    0.17    0.17</time>
   <energy>
    <i name="e_fr_energy">    -23.14737373 </i>
    <i name="e_wo_entrp">    -23.14737373 </i>
    <i name="e_0_energy">    -23.14737373 </i>
   </energy>
  </scstep>
  <scstep>
   <time name="dav">    0.16    0.16</time>
   <time name="total">    0.16    0.16</time>
   <energy>
    <i name="e_fr_energy">    -23.36414446 </i>
    <i name="e_wo_entrp">    -23.36414446 </i>
    <i name="e_0_energy">    -23.36414446 </i>
   </energy>
  </scstep>
  <scstep>
   <time name="dav">    0.15    0.15</time>
   <time name="total">    0.16    0.16</time>
   <energy>
    <i name="e_fr_energy">    -23.36979675 </i>
    <i name="e_wo_entrp">    -23.36979675 </i>
    <i name="e_0_energy">    -23.36979675 </i>
   </energy>
  </scstep>
  <scstep>
   <time name="diag">    0.02    0.02</time>
   <time name="diis">    0.09    0.09</time>
   <time name="orth">    0.00    0.00</time>
   <time name="total">    0.15    0.15</time>
   <energy>
    <i name="e_fr_energy">    -22.21013201 </i>
    <i name="e_wo_entrp">    -22.21013197 </i>
    <i name="e_0_energy">    -22.21013199 </i>
   </energy>
  </scstep>
  <scstep>
   <time name="diag">    0.02    0.02</time>
   <time name="diis">    0.08    0.08</time>
   <time name="orth">    0.00    0.00</time>
   <time name="total">    0.15    0.15</time>
   <energy>
    <i name="e_fr_energy">    -21.82825787 </i>
    <i name="e_wo_entrp">    -21.82825787 </i>
    <i name="e_0_energy">    -21.82825787 </i>
   </energy>
  </scstep>
  <scstep>
   <time name="diag">    0.02    0.02</time>
   <time name="diis">    0.09    0.09</time>
   <time name="orth">    0.00    0.00</time>
   <time name="total">    0.15    0.15</time>
   <energy>
    <i name="e_fr_energy">    -21.76776143 </i>
    <i name="e_wo_entrp">    -21.76776143 </i>
    <i name="e_0_energy">    -21.76776143 </i>
   </energy>
  </scstep>
  <scstep>
   <time name="diag">    0.02    0.02</time>
   <time name="diis">    0.10    0.10</time>
   <time name="orth">    0.00    0.00</time>
   <time name="total">    0.16    0.16</time>
   <energy>
    <i name="e_fr_energy">    -21.76304810 </i>
    <i name="e_wo_entrp">    -21.76304810 </i>
    <i name="e_0_energy">    -21.76304810 </i>
   </energy>
  </scstep>
  <scstep>
   <time name="diag">    0.02    0.02</time>
   <time name="diis">    0.10    0.10</time>
   <time name="orth">    0.00    0.00</time>
   <time name="total">    0.16    0.16</time>
   <energy>
    <i name="e_fr_energy">    -21.76235799 </i>
    <i name="e_wo_entrp">    -21.76235799 </i>
    <i name="e_0_energy">    -21.76235799 </i>
   </energy>
  </scstep>
  <scstep>
   <time name="diag">    0.02    0.02</time>
   <time name="diis">    0.09    0.09</time>
   <time name="orth">    0.00    0.00</time>
   <time name="total">    0.15    0.15</time>
   <energy>
    <i name="e_fr_energy">    -21.76232388 </i>
    <i name="e_wo_entrp">    -21.76232388 </i>
    <i name="e_0_energy">    -21.76232388 </i>
   </energy>
  </scstep>
  <scstep>
   <time name="diag">    0.02    0.02</time>
   <time name="diis">    0.09    0.09</time>
   <time name="orth">    0.00    0.00</time>
   <time name="total">    0.15    0.15</time>
   <energy>
    <i name="e_fr_energy">    -21.76225511 </i>
    <i name="e_wo_entrp">    -21.76225511 </i>
    <i name="e_0_energy">    -21.76225511 </i>
   </energy>
  </scstep>
  <scstep>
   <time name="diag">    0.02    0.02</time>
   <time name="diis">    0.09    0.09</time>
   <time name="orth">    0.00    0.00</time>
   <time name="total">    0.15    0.15</time>
   <energy>
    <i name="e_fr_energy">    -21.76276121 </i>
    <i name="e_wo_entrp">    -21.76276121 </i>
    <i name="e_0_energy">    -21.76276121 </i>
   </energy>
  </scstep>
  <scstep>
   <time name="diag">    0.02    0.02</time>
   <time name="diis">    0.09    0.09</time>
   <time name="orth">    0.00    0.00</time>
   <time name="total">    0.15    0.15</time>
   <energy>
    <i name="e_fr_energy">    -21.76285328 </i>
    <i name="e_wo_entrp">    -21.76285328 </i>
    <i name="e_0_energy">    -21.76285328 </i>
   </energy>
  </scstep>
  <scstep>
   <time name="diag">    0.02    0.02</time>
   <time name="diis">    0.08    0.08</time>
   <time name="orth">    0.00    0.00</time>
   <time name="total">    0.14    0.14</time>
   <energy>
    <i name="e_fr_energy">    -21.76302645 </i>
    <i name="e_wo_entrp">    -21.76302645 </i>
    <i name="e_0_energy">    -21.76302645 </i>
   </energy>
  </scstep>
  <scstep>
   <time name="diag">    0.02    0.02</time>
   <time name="diis">    0.07    0.07</time>
   <time name="orth">    0.00    0.00</time>
   <time name="total">    0.13    0.13</time>
   <energy>
    <i name="e_fr_energy">    -21.76307345 </i>
    <i name="e_wo_entrp">    -21.76307345 </i>
    <i name="e_0_energy">    -21.76307345 </i>
   </energy>
  </scstep>
  <scstep>
   <time name="diag">    0.02    0.02</time>
   <time name="diis">    0.06    0.06</time>
   <time name="orth">    0.00    0.00</time>
   <time name="total">    0.12    0.12</time>
   <energy>
    <i name="e_fr_energy">    -21.76311567 </i>
    <i name="e_wo_entrp">    -21.76311567 </i>
    <i name="e_0_energy">    -21.76311567 </i>
   </energy>
  </scstep>
  <scstep>
   <time name="diag">    0.02    0.02</time>
   <time name="diis">    0.06    0.06</time>
   <time name="orth">    0.00    0.00</time>
   <time name="total">    0.12    0.12</time>
   <energy>
    <i name="e_fr_energy">    -21.76311835 </i>
    <i name="e_wo_entrp">    -21.76311835 </i>
    <i name="e_0_energy">    -21.76311835 </i>
   </energy>
  </scstep>
  <scstep>
   <time name="diag">    0.02    0.02</time>
   <time name="diis">    0.06    0.06</time>
   <time name="orth">    0.00    0.00</time>
   <time name="total">    0.12    0.12</time>
   <energy>
    <i name="e_fr_energy">    -21.76312418 </i>
    <i name="e_wo_entrp">    -21.76312418 </i>
    <i name="e_0_energy">    -21.76312418 </i>
   </energy>
  </scstep>
  <scstep>
   <time name="diag">    0.02    0.02</time>
   <time name="diis">    0.05    0.05</time>
   <time name="orth">    0.00    0.00</time>
   <time name="total">    0.10    0.10</time>
   <energy>
    <i name="alphaZ">      9.64366340 </i>
    <i name="ewald">   6457.05851647 </i>
    <i name="hartreedc">  -7138.15521439 </i>
    <i name="XCdc">    -35.17194716 </i>
    <i name="pawpsdc">    478.70374552 </i>
    <i name="pawaedc">   -402.89477683 </i>
    <i name="eentropy">     -0.00000000 </i>
    <i name="bandstr">   -162.01568771 </i>
    <i name="atom">    771.06857575 </i>
    <i name="e_fr_energy">    -21.76312494 </i>
    <i name="e_wo_entrp">    -21.76312494 </i>
    <i name="e_0_energy">    -21.76312494 </i>
   </energy>
  </scstep>
  <structure>
   <crystal>
    <varray name="basis" >
     <v>       3.19031573       0.00000000       0.00000000 </v>
     <v>      -1.59515786       2.76289447       0.00000000 </v>
     <v>       0.00000000       0.00000000      34.87900430 </v>
    </varray>
    <i name="volume">    307.44118160 </i>
    <varray name="rec_basis" >
     <v>       0.31344860       0.18096963       0.00000000 </v>
     <v>       0.00000000       0.36193927       0.00000000 </v>
     <v>       0.00000000       0.00000000       0.02867054 </v>
    </varray>
   </crystal>
   <varray name="positions" >
    <v>       0.33333300       0.66666700       0.10664728 </v>
    <v>       0.66666700       0.33333300       0.06178120 </v>
    <v>       0.66666600       0.33333300       0.15151337 </v>
   </varray>
  </structure>
  <varray name="forces" >
   <v>      -0.00000000       0.00000000       0.00000000 </v>
   <v>       0.00000000      -0.00000000       0.10395837 </v>
   <v>       0.00000000       0.00000000      -0.10395837 </v>
  </varray>
  <varray name="stress" >
   <v>      -3.07412022      -0.00000000       0.00000000 </v>
   <v>       0.00000000      -3.07412022       0.00000000 </v>
   <v>       0.00000000      -0.00000000      -4.54139771 </v>
  </varray>
  <energy>
   <i name="e_fr_energy">    -22.35386593 </i>
   <i name="e_wo_entrp">    -22.35386593 </i>
   <i name="e_0_energy">     -0.00000000 </i>
  </energy>
  <time name="totalsc">    3.37    3.53</time>
  <eigenvalues>
   <array>
    <dimension dim="1">band</dimension>
    <dimension dim="2">kpoint</dimension>
    <dimension dim="3">spin</dimension>
    <field>eigene</field>
    <field>occ</field>
    <set>
     <set comment="spin 1">
      <set comment="kpoint 1">
       <r>  -18.0484    1.0000 </r>
       <r>  -16.8400    1.0000 </r>
       <r>   -9.5583    1.0000 </r>
       <r>   -6.5964    1.0000 </r>
       <r>   -6.5961    1.0000 </r>
       <r>   -5.7368    1.0000 </r>
       <r>   -5.4892    1.0000 </r>
       <r>   -5.4887    1.0000 </r>
       <r>   -4.0143    1.0000 </r>
       <r>   -1.2402    0.0000 </r>
       <r>   -1.2394    0.0000 </r>
       <r>   -1.0176    0.0000 </r>
       <r>   -1.0169    0.0000 </r>
       <r>    1.3861    0.0000 </r>
      </set>
      <set comment="kpoint 2">
       <r>  -17.8343    1.0000 </r>
       <r>  -16.7375    1.0000 </r>
       <r>   -9.3134    1.0000 </r>
       <r>   -7.0607    1.0000 </r>
       <r>   -6.5435    1.0000 </r>
       <r>   -6.3620    1.0000 </r>
       <r>   -5.8251    1.0000 </r>
       <r>   -5.0575    1.0000 </r>
       <r>   -4.1530    1.0000 </r>
       <r>   -1.5225    0.0000 </r>
       <r>   -1.4560    0.0000 </r>
       <r>   -1.2545    0.0000 </r>
       <r>   -0.8855    0.0000 </r>
       <r>    1.7516    0.0000 </r>
      </set>
      <set comment="kpoint 3">
       <r>  -17.2658    1.0000 </r>
       <r>  -16.4687    1.0000 </r>
       <r>   -8.9475    1.0000 </r>
       <r>   -7.7890    1.0000 </r>
       <r>   -7.5251    1.0000 </r>
       <r>   -6.4619    1.0000 </r>
       <r>   -5.7760    1.0000 </r>
       <r>   -5.3097    1.0000 </r>
       <r>   -4.7215    1.0000 </r>
       <r>   -1.8469    0.0000 </r>
       <r>   -1.6715    0.0000 </r>
       <r>   -1.1286    0.0000 </r>
       <r>   -0.2707    0.0000 </r>
       <r>    2.5761    0.0000 </r>
      </set>
      <set comment="kpoint 4">
       <r>  -16.5908    1.0000 </r>
       <r>  -16.1601    1.0000 </r>
       <r>   -9.3868    1.0000 </r>
       <r>   -8.3941    1.0000 </r>
       <r>   -7.9203    1.0000 </r>
       <r>   -6.9602    1.0000 </r>
       <r>   -5.7188    1.0000 </r>
       <r>   -5.1863    1.0000 </r>
       <r>   -4.9157    1.0000 </r>
       <r>   -1.8542    0.0000 </r>
       <r>   -1.5745    0.0000 </r>
       <r>   -0.4098    0.0000 </r>
       <r>    0.1220    0.0000 </r>
       <r>    3.1461    0.0000 </r>
      </set>
      <set comment="kpoint 5">
       <r>  -16.2625    1.0000 </r>
       <r>  -16.0167    1.0000 </r>
       <r>   -9.7196    1.0000 </r>
       <r>   -8.7602    1.0000 </r>
       <r>   -8.0455    1.0000 </r>
       <r>   -7.1414    1.0000 </r>
       <r>   -5.8569    1.0000 </r>
       <r>   -4.9592    1.0000 </r>
       <r>   -4.6340    1.0000 </r>
       <r>   -1.8326    0.0000 </r>
       <r>   -1.3181    0.0000 </r>
       <r>   -0.1100    0.0000 </r>
       <r>    0.2375    0.0000 </r>
       <r>    2.1922    0.0000 </r>
      </set>
      <set comment="kpoint 6">
       <r>  -17.4416    1.0000 </r>
       <r>  -16.5504    1.0000 </r>
       <r>   -8.9657    1.0000 </r>
       <r>   -7.6259    1.0000 </r>
       <r>   -7.1061    1.0000 </r>
       <r>   -6.6394    1.0000 </r>
       <r>   -6.0236    1.0000 </r>
       <r>   -4.9229    1.0000 </r>
       <r>   -4.5256    1.0000 </r>
       <r>   -1.9218    0.0000 </r>
       <r>   -1.5443    0.0000 </r>
       <r>   -1.5320    0.0000 </r>
       <r>   -0.2915    0.0000 </r>
       <r>    2.3481    0.0000 </r>
      </set>
      <set comment="kpoint 7">
       <r>  -16.8082    1.0000 </r>
       <r>  -16.2518    1.0000 </r>
       <r>   -9.0301    1.0000 </r>
       <r>   -8.0525    1.0000 </r>
       <r>   -7.7892    1.0000 </r>
       <r>   -7.1451    1.0000 </r>
       <r>   -5.9246    1.0000 </r>
       <r>   -5.2860    1.0000 </r>
       <r>   -4.8094    1.0000 </r>
       <r>   -2.0057    0.0000 </r>
       <r>   -1.5590    0.0000 </r>
       <r>   -1.0620    0.0000 </r>
       <r>    0.2138    0.0000 </r>
       <r>    3.3330    0.0000 </r>
      </set>
      <set comment="kpoint 8">
       <r>  -16.2778    1.0000 </r>
       <r>  -16.0078    1.0000 </r>
       <r>   -9.4319    1.0000 </r>
       <r>   -8.8160    1.0000 </r>
       <r>   -7.9181    1.0000 </r>
       <r>   -7.1625    1.0000 </r>
       <r>   -5.9094    1.0000 </r>
       <r>   -5.7670    1.0000 </r>
       <r>   -4.4825    1.0000 </r>
       <r>   -1.8136    0.0000 </r>
       <r>   -1.3035    0.0000 </r>
       <r>   -0.4380    0.0000 </r>
       <r>    0.2480    0.0000 </r>
       <r>    2.7175    0.0000 </r>
      </set>
      <set comment="kpoint 9">
       <r>  -16.2928    1.0000 </r>
       <r>  -15.9989    1.0000 </r>
       <r>   -9.0712    1.0000 </r>
       <r>   -8.8660    1.0000 </r>
       <r>   -7.5916    1.0000 </r>
       <r>   -7.2110    1.0000 </r>
       <r>   -6.8917    1.0000 </r>
       <r>   -5.6342    1.0000 </r>
       <r>   -4.5123    1.0000 </r>
       <r>   -1.8645    0.0000 </r>
       <r>   -1.2528    0.0000 </r>
       <r>   -0.9362    0.0000 </r>
       <r>    0.5321    0.0000 </r>
       <r>    3.5484    0.0000 </r>
      </set>
      <set comment="kpoint 10">
       <r>  -16.0579    1.0000 </r>
       <r>  -15.8799    1.0000 </r>
       <r>   -9.2506    1.0000 </r>
       <r>   -8.9021    1.0000 </r>
       <r>   -7.8751    1.0000 </r>
       <r>   -7.2132    1.0000 </r>
       <r>   -6.9848    1.0000 </r>
       <r>   -6.0196    1.0000 </r>
       <r>   -4.1450    1.0000 </r>
       <r>   -2.1909    0.0000 </r>
       <r>   -0.8753    0.0000 </r>
       <r>   -0.7034    0.0000 </r>
       <r>    0.6755    0.0000 </r>
       <r>    2.9617    0.0000 </r>
      </set>
     </set>
    </set>
   </array>
  </eigenvalues>
  <separator name="orbital magnetization" >
   <v name="MAGDIPOLOUT">      0.00000000      0.00000000      0.00000000</v>
  </separator>
  <dos>
   <i name="efermi">     -3.19000000 </i>
   <total>
    <array>
     <dimension dim="1">gridpoints</dimension>
     <dimension dim="2">spin</dimension>
     <field>energy</field>
     <field>total</field>
     <field>integrated</field>
     <set>
      <set comment="spin 1">
       <r>   -12.0000   400.0000     4.0000 </r>
       <r>   -11.9900     0.0000     4.0000 </r>
       <r>   -11.9800     0.0000     4.0000 </r>
       <r>   -11.9700     0.0000     4.0000 </r>
       <r>   -11.9600     0.0000     4.0000 </r>
       <r>   -11.9500     0.0000     4.0000 </r>
       <r>   -11.9400     0.0000     4.0000 </r>
       <r>   -11.9300     0.0000     4.0000 </r>
       <r>   -11.9200     0.0000     4.0000 </r>
       <r>   -11.9100     0.0000     4.0000 </r>
       <r>   -11.9000     0.0000     4.0000 </r>
       <r>   -11.8900     0.0000     4.0000 </r>
       <r>   -11.8800     0.0000     4.0000 </r>
       <r>   -11.8700     0.0000     4.0000 </r>
       <r>   -11.8600     0.0000     4.0000 </r>
       <r>   -11.8500     0.0000     4.0000 </r>
       <r>   -11.8400     0.0000     4.0000 </r>
       <r>   -11.8300     0.0000     4.0000 </r>
       <r>   -11.8200     0.0000     4.0000 </r>
       <r>   -11.8100     0.0000     4.0000 </r>
       <r>   -11.8000     0.0000     4.0000 </r>
       <r>   -11.7900     0.0000     4.0000 </r>
       <r>   -11.7800     0.0000     4.0000 </r>
       <r>   -11.7700     0.0000     4.0000 </r>
       <r>   -11.7600     0.0000     4.0000 </r>
       <r>   -11.7500     0.0000     4.0000 </r>
       <r>   -11.7400     0.0000     4.0000 </r>
       <r>   -11.7300     0.0000     4.0000 </r>
       <r>   -11.7200     0.0000     4.0000 </r>
       <r>   -11.7100     0.0000     4.0000 </r>
       <r>   -11.7000     0.0000     4.0000 </r>
       <r>   -11.6900     0.0000     4.0000 </r>
       <r>   -11.6800     0.0000     4.0000 </r>
       <r>   -11.6700     0.0000     4.0000 </r>
       <r>   -11.6600     0.0000     4.0000 </r>
       <r>   -11.6500     0.0000     4.0000 </r>
       <r>   -11.6400     0.0000     4.0000 </r>
       <r>   -11.6300     0.0000     4.0000 </r>
       <r>   -11.6200     0.0000     4.0000 </r>
       <r>   -11.6100     0.0000     4.0000 </r>
       <r>   -11.6000     0.0000     4.0000 </r>
       <r>   -11.5900     0.0000     4.0000 </r>
       <r>   -11.5800     0.0000     4.0000 </r>
       <r>   -11.5700     0.0000     4.0000 </r>
       <r>   -11.5600     0.0000     4.0000 </r>
       <r>   -11.5500     0.0000     4.0000 </r>
       <r>   -11.5400     0.0000     4.0000 </r>
       <r>   -11.5300     0.0000     4.0000 </r>
       <r>   -11.5200     0.0000     4.0000 </r>
       <r>   -11.5100     0.0000     4.0000 </r>
       <r>   -11.5000     0.0000     4.0000 </r>
       <r>   -11.4900     0.0000     4.0000 </r>
       <r>   -11.4800     0.0000     4.0000 </r>
       <r>   -11.4700     0.0000     4.0000 </r>
       <r>   -11.4600     0.0000     4.0000 </r>
       <r>   -11.4500     0.0000     4.0000 </r>
       <r>   -11.4400     0.0000     4.0000 </r>
       <r>   -11.4300     0.0000     4.0000 </r>
       <r>   -11.4200     0.0000     4.0000 </r>
       <r>   -11.4100     0.0000     4.0000 </r>
       <r>   -11.4000     0.0000     4.0000 </r>
       <r>   -11.3900     0.0000     4.0000 </r>
       <r>   -11.3800     0.0000     4.0000 </r>
       <r>   -11.3700     0.0000     4.0000 </r>
       <r>   -11.3600     0.0000     4.0000 </r>
       <r>   -11.3500     0.0000     4.0000 </r>
       <r>   -11.3400     0.0000     4.0000 </r>
       <r>   -11.3300     0.0000     4.0000 </r>
       <r>   -11.3200     0.0000     4.0000 </r>
       <r>   -11.3100     0.0000     4.0000 </r>
       <r>   -11.3000     0.0000     4.0000 </r>
       <r>   -11.2900     0.0000     4.0000 </r>
       <r>   -11.2800     0.0000     4.0000 </r>
       <r>   -11.2700     0.0000     4.0000 </r>
       <r>   -11.2600     0.0000     4.0000 </r>
       <r>   -11.2500     0.0000     4.0000 </r>
       <r>   -11.2400     0.0000     4.0000 </r>
       <r>   -11.2300     0.0000     4.0000 </r>
       <r>   -11.2200     0.0000     4.0000 </r>
       <r>   -11.2100     0.0000     4.0000 </r>
       <r>   -11.2000     0.0000     4.0000 </r>
       <r>   -11.1900     0.0000     4.0000 </r>
       <r>   -11.1800     0.0000     4.0000 </r>
       <r>   -11.1700     0.0000     4.0000 </r>
       <r>   -11.1600     0.0000     4.0000 </r>
       <r>   -11.1500     0.0000     4.0000 </r>
       <r>   -11.1400     0.0000     4.0000 </r>
       <r>   -11.1300     0.0000     4.0000 </r>
       <r>   -11.1200     0.0000     4.0000 </r>
       <r>   -11.1100     0.0000     4.0000 </r>
       <r>   -11.1000     0.0000     4.0000 </r>
       <r>   -11.0900     0.0000     4.0000 </r>
       <r>   -11.0800     0.0000     4.0000 </r>
       <r>   -11.0700     0.0000     4.0000 </r>
       <r>   -11.0600     0.0000     4.0000 </r>
       <r>   -11.0500     0.0000     4.0000 </r>
       <r>   -11.0400     0.0000     4.0000 </r>
       <r>   -11.0300     0.0000     4.0000 </r>
       <r>   -11.0200     0.0000     4.0000 </r>
       <r>   -11.0100     0.0000     4.0000 </r>
       <r>   -11.0000     0.0000     4.0000 </r>
       <r>   -10.9900     0.0000     4.0000 </r>
       <r>   -10.9800     0.0000     4.0000 </r>
       <r>   -10.9700     0.0000     4.0000 </r>
       <r>   -10.9600     0.0000     4.0000 </r>
       <r>   -10.9500     0.0000     4.0000 </r>
       <r>   -10.9400     0.0000     4.0000 </r>
       <r>   -10.9300     0.0000     4.0000 </r>
       <r>   -10.9200     0.0000     4.0000 </r>
       <r>   -10.9100     0.0000     4.0000 </r>
       <r>   -10.9000     0.0000     4.0000 </r>
       <r>   -10.8900     0.0000     4.0000 </r>
       <r>   -10.8800     0.0000     4.0000 </r>
       <r>   -10.8700     0.0000     4.0000 </r>
       <r>   -10.8600     0.0000     4.0000 </r>
       <r>   -10.8500     0.0000     4.0000 </r>
       <r>   -10.8400     0.0000     4.0000 </r>
       <r>   -10.8300     0.0000     4.0000 </r>
       <r>   -10.8200     0.0000     4.0000 </r>
       <r>   -10.8100     0.0000     4.0000 </r>
       <r>   -10.8000     0.0000     4.0000 </r>
       <r>   -10.7900     0.0000     4.0000 </r>
       <r>   -10.7800     0.0000     4.0000 </r>
       <r>   -10.7700     0.0000     4.0000 </r>
       <r>   -10.7600     0.0000     4.0000 </r>
       <r>   -10.7500     0.0000     4.0000 </r>
       <r>   -10.7400     0.0000     4.0000 </r>
       <r>   -10.7300     0.0000     4.0000 </r>
       <r>   -10.7200     0.0000     4.0000 </r>
       <r>   -10.7100     0.0000     4.0000 </r>
       <r>   -10.7000     0.0000     4.0000 </r>
       <r>   -10.6900     0.0000     4.0000 </r>
       <r>   -10.6800     0.0000     4.0000 </r>
       <r>   -10.6700     0.0000     4.0000 </r>
       <r>   -10.6600     0.0000     4.0000 </r>
       <r>   -10.6500     0.0000     4.0000 </r>
       <r>   -10.6400     0.0000     4.0000 </r>
       <r>   -10.6300     0.0000     4.0000 </r>
       <r>   -10.6200     0.0000     4.0000 </r>
       <r>   -10.6100     0.0000     4.0000 </r>
       <r>   -10.6000     0.0000     4.0000 </r>
       <r>   -10.5900     0.0000     4.0000 </r>
       <r>   -10.5800     0.0000     4.0000 </r>
       <r>   -10.5700     0.0000     4.0000 </r>
       <r>   -10.5600     0.0000     4.0000 </r>
       <r>   -10.5500     0.0000     4.0000 </r>
       <r>   -10.5400     0.0000     4.0000 </r>
       <r>   -10.5300     0.0000     4.0000 </r>
       <r>   -10.5200     0.0000     4.0000 </r>
       <r>   -10.5100     0.0000     4.0000 </r>
       <r>   -10.5000     0.0000     4.0000 </r>
       <r>   -10.4900     0.0000     4.0000 </r>
       <r>   -10.4800     0.0000     4.0000 </r>
       <r>   -10.4700     0.0000     4.0000 </r>
       <r>   -10.4600     0.0000     4.0000 </r>
       <r>   -10.4500     0.0000     4.0000 </r>
       <r>   -10.4400     0.0000     4.0000 </r>
       <r>   -10.4300     0.0000     4.0000 </r>
       <r>   -10.4200     0.0000     4.0000 </r>
       <r>   -10.4100     0.0000     4.0000 </r>
       <r>   -10.4000     0.0000     4.0000 </r>
       <r>   -10.3900     0.0000     4.0000 </r>
       <r>   -10.3800     0.0000     4.0000 </r>
       <r>   -10.3700     0.0000     4.0000 </r>
       <r>   -10.3600     0.0000     4.0000 </r>
       <r>   -10.3500     0.0000     4.0000 </r>
       <r>   -10.3400     0.0000     4.0000 </r>
       <r>   -10.3300     0.0000     4.0000 </r>
       <r>   -10.3200     0.0000     4.0000 </r>
       <r>   -10.3100     0.0000     4.0000 </r>
       <r>   -10.3000     0.0001     4.0000 </r>
       <r>   -10.2900     0.0001     4.0000 </r>
       <r>   -10.2800     0.0001     4.0000 </r>
       <r>   -10.2700     0.0001     4.0000 </r>
       <r>   -10.2600     0.0002     4.0000 </r>
       <r>   -10.2500     0.0002     4.0000 </r>
       <r>   -10.2400     0.0003     4.0000 </r>
       <r>   -10.2300     0.0003     4.0000 </r>
       <r>   -10.2200     0.0004     4.0000 </r>
       <r>   -10.2100     0.0006     4.0000 </r>
       <r>   -10.2000     0.0007     4.0000 </r>
       <r>   -10.1900     0.0009     4.0000 </r>
       <r>   -10.1800     0.0012     4.0001 </r>
       <r>   -10.1700     0.0015     4.0001 </r>
       <r>   -10.1600     0.0019     4.0001 </r>
       <r>   -10.1500     0.0023     4.0001 </r>
       <r>   -10.1400     0.0029     4.0001 </r>
       <r>   -10.1300     0.0036     4.0002 </r>
       <r>   -10.1200     0.0044     4.0002 </r>
       <r>   -10.1100     0.0054     4.0003 </r>
       <r>   -10.1000     0.0065     4.0003 </r>
       <r>   -10.0900     0.0079     4.0004 </r>
       <r>   -10.0800     0.0095     4.0005 </r>
       <r>   -10.0700     0.0114     4.0006 </r>
       <r>   -10.0600     0.0136     4.0008 </r>
       <r>   -10.0500     0.0162     4.0009 </r>
       <r>   -10.0400     0.0191     4.0011 </r>
       <r>   -10.0300     0.0224     4.0013 </r>
       <r>   -10.0200     0.0263     4.0016 </r>
       <r>   -10.0100     0.0306     4.0019 </r>
       <r>   -10.0000     0.0355     4.0023 </r>
       <r>    -9.9900     0.0409     4.0027 </r>
       <r>    -9.9800     0.0470     4.0031 </r>
       <r>    -9.9700     0.0537     4.0037 </r>
       <r>    -9.9600     0.0611     4.0043 </r>
       <r>    -9.9500     0.0693     4.0050 </r>
       <r>    -9.9400     0.0781     4.0058 </r>
       <r>    -9.9300     0.0877     4.0066 </r>
       <r>    -9.9200     0.0981     4.0076 </r>
       <r>    -9.9100     0.1092     4.0087 </r>
       <r>    -9.9000     0.1211     4.0099 </r>
       <r>    -9.8900     0.1337     4.0113 </r>
       <r>    -9.8800     0.1471     4.0127 </r>
       <r>    -9.8700     0.1612     4.0143 </r>
       <r>    -9.8600     0.1761     4.0161 </r>
       <r>    -9.8500     0.1917     4.0180 </r>
       <r>    -9.8400     0.2080     4.0201 </r>
       <r>    -9.8300     0.2250     4.0224 </r>
       <r>    -9.8200     0.2427     4.0248 </r>
       <r>    -9.8100     0.2612     4.0274 </r>
       <r>    -9.8000     0.2804     4.0302 </r>
       <r>    -9.7900     0.3005     4.0332 </r>
       <r>    -9.7800     0.3214     4.0364 </r>
       <r>    -9.7700     0.3433     4.0398 </r>
       <r>    -9.7600     0.3663     4.0435 </r>
       <r>    -9.7500     0.3905     4.0474 </r>
       <r>    -9.7400     0.4160     4.0516 </r>
       <r>    -9.7300     0.4430     4.0560 </r>
       <r>    -9.7200     0.4717     4.0607 </r>
       <r>    -9.7100     0.5024     4.0657 </r>
       <r>    -9.7000     0.5351     4.0711 </r>
       <r>    -9.6900     0.5702     4.0768 </r>
       <r>    -9.6800     0.6078     4.0829 </r>
       <r>    -9.6700     0.6482     4.0894 </r>
       <r>    -9.6600     0.6916     4.0963 </r>
       <r>    -9.6500     0.7381     4.1037 </r>
       <r>    -9.6400     0.7880     4.1115 </r>
       <r>    -9.6300     0.8412     4.1199 </r>
       <r>    -9.6200     0.8979     4.1289 </r>
       <r>    -9.6100     0.9581     4.1385 </r>
       <r>    -9.6000     1.0217     4.1487 </r>
       <r>    -9.5900     1.0887     4.1596 </r>
       <r>    -9.5800     1.1588     4.1712 </r>
       <r>    -9.5700     1.2318     4.1835 </r>
       <r>    -9.5600     1.3074     4.1966 </r>
       <r>    -9.5500     1.3853     4.2104 </r>
       <r>    -9.5400     1.4648     4.2251 </r>
       <r>    -9.5300     1.5456     4.2405 </r>
       <r>    -9.5200     1.6270     4.2568 </r>
       <r>    -9.5100     1.7085     4.2739 </r>
       <r>    -9.5000     1.7894     4.2918 </r>
       <r>    -9.4900     1.8691     4.3105 </r>
       <r>    -9.4800     1.9468     4.3300 </r>
       <r>    -9.4700     2.0219     4.3502 </r>
       <r>    -9.4600     2.0938     4.3711 </r>
       <r>    -9.4500     2.1618     4.3927 </r>
       <r>    -9.4400     2.2254     4.4150 </r>
       <r>    -9.4300     2.2841     4.4378 </r>
       <r>    -9.4200     2.3375     4.4612 </r>
       <r>    -9.4100     2.3854     4.4851 </r>
       <r>    -9.4000     2.4273     4.5093 </r>
       <r>    -9.3900     2.4634     4.5340 </r>
       <r>    -9.3800     2.4935     4.5589 </r>
       <r>    -9.3700     2.5177     4.5841 </r>
       <r>    -9.3600     2.5364     4.6094 </r>
       <r>    -9.3500     2.5499     4.6349 </r>
       <r>    -9.3400     2.5585     4.6605 </r>
       <r>    -9.3300     2.5629     4.6862 </r>
       <r>    -9.3200     2.5638     4.7118 </r>
       <r>    -9.3100     2.5618     4.7374 </r>
       <r>    -9.3000     2.5577     4.7630 </r>
       <r>    -9.2900     2.5524     4.7885 </r>
       <r>    -9.2800     2.5468     4.8140 </r>
       <r>    -9.2700     2.5417     4.8394 </r>
       <r>    -9.2600     2.5381     4.8648 </r>
       <r>    -9.2500     2.5367     4.8901 </r>
       <r>    -9.2400     2.5386     4.9155 </r>
       <r>    -9.2300     2.5443     4.9410 </r>
       <r>    -9.2200     2.5546     4.9665 </r>
       <r>    -9.2100     2.5702     4.9922 </r>
       <r>    -9.2000     2.5914     5.0181 </r>
       <r>    -9.1900     2.6188     5.0443 </r>
       <r>    -9.1800     2.6525     5.0708 </r>
       <r>    -9.1700     2.6928     5.0978 </r>
       <r>    -9.1600     2.7396     5.1252 </r>
       <r>    -9.1500     2.7927     5.1531 </r>
       <r>    -9.1400     2.8520     5.1816 </r>
       <r>    -9.1300     2.9170     5.2108 </r>
       <r>    -9.1200     2.9872     5.2407 </r>
       <r>    -9.1100     3.0619     5.2713 </r>
       <r>    -9.1000     3.1404     5.3027 </r>
       <r>    -9.0900     3.2220     5.3349 </r>
       <r>    -9.0800     3.3056     5.3680 </r>
       <r>    -9.0700     3.3902     5.4019 </r>
       <r>    -9.0600     3.4750     5.4366 </r>
       <r>    -9.0500     3.5588     5.4722 </r>
       <r>    -9.0400     3.6406     5.5086 </r>
       <r>    -9.0300     3.7193     5.5458 </r>
       <r>    -9.0200     3.7939     5.5837 </r>
       <r>    -9.0100     3.8633     5.6224 </r>
       <r>    -9.0000     3.9266     5.6616 </r>
       <r>    -8.9900     3.9830     5.7015 </r>
       <r>    -8.9800     4.0315     5.7418 </r>
       <r>    -8.9700     4.0715     5.7825 </r>
       <r>    -8.9600     4.1022     5.8235 </r>
       <r>    -8.9500     4.1232     5.8647 </r>
       <r>    -8.9400     4.1339     5.9061 </r>
       <r>    -8.9300     4.1341     5.9474 </r>
       <r>    -8.9200     4.1233     5.9887 </r>
       <r>    -8.9100     4.1016     6.0297 </r>
       <r>    -8.9000     4.0689     6.0704 </r>
       <r>    -8.8900     4.0252     6.1106 </r>
       <r>    -8.8800     3.9707     6.1503 </r>
       <r>    -8.8700     3.9058     6.1894 </r>
       <r>    -8.8600     3.8308     6.2277 </r>
       <r>    -8.8500     3.7462     6.2652 </r>
       <r>    -8.8400     3.6525     6.3017 </r>
       <r>    -8.8300     3.5505     6.3372 </r>
       <r>    -8.8200     3.4409     6.3716 </r>
       <r>    -8.8100     3.3245     6.4048 </r>
       <r>    -8.8000     3.2021     6.4369 </r>
       <r>    -8.7900     3.0746     6.4676 </r>
       <r>    -8.7800     2.9430     6.4970 </r>
       <r>    -8.7700     2.8082     6.5251 </r>
       <r>    -8.7600     2.6714     6.5518 </r>
       <r>    -8.7500     2.5333     6.5772 </r>
       <r>    -8.7400     2.3951     6.6011 </r>
       <r>    -8.7300     2.2577     6.6237 </r>
       <r>    -8.7200     2.1220     6.6449 </r>
       <r>    -8.7100     1.9889     6.6648 </r>
       <r>    -8.7000     1.8593     6.6834 </r>
       <r>    -8.6900     1.7339     6.7007 </r>
       <r>    -8.6800     1.6134     6.7169 </r>
       <r>    -8.6700     1.4985     6.7318 </r>
       <r>    -8.6600     1.3897     6.7457 </r>
       <r>    -8.6500     1.2875     6.7586 </r>
       <r>    -8.6400     1.1922     6.7705 </r>
       <r>    -8.6300     1.1041     6.7816 </r>
       <r>    -8.6200     1.0233     6.7918 </r>
       <r>    -8.6100     0.9500     6.8013 </r>
       <r>    -8.6000     0.8842     6.8102 </r>
       <r>    -8.5900     0.8257     6.8184 </r>
       <r>    -8.5800     0.7745     6.8262 </r>
       <r>    -8.5700     0.7301     6.8335 </r>
       <r>    -8.5600     0.6924     6.8404 </r>
       <r>    -8.5500     0.6610     6.8470 </r>
       <r>    -8.5400     0.6353     6.8533 </r>
       <r>    -8.5300     0.6151     6.8595 </r>
       <r>    -8.5200     0.5997     6.8655 </r>
       <r>    -8.5100     0.5887     6.8714 </r>
       <r>    -8.5000     0.5815     6.8772 </r>
       <r>    -8.4900     0.5777     6.8830 </r>
       <r>    -8.4800     0.5767     6.8887 </r>
       <r>    -8.4700     0.5780     6.8945 </r>
       <r>    -8.4600     0.5812     6.9003 </r>
       <r>    -8.4500     0.5859     6.9062 </r>
       <r>    -8.4400     0.5917     6.9121 </r>
       <r>    -8.4300     0.5983     6.9181 </r>
       <r>    -8.4200     0.6056     6.9242 </r>
       <r>    -8.4100     0.6132     6.9303 </r>
       <r>    -8.4000     0.6211     6.9365 </r>
       <r>    -8.3900     0.6294     6.9428 </r>
       <r>    -8.3800     0.6379     6.9492 </r>
       <r>    -8.3700     0.6470     6.9556 </r>
       <r>    -8.3600     0.6567     6.9622 </r>
       <r>    -8.3500     0.6673     6.9689 </r>
       <r>    -8.3400     0.6791     6.9757 </r>
       <r>    -8.3300     0.6925     6.9826 </r>
       <r>    -8.3200     0.7079     6.9897 </r>
       <r>    -8.3100     0.7258     6.9969 </r>
       <r>    -8.3000     0.7466     7.0044 </r>
       <r>    -8.2900     0.7708     7.0121 </r>
       <r>    -8.2800     0.7988     7.0201 </r>
       <r>    -8.2700     0.8311     7.0284 </r>
       <r>    -8.2600     0.8682     7.0371 </r>
       <r>    -8.2500     0.9104     7.0462 </r>
       <r>    -8.2400     0.9581     7.0558 </r>
       <r>    -8.2300     1.0117     7.0659 </r>
       <r>    -8.2200     1.0713     7.0766 </r>
       <r>    -8.2100     1.1370     7.0880 </r>
       <r>    -8.2000     1.2091     7.1001 </r>
       <r>    -8.1900     1.2874     7.1129 </r>
       <r>    -8.1800     1.3720     7.1267 </r>
       <r>    -8.1700     1.4626     7.1413 </r>
       <r>    -8.1600     1.5591     7.1569 </r>
       <r>    -8.1500     1.6610     7.1735 </r>
       <r>    -8.1400     1.7680     7.1912 </r>
       <r>    -8.1300     1.8797     7.2100 </r>
       <r>    -8.1200     1.9955     7.2299 </r>
       <r>    -8.1100     2.1147     7.2511 </r>
       <r>    -8.1000     2.2368     7.2734 </r>
       <r>    -8.0900     2.3610     7.2970 </r>
       <r>    -8.0800     2.4866     7.3219 </r>
       <r>    -8.0700     2.6129     7.3480 </r>
       <r>    -8.0600     2.7391     7.3754 </r>
       <r>    -8.0500     2.8643     7.4041 </r>
       <r>    -8.0400     2.9878     7.4339 </r>
       <r>    -8.0300     3.1088     7.4650 </r>
       <r>    -8.0200     3.2265     7.4973 </r>
       <r>    -8.0100     3.3401     7.5307 </r>
       <r>    -8.0000     3.4489     7.5652 </r>
       <r>    -7.9900     3.5523     7.6007 </r>
       <r>    -7.9800     3.6494     7.6372 </r>
       <r>    -7.9700     3.7397     7.6746 </r>
       <r>    -7.9600     3.8227     7.7128 </r>
       <r>    -7.9500     3.8979     7.7518 </r>
       <r>    -7.9400     3.9647     7.7915 </r>
       <r>    -7.9300     4.0228     7.8317 </r>
       <r>    -7.9200     4.0720     7.8724 </r>
       <r>    -7.9100     4.1119     7.9135 </r>
       <r>    -7.9000     4.1426     7.9549 </r>
       <r>    -7.8900     4.1638     7.9966 </r>
       <r>    -7.8800     4.1757     8.0383 </r>
       <r>    -7.8700     4.1784     8.0801 </r>
       <r>    -7.8600     4.1720     8.1218 </r>
       <r>    -7.8500     4.1569     8.1634 </r>
       <r>    -7.8400     4.1333     8.2047 </r>
       <r>    -7.8300     4.1018     8.2458 </r>
       <r>    -7.8200     4.0629     8.2864 </r>
       <r>    -7.8100     4.0170     8.3266 </r>
       <r>    -7.8000     3.9648     8.3662 </r>
       <r>    -7.7900     3.9069     8.4053 </r>
       <r>    -7.7800     3.8439     8.4437 </r>
       <r>    -7.7700     3.7765     8.4815 </r>
       <r>    -7.7600     3.7054     8.5185 </r>
       <r>    -7.7500     3.6311     8.5549 </r>
       <r>    -7.7400     3.5544     8.5904 </r>
       <r>    -7.7300     3.4758     8.6252 </r>
       <r>    -7.7200     3.3957     8.6591 </r>
       <r>    -7.7100     3.3148     8.6923 </r>
       <r>    -7.7000     3.2334     8.7246 </r>
       <r>    -7.6900     3.1519     8.7561 </r>
       <r>    -7.6800     3.0706     8.7868 </r>
       <r>    -7.6700     2.9897     8.8167 </r>
       <r>    -7.6600     2.9095     8.8458 </r>
       <r>    -7.6500     2.8301     8.8741 </r>
       <r>    -7.6400     2.7516     8.9016 </r>
       <r>    -7.6300     2.6741     8.9284 </r>
       <r>    -7.6200     2.5978     8.9543 </r>
       <r>    -7.6100     2.5226     8.9796 </r>
       <r>    -7.6000     2.4486     9.0041 </r>
       <r>    -7.5900     2.3760     9.0278 </r>
       <r>    -7.5800     2.3049     9.0509 </r>
       <r>    -7.5700     2.2355     9.0732 </r>
       <r>    -7.5600     2.1680     9.0949 </r>
       <r>    -7.5500     2.1028     9.1159 </r>
       <r>    -7.5400     2.0402     9.1363 </r>
       <r>    -7.5300     1.9807     9.1561 </r>
       <r>    -7.5200     1.9247     9.1754 </r>
       <r>    -7.5100     1.8730     9.1941 </r>
       <r>    -7.5000     1.8262     9.2124 </r>
       <r>    -7.4900     1.7848     9.2302 </r>
       <r>    -7.4800     1.7498     9.2477 </r>
       <r>    -7.4700     1.7219     9.2649 </r>
       <r>    -7.4600     1.7019     9.2820 </r>
       <r>    -7.4500     1.6905     9.2989 </r>
       <r>    -7.4400     1.6886     9.3158 </r>
       <r>    -7.4300     1.6967     9.3327 </r>
       <r>    -7.4200     1.7157     9.3499 </r>
       <r>    -7.4100     1.7460     9.3673 </r>
       <r>    -7.4000     1.7881     9.3852 </r>
       <r>    -7.3900     1.8422     9.4036 </r>
       <r>    -7.3800     1.9086     9.4227 </r>
       <r>    -7.3700     1.9873     9.4426 </r>
       <r>    -7.3600     2.0781     9.4634 </r>
       <r>    -7.3500     2.1807     9.4852 </r>
       <r>    -7.3400     2.2944     9.5081 </r>
       <r>    -7.3300     2.4187     9.5323 </r>
       <r>    -7.3200     2.5526     9.5578 </r>
       <r>    -7.3100     2.6949     9.5848 </r>
       <r>    -7.3000     2.8445     9.6132 </r>
       <r>    -7.2900     2.9999     9.6432 </r>
       <r>    -7.2800     3.1596     9.6748 </r>
       <r>    -7.2700     3.3219     9.7081 </r>
       <r>    -7.2600     3.4852     9.7429 </r>
       <r>    -7.2500     3.6475     9.7794 </r>
       <r>    -7.2400     3.8071     9.8175 </r>
       <r>    -7.2300     3.9622     9.8571 </r>
       <r>    -7.2200     4.1111     9.8982 </r>
       <r>    -7.2100     4.2519     9.9407 </r>
       <r>    -7.2000     4.3832     9.9845 </r>
       <r>    -7.1900     4.5035    10.0296 </r>
       <r>    -7.1800     4.6114    10.0757 </r>
       <r>    -7.1700     4.7058    10.1227 </r>
       <r>    -7.1600     4.7858    10.1706 </r>
       <r>    -7.1500     4.8506    10.2191 </r>
       <r>    -7.1400     4.8996    10.2681 </r>
       <r>    -7.1300     4.9326    10.3174 </r>
       <r>    -7.1200     4.9493    10.3669 </r>
       <r>    -7.1100     4.9500    10.4164 </r>
       <r>    -7.1000     4.9349    10.4658 </r>
       <r>    -7.0900     4.9043    10.5148 </r>
       <r>    -7.0800     4.8591    10.5634 </r>
       <r>    -7.0700     4.7998    10.6114 </r>
       <r>    -7.0600     4.7275    10.6587 </r>
       <r>    -7.0500     4.6431    10.7051 </r>
       <r>    -7.0400     4.5477    10.7506 </r>
       <r>    -7.0300     4.4425    10.7950 </r>
       <r>    -7.0200     4.3285    10.8383 </r>
       <r>    -7.0100     4.2070    10.8804 </r>
       <r>    -7.0000     4.0792    10.9212 </r>
       <r>    -6.9900     3.9463    10.9606 </r>
       <r>    -6.9800     3.8094    10.9987 </r>
       <r>    -6.9700     3.6697    11.0354 </r>
       <r>    -6.9600     3.5283    11.0707 </r>
       <r>    -6.9500     3.3862    11.1046 </r>
       <r>    -6.9400     3.2443    11.1370 </r>
       <r>    -6.9300     3.1037    11.1680 </r>
       <r>    -6.9200     2.9652    11.1977 </r>
       <r>    -6.9100     2.8296    11.2260 </r>
       <r>    -6.9000     2.6977    11.2530 </r>
       <r>    -6.8900     2.5703    11.2787 </r>
       <r>    -6.8800     2.4478    11.3031 </r>
       <r>    -6.8700     2.3311    11.3265 </r>
       <r>    -6.8600     2.2205    11.3487 </r>
       <r>    -6.8500     2.1166    11.3698 </r>
       <r>    -6.8400     2.0198    11.3900 </r>
       <r>    -6.8300     1.9304    11.4093 </r>
       <r>    -6.8200     1.8488    11.4278 </r>
       <r>    -6.8100     1.7751    11.4456 </r>
       <r>    -6.8000     1.7096    11.4627 </r>
       <r>    -6.7900     1.6522    11.4792 </r>
       <r>    -6.7800     1.6030    11.4952 </r>
       <r>    -6.7700     1.5620    11.5108 </r>
       <r>    -6.7600     1.5289    11.5261 </r>
       <r>    -6.7500     1.5035    11.5412 </r>
       <r>    -6.7400     1.4856    11.5560 </r>
       <r>    -6.7300     1.4748    11.5708 </r>
       <r>    -6.7200     1.4706    11.5855 </r>
       <r>    -6.7100     1.4725    11.6002 </r>
       <r>    -6.7000     1.4800    11.6150 </r>
       <r>    -6.6900     1.4925    11.6299 </r>
       <r>    -6.6800     1.5094    11.6450 </r>
       <r>    -6.6700     1.5299    11.6603 </r>
       <r>    -6.6600     1.5534    11.6758 </r>
       <r>    -6.6500     1.5792    11.6916 </r>
       <r>    -6.6400     1.6066    11.7077 </r>
       <r>    -6.6300     1.6349    11.7241 </r>
       <r>    -6.6200     1.6635    11.7407 </r>
       <r>    -6.6100     1.6916    11.7576 </r>
       <r>    -6.6000     1.7187    11.7748 </r>
       <r>    -6.5900     1.7442    11.7922 </r>
       <r>    -6.5800     1.7676    11.8099 </r>
       <r>    -6.5700     1.7883    11.8278 </r>
       <r>    -6.5600     1.8061    11.8459 </r>
       <r>    -6.5500     1.8204    11.8641 </r>
       <r>    -6.5400     1.8311    11.8824 </r>
       <r>    -6.5300     1.8378    11.9008 </r>
       <r>    -6.5200     1.8404    11.9192 </r>
       <r>    -6.5100     1.8387    11.9375 </r>
       <r>    -6.5000     1.8327    11.9559 </r>
       <r>    -6.4900     1.8224    11.9741 </r>
       <r>    -6.4800     1.8078    11.9922 </r>
       <r>    -6.4700     1.7890    12.0101 </r>
       <r>    -6.4600     1.7662    12.0277 </r>
       <r>    -6.4500     1.7396    12.0451 </r>
       <r>    -6.4400     1.7094    12.0622 </r>
       <r>    -6.4300     1.6759    12.0790 </r>
       <r>    -6.4200     1.6395    12.0954 </r>
       <r>    -6.4100     1.6006    12.1114 </r>
       <r>    -6.4000     1.5595    12.1270 </r>
       <r>    -6.3900     1.5168    12.1421 </r>
       <r>    -6.3800     1.4729    12.1569 </r>
       <r>    -6.3700     1.4284    12.1712 </r>
       <r>    -6.3600     1.3839    12.1850 </r>
       <r>    -6.3500     1.3400    12.1984 </r>
       <r>    -6.3400     1.2972    12.2114 </r>
       <r>    -6.3300     1.2563    12.2239 </r>
       <r>    -6.3200     1.2179    12.2361 </r>
       <r>    -6.3100     1.1827    12.2479 </r>
       <r>    -6.3000     1.1514    12.2594 </r>
       <r>    -6.2900     1.1246    12.2707 </r>
       <r>    -6.2800     1.1031    12.2817 </r>
       <r>    -6.2700     1.0875    12.2926 </r>
       <r>    -6.2600     1.0784    12.3034 </r>
       <r>    -6.2500     1.0766    12.3141 </r>
       <r>    -6.2400     1.0824    12.3250 </r>
       <r>    -6.2300     1.0966    12.3359 </r>
       <r>    -6.2200     1.1194    12.3471 </r>
       <r>    -6.2100     1.1515    12.3586 </r>
       <r>    -6.2000     1.1929    12.3706 </r>
       <r>    -6.1900     1.2442    12.3830 </r>
       <r>    -6.1800     1.3053    12.3961 </r>
       <r>    -6.1700     1.3764    12.4098 </r>
       <r>    -6.1600     1.4574    12.4244 </r>
       <r>    -6.1500     1.5483    12.4399 </r>
       <r>    -6.1400     1.6488    12.4564 </r>
       <r>    -6.1300     1.7585    12.4740 </r>
       <r>    -6.1200     1.8770    12.4927 </r>
       <r>    -6.1100     2.0038    12.5128 </r>
       <r>    -6.1000     2.1382    12.5342 </r>
       <r>    -6.0900     2.2796    12.5570 </r>
       <r>    -6.0800     2.4270    12.5812 </r>
       <r>    -6.0700     2.5796    12.6070 </r>
       <r>    -6.0600     2.7364    12.6344 </r>
       <r>    -6.0500     2.8964    12.6633 </r>
       <r>    -6.0400     3.0585    12.6939 </r>
       <r>    -6.0300     3.2215    12.7261 </r>
       <r>    -6.0200     3.3844    12.7600 </r>
       <r>    -6.0100     3.5458    12.7954 </r>
       <r>    -6.0000     3.7048    12.8325 </r>
       <r>    -5.9900     3.8601    12.8711 </r>
       <r>    -5.9800     4.0105    12.9112 </r>
       <r>    -5.9700     4.1551    12.9528 </r>
       <r>    -5.9600     4.2926    12.9957 </r>
       <r>    -5.9500     4.4222    13.0399 </r>
       <r>    -5.9400     4.5429    13.0853 </r>
       <r>    -5.9300     4.6538    13.1319 </r>
       <r>    -5.9200     4.7541    13.1794 </r>
       <r>    -5.9100     4.8431    13.2278 </r>
       <r>    -5.9000     4.9202    13.2770 </r>
       <r>    -5.8900     4.9849    13.3269 </r>
       <r>    -5.8800     5.0368    13.3773 </r>
       <r>    -5.8700     5.0755    13.4280 </r>
       <r>    -5.8600     5.1008    13.4790 </r>
       <r>    -5.8500     5.1126    13.5301 </r>
       <r>    -5.8400     5.1109    13.5813 </r>
       <r>    -5.8300     5.0957    13.6322 </r>
       <r>    -5.8200     5.0673    13.6829 </r>
       <r>    -5.8100     5.0258    13.7331 </r>
       <r>    -5.8000     4.9717    13.7829 </r>
       <r>    -5.7900     4.9054    13.8319 </r>
       <r>    -5.7800     4.8275    13.8802 </r>
       <r>    -5.7700     4.7386    13.9276 </r>
       <r>    -5.7600     4.6395    13.9740 </r>
       <r>    -5.7500     4.5309    14.0193 </r>
       <r>    -5.7400     4.4137    14.0634 </r>
       <r>    -5.7300     4.2888    14.1063 </r>
       <r>    -5.7200     4.1573    14.1479 </r>
       <r>    -5.7100     4.0200    14.1881 </r>
       <r>    -5.7000     3.8782    14.2269 </r>
       <r>    -5.6900     3.7328    14.2642 </r>
       <r>    -5.6800     3.5851    14.3000 </r>
       <r>    -5.6700     3.4360    14.3344 </r>
       <r>    -5.6600     3.2869    14.3673 </r>
       <r>    -5.6500     3.1387    14.3987 </r>
       <r>    -5.6400     2.9925    14.4286 </r>
       <r>    -5.6300     2.8495    14.4571 </r>
       <r>    -5.6200     2.7106    14.4842 </r>
       <r>    -5.6100     2.5767    14.5099 </r>
       <r>    -5.6000     2.4489    14.5344 </r>
       <r>    -5.5900     2.3280    14.5577 </r>
       <r>    -5.5800     2.2146    14.5799 </r>
       <r>    -5.5700     2.1096    14.6010 </r>
       <r>    -5.5600     2.0134    14.6211 </r>
       <r>    -5.5500     1.9266    14.6404 </r>
       <r>    -5.5400     1.8496    14.6589 </r>
       <r>    -5.5300     1.7826    14.6767 </r>
       <r>    -5.5200     1.7259    14.6939 </r>
       <r>    -5.5100     1.6794    14.7107 </r>
       <r>    -5.5000     1.6433    14.7272 </r>
       <r>    -5.4900     1.6172    14.7433 </r>
       <r>    -5.4800     1.6010    14.7594 </r>
       <r>    -5.4700     1.5944    14.7753 </r>
       <r>    -5.4600     1.5967    14.7913 </r>
       <r>    -5.4500     1.6076    14.8073 </r>
       <r>    -5.4400     1.6262    14.8236 </r>
       <r>    -5.4300     1.6520    14.8401 </r>
       <r>    -5.4200     1.6840    14.8570 </r>
       <r>    -5.4100     1.7215    14.8742 </r>
       <r>    -5.4000     1.7635    14.8918 </r>
       <r>    -5.3900     1.8092    14.9099 </r>
       <r>    -5.3800     1.8574    14.9285 </r>
       <r>    -5.3700     1.9074    14.9475 </r>
       <r>    -5.3600     1.9581    14.9671 </r>
       <r>    -5.3500     2.0086    14.9872 </r>
       <r>    -5.3400     2.0582    15.0078 </r>
       <r>    -5.3300     2.1060    15.0289 </r>
       <r>    -5.3200     2.1512    15.0504 </r>
       <r>    -5.3100     2.1933    15.0723 </r>
       <r>    -5.3000     2.2317    15.0946 </r>
       <r>    -5.2900     2.2661    15.1173 </r>
       <r>    -5.2800     2.2960    15.1402 </r>
       <r>    -5.2700     2.3214    15.1635 </r>
       <r>    -5.2600     2.3422    15.1869 </r>
       <r>    -5.2500     2.3584    15.2105 </r>
       <r>    -5.2400     2.3702    15.2342 </r>
       <r>    -5.2300     2.3779    15.2579 </r>
       <r>    -5.2200     2.3819    15.2818 </r>
       <r>    -5.2100     2.3826    15.3056 </r>
       <r>    -5.2000     2.3805    15.3294 </r>
       <r>    -5.1900     2.3762    15.3532 </r>
       <r>    -5.1800     2.3704    15.3769 </r>
       <r>    -5.1700     2.3636    15.4005 </r>
       <r>    -5.1600     2.3566    15.4241 </r>
       <r>    -5.1500     2.3500    15.4476 </r>
       <r>    -5.1400     2.3443    15.4710 </r>
       <r>    -5.1300     2.3401    15.4944 </r>
       <r>    -5.1200     2.3380    15.5178 </r>
       <r>    -5.1100     2.3384    15.5412 </r>
       <r>    -5.1000     2.3415    15.5646 </r>
       <r>    -5.0900     2.3479    15.5881 </r>
       <r>    -5.0800     2.3575    15.6116 </r>
       <r>    -5.0700     2.3705    15.6353 </r>
       <r>    -5.0600     2.3870    15.6592 </r>
       <r>    -5.0500     2.4068    15.6833 </r>
       <r>    -5.0400     2.4297    15.7076 </r>
       <r>    -5.0300     2.4556    15.7321 </r>
       <r>    -5.0200     2.4840    15.7570 </r>
       <r>    -5.0100     2.5146    15.7821 </r>
       <r>    -5.0000     2.5469    15.8076 </r>
       <r>    -4.9900     2.5806    15.8334 </r>
       <r>    -4.9800     2.6149    15.8595 </r>
       <r>    -4.9700     2.6494    15.8860 </r>
       <r>    -4.9600     2.6836    15.9129 </r>
       <r>    -4.9500     2.7170    15.9400 </r>
       <r>    -4.9400     2.7489    15.9675 </r>
       <r>    -4.9300     2.7789    15.9953 </r>
       <r>    -4.9200     2.8066    16.0234 </r>
       <r>    -4.9100     2.8315    16.0517 </r>
       <r>    -4.9000     2.8533    16.0802 </r>
       <r>    -4.8900     2.8718    16.1090 </r>
       <r>    -4.8800     2.8868    16.1378 </r>
       <r>    -4.8700     2.8980    16.1668 </r>
       <r>    -4.8600     2.9055    16.1959 </r>
       <r>    -4.8500     2.9094    16.2250 </r>
       <r>    -4.8400     2.9096    16.2540 </r>
       <r>    -4.8300     2.9064    16.2831 </r>
       <r>    -4.8200     2.9001    16.3121 </r>
       <r>    -4.8100     2.8909    16.3410 </r>
       <r>    -4.8000     2.8793    16.3698 </r>
       <r>    -4.7900     2.8657    16.3985 </r>
       <r>    -4.7800     2.8506    16.4270 </r>
       <r>    -4.7700     2.8343    16.4553 </r>
       <r>    -4.7600     2.8176    16.4835 </r>
       <r>    -4.7500     2.8007    16.5115 </r>
       <r>    -4.7400     2.7843    16.5393 </r>
       <r>    -4.7300     2.7688    16.5670 </r>
       <r>    -4.7200     2.7545    16.5946 </r>
       <r>    -4.7100     2.7418    16.6220 </r>
       <r>    -4.7000     2.7311    16.6493 </r>
       <r>    -4.6900     2.7224    16.6765 </r>
       <r>    -4.6800     2.7159    16.7037 </r>
       <r>    -4.6700     2.7116    16.7308 </r>
       <r>    -4.6600     2.7095    16.7579 </r>
       <r>    -4.6500     2.7092    16.7850 </r>
       <r>    -4.6400     2.7106    16.8121 </r>
       <r>    -4.6300     2.7133    16.8392 </r>
       <r>    -4.6200     2.7167    16.8664 </r>
       <r>    -4.6100     2.7204    16.8936 </r>
       <r>    -4.6000     2.7237    16.9208 </r>
       <r>    -4.5900     2.7261    16.9481 </r>
       <r>    -4.5800     2.7267    16.9754 </r>
       <r>    -4.5700     2.7251    17.0026 </r>
       <r>    -4.5600     2.7204    17.0298 </r>
       <r>    -4.5500     2.7121    17.0569 </r>
       <r>    -4.5400     2.6996    17.0839 </r>
       <r>    -4.5300     2.6825    17.1108 </r>
       <r>    -4.5200     2.6603    17.1374 </r>
       <r>    -4.5100     2.6327    17.1637 </r>
       <r>    -4.5000     2.5996    17.1897 </r>
       <r>    -4.4900     2.5609    17.2153 </r>
       <r>    -4.4800     2.5167    17.2405 </r>
       <r>    -4.4700     2.4673    17.2651 </r>
       <r>    -4.4600     2.4129    17.2893 </r>
       <r>    -4.4500     2.3540    17.3128 </r>
       <r>    -4.4400     2.2913    17.3357 </r>
       <r>    -4.4300     2.2253    17.3580 </r>
       <r>    -4.4200     2.1569    17.3795 </r>
       <r>    -4.4100     2.0868    17.4004 </r>
       <r>    -4.4000     2.0159    17.4206 </r>
       <r>    -4.3900     1.9451    17.4400 </r>
       <r>    -4.3800     1.8752    17.4588 </r>
       <r>    -4.3700     1.8070    17.4768 </r>
       <r>    -4.3600     1.7413    17.4943 </r>
       <r>    -4.3500     1.6788    17.5110 </r>
       <r>    -4.3400     1.6201    17.5272 </r>
       <r>    -4.3300     1.5657    17.5429 </r>
       <r>    -4.3200     1.5159    17.5581 </r>
       <r>    -4.3100     1.4712    17.5728 </r>
       <r>    -4.3000     1.4315    17.5871 </r>
       <r>    -4.2900     1.3969    17.6011 </r>
       <r>    -4.2800     1.3673    17.6147 </r>
       <r>    -4.2700     1.3424    17.6282 </r>
       <r>    -4.2600     1.3220    17.6414 </r>
       <r>    -4.2500     1.3054    17.6544 </r>
       <r>    -4.2400     1.2923    17.6674 </r>
       <r>    -4.2300     1.2819    17.6802 </r>
       <r>    -4.2200     1.2738    17.6929 </r>
       <r>    -4.2100     1.2672    17.7056 </r>
       <r>    -4.2000     1.2613    17.7182 </r>
       <r>    -4.1900     1.2557    17.7308 </r>
       <r>    -4.1800     1.2495    17.7432 </r>
       <r>    -4.1700     1.2423    17.7557 </r>
       <r>    -4.1600     1.2334    17.7680 </r>
       <r>    -4.1500     1.2223    17.7802 </r>
       <r>    -4.1400     1.2088    17.7923 </r>
       <r>    -4.1300     1.1923    17.8042 </r>
       <r>    -4.1200     1.1728    17.8160 </r>
       <r>    -4.1100     1.1501    17.8275 </r>
       <r>    -4.1000     1.1241    17.8387 </r>
       <r>    -4.0900     1.0948    17.8497 </r>
       <r>    -4.0800     1.0623    17.8603 </r>
       <r>    -4.0700     1.0269    17.8705 </r>
       <r>    -4.0600     0.9888    17.8804 </r>
       <r>    -4.0500     0.9483    17.8899 </r>
       <r>    -4.0400     0.9058    17.8990 </r>
       <r>    -4.0300     0.8615    17.9076 </r>
       <r>    -4.0200     0.8160    17.9158 </r>
       <r>    -4.0100     0.7696    17.9234 </r>
       <r>    -4.0000     0.7228    17.9307 </r>
       <r>    -3.9900     0.6759    17.9374 </r>
       <r>    -3.9800     0.6294    17.9437 </r>
       <r>    -3.9700     0.5835    17.9496 </r>
       <r>    -3.9600     0.5386    17.9549 </r>
       <r>    -3.9500     0.4951    17.9599 </r>
       <r>    -3.9400     0.4532    17.9644 </r>
       <r>    -3.9300     0.4130    17.9686 </r>
       <r>    -3.9200     0.3748    17.9723 </r>
       <r>    -3.9100     0.3387    17.9757 </r>
       <r>    -3.9000     0.3048    17.9787 </r>
       <r>    -3.8900     0.2731    17.9815 </r>
       <r>    -3.8800     0.2437    17.9839 </r>
       <r>    -3.8700     0.2166    17.9861 </r>
       <r>    -3.8600     0.1917    17.9880 </r>
       <r>    -3.8500     0.1689    17.9897 </r>
       <r>    -3.8400     0.1483    17.9912 </r>
       <r>    -3.8300     0.1296    17.9925 </r>
       <r>    -3.8200     0.1129    17.9936 </r>
       <r>    -3.8100     0.0979    17.9946 </r>
       <r>    -3.8000     0.0846    17.9954 </r>
       <r>    -3.7900     0.0728    17.9961 </r>
       <r>    -3.7800     0.0624    17.9968 </r>
       <r>    -3.7700     0.0532    17.9973 </r>
       <r>    -3.7600     0.0453    17.9978 </r>
       <r>    -3.7500     0.0383    17.9981 </r>
       <r>    -3.7400     0.0323    17.9985 </r>
       <r>    -3.7300     0.0272    17.9987 </r>
       <r>    -3.7200     0.0228    17.9990 </r>
       <r>    -3.7100     0.0190    17.9991 </r>
       <r>    -3.7000     0.0158    17.9993 </r>
       <r>    -3.6900     0.0131    17.9994 </r>
       <r>    -3.6800     0.0108    17.9995 </r>
       <r>    -3.6700     0.0088    17.9996 </r>
       <r>    -3.6600     0.0072    17.9997 </r>
       <r>    -3.6500     0.0059    17.9998 </r>
       <r>    -3.6400     0.0048    17.9998 </r>
       <r>    -3.6300     0.0039    17.9999 </r>
       <r>    -3.6200     0.0031    17.9999 </r>
       <r>    -3.6100     0.0025    17.9999 </r>
       <r>    -3.6000     0.0020    17.9999 </r>
       <r>    -3.5900     0.0016    17.9999 </r>
       <r>    -3.5800     0.0013    18.0000 </r>
       <r>    -3.5700     0.0010    18.0000 </r>
       <r>    -3.5600     0.0008    18.0000 </r>
       <r>    -3.5500     0.0006    18.0000 </r>
       <r>    -3.5400     0.0005    18.0000 </r>
       <r>    -3.5300     0.0004    18.0000 </r>
       <r>    -3.5200     0.0003    18.0000 </r>
       <r>    -3.5100     0.0002    18.0000 </r>
       <r>    -3.5000     0.0002    18.0000 </r>
       <r>    -3.4900     0.0001    18.0000 </r>
       <r>    -3.4800     0.0001    18.0000 </r>
       <r>    -3.4700     0.0001    18.0000 </r>
       <r>    -3.4600     0.0001    18.0000 </r>
       <r>    -3.4500     0.0000    18.0000 </r>
       <r>    -3.4400     0.0000    18.0000 </r>
       <r>    -3.4300     0.0000    18.0000 </r>
       <r>    -3.4200     0.0000    18.0000 </r>
       <r>    -3.4100     0.0000    18.0000 </r>
       <r>    -3.4000     0.0000    18.0000 </r>
       <r>    -3.3900     0.0000    18.0000 </r>
       <r>    -3.3800     0.0000    18.0000 </r>
       <r>    -3.3700     0.0000    18.0000 </r>
       <r>    -3.3600     0.0000    18.0000 </r>
       <r>    -3.3500     0.0000    18.0000 </r>
       <r>    -3.3400     0.0000    18.0000 </r>
       <r>    -3.3300     0.0000    18.0000 </r>
       <r>    -3.3200     0.0000    18.0000 </r>
       <r>    -3.3100     0.0000    18.0000 </r>
       <r>    -3.3000     0.0000    18.0000 </r>
       <r>    -3.2900     0.0000    18.0000 </r>
       <r>    -3.2800     0.0000    18.0000 </r>
       <r>    -3.2700     0.0000    18.0000 </r>
       <r>    -3.2600     0.0000    18.0000 </r>
       <r>    -3.2500     0.0000    18.0000 </r>
       <r>    -3.2400     0.0000    18.0000 </r>
       <r>    -3.2300     0.0000    18.0000 </r>
       <r>    -3.2200     0.0000    18.0000 </r>
       <r>    -3.2100     0.0000    18.0000 </r>
       <r>    -3.2000     0.0000    18.0000 </r>
       <r>    -3.1900     0.0000    18.0000 </r>
       <r>    -3.1800     0.0000    18.0000 </r>
       <r>    -3.1700     0.0000    18.0000 </r>
       <r>    -3.1600     0.0000    18.0000 </r>
       <r>    -3.1500     0.0000    18.0000 </r>
       <r>    -3.1400     0.0000    18.0000 </r>
       <r>    -3.1300     0.0000    18.0000 </r>
       <r>    -3.1200     0.0000    18.0000 </r>
       <r>    -3.1100     0.0000    18.0000 </r>
       <r>    -3.1000     0.0000    18.0000 </r>
       <r>    -3.0900     0.0000    18.0000 </r>
       <r>    -3.0800     0.0000    18.0000 </r>
       <r>    -3.0700     0.0000    18.0000 </r>
       <r>    -3.0600     0.0000    18.0000 </r>
       <r>    -3.0500     0.0000    18.0000 </r>
       <r>    -3.0400     0.0000    18.0000 </r>
       <r>    -3.0300     0.0000    18.0000 </r>
       <r>    -3.0200     0.0000    18.0000 </r>
       <r>    -3.0100     0.0000    18.0000 </r>
       <r>    -3.0000     0.0000    18.0000 </r>
       <r>    -2.9900     0.0000    18.0000 </r>
       <r>    -2.9800     0.0000    18.0000 </r>
       <r>    -2.9700     0.0000    18.0000 </r>
       <r>    -2.9600     0.0000    18.0000 </r>
       <r>    -2.9500     0.0000    18.0000 </r>
       <r>    -2.9400     0.0000    18.0000 </r>
       <r>    -2.9300     0.0000    18.0000 </r>
       <r>    -2.9200     0.0000    18.0000 </r>
       <r>    -2.9100     0.0000    18.0000 </r>
       <r>    -2.9000     0.0000    18.0000 </r>
       <r>    -2.8900     0.0000    18.0000 </r>
       <r>    -2.8800     0.0000    18.0000 </r>
       <r>    -2.8700     0.0000    18.0000 </r>
       <r>    -2.8600     0.0000    18.0000 </r>
       <r>    -2.8500     0.0000    18.0000 </r>
       <r>    -2.8400     0.0000    18.0000 </r>
       <r>    -2.8300     0.0000    18.0000 </r>
       <r>    -2.8200     0.0000    18.0000 </r>
       <r>    -2.8100     0.0000    18.0000 </r>
       <r>    -2.8000     0.0000    18.0000 </r>
       <r>    -2.7900     0.0001    18.0000 </r>
       <r>    -2.7800     0.0001    18.0000 </r>
       <r>    -2.7700     0.0001    18.0000 </r>
       <r>    -2.7600     0.0001    18.0000 </r>
       <r>    -2.7500     0.0002    18.0000 </r>
       <r>    -2.7400     0.0002    18.0000 </r>
       <r>    -2.7300     0.0003    18.0000 </r>
       <r>    -2.7200     0.0004    18.0000 </r>
       <r>    -2.7100     0.0006    18.0000 </r>
       <r>    -2.7000     0.0007    18.0000 </r>
       <r>    -2.6900     0.0009    18.0000 </r>
       <r>    -2.6800     0.0012    18.0001 </r>
       <r>    -2.6700     0.0015    18.0001 </r>
       <r>    -2.6600     0.0019    18.0001 </r>
       <r>    -2.6500     0.0025    18.0001 </r>
       <r>    -2.6400     0.0031    18.0001 </r>
       <r>    -2.6300     0.0039    18.0002 </r>
       <r>    -2.6200     0.0048    18.0002 </r>
       <r>    -2.6100     0.0060    18.0003 </r>
       <r>    -2.6000     0.0074    18.0004 </r>
       <r>    -2.5900     0.0091    18.0005 </r>
       <r>    -2.5800     0.0112    18.0006 </r>
       <r>    -2.5700     0.0136    18.0007 </r>
       <r>    -2.5600     0.0165    18.0009 </r>
       <r>    -2.5500     0.0198    18.0011 </r>
       <r>    -2.5400     0.0238    18.0013 </r>
       <r>    -2.5300     0.0285    18.0016 </r>
       <r>    -2.5200     0.0338    18.0019 </r>
[...]
        <r>  0.0072  0.0713  0.0134  0.0405  0.0000  0.0000  0.0000  0.0000  0.0000 </r>
        <r>  0.0072  0.0713  0.0134  0.0405  0.0000  0.0000  0.0000  0.0000  0.0000 </r>
       </set>
       <set comment="band 11">
        <r>  0.0059  0.0061  0.0000  0.0055  0.2851  0.0000  0.0990  0.0000  0.1012 </r>
        <r>  0.0007  0.0397  0.0049  0.0956  0.0000  0.0000  0.0000  0.0000  0.0000 </r>
        <r>  0.0007  0.0397  0.0049  0.0956  0.0000  0.0000  0.0000  0.0000  0.0000 </r>
       </set>
       <set comment="band 12">
        <r>  0.0000  0.0000  0.0002  0.0000  0.0000  0.2432  0.0000  0.3034  0.0000 </r>
        <r>  0.0257  0.0395  0.0135  0.0145  0.0000  0.0000  0.0000  0.0000  0.0000 </r>
        <r>  0.0257  0.0396  0.0135  0.0145  0.0000  0.0000  0.0000  0.0000  0.0000 </r>
       </set>
       <set comment="band 13">
        <r>  0.0000  0.0000  0.0027  0.0000  0.0000  0.2525  0.0000  0.1916  0.0000 </r>
        <r>  0.0025  0.0406  0.0086  0.1196  0.0000  0.0000  0.0000  0.0000  0.0000 </r>
        <r>  0.0025  0.0406  0.0086  0.1196  0.0000  0.0000  0.0000  0.0000  0.0000 </r>
       </set>
       <set comment="band 14">
        <r>  0.0074  0.0037  0.0000  0.0018  0.0014  0.0002  0.0203  0.0001  0.0034 </r>
        <r>  0.0078  0.0060  0.0095  0.0022  0.0000  0.0000  0.0000  0.0000  0.0000 </r>
        <r>  0.0058  0.0045  0.0016  0.0016  0.0000  0.0000  0.0000  0.0000  0.0000 </r>
       </set>
      </set>
      <set comment="kpoint 7">
       <set comment="band 1">
        <r>  0.0576  0.0184  0.0000  0.0166  0.0142  0.0000  0.0008  0.0000  0.0116 </r>
        <r>  0.3024  0.0013  0.0053  0.0010  0.0000  0.0000  0.0000  0.0000  0.0000 </r>
        <r>  0.3024  0.0013  0.0053  0.0010  0.0000  0.0000  0.0000  0.0000  0.0000 </r>
       </set>
       <set comment="band 2">
        <r>  0.0000  0.0000  0.0239  0.0000  0.0000  0.0400  0.0000  0.0372  0.0000 </r>
        <r>  0.3250  0.0007  0.0018  0.0006  0.0000  0.0000  0.0000  0.0000  0.0000 </r>
        <r>  0.3250  0.0007  0.0018  0.0006  0.0000  0.0000  0.0000  0.0000  0.0000 </r>
       </set>
       <set comment="band 3">
        <r>  0.0219  0.0058  0.0000  0.0251  0.1216  0.0000  0.0657  0.0000  0.1287 </r>
        <r>  0.0017  0.0523  0.0478  0.0482  0.0000  0.0000  0.0000  0.0000  0.0000 </r>
        <r>  0.0017  0.0523  0.0478  0.0482  0.0000  0.0000  0.0000  0.0000  0.0000 </r>
       </set>
       <set comment="band 4">
        <r>  0.0000  0.0000  0.0208  0.0000  0.0000  0.0062  0.0000  0.2846  0.0000 </r>
        <r>  0.0062  0.0662  0.0150  0.0979  0.0000  0.0000  0.0000  0.0000  0.0000 </r>
        <r>  0.0062  0.0662  0.0150  0.0979  0.0000  0.0000  0.0000  0.0000  0.0000 </r>
       </set>
       <set comment="band 5">
        <r>  0.1216  0.0191  0.0000  0.0235  0.0287  0.0000  0.0522  0.0000  0.0057 </r>
        <r>  0.0328  0.0238  0.1106  0.0311  0.0000  0.0000  0.0000  0.0000  0.0000 </r>
        <r>  0.0328  0.0238  0.1106  0.0311  0.0000  0.0000  0.0000  0.0000  0.0000 </r>
       </set>
       <set comment="band 6">
        <r>  0.0000  0.0000  0.0056  0.0000  0.0000  0.3935  0.0000  0.0047  0.0000 </r>
        <r>  0.0029  0.0868  0.0506  0.0342  0.0000  0.0000  0.0000  0.0000  0.0000 </r>
        <r>  0.0029  0.0869  0.0506  0.0342  0.0000  0.0000  0.0000  0.0000  0.0000 </r>
       </set>
       <set comment="band 7">
        <r>  0.0135  0.0434  0.0000  0.0225  0.0265  0.0000  0.1134  0.0000  0.1178 </r>
        <r>  0.0016  0.0793  0.0035  0.0967  0.0000  0.0000  0.0000  0.0000  0.0000 </r>
        <r>  0.0016  0.0793  0.0035  0.0967  0.0000  0.0000  0.0000  0.0000  0.0000 </r>
       </set>
       <set comment="band 8">
        <r>  0.0000  0.0000  0.0647  0.0000  0.0000  0.0064  0.0000  0.0674  0.0000 </r>
        <r>  0.0087  0.0383  0.1533  0.0651  0.0000  0.0000  0.0000  0.0000  0.0000 </r>
        <r>  0.0087  0.0383  0.1533  0.0651  0.0000  0.0000  0.0000  0.0000  0.0000 </r>
       </set>
       <set comment="band 9">
        <r>  0.0025  0.0077  0.0000  0.0016  0.2466  0.0000  0.2342  0.0000  0.1593 </r>
        <r>  0.0043  0.0375  0.0216  0.0219  0.0000  0.0000  0.0000  0.0000  0.0000 </r>
        <r>  0.0043  0.0375  0.0216  0.0219  0.0000  0.0000  0.0000  0.0000  0.0000 </r>
       </set>
       <set comment="band 10">
        <r>  0.0080  0.0088  0.0000  0.0051  0.1225  0.0000  0.0882  0.0000  0.3459 </r>
        <r>  0.0034  0.0444  0.0233  0.0137  0.0000  0.0000  0.0000  0.0000  0.0000 </r>
        <r>  0.0034  0.0444  0.0233  0.0137  0.0000  0.0000  0.0000  0.0000  0.0000 </r>
       </set>
       <set comment="band 11">
        <r>  0.0114  0.0028  0.0000  0.0006  0.3143  0.0000  0.3114  0.0000  0.0885 </r>
        <r>  0.0004  0.0205  0.0071  0.0398  0.0000  0.0000  0.0000  0.0000  0.0000 </r>
        <r>  0.0004  0.0205  0.0071  0.0398  0.0000  0.0000  0.0000  0.0000  0.0000 </r>
       </set>
       <set comment="band 12">
        <r>  0.0000  0.0000  0.0065  0.0000  0.0000  0.1057  0.0000  0.4327  0.0000 </r>
        <r>  0.0211  0.0366  0.0268  0.0058  0.0000  0.0000  0.0000  0.0000  0.0000 </r>
        <r>  0.0211  0.0366  0.0268  0.0058  0.0000  0.0000  0.0000  0.0000  0.0000 </r>
       </set>
       <set comment="band 13">
        <r>  0.0000  0.0000  0.0026  0.0000  0.0000  0.3983  0.0000  0.0885  0.0000 </r>
        <r>  0.0083  0.0430  0.0288  0.0702  0.0000  0.0000  0.0000  0.0000  0.0000 </r>
        <r>  0.0083  0.0430  0.0288  0.0702  0.0000  0.0000  0.0000  0.0000  0.0000 </r>
       </set>
       <set comment="band 14">
        <r>  0.0020  0.0107  0.0000  0.0158  0.0050  0.0000  0.0142  0.0000  0.0088 </r>
        <r>  0.0089  0.0052  0.0062  0.0014  0.0000  0.0000  0.0000  0.0000  0.0000 </r>
        <r>  0.0088  0.0053  0.0061  0.0011  0.0000  0.0000  0.0000  0.0000  0.0000 </r>
       </set>
      </set>
      <set comment="kpoint 8">
       <set comment="band 1">
        <r>  0.0208  0.0185  0.0000  0.0307  0.0314  0.0000  0.0003  0.0000  0.0158 </r>
        <r>  0.3194  0.0004  0.0059  0.0003  0.0000  0.0000  0.0000  0.0000  0.0000 </r>
        <r>  0.3195  0.0004  0.0059  0.0003  0.0000  0.0000  0.0000  0.0000  0.0000 </r>
       </set>
       <set comment="band 2">
        <r>  0.0000  0.0000  0.0071  0.0000  0.0000  0.0407  0.0000  0.0721  0.0000 </r>
        <r>  0.3311  0.0003  0.0027  0.0003  0.0000  0.0000  0.0000  0.0000  0.0000 </r>
        <r>  0.3310  0.0003  0.0027  0.0003  0.0000  0.0000  0.0000  0.0000  0.0000 </r>
       </set>
       <set comment="band 3">
        <r>  0.1026  0.0024  0.0000  0.0266  0.0645  0.0000  0.0342  0.0000  0.0433 </r>
        <r>  0.0043  0.0508  0.0087  0.1020  0.0000  0.0000  0.0000  0.0000  0.0000 </r>
        <r>  0.0043  0.0508  0.0087  0.1020  0.0000  0.0000  0.0000  0.0000  0.0000 </r>
       </set>
       <set comment="band 4">
        <r>  0.0000  0.0000  0.0350  0.0000  0.0000  0.0692  0.0000  0.1795  0.0000 </r>
        <r>  0.0071  0.0573  0.0054  0.1112  0.0000  0.0000  0.0000  0.0000  0.0000 </r>
        <r>  0.0071  0.0573  0.0054  0.1112  0.0000  0.0000  0.0000  0.0000  0.0000 </r>
       </set>
       <set comment="band 5">
        <r>  0.0162  0.0240  0.0000  0.0179  0.1402  0.0000  0.0904  0.0000  0.0527 </r>
        <r>  0.0206  0.0058  0.1295  0.0199  0.0000  0.0000  0.0000  0.0000  0.0000 </r>
        <r>  0.0206  0.0058  0.1295  0.0199  0.0000  0.0000  0.0000  0.0000  0.0000 </r>
       </set>
       <set comment="band 6">
        <r>  0.0000  0.0000  0.0257  0.0000  0.0000  0.3185  0.0000  0.0261  0.0000 </r>
        <r>  0.0020  0.1085  0.0279  0.0475  0.0000  0.0000  0.0000  0.0000  0.0000 </r>
        <r>  0.0020  0.1085  0.0279  0.0475  0.0000  0.0000  0.0000  0.0000  0.0000 </r>
       </set>
       <set comment="band 7">
        <r>  0.0233  0.0416  0.0000  0.0489  0.0014  0.0000  0.0710  0.0000  0.0230 </r>
        <r>  0.0063  0.1215  0.0320  0.0561  0.0000  0.0000  0.0000  0.0000  0.0000 </r>
        <r>  0.0063  0.1215  0.0320  0.0561  0.0000  0.0000  0.0000  0.0000  0.0000 </r>
       </set>
       <set comment="band 8">
        <r>  0.0000  0.0000  0.0363  0.0000  0.0000  0.0160  0.0000  0.1501  0.0000 </r>
        <r>  0.0118  0.0171  0.1757  0.0390  0.0000  0.0000  0.0000  0.0000  0.0000 </r>
        <r>  0.0118  0.0171  0.1757  0.0390  0.0000  0.0000  0.0000  0.0000  0.0000 </r>
       </set>
       <set comment="band 9">
        <r>  0.0034  0.0196  0.0000  0.0198  0.1839  0.0000  0.1603  0.0000  0.1971 </r>
        <r>  0.0008  0.0479  0.0257  0.0262  0.0000  0.0000  0.0000  0.0000  0.0000 </r>
        <r>  0.0008  0.0478  0.0257  0.0262  0.0000  0.0000  0.0000  0.0000  0.0000 </r>
       </set>
       <set comment="band 10">
        <r>  0.0051  0.0091  0.0000  0.0018  0.0649  0.0000  0.3343  0.0000  0.3774 </r>
        <r>  0.0002  0.0266  0.0149  0.0068  0.0000  0.0000  0.0000  0.0000  0.0000 </r>
        <r>  0.0002  0.0266  0.0148  0.0068  0.0000  0.0000  0.0000  0.0000  0.0000 </r>
       </set>
       <set comment="band 11">
        <r>  0.0154  0.0057  0.0000  0.0107  0.3789  0.0000  0.2183  0.0000  0.1808 </r>
        <r>  0.0021  0.0014  0.0171  0.0181  0.0000  0.0000  0.0000  0.0000  0.0000 </r>
        <r>  0.0021  0.0014  0.0171  0.0181  0.0000  0.0000  0.0000  0.0000  0.0000 </r>
       </set>
       <set comment="band 12">
        <r>  0.0000  0.0000  0.0063  0.0000  0.0000  0.1640  0.0000  0.3324  0.0000 </r>
        <r>  0.0091  0.0683  0.0151  0.0162  0.0000  0.0000  0.0000  0.0000  0.0000 </r>
        <r>  0.0091  0.0683  0.0151  0.0162  0.0000  0.0000  0.0000  0.0000  0.0000 </r>
       </set>
       <set comment="band 13">
        <r>  0.0000  0.0000  0.0004  0.0000  0.0000  0.3331  0.0000  0.1445  0.0000 </r>
        <r>  0.0189  0.0144  0.0666  0.0290  0.0000  0.0000  0.0000  0.0000  0.0000 </r>
        <r>  0.0189  0.0144  0.0665  0.0290  0.0000  0.0000  0.0000  0.0000  0.0000 </r>
       </set>
       <set comment="band 14">
        <r>  0.1877  0.0089  0.0000  0.0533  0.0404  0.0000  0.0061  0.0000  0.0387 </r>
        <r>  0.0001  0.0013  0.0115  0.0051  0.0000  0.0000  0.0000  0.0000  0.0000 </r>
        <r>  0.0001  0.0013  0.0115  0.0051  0.0000  0.0000  0.0000  0.0000  0.0000 </r>
       </set>
      </set>
      <set comment="kpoint 9">
       <set comment="band 1">
        <r>  0.0218  0.0321  0.0000  0.0178  0.0177  0.0000  0.0004  0.0000  0.0266 </r>
        <r>  0.3182  0.0009  0.0058  0.0003  0.0000  0.0000  0.0000  0.0000  0.0000 </r>
        <r>  0.3183  0.0009  0.0058  0.0003  0.0000  0.0000  0.0000  0.0000  0.0000 </r>
       </set>
       <set comment="band 2">
        <r>  0.0000  0.0000  0.0084  0.0000  0.0000  0.0705  0.0000  0.0375  0.0000 </r>
        <r>  0.3319  0.0005  0.0027  0.0002  0.0000  0.0000  0.0000  0.0000  0.0000 </r>
        <r>  0.3319  0.0005  0.0027  0.0002  0.0000  0.0000  0.0000  0.0000  0.0000 </r>
       </set>
       <set comment="band 3">
        <r>  0.0650  0.0098  0.0000  0.0293  0.0359  0.0000  0.0616  0.0000  0.1071 </r>
        <r>  0.0004  0.1067  0.0171  0.0360  0.0000  0.0000  0.0000  0.0000  0.0000 </r>
        <r>  0.0004  0.1067  0.0171  0.0360  0.0000  0.0000  0.0000  0.0000  0.0000 </r>
       </set>
       <set comment="band 4">
        <r>  0.0000  0.0000  0.0084  0.0000  0.0000  0.1284  0.0000  0.2208  0.0000 </r>
        <r>  0.0041  0.0958  0.0001  0.0666  0.0000  0.0000  0.0000  0.0000  0.0000 </r>
        <r>  0.0041  0.0958  0.0001  0.0666  0.0000  0.0000  0.0000  0.0000  0.0000 </r>
       </set>
       <set comment="band 5">
        <r>  0.0785  0.0205  0.0000  0.0103  0.0692  0.0000  0.0001  0.0000  0.0673 </r>
        <r>  0.0340  0.0203  0.1496  0.0150  0.0000  0.0000  0.0000  0.0000  0.0000 </r>
        <r>  0.0340  0.0203  0.1496  0.0150  0.0000  0.0000  0.0000  0.0000  0.0000 </r>
       </set>
       <set comment="band 6">
        <r>  0.0000  0.0000  0.0470  0.0000  0.0000  0.1650  0.0000  0.0581  0.0000 </r>
        <r>  0.0039  0.0671  0.0535  0.0781  0.0000  0.0000  0.0000  0.0000  0.0000 </r>
        <r>  0.0039  0.0671  0.0535  0.0781  0.0000  0.0000  0.0000  0.0000  0.0000 </r>
       </set>
       <set comment="band 7">
        <r>  0.0102  0.0636  0.0000  0.0362  0.0089  0.0000  0.1207  0.0000  0.0185 </r>
        <r>  0.0005  0.0419  0.0089  0.1233  0.0000  0.0000  0.0000  0.0000  0.0000 </r>
        <r>  0.0005  0.0419  0.0089  0.1233  0.0000  0.0000  0.0000  0.0000  0.0000 </r>
       </set>
       <set comment="band 8">
        <r>  0.0000  0.0000  0.0523  0.0000  0.0000  0.0593  0.0000  0.0753  0.0000 </r>
        <r>  0.0130  0.0383  0.1560  0.0459  0.0000  0.0000  0.0000  0.0000  0.0000 </r>
        <r>  0.0130  0.0383  0.1560  0.0459  0.0000  0.0000  0.0000  0.0000  0.0000 </r>
       </set>
       <set comment="band 9">
        <r>  0.0074  0.0001  0.0000  0.0000  0.2535  0.0000  0.1475  0.0000  0.2690 </r>
        <r>  0.0010  0.0277  0.0016  0.0449  0.0000  0.0000  0.0000  0.0000  0.0000 </r>
        <r>  0.0010  0.0277  0.0016  0.0449  0.0000  0.0000  0.0000  0.0000  0.0000 </r>
       </set>
       <set comment="band 10">
        <r>  0.0074  0.0139  0.0000  0.0052  0.0463  0.0000  0.5214  0.0000  0.1099 </r>
        <r>  0.0006  0.0275  0.0274  0.0128  0.0000  0.0000  0.0000  0.0000  0.0000 </r>
        <r>  0.0006  0.0275  0.0274  0.0128  0.0000  0.0000  0.0000  0.0000  0.0000 </r>
       </set>
       <set comment="band 11">
        <r>  0.0246  0.0117  0.0000  0.0045  0.4757  0.0000  0.0544  0.0000  0.2307 </r>
        <r>  0.0023  0.0029  0.0262  0.0081  0.0000  0.0000  0.0000  0.0000  0.0000 </r>
        <r>  0.0023  0.0029  0.0261  0.0081  0.0000  0.0000  0.0000  0.0000  0.0000 </r>
       </set>
       <set comment="band 12">
        <r>  0.0000  0.0000  0.0020  0.0000  0.0000  0.1394  0.0000  0.3940  0.0000 </r>
        <r>  0.0077  0.0257  0.0088  0.0394  0.0000  0.0000  0.0000  0.0000  0.0000 </r>
        <r>  0.0077  0.0257  0.0088  0.0394  0.0000  0.0000  0.0000  0.0000  0.0000 </r>
       </set>
       <set comment="band 13">
        <r>  0.0000  0.0000  0.0016  0.0000  0.0000  0.3946  0.0000  0.1490  0.0000 </r>
        <r>  0.0208  0.0094  0.0755  0.0248  0.0000  0.0000  0.0000  0.0000  0.0000 </r>
        <r>  0.0208  0.0094  0.0755  0.0248  0.0000  0.0000  0.0000  0.0000  0.0000 </r>
       </set>
       <set comment="band 14">
        <r>  0.1320  0.0178  0.0000  0.0491  0.0234  0.0000  0.0105  0.0000  0.0695 </r>
        <r>  0.0001  0.0023  0.0279  0.0034  0.0000  0.0000  0.0000  0.0000  0.0000 </r>
        <r>  0.0001  0.0023  0.0279  0.0034  0.0000  0.0000  0.0000  0.0000  0.0000 </r>
       </set>
      </set>
      <set comment="kpoint 10">
       <set comment="band 1">
        <r>  0.0037  0.0239  0.0000  0.0333  0.0320  0.0000  0.0001  0.0000  0.0232 </r>
        <r>  0.3267  0.0001  0.0062  0.0000  0.0000  0.0000  0.0000  0.0000  0.0000 </r>
        <r>  0.3269  0.0001  0.0062  0.0000  0.0000  0.0000  0.0000  0.0000  0.0000 </r>
       </set>
       <set comment="band 2">
        <r>  0.0000  0.0000  0.0012  0.0000  0.0000  0.0490  0.0000  0.0725  0.0000 </r>
        <r>  0.3362  0.0001  0.0031  0.0001  0.0000  0.0000  0.0000  0.0000  0.0000 </r>
        <r>  0.3360  0.0001  0.0031  0.0001  0.0000  0.0000  0.0000  0.0000  0.0000 </r>
       </set>
       <set comment="band 3">
        <r>  0.0000  0.0000  0.0052  0.0000  0.0000  0.1909  0.0000  0.1715  0.0000 </r>
        <r>  0.0014  0.0682  0.0002  0.0892  0.0000  0.0000  0.0000  0.0000  0.0000 </r>
        <r>  0.0014  0.0682  0.0002  0.0893  0.0000  0.0000  0.0000  0.0000  0.0000 </r>
       </set>
       <set comment="band 4">
        <r>  0.1158  0.0140  0.0000  0.0182  0.0234  0.0000  0.0697  0.0000  0.0119 </r>
        <r>  0.0010  0.0456  0.0008  0.1277  0.0000  0.0000  0.0000  0.0000  0.0000 </r>
        <r>  0.0010  0.0456  0.0008  0.1277  0.0000  0.0000  0.0000  0.0000  0.0000 </r>
       </set>
       <set comment="band 5">
        <r>  0.0099  0.0426  0.0000  0.0147  0.1350  0.0000  0.0570  0.0000  0.0583 </r>
        <r>  0.0128  0.0514  0.0918  0.0171  0.0000  0.0000  0.0000  0.0000  0.0000 </r>
        <r>  0.0128  0.0514  0.0918  0.0171  0.0000  0.0000  0.0000  0.0000  0.0000 </r>
       </set>
       <set comment="band 6">
        <r>  0.0254  0.0245  0.0000  0.0604  0.0232  0.0000  0.0166  0.0000  0.0498 </r>
        <r>  0.0174  0.0805  0.0843  0.0297  0.0000  0.0000  0.0000  0.0000  0.0000 </r>
        <r>  0.0174  0.0805  0.0843  0.0298  0.0000  0.0000  0.0000  0.0000  0.0000 </r>
       </set>
       <set comment="band 7">
        <r>  0.0000  0.0000  0.0880  0.0000  0.0000  0.0674  0.0000  0.0296  0.0000 </r>
        <r>  0.0021  0.1084  0.0206  0.0916  0.0000  0.0000  0.0000  0.0000  0.0000 </r>
        <r>  0.0021  0.1084  0.0206  0.0916  0.0000  0.0000  0.0000  0.0000  0.0000 </r>
       </set>
       <set comment="band 8">
        <r>  0.0000  0.0000  0.0202  0.0000  0.0000  0.0930  0.0000  0.1434  0.0000 </r>
        <r>  0.0174  0.0142  0.1843  0.0176  0.0000  0.0000  0.0000  0.0000  0.0000 </r>
        <r>  0.0174  0.0142  0.1843  0.0176  0.0000  0.0000  0.0000  0.0000  0.0000 </r>
       </set>
       <set comment="band 9">
        <r>  0.0039  0.0023  0.0000  0.0065  0.3005  0.0000  0.0598  0.0000  0.3202 </r>
        <r>  0.0000  0.0395  0.0037  0.0253  0.0000  0.0000  0.0000  0.0000  0.0000 </r>
        <r>  0.0000  0.0395  0.0037  0.0253  0.0000  0.0000  0.0000  0.0000  0.0000 </r>
       </set>
       <set comment="band 10">
        <r>  0.0367  0.0018  0.0000  0.0007  0.0402  0.0000  0.7005  0.0000  0.0491 </r>
        <r>  0.0000  0.0133  0.0025  0.0204  0.0000  0.0000  0.0000  0.0000  0.0000 </r>
        <r>  0.0000  0.0133  0.0025  0.0204  0.0000  0.0000  0.0000  0.0000  0.0000 </r>
       </set>
       <set comment="band 11">
        <r>  0.0000  0.0000  0.0013  0.0000  0.0000  0.3130  0.0000  0.1959  0.0000 </r>
        <r>  0.0008  0.0487  0.0001  0.0299  0.0000  0.0000  0.0000  0.0000  0.0000 </r>
        <r>  0.0008  0.0487  0.0001  0.0299  0.0000  0.0000  0.0000  0.0000  0.0000 </r>
       </set>
       <set comment="band 12">
        <r>  0.0025  0.0104  0.0000  0.0214  0.2945  0.0000  0.0103  0.0000  0.3826 </r>
        <r>  0.0037  0.0009  0.0672  0.0012  0.0000  0.0000  0.0000  0.0000  0.0000 </r>
        <r>  0.0037  0.0009  0.0672  0.0012  0.0000  0.0000  0.0000  0.0000  0.0000 </r>
       </set>
       <set comment="band 13">
        <r>  0.0000  0.0000  0.0003  0.0000  0.0000  0.2357  0.0000  0.3391  0.0000 </r>
        <r>  0.0266  0.0010  0.0995  0.0019  0.0000  0.0000  0.0000  0.0000  0.0000 </r>
        <r>  0.0266  0.0010  0.0995  0.0019  0.0000  0.0000  0.0000  0.0000  0.0000 </r>
       </set>
       <set comment="band 14">
        <r>  0.1174  0.0534  0.0000  0.0641  0.0537  0.0000  0.0084  0.0000  0.0326 </r>
        <r>  0.0003  0.0020  0.0027  0.0043  0.0000  0.0000  0.0000  0.0000  0.0000 </r>
        <r>  0.0003  0.0020  0.0027  0.0043  0.0000  0.0000  0.0000  0.0000  0.0000 </r>
       </set>
      </set>
     </set>
    </set>
   </array>
  </projected>
 </calculation>
 <structure name="finalpos" >
  <crystal>
   <varray name="basis" >
    <v>       3.19031573       0.00000000       0.00000000 </v>
    <v>      -1.59515786       2.76289447       0.00000000 </v>
    <v>       0.00000000       0.00000000      34.87900430 </v>
   </varray>
   <i name="volume">    307.44118160 </i>
   <varray name="rec_basis" >
    <v>       0.31344860       0.18096963       0.00000000 </v>
    <v>       0.00000000       0.36193927       0.00000000 </v>
    <v>       0.00000000       0.00000000       0.02867054 </v>
   </varray>
  </crystal>
  <varray name="positions" >
   <v>       0.33333300       0.66666700       0.10664728 </v>
   <v>       0.66666700       0.33333300       0.06178120 </v>
   <v>       0.66666600       0.33333300       0.15151337 </v>
  </varray>
 </structure>
</modeling>
