unknown system                          
   1.00000000000000     
     3.190316    0.000000    0.000000
    -1.595158    2.762894    0.000000
     0.000000    0.000000   30.879004
   Mo   S 
     1     2
Direct
  0.333333  0.666667  0.120462
  0.666667  0.333333  0.069784
  0.666666  0.333333  0.171140
 
   24   24  240
 0.42504     0.43128     0.44811     0.47729     0.52179     0.58096     0.64987     0.72247     0.79342     0.85816    
 0.91235     0.94966     0.96103     0.94142     0.89826     0.84662     0.79342     0.73272     0.66009     0.58478    
 0.52177     0.47720     0.44780     0.43039     0.43097     0.43156     0.44702     0.47802     0.52664     0.59360    
 0.67696     0.77202     0.87042     0.96132      1.0371      1.0953      1.1315      1.1340      1.0950      1.0229    
 0.93810     0.85374     0.76945     0.68289     0.59999     0.53040     0.47918     0.44641     0.44826     0.43823    
 0.44772     0.47855     0.53051     0.60176     0.69210     0.80127     0.92292      1.0433      1.1482      1.2302    
  1.2870      1.3142      1.3025      1.2447      1.1468      1.0278     0.90833     0.79787     0.69650     0.60516    
 0.53031     0.47800     0.47905     0.45494     0.45161     0.47630     0.53056     0.60670     0.70138     0.81862    
 0.95582      1.0987      1.2321      1.3449      1.4267      1.4695      1.4744      1.4432      1.3689      1.2478    
  1.0984     0.95076     0.81998     0.70320     0.60156     0.52563     0.52177     0.48404     0.46399     0.47236    
 0.52178     0.60215     0.70019     0.82192     0.97248      1.1346      1.2880      1.4285      1.5470      1.6182    
  1.6302      1.6017      1.5470      1.4511      1.3041      1.1330     0.97247     0.82836     0.69604     0.58920    
 0.57227     0.52071     0.48794     0.47368     0.50538     0.58410     0.68352     0.80163     0.95821      1.1422    
  1.3164      1.4718      1.6208      1.7412      1.7881      1.7609      1.6998      1.6158      1.4845      1.3092    
  1.1307     0.96862     0.81213     0.66980     0.63186     0.55779     0.51851     0.48681     0.49035     0.55594    
 0.65616     0.76512     0.90856      1.1034      1.3060      1.4758      1.6322      1.7893      1.8978      1.9107    
  1.8536      1.7686      1.6463      1.4702      1.2758      1.1020     0.93702     0.76827     0.70655     0.59596    
 0.54629     0.50917     0.48557     0.52348     0.62063     0.72804     0.84746      1.0246      1.2461      1.4436    
  1.6016      1.7602      1.9098      1.9843      1.9656      1.8975      1.7930      1.6260      1.4147      1.2198    
  1.0522     0.87698     0.79342     0.64302     0.56760     0.52966     0.49195     0.49355     0.57145     0.68469    
 0.79342     0.93545      1.1446      1.3686      1.5471      1.6984      1.8517      1.9648      1.9906      1.9524    
  1.8818      1.7517      1.5470      1.3276      1.1463     0.97694     0.87441     0.70095     0.58876     0.54000    
 0.50186     0.47499     0.51391     0.61855     0.73244     0.85077      1.0235      1.2462      1.4521      1.6162    
  1.7680      1.8976      1.9532      1.9339      1.8847      1.8012      1.6397      1.4207      1.2187      1.0501    
 0.93023     0.75836     0.61730     0.54357     0.50573     0.47026     0.46984     0.53985     0.64935     0.76133    
 0.90016      1.0929      1.3027      1.4847      1.6462      1.7940      1.8837      1.8854      1.8376      1.7739    
  1.6622      1.4780      1.2710      1.0938     0.95659     0.79885     0.65042     0.55011     0.50089     0.46834    
 0.44986     0.47948     0.56137     0.66404     0.78216     0.93901      1.1264      1.3058      1.4677      1.6253    
  1.7530      1.8016      1.7724      1.7101      1.6232      1.4829      1.2973      1.1159     0.96103     0.81467    
 0.67554     0.56295     0.49432     0.45770     0.43794     0.44571     0.49431     0.57383     0.67355     0.80233    
 0.96103      1.1236      1.2708      1.4119      1.5471      1.6401      1.6604      1.6209      1.5470      1.4373    
  1.2865      1.1185     0.94834     0.80966     0.68275     0.57468     0.49426     0.44354     0.41874     0.41940    
 0.44770     0.50136     0.57775     0.68123     0.81340     0.95901      1.0959      1.2171      1.3279      1.4222    
  1.4789      1.4830      1.4374      1.3516      1.2332      1.0934     0.91616     0.79090     0.67348     0.57619    
 0.49935     0.43955     0.40171     0.39267     0.40944     0.44437     0.49744     0.57467     0.67736     0.79909    
 0.92833      1.0495      1.1484      1.2217      1.2739      1.3021      1.2919      1.2356      1.1449      1.0359    
 0.86290     0.76109     0.65562     0.56675     0.50059     0.44595     0.40117     0.37923     0.38378     0.40439    
 0.43787     0.49178     0.56617     0.65361     0.75484     0.87031     0.97961      1.0555      1.0969      1.1214    
  1.1291      1.1016      1.0368     0.95365     0.79342     0.71915     0.63343     0.55294     0.49434     0.45083    
 0.41147     0.38427     0.37915     0.38862     0.40563     0.43944     0.49431     0.55578     0.61738     0.69508    
 0.79342     0.88321     0.93679     0.96115     0.97248     0.96355     0.92246     0.86027     0.71675     0.66615    
 0.60551     0.53985     0.48718     0.45124     0.42094     0.39638     0.38813     0.39320     0.40014     0.41500    
 0.45238     0.50388     0.54733     0.58505     0.63955     0.71110     0.77259     0.80842     0.82642     0.82969    
 0.80874     0.76573     0.64202     0.60868     0.57139     0.52693     0.48584     0.45675     0.43400     0.41347    
 0.40362     0.40767     0.41337     0.41566     0.43009     0.46679     0.50966     0.53994     0.56360     0.59621    
 0.63578     0.66926     0.69234     0.70498     0.70041     0.67578     0.57607     0.55564     0.53567     0.51237    
 0.48880     0.47185     0.45989     0.44690     0.43636     0.43631     0.44269     0.44361     0.44041     0.44827    
 0.47340     0.50417     0.52807     0.54476     0.55908     0.57298     0.58704     0.59996     0.60490     0.59557    
 0.52179     0.51226     0.50456     0.49779     0.49192     0.49040     0.49369     0.49619     0.49434     0.49256    
 0.49554     0.49888     0.49432     0.48243     0.47376     0.47736     0.49195     0.50846     0.51858     0.52118    
 0.52178     0.52543     0.53005     0.52935     0.47900     0.47862     0.48079     0.48682     0.49621     0.50927    
 0.52697     0.54728     0.56423     0.57329     0.57623     0.57772     0.57706     0.56708     0.54361     0.51393    
 0.49195     0.48480     0.48685     0.48790     0.48429     0.47994     0.47859     0.47916     0.44795     0.45366    
 0.46387     0.48075     0.50440     0.53254     0.56370     0.59804     0.63327     0.66212     0.67745     0.67968    
 0.67538     0.66734     0.64944     0.61480     0.56744     0.52187     0.49044     0.47367     0.46383     0.45520    
 0.44834     0.44584     0.43006     0.43791     0.45312     0.47804     0.51434     0.55932     0.60814     0.65813    
 0.70835     0.75514     0.79037     0.80604     0.80106     0.78246     0.75782     0.72645     0.68122     0.62092    
 0.55725     0.50590     0.47260     0.45188     0.43769     0.42984     0.56928     0.58016     0.61085     0.66326    
 0.74035     0.84054     0.95672      1.0796      1.1997      1.3083      1.3970      1.4564      1.4753      1.4477    
  1.3821      1.2960      1.1997      1.0904     0.96758     0.84461     0.74035     0.66319     0.61052     0.57921    
 0.57983     0.58043     0.60873     0.66505     0.75084     0.86557      1.0051      1.1616      1.3223      1.4715    
  1.5965      1.6906      1.7460      1.7487      1.6903      1.5815      1.4469      1.3048      1.1589      1.0114    
 0.87225     0.75477     0.66629     0.60812     0.61099     0.59272     0.61044     0.66561     0.75684     0.88045    
  1.0339      1.2139      1.4102      1.6038      1.7747      1.9097      2.0014      2.0412      2.0178      1.9251    
  1.7732      1.5875      1.3948      1.2103      1.0384     0.88399     0.75664     0.66503     0.66511     0.62132    
 0.61784     0.66224     0.75491     0.88559      1.0480      1.2434      1.4655      1.6954      1.9122      2.0979    
  2.2342      2.3064      2.3116      2.2516      2.1232      1.9289      1.6951      1.4601      1.2447      1.0499    
 0.88020     0.74972     0.74035     0.66934     0.63751     0.65702     0.74034     0.87450      1.0423      1.2467    
  1.4901      1.7507      2.0031      2.2362      2.4324      2.5553      2.5848      2.5378      2.4324      2.2601    
  2.0199      1.7490      1.4901      1.2536      1.0380     0.86087     0.83141     0.73192     0.67381     0.65875    
 0.71575     0.84390      1.0120      1.2142      1.4679      1.7587      2.0440      2.3089      2.5578      2.7561    
  2.8447      2.8160      2.7123      2.5525      2.3222      2.0364      1.7465      1.4790      1.2253     0.99758    
 0.93776     0.80091     0.72218     0.67590     0.69245     0.79900     0.96349      1.1544      1.3950      1.7004    
  2.0219      2.3131      2.5866      2.8458      3.0242      3.0607      2.9775      2.8239      2.6015      2.3072    
  1.9901      1.6989      1.4251      1.1577      1.0628     0.87529     0.77228     0.70662     0.68166     0.74814    
 0.90139      1.0856      1.2982      1.5841      1.9269      2.2520      2.5375      2.8150      3.0596      3.1864    
  3.1667      3.0466      2.8497      2.5633      2.2216      1.8993      1.6133      1.3293      1.1997     0.96049    
 0.81866     0.73899     0.68552     0.70079     0.82265      1.0045      1.1997      1.4442      1.7710      2.1229    
  2.4324      2.7108      2.9755      3.1659      3.2184      3.1528      3.0073      2.7671      2.4324      2.0796    
  1.7728      1.4880      1.3254      1.0553     0.86557     0.76310     0.69614     0.66777     0.73552     0.89695    
  1.0884      1.3004      1.5821      1.9268      2.2611      2.5531      2.8235      3.0468      3.1536      3.1331    
  3.0332      2.8585      2.5780      2.2279      1.8976      1.6103      1.4159      1.1442     0.91826     0.78069    
 0.70269     0.65217     0.66483     0.77682     0.95213      1.1473      1.3840      1.6880      2.0180      2.3224    
  2.6017      2.8510      3.0093      3.0338      2.9606      2.8297      2.6186      2.3154      1.9844      1.6890    
  1.4638      1.2073     0.97128     0.80011     0.70124     0.64224     0.62275     0.67871     0.81214     0.98577    
  1.1897      1.4451      1.7406      2.0322      2.3045      2.5627      2.7685      2.8587      2.8279      2.7231    
  2.5605      2.3206      2.0233      1.7296      1.4753      1.2347      1.0094     0.82308     0.69795     0.62549    
 0.59292     0.61278     0.69794     0.83464      1.0074      1.2217      1.4753      1.7377      1.9842      2.2186    
  2.4324      2.5783      2.6164      2.5579      2.4324      2.2454      2.0009      1.7323      1.4550      1.2295    
  1.0211     0.84046     0.70044     0.60699     0.55965     0.56022     0.61118     0.70788     0.84373      1.0194    
  1.2334      1.4663      1.6913      1.8960      2.0798      2.2296      2.3164      2.3206      2.2455      2.1050    
  1.9130      1.6886      1.4009      1.1990      1.0073     0.84205     0.70665     0.60089     0.53338     0.51417    
 0.54138     0.60589     0.70469     0.84043      1.0113      1.2076      1.4139      1.6096      1.7750      1.9011    
  1.9881      2.0289      2.0070      1.9159      1.7713      1.5952      1.3132      1.1470     0.97685     0.82714    
 0.70702     0.60751     0.52984     0.49051     0.49528     0.53325     0.59912     0.69780     0.82642     0.97465    
  1.1405      1.3211      1.4908      1.6167      1.6936      1.7369      1.7448      1.6984      1.5970      1.4635    
  1.1997      1.0744     0.93531     0.80322     0.69796     0.61448     0.54351     0.49579     0.48373     0.50034    
 0.53745     0.60266     0.69794     0.80608     0.91834      1.0491      1.1997      1.3358      1.4249      1.4712    
  1.4901      1.4735      1.4097      1.3118      1.0737     0.98487     0.88319     0.77684     0.68687     0.61865    
 0.56189     0.51809     0.49983     0.50508     0.52196     0.55573     0.61997     0.70440     0.78462     0.86165    
 0.95688      1.0676      1.1622      1.2214      1.2516      1.2549      1.2217      1.1551     0.94855     0.88875    
 0.82256     0.74925     0.68174     0.63008     0.58883     0.55410     0.53534     0.53661     0.54547     0.55634    
 0.58475     0.64064     0.70678     0.76302     0.81448     0.87559     0.94183     0.99695      1.0341      1.0518    
  1.0425      1.0038     0.83542     0.79869     0.76102     0.72064     0.68232     0.65383     0.63332     0.61410    
 0.59940     0.59749     0.60413     0.60693     0.60726     0.62110     0.65541     0.69851     0.73733     0.77069    
 0.80224     0.83208     0.85862     0.87856     0.88370     0.86755     0.74035     0.72301     0.70746     0.69458    
 0.68551     0.68401     0.68990     0.69621     0.69796     0.69870     0.70272     0.70529     0.69795     0.68180    
 0.66891     0.67019     0.68552     0.70590     0.72227     0.73237     0.74034     0.74957     0.75638     0.75365    
 0.66506     0.66362     0.66629     0.67595     0.69296     0.71747     0.74932     0.78457     0.81498     0.83398    
 0.84213     0.84369     0.83800     0.81808     0.78076     0.73552     0.69913     0.68090     0.67597     0.67375    
 0.66959     0.66610     0.66568     0.66624     0.61067     0.62000     0.63739     0.66622     0.70728     0.75777    
 0.81457     0.87540     0.93513     0.98362      1.0114      1.0178      1.0093     0.98917     0.95222     0.89307    
 0.81848     0.74648     0.69254     0.65874     0.63733     0.62163     0.61108     0.60747     0.57886     0.59243    
 0.61943     0.66297     0.72514     0.80251     0.88817     0.97649      1.0631      1.1408      1.1984      1.2256    
  1.2203      1.1900      1.1436      1.0822      1.0009     0.90166     0.80033     0.71628     0.65728     0.61811    
 0.59214     0.57859     0.76173     0.78076     0.83527     0.92609      1.0545      1.2166      1.4020      1.5974    
  1.7885      1.9608      2.1002      2.1923      2.2224      2.1831      2.0843      1.9477      1.7885      1.6090    
  1.4135      1.2209      1.0546     0.92607     0.83494     0.77973     0.78039     0.78102     0.83044     0.92752    
  1.0712      1.2579      1.4801      1.7258      1.9772      2.2116      2.4090      2.5561      2.6397      2.6426    
  2.5557      2.3931      2.1856      1.9587      1.7231      1.4867      1.2650      1.0754     0.92886     0.82983    
 0.83542     0.80409     0.83485     0.92813      1.0796      1.2816      1.5280      1.8118      2.1175      2.4190    
  2.6872      2.8998      3.0417      3.0994      3.0591      2.9162      2.6857      2.4018      2.1012      1.8078    
  1.5327      1.2853      1.0793     0.92750     0.92807     0.85426     0.85057     0.92504      1.0755      1.2870    
  1.5489      1.8589      2.2065      2.5655      2.9050      3.1958      3.4089      3.5216      3.5270      3.4274    
  3.2227      2.9227      2.5651      2.2007      1.8603      1.5509      1.2813      1.0700      1.0546     0.93423    
 0.88492     0.92116      1.0545      1.2673      1.5368      1.8623      2.2429      2.6502      3.0480      3.4134    
  3.7154      3.9061      3.9582      3.8876      3.7155      3.4387      3.0658      2.6482      2.2429      1.8697    
  1.5323      1.2529      1.2069      1.0379     0.94292     0.92697      1.0208      1.2202      1.4874      1.8119    
  2.2089      2.6585      3.1075      3.5279      3.9106      4.2067      4.3455      4.3149      4.1601      3.9050    
  3.5421      3.0994      2.6457      2.2207      1.8238      1.4721      1.3819      1.1552      1.0197     0.95271    
 0.98818      1.1532      1.4093      1.7184      2.1014      2.5707      3.0678      3.5323      3.9625      4.3476    
  4.6067      4.6691      4.5571      4.3244      3.9784      3.5261      3.0342      2.5691      2.1333      1.7218    
  1.5796      1.2826      1.1036     0.99731     0.97076      1.0779      1.3103      1.6040      1.9519      2.3982    
  2.9206      3.4302      3.8890      4.3149      4.6683      4.8515      4.8307      4.6547      4.3518      3.9163    
  3.3979      2.8913      2.4292      1.9847      1.7885      1.4229      1.1871      1.0482     0.97271      1.0076    
  1.1912      1.4695      1.7885      2.1827      2.6835      3.2225      3.7155      4.1586      4.5550      4.8298    
  4.9103      4.8158      4.5887      4.2183      3.7155      3.1764      2.6853      2.2292      1.9789      1.5707    
  1.2721      1.0940     0.98669     0.95664      1.0648      1.3053      1.6057      1.9522      2.3938      2.9180    
  3.4374      3.9038      4.3229      4.6546      4.8167      4.7950      4.6399      4.3601      3.9302      3.4022    
  2.8870      2.4236      2.1201      1.7056      1.3609      1.1348      1.0011     0.92998     0.96102      1.1308    
  1.3969      1.7088      2.0863      2.5532      3.0594      3.5386      3.9761      4.3521      4.5908      4.6410    
  4.5392      4.3295      3.9940      3.5310      3.0238      2.5543      2.2001      1.8022      1.4444      1.1767    
  1.0105     0.91569     0.89499     0.98661      1.1896      1.4599      1.7836      2.1803      2.6339      3.0899    
  3.5196      3.9140      4.2198      4.3613      4.3286      4.1717      3.9117      3.5365      3.0804      2.6222    
  2.2224      1.8471      1.5029      1.2179      1.0185     0.89929     0.85008     0.88571      1.0185      1.2303    
  1.5008      1.8332      2.2224      2.6308      3.0235      3.3923      3.7155      3.9323      3.9942      3.9107    
  3.7154      3.4208      3.0412      2.6250      2.1908      1.8415      1.5216      1.2457      1.0298     0.88334    
 0.80840     0.80887     0.88759      1.0377      1.2492      1.5198      1.8456      2.2029      2.5568      2.8853    
  3.1767      3.4064      3.5358      3.5403      3.4232      3.2034      2.9034      2.5538      2.1042      1.7934    
  1.5008      1.2474      1.0396     0.87962     0.77831     0.74772     0.78659     0.88483      1.0376      1.2456    
  1.5048      1.8026      2.1181      2.4230      2.6875      2.8933      3.0322      3.0915      3.0520      2.9090    
  2.6837      2.4077      1.9658      1.7085      1.4504      1.2222      1.0367     0.88650     0.77400     0.71712    
 0.72211     0.77760     0.87776      1.0271      1.2214      1.4480      1.7017      1.9743      2.2320      2.4327    
  2.5636      2.6355      2.6438      2.5686      2.4119      2.2032      1.7885      1.5908      1.3791      1.1801    
  1.0185     0.89106     0.78885     0.72265     0.70472     0.72741     0.78257     0.87880      1.0185      1.1829    
  1.3610      1.5641      1.7885      1.9916      2.1331      2.2125      2.2429      2.2149      2.1170      1.9662    
  1.5912      1.4487      1.2907      1.1309     0.99532     0.89200     0.81069     0.75187     0.72688     0.73233    
 0.75587     0.80430     0.89354      1.0138      1.1390      1.2679      1.4191      1.5848      1.7265      1.8197    
  1.8676      1.8711      1.8199      1.7190      1.3934      1.2969      1.1911      1.0794     0.97897     0.90284    
 0.84584     0.80255     0.78033     0.78107     0.79085     0.80482     0.84157     0.91400      1.0054      1.0940    
  1.1827      1.2830      1.3861      1.4714      1.5282      1.5529      1.5370      1.4787      1.2112      1.1529    
  1.0916      1.0287     0.97201     0.93168     0.90620     0.88721     0.87533     0.87607     0.88298     0.88313    
 0.87996     0.89332     0.93334     0.98917      1.0465      1.1019      1.1565      1.2076      1.2505      1.2796    
  1.2850      1.2599      1.0545      1.0285      1.0041     0.98449     0.97272     0.97379     0.98748      1.0050    
  1.0185      1.0281      1.0356      1.0350      1.0185     0.98989     0.96529     0.95909     0.97271     0.99655    
  1.0198      1.0384      1.0545      1.0699      1.0791      1.0741     0.92802     0.92816     0.93497     0.95277    
 0.98282      1.0254      1.0795      1.1390      1.1924      1.2294      1.2474      1.2491      1.2338      1.1958    
  1.1349      1.0648      1.0059     0.97004     0.95281     0.94287     0.93448     0.92916     0.92822     0.92878    
 0.83508     0.85288     0.88483     0.93488      1.0039      1.0882      1.1828      1.2825      1.3789      1.4575    
  1.5050      1.5181      1.5027      1.4634      1.3970      1.3012      1.1869      1.0762     0.98826     0.92692    
 0.88473     0.85459     0.83552     0.82909     0.77937     0.80383     0.85225     0.92743      1.0307      1.1569    
  1.2963      1.4399      1.5791      1.7020      1.7928      1.8373      1.8317      1.7839      1.7049      1.5993    
  1.4657      1.3106      1.1545      1.0213     0.92144     0.85087     0.80346     0.77903      1.0273      1.0583    
  1.1476      1.2935      1.4946      1.7436      2.0270      2.3274      2.6247      2.8954      3.1156      3.2610    
  3.3096      3.2511      3.0986      2.8815      2.6247      2.3399      2.0394      1.7482      1.4946      1.2935    
  1.1472      1.0572      1.0579      1.0586      1.1377      1.2919      1.5166      1.8047      2.1455      2.5235    
  2.9144      3.2855      3.6034      3.8411      3.9737      3.9767      3.8406      3.5864      3.2578      2.8948    
  2.5207      2.1527      1.8122      1.5210      1.2933      1.1371      1.1477      1.0986      1.1471      1.2925    
  1.5270      1.8392      2.2199      2.6595      3.1371      3.6161      4.0513      4.4016      4.6349      4.7251    
  4.6534      4.4191      4.0497      3.5979      3.1198      2.6552      2.2248      1.8431      1.5267      1.2919    
  1.2957      1.1816      1.1776      1.2924      1.5211      1.8448      2.2502      2.7334      3.2804      3.8552    
  4.4094      4.8917      5.2492      5.4396      5.4455      5.2691      4.9205      4.4283      3.8546      3.2741    
  2.7348      2.2523      1.8388      1.5153      1.4946      1.3086      1.2363      1.2946      1.4946      1.8147    
  2.2290      2.7369      3.3360      3.9899      4.6457      5.2562      5.7620      6.0872      6.1854      6.0675    
  5.7621      5.2831      4.6646      3.9877      3.3360      2.7448      2.2243      1.7994      1.7333      1.4708    
  1.3276      1.3106      1.4527      1.7475      2.1533      2.6594      3.2827      3.9986      4.7383      5.4497    
  6.0937      6.5874      6.8311      6.7984      6.5376      6.0876      5.4648      4.7298      3.9850      3.2954    
  2.6722      2.1371      2.0056      1.6555      1.4452      1.3515      1.4116      1.6534      2.0349      2.5157    
  3.1200      3.8604      4.6666      5.4543      6.1923      6.8343      7.2634      7.3834      7.2106      6.8096    
  6.2091      5.4478      4.6308      3.8589      3.1540      2.5193      2.3086      1.8569      1.5756      1.4166    
  1.3883      1.5482      1.8864      2.3347      2.8877      3.5941      4.4261      5.2741      6.0706      6.7994    
  7.3830      7.6893      7.6671      7.3686      6.8387      6.0997      5.2397      4.3949      3.6270      2.9225    
  2.6247      2.0746      1.7093      1.4924      1.3888      1.4492      1.7136      2.1241      2.6247      3.2549    
  4.0474      4.9203      5.7621      6.5360      7.2083      7.6662      7.8096      7.6514      7.2443      6.5996    
  5.7621      4.8713      4.0492      3.3042      2.9147      2.2983      1.8456      1.5661      1.4064      1.3745    
  1.5351      1.8809      2.3354      2.8861      3.5872      4.4211      5.2797      6.0847      6.8070      7.3680    
  7.6523      7.6291      7.3524      6.8465      6.1129      5.2423      4.3880      3.6189      3.1368      2.5002    
  1.9834      1.6357      1.4285      1.3310      1.3859      1.6315      2.0217      2.5036      3.1006      3.8379    
  4.6537      5.4578      6.2045      6.8380      7.2465      7.3538      7.1915      6.8140      6.2236      5.4498    
  4.6158      3.8392      3.2692      2.6469      2.1080      1.7046      1.4479      1.3063      1.2843      1.4225    
  1.7185      2.1247      2.6271      3.2481      3.9674      4.7150      5.4375      6.0955      6.6012      6.8488    
  6.8141      6.5501      6.0931      5.4556      4.7048      3.9550      3.3096      2.7183      2.1942      1.7676    
  1.4661      1.2844      1.2134      1.2698      1.4661      1.7809      2.1920      2.7035      3.3096      3.9643    
  4.6155      5.2316      5.7621      6.1168      6.2260      6.0936      5.7620      5.2620      4.6344      3.9580    
  3.2593      2.7124      2.2225      1.8076      1.4854      1.2662      1.1539      1.1543      1.2705      1.4938    
  1.8114      2.2205      2.7167      3.2722      3.8418      4.3861      4.8715      5.2488      5.4583      5.4628    
  5.2666      4.9000      4.4055      3.8386      3.1197      2.6376      2.1919      1.8095      1.4984      1.2622    
  1.1136      1.0671      1.1221      1.2676      1.4964      1.8075      2.1961      2.6473      3.1347      3.6182    
  4.0515      4.3970      4.6288      4.7212      4.6498      4.4137      4.0477      3.6020      2.9006      2.5032    
  2.1145      1.7723      1.4927      1.2693      1.1062      1.0235      1.0287      1.1100      1.2602      1.4825    
  1.7712      2.1118      2.4962      2.9098      3.3071      3.6306      3.8530      3.9742      3.9829      3.8582    
  3.6087      3.2767      2.6247      2.3195      2.0027      1.7084      1.4661      1.2742      1.1246      1.0293    
  1.0017      1.0342      1.1181      1.2615      1.4661      1.7112      1.9835      2.2914      2.6247      2.9297    
  3.1538      3.2868      3.3360      3.2891      3.1366      2.9029      2.3211      2.1019      1.8654      1.6316    
  1.4318      1.2766      1.1563      1.0714      1.0337      1.0394      1.0756      1.1497      1.2784      1.4513    
  1.6400      1.8413      2.0707      2.3141      2.5242      2.6679      2.7427      2.7462      2.6680      2.5164    
  2.0181      1.8722      1.7135      1.5505      1.4050      1.2927      1.2090      1.1477      1.1157      1.1136    
  1.1266      1.1500      1.2045      1.3045      1.4330      1.5661      1.7047      1.8573      2.0101      2.1363    
  2.2201      2.2545      2.2293      2.1441      1.7379      1.6532      1.5628      1.4716      1.3908      1.3327    
  1.2962      1.2716      1.2578      1.2585      1.2657      1.2658      1.2638      1.2826      1.3345      1.4090    
  1.4906      1.5738      1.6569      1.7339      1.7969      1.8371      1.8427      1.8068      1.4946      1.4608    
  1.4285      1.4029      1.3888      1.3926      1.4139      1.4420      1.4661      1.4837      1.4944      1.4909    
  1.4661      1.4260      1.3904      1.3770      1.3888      1.4158      1.4453      1.4713      1.4946      1.5152    
  1.5265      1.5197      1.2956      1.3021      1.3191      1.3515      1.4012      1.4682      1.5506      1.6400    
  1.7213      1.7798      1.8096      1.8114      1.7846      1.7250      1.6358      1.5349      1.4474      1.3876    
  1.3517      1.3275      1.3088      1.2968      1.2926      1.2932      1.1474      1.1801      1.2362      1.3190    
  1.4283      1.5593      1.7048      1.8569      2.0025      2.1218      2.1962      2.2186      2.1940      2.1283    
  2.0217      1.8767      1.7091      1.5465      1.4117      1.3105      1.2361      1.1819      1.1478      1.1363    
  1.0568      1.0983      1.1794      1.3013      1.4631      1.6573      1.8715      2.0927      2.3073      2.4965    
  2.6369      2.7078      2.7019      2.6274      2.4995      2.3287      2.1202      1.8867      1.6548      1.4531    
  1.2949      1.1780      1.0979      1.0565      1.3948      1.4414      1.5760      1.7948      2.0937      2.4644    
  2.8914      3.3535      3.8210      4.2557      4.6141      4.8522      4.9333      4.8415      4.5957      4.2407    
  3.8211      3.3669      2.9048      2.4693      2.0938      1.7948      1.5757      1.4402      1.4410      1.4417    
  1.5587      1.7869      2.1203      2.5512      3.0686      3.6543      4.2752      4.8807      5.4123      5.8143    
  6.0369      6.0401      5.8137      5.3941      4.8513      4.2544      3.6514      3.0762      2.5592      2.1250    
  1.7884      1.5579      1.5762      1.5048      1.5755      1.7875      2.1324      2.5996      3.1818      3.8696    
  4.6353      5.4242      6.1615      6.7685      7.1753      7.3275      7.1951      6.7872      6.1600      5.4048    
  4.6167      3.8650      3.1871      2.6037      2.1321      1.7868      1.7970      1.6322      1.6279      1.7935    
  2.1250      2.6056      3.2260      3.9865      4.8704      5.8261      6.7747      7.6203      8.2591      8.6035    
  8.6098      8.2803      7.6510      6.7948      5.8253      4.8634      3.9879      3.2282      2.5991      2.1188    
  2.0938      1.8224      1.7216      1.8075      2.0937      2.5618      3.1914      3.9901      4.9584      6.0497    
  7.1826      8.2641      9.1741      9.7732      9.9675      9.7521      9.1741      8.2928      7.2027      6.0473    
  4.9584      3.9986      3.1865      2.5454      2.4534      2.0641      1.8591      1.8410      2.0448      2.4687    
  3.0770      3.8694      4.8725      6.0588      7.3365      8.6102      9.7780      10.681      11.148      11.113    
  10.628      9.7714      8.6263      7.3274      6.0444      4.8863      3.8832      3.0596      2.8687      2.3424    