unknown system                          
   1.00000000000000     
     3.190316    0.000000    0.000000
    -1.595158    2.762894    0.000000
     0.000000    0.000000   30.879004
   Mo   S 
     1     2
Direct
  0.333333  0.666667  0.120462
  0.666667  0.333333  0.069784
  0.666666  0.333333  0.171140
 
   24   24  240
 0.42504068085E+00 0.43127691565E+00 0.44811103376E+00 0.47729070867E+00 0.52179092805E+00
 0.58096407653E+00 0.64987182366E+00 0.72247047031E+00 0.79342394320E+00 0.85815802437E+00
 0.91234765261E+00 0.94966409268E+00 0.96102810747E+00 0.94141862104E+00 0.89826143138E+00
 0.84662154936E+00 0.79341984729E+00 0.73271623756E+00 0.66009401524E+00 0.58478379232E+00
 0.52177314762E+00 0.47720385807E+00 0.44780054040E+00 0.43039480496E+00 0.43096878365E+00
 0.43155610483E+00 0.44702278598E+00 0.47802009442E+00 0.52663683086E+00 0.59360462044E+00
 0.67695553488E+00 0.77202015811E+00 0.87042091261E+00 0.96132072815E+00 0.10371037349E+01
 0.10953440787E+01 0.11314680737E+01 0.11340283957E+01 0.10949807028E+01 0.10229330775E+01
 0.93810185034E+00 0.85374296233E+00 0.76944519684E+00 0.68288965224E+00 0.59998822152E+00
 0.53040031292E+00 0.47917507495E+00 0.44640751765E+00 0.44826133855E+00 0.43822719968E+00
 0.44771785531E+00 0.47855069278E+00 0.53050662643E+00 0.60175813191E+00 0.69209888908E+00
 0.80126962593E+00 0.92291600021E+00 0.10432896855E+01 0.11482039402E+01 0.12301659898E+01
 0.12869779397E+01 0.13142411775E+01 0.13024997316E+01 0.12447207486E+01 0.11467623358E+01
 0.10278332049E+01 0.90832967615E+00 0.79786764858E+00 0.69649634877E+00 0.60515528485E+00
 0.53030570088E+00 0.47799699266E+00 0.47904863732E+00 0.45493585819E+00 0.45160675782E+00
 0.47629811451E+00 0.53055782226E+00 0.60669677591E+00 0.70138385927E+00 0.81862117449E+00
 0.95582122788E+00 0.10987188974E+01 0.12320525843E+01 0.13449406368E+01 0.14267097580E+01
 0.14695345295E+01 0.14743813730E+01 0.14431620680E+01 0.13688733087E+01 0.12478439182E+01
 0.10983706995E+01 0.95076307562E+00 0.81998072353E+00 0.70320476290E+00 0.60155844373E+00
 0.52562538373E+00 0.52177313319E+00 0.48403732001E+00 0.46399261863E+00 0.47236139907E+00
 0.52177878757E+00 0.60214927845E+00 0.70019161383E+00 0.82191991277E+00 0.97247629445E+00
 0.11345696700E+01 0.12880393915E+01 0.14284762597E+01 0.15470486871E+01 0.16182429580E+01
 0.16301969759E+01 0.16017155823E+01 0.15470460570E+01 0.14511140099E+01 0.13040580458E+01
 0.11329731802E+01 0.97247258776E+00 0.82835504007E+00 0.69603556433E+00 0.58919514659E+00
 0.57227258166E+00 0.52070604892E+00 0.48793734002E+00 0.47367611932E+00 0.50538011401E+00
 0.58410338212E+00 0.68352092888E+00 0.80162535354E+00 0.95821358818E+00 0.11422049914E+01
 0.13164119495E+01 0.14718085094E+01 0.16208033622E+01 0.17412455917E+01 0.17881471437E+01
 0.17609109477E+01 0.16997686485E+01 0.16158155684E+01 0.14844989871E+01 0.13092424607E+01
 0.11306810676E+01 0.96862317060E+00 0.81213092190E+00 0.66980448931E+00 0.63186092344E+00
 0.55778910799E+00 0.51851477127E+00 0.48680813672E+00 0.49035142563E+00 0.55593797522E+00
 0.65616213010E+00 0.76511690148E+00 0.90855611730E+00 0.11034151257E+01 0.13059723748E+01
 0.14758470020E+01 0.16321663632E+01 0.17893103778E+01 0.18977830476E+01 0.19107171289E+01
 0.18535628255E+01 0.17686313277E+01 0.16462649912E+01 0.14702357400E+01 0.12758249452E+01
 0.11019675250E+01 0.93702357110E+00 0.76826713798E+00 0.70654755950E+00 0.59596486477E+00
 0.54628788332E+00 0.50917410288E+00 0.48557413172E+00 0.52347817647E+00 0.62062954619E+00
 0.72803974765E+00 0.84746018203E+00 0.10246141224E+01 0.12460676725E+01 0.14435578066E+01
 0.16015785661E+01 0.17602211779E+01 0.19097836831E+01 0.19843114381E+01 0.19656473463E+01
 0.18974582413E+01 0.17930479707E+01 0.16259689728E+01 0.14147262445E+01 0.12198304387E+01
 0.10522498310E+01 0.87698152729E+00 0.79341985491E+00 0.64301779334E+00 0.56760242485E+00
 0.52965993332E+00 0.49194868670E+00 0.49354727000E+00 0.57145070617E+00 0.68469059075E+00
 0.79342294011E+00 0.93544695370E+00 0.11446306210E+01 0.13686186062E+01 0.15470510047E+01
 0.16984428619E+01 0.18516975560E+01 0.19648418605E+01 0.19905508415E+01 0.19524000449E+01
 0.18817959199E+01 0.17516958535E+01 0.15470460902E+01 0.13276125615E+01 0.11463015460E+01
 0.97694386242E+00 0.87440729083E+00 0.70095251855E+00 0.58876358924E+00 0.54000438108E+00
 0.50185762238E+00 0.47499383956E+00 0.51391081267E+00 0.61855209905E+00 0.73244297751E+00
 0.85077499492E+00 0.10234993423E+01 0.12462495963E+01 0.14520829147E+01 0.16162132697E+01
 0.17680050445E+01 0.18975923619E+01 0.19532116143E+01 0.19338611166E+01 0.18846834438E+01
 0.18012078926E+01 0.16397204334E+01 0.14207252535E+01 0.12186870944E+01 0.10501448561E+01
 0.93023451782E+00 0.75836229292E+00 0.61730204151E+00 0.54356644049E+00 0.50573243643E+00
 0.47026412477E+00 0.46983856670E+00 0.53985235577E+00 0.64934912530E+00 0.76133122826E+00
 0.90016494878E+00 0.10928608534E+01 0.13027430217E+01 0.14846535653E+01 0.16461917126E+01
 0.17940387426E+01 0.18836706433E+01 0.18853670558E+01 0.18375768952E+01 0.17738839126E+01
 0.16621700637E+01 0.14779782232E+01 0.12709874808E+01 0.10938026589E+01 0.95659147953E+00
 0.79884857032E+00 0.65041627588E+00 0.55011152849E+00 0.50088970003E+00 0.46833691351E+00
 0.44986028506E+00 0.47948298360E+00 0.56137373701E+00 0.66404165418E+00 0.78216088552E+00
 0.93901180508E+00 0.11263771857E+01 0.13057646784E+01 0.14677286872E+01 0.16253220983E+01
 0.17530317039E+01 0.18015627071E+01 0.17723855183E+01 0.17100575069E+01 0.16231967373E+01
 0.14828625841E+01 0.12973163051E+01 0.11159254706E+01 0.96102814928E+00 0.81466943130E+00
 0.67554119019E+00 0.56295493167E+00 0.49432134513E+00 0.45769509214E+00 0.43793623978E+00
 0.44570655573E+00 0.49431070444E+00 0.57382562507E+00 0.67354975741E+00 0.80232716590E+00
 0.96102761976E+00 0.11235994033E+01 0.12707699347E+01 0.14119021408E+01 0.15470510451E+01
 0.16401423287E+01 0.16603994643E+01 0.16209195512E+01 0.15470487607E+01 0.14372600726E+01
 0.12865171541E+01 0.11184990665E+01 0.94833878669E+00 0.80965617455E+00 0.68275257875E+00
 0.57468056922E+00 0.49426224068E+00 0.44354430354E+00 0.41874153198E+00 0.41939688418E+00
 0.44769525531E+00 0.50135680814E+00 0.57774794547E+00 0.68122862681E+00 0.81339689601E+00
 0.95901409173E+00 0.10959382341E+01 0.12171385162E+01 0.13278773186E+01 0.14222186072E+01
 0.14789244043E+01 0.14829943791E+01 0.14373700672E+01 0.13516149370E+01 0.12332434153E+01
 0.10934447767E+01 0.91615986978E+00 0.79090463709E+00 0.67347561785E+00 0.57618778510E+00
 0.49934894648E+00 0.43955203128E+00 0.40170927408E+00 0.39266721072E+00 0.40944250745E+00
 0.44436639817E+00 0.49744419532E+00 0.57467054920E+00 0.67736197736E+00 0.79908580351E+00
 0.92832583949E+00 0.10495330231E+01 0.11484428409E+01 0.12216510888E+01 0.12739271195E+01
 0.13021487053E+01 0.12918516098E+01 0.12356494704E+01 0.11448525781E+01 0.10359256735E+01
 0.86290163651E+00 0.76109306280E+00 0.65562375273E+00 0.56675241893E+00 0.50058802200E+00
 0.44594863064E+00 0.40117186037E+00 0.37923043607E+00 0.38378204919E+00 0.40439106122E+00
 0.43787073751E+00 0.49178374171E+00 0.56617416356E+00 0.65361244673E+00 0.75483560470E+00
 0.87031303834E+00 0.97960654587E+00 0.10555264404E+01 0.10969195200E+01 0.11214461213E+01
 0.11290941970E+01 0.11016177354E+01 0.10367940620E+01 0.95364701791E+00 0.79342396096E+00
 0.71914544676E+00 0.63343435346E+00 0.55294208639E+00 0.49433796362E+00 0.45082940675E+00
 0.41147213425E+00 0.38426966810E+00 0.37915172503E+00 0.38861546390E+00 0.40563031191E+00
 0.43944357664E+00 0.49431068421E+00 0.55577790578E+00 0.61737605814E+00 0.69508024756E+00
 0.79342295029E+00 0.88320588512E+00 0.93678922899E+00 0.96114781413E+00 0.97247633242E+00
 0.96355347914E+00 0.92245522481E+00 0.86026994784E+00 0.71674960883E+00 0.66614605186E+00
 0.60551220077E+00 0.53984524934E+00 0.48718247454E+00 0.45123511833E+00 0.42093835870E+00
 0.39637780421E+00 0.38812579782E+00 0.39319902843E+00 0.40014015379E+00 0.41500135578E+00
 0.45238073549E+00 0.50388079325E+00 0.54732527872E+00 0.58504548365E+00 0.63955374269E+00
 0.71109605807E+00 0.77258983172E+00 0.80841567502E+00 0.82641815032E+00 0.82969097989E+00
 0.80874258070E+00 0.76572531626E+00 0.64202076886E+00 0.60868180034E+00 0.57138564208E+00
 0.52693247312E+00 0.48583757473E+00 0.45674609613E+00 0.43399933621E+00 0.41346541879E+00
 0.40362106506E+00 0.40766750991E+00 0.41337253065E+00 0.41566413803E+00 0.43008519322E+00
 0.46678518929E+00 0.50966271064E+00 0.53994449132E+00 0.56359965261E+00 0.59621293807E+00
 0.63578011419E+00 0.66925766798E+00 0.69234054661E+00 0.70498071412E+00 0.70041076655E+00
 0.67577746431E+00 0.57607297039E+00 0.55564178727E+00 0.53567415408E+00 0.51236772232E+00
 0.48879758513E+00 0.47184817670E+00 0.45988514603E+00 0.44690122604E+00 0.43636127965E+00
 0.43631391731E+00 0.44269106925E+00 0.44360593616E+00 0.44040891716E+00 0.44827299152E+00
 0.47340319843E+00 0.50416658017E+00 0.52807214545E+00 0.54475577376E+00 0.55907705699E+00
 0.57297919720E+00 0.58703907716E+00 0.59996088537E+00 0.60489719390E+00 0.59556559980E+00
 0.52179092932E+00 0.51226264048E+00 0.50455833908E+00 0.49778912530E+00 0.49192345001E+00
 0.49040119273E+00 0.49368864069E+00 0.49619084863E+00 0.49433795085E+00 0.49255691606E+00
 0.49553674607E+00 0.49887506478E+00 0.49432131217E+00 0.48242934880E+00 0.47375936497E+00
 0.47735939533E+00 0.49194868341E+00 0.50845531230E+00 0.51858452778E+00 0.52117883498E+00
 0.52177880326E+00 0.52542554379E+00 0.53004583805E+00 0.52935036247E+00 0.47900074242E+00
 0.47862249412E+00 0.48079220739E+00 0.48682143095E+00 0.49621164933E+00 0.50927069145E+00
 0.52697449934E+00 0.54727615682E+00 0.56422911345E+00 0.57329008630E+00 0.57622981229E+00
 0.57771594713E+00 0.57706000940E+00 0.56707841504E+00 0.54360844952E+00 0.51392867321E+00
 0.49195398352E+00 0.48479948941E+00 0.48685015068E+00 0.48789734407E+00 0.48429052934E+00
 0.47993699070E+00 0.47859272780E+00 0.47915615529E+00 0.44794911732E+00 0.45365719783E+00
 0.46387252874E+00 0.48075018087E+00 0.50439641351E+00 0.53253509045E+00 0.56369648753E+00
 0.59803926013E+00 0.63327242366E+00 0.66211938665E+00 0.67744971752E+00 0.67967518255E+00
 0.67537928333E+00 0.66734116647E+00 0.64943703100E+00 0.61479726734E+00 0.56744051163E+00
 0.52187126140E+00 0.49044360006E+00 0.47367407684E+00 0.46383068909E+00 0.45520359583E+00
 0.44834057500E+00 0.44584471204E+00 0.43006316695E+00 0.43790824723E+00 0.45311889074E+00
 0.47804216202E+00 0.51433639132E+00 0.55931913769E+00 0.60814347872E+00 0.65813479537E+00
 0.70835467642E+00 0.75513569748E+00 0.79036630052E+00 0.80604044032E+00 0.80106061204E+00
 0.78246199735E+00 0.75782399434E+00 0.72644789468E+00 0.68122002626E+00 0.62091981229E+00
 0.55725081849E+00 0.50590450014E+00 0.47260447617E+00 0.45187731716E+00 0.43768888935E+00
 0.42983971957E+00 0.56927637304E+00 0.58015858870E+00 0.61084604665E+00 0.66326048633E+00
 0.74035134982E+00 0.84054086714E+00 0.95672067790E+00 0.10795760960E+01 0.11997257498E+01
 0.13082845350E+01 0.13970040445E+01 0.14564335039E+01 0.14753111384E+01 0.14477376918E+01
 0.13820883006E+01 0.12960185641E+01 0.11996884820E+01 0.10904475518E+01 0.96758386846E+00
 0.84460649902E+00 0.74034916474E+00 0.66318924497E+00 0.61052213624E+00 0.57921370345E+00
 0.57982554985E+00 0.58042833755E+00 0.60872922290E+00 0.66504939471E+00 0.75083712815E+00
 0.86556805452E+00 0.10051102447E+01 0.11615855778E+01 0.13223361582E+01 0.14714958591E+01
 0.15964771655E+01 0.16906333740E+01 0.17460072560E+01 0.17487430388E+01 0.16902858608E+01
 0.15814882369E+01 0.14469491894E+01 0.13047731372E+01 0.11589440392E+01 0.10113810257E+01
 0.87224528862E+00 0.75477070019E+00 0.66628981764E+00 0.60812018441E+00 0.61098767994E+00
 0.59271519042E+00 0.61043706449E+00 0.66561298796E+00 0.75684191325E+00 0.88045221774E+00
 0.10338972063E+01 0.12139240080E+01 0.14101669522E+01 0.16037604056E+01 0.17747179051E+01
 0.19097307089E+01 0.20013632068E+01 0.20411780598E+01 0.20177662690E+01 0.19251220609E+01
 0.17732423242E+01 0.15875076693E+01 0.13947943520E+01 0.12102721887E+01 0.10384410317E+01
 0.88399073156E+00 0.75663704160E+00 0.66502671779E+00 0.66510505851E+00 0.62132474055E+00
 0.61783811059E+00 0.66224045604E+00 0.75491432327E+00 0.88558924123E+00 0.10480213349E+01
 0.12433622761E+01 0.14655013134E+01 0.16954493810E+01 0.19121507279E+01 0.20978686606E+01
 0.22342292483E+01 0.23064471284E+01 0.23115665093E+01 0.22516115857E+01 0.21231662602E+01
 0.19288566078E+01 0.16950804689E+01 0.14601066714E+01 0.12447348219E+01 0.10499345653E+01
 0.88019997089E+00 0.74971683388E+00 0.74034915031E+00 0.66934218468E+00 0.63750790104E+00
 0.65701675225E+00 0.74034411049E+00 0.87450074279E+00 0.10422922902E+01 0.12467293075E+01
 0.14900571019E+01 0.17506986092E+01 0.20030528357E+01 0.22361982716E+01 0.24323649890E+01
 0.25552562415E+01 0.25847710827E+01 0.25378183922E+01 0.24323625175E+01 0.22600647447E+01
 0.20199036690E+01 0.17489672959E+01 0.14900638429E+01 0.12535861427E+01 0.10379755017E+01
 0.86086630743E+00 0.83141290353E+00 0.73192236388E+00 0.67380840935E+00 0.65875366467E+00
 0.71574959790E+00 0.84390484892E+00 0.10120205445E+01 0.12141766716E+01 0.14679199063E+01
 0.17587053547E+01 0.20439758066E+01 0.23088554294E+01 0.25578241953E+01 0.27560788738E+01
 0.28447369309E+01 0.28159616126E+01 0.27122517619E+01 0.25525328163E+01 0.23222305572E+01
 0.20363789806E+01 0.17465408370E+01 0.14789659560E+01 0.12253407321E+01 0.99757561029E+00
 0.93775585454E+00 0.80091003124E+00 0.72218319580E+00 0.67590004599E+00 0.69244604083E+00
 0.79899741913E+00 0.96349397334E+00 0.11544084843E+01 0.13950268587E+01 0.17003686687E+01
 0.20218742391E+01 0.23130508660E+01 0.25865835365E+01 0.28457709710E+01 0.30242153578E+01
 0.30606853532E+01 0.29774917786E+01 0.28239211932E+01 0.26014928534E+01 0.23071620400E+01
 0.19900756463E+01 0.16988712140E+01 0.14250879146E+01 0.11576809628E+01 0.10627781932E+01
 0.87528676442E+00 0.77227551842E+00 0.70661904141E+00 0.68165756089E+00 0.74814264409E+00
 0.90138642745E+00 0.10856023151E+01 0.12982176661E+01 0.15841172604E+01 0.19269372438E+01
 0.22520445799E+01 0.25374816262E+01 0.28150253545E+01 0.30595969537E+01 0.31864446002E+01
 0.31667441187E+01 0.30466040916E+01 0.28497156314E+01 0.25632587458E+01 0.22216282603E+01
 0.18992714136E+01 0.16133020907E+01 0.13293044799E+01 0.11996884896E+01 0.96049011066E+00
 0.81865713878E+00 0.73899247424E+00 0.68552442608E+00 0.70078923069E+00 0.82265018298E+00
 0.10044670465E+01 0.11996927964E+01 0.14441966661E+01 0.17710491358E+01 0.21229279733E+01
 0.24323721276E+01 0.27108478561E+01 0.29755194373E+01 0.31658919184E+01 0.32184370690E+01
 0.31527513237E+01 0.30073197951E+01 0.27671075259E+01 0.24323625507E+01 0.20795883046E+01
 0.17727767888E+01 0.14879995079E+01 0.13253956226E+01 0.10552533812E+01 0.86557017770E+00
 0.76309750366E+00 0.69614005895E+00 0.66776864810E+00 0.73551734803E+00 0.89695086029E+00
 0.10883888851E+01 0.13003514109E+01 0.15821277740E+01 0.19268099553E+01 0.22610694832E+01
 0.25531292623E+01 0.28234586044E+01 0.30468455226E+01 0.31536068152E+01 0.31331480517E+01
 0.30331832363E+01 0.28585322594E+01 0.25779625990E+01 0.22279002590E+01 0.18976199749E+01
 0.16102534650E+01 0.14158721940E+01 0.11442061509E+01 0.91825935694E+00 0.78068737142E+00
 0.70269320858E+00 0.65216515447E+00 0.66482673844E+00 0.77682405892E+00 0.95212755975E+00
 0.11472957991E+01 0.13840458008E+01 0.16880062760E+01 0.20180117015E+01 0.23224263569E+01
 0.26016766391E+01 0.28509607343E+01 0.30093033315E+01 0.30338025311E+01 0.29606034763E+01
 0.28296684298E+01 0.26185549775E+01 0.23153572791E+01 0.19844479568E+01 0.16890227994E+01
 0.14637583309E+01 0.12073481490E+01 0.97127658249E+00 0.80011235537E+00 0.70124223265E+00
 0.64224101164E+00 0.62274591003E+00 0.67871258533E+00 0.81214123391E+00 0.98576833754E+00
 0.11897262375E+01 0.14451439364E+01 0.17405949498E+01 0.20321858835E+01 0.23045308129E+01
 0.25627358567E+01 0.27685306528E+01 0.28587153449E+01 0.28278754456E+01 0.27231148530E+01
 0.25605097629E+01 0.23205519294E+01 0.20232825215E+01 0.17295844302E+01 0.14753111802E+01
 0.12347188138E+01 0.10094338014E+01 0.82308011052E+00 0.69795009722E+00 0.62549411179E+00
 0.59291929398E+00 0.61277881046E+00 0.69794391724E+00 0.83463829966E+00 0.10073773237E+01
 0.12216758937E+01 0.14753206799E+01 0.17376899328E+01 0.19842278075E+01 0.22185768462E+01
 0.24323721681E+01 0.25782666155E+01 0.26164115597E+01 0.25579022231E+01 0.24323650626E+01
 0.22454290747E+01 0.20008976757E+01 0.17322798351E+01 0.14550057817E+01 0.12294536175E+01
 0.10210777987E+01 0.84046271240E+00 0.70043597468E+00 0.60699028472E+00 0.55964700143E+00
 0.56022035833E+00 0.61118219327E+00 0.70787850553E+00 0.84373370837E+00 0.10194350372E+01
 0.12333637537E+01 0.14663421905E+01 0.16913089582E+01 0.18960051419E+01 0.20798380954E+01
 0.22295528867E+01 0.23163535698E+01 0.23206212677E+01 0.22455377015E+01 0.21049621819E+01
 0.19130334359E+01 0.16885937881E+01 0.14009300252E+01 0.11989847105E+01 0.10073121527E+01
 0.84205422044E+00 0.70664747192E+00 0.60088599842E+00 0.53337740314E+00 0.51416680638E+00
 0.54137844923E+00 0.60589044062E+00 0.70468636801E+00 0.84043101060E+00 0.10113033072E+01
 0.12076218214E+01 0.14139037348E+01 0.16096298866E+01 0.17749751193E+01 0.19011428648E+01
 0.19881202981E+01 0.20289072924E+01 0.20069788177E+01 0.19159415335E+01 0.17712575250E+01
 0.15952140866E+01 0.13131835478E+01 0.11470314113E+01 0.97684899083E+00 0.82713778249E+00
 0.70702094936E+00 0.60750508478E+00 0.52983618741E+00 0.49051021003E+00 0.49528025239E+00
 0.53324689933E+00 0.59911649395E+00 0.69780185160E+00 0.82642169283E+00 0.97464675019E+00
 0.11405218896E+01 0.13210796001E+01 0.14907578331E+01 0.16166856597E+01 0.16935947770E+01
 0.17368629285E+01 0.17448304984E+01 0.16984325855E+01 0.15969864961E+01 0.14634588453E+01
 0.11997257676E+01 0.10743607525E+01 0.93531418465E+00 0.80322108046E+00 0.69795663506E+00
 0.61447745032E+00 0.54351117420E+00 0.49579196334E+00 0.48373122250E+00 0.50033603769E+00
 0.53745249011E+00 0.60265515949E+00 0.69794389701E+00 0.80607539336E+00 0.91834368563E+00
 0.10490570668E+01 0.11996928065E+01 0.13358418211E+01 0.14248548925E+01 0.14711587458E+01
 0.14900571398E+01 0.14735403017E+01 0.14097014312E+01 0.13117695544E+01 0.10736551868E+01
 0.98486799874E+00 0.88319284893E+00 0.77684138558E+00 0.68686740988E+00 0.61865182123E+00
 0.56189347577E+00 0.51809443235E+00 0.49982581668E+00 0.50508002138E+00 0.52196268244E+00
 0.55572719844E+00 0.61997348855E+00 0.70440399387E+00 0.78461991485E+00 0.86165288012E+00
 0.95688397662E+00 0.10676037632E+01 0.11622043475E+01 0.12214493302E+01 0.12515755359E+01
 0.12549489340E+01 0.12217198957E+01 0.11550528206E+01 0.94855381753E+00 0.88875146642E+00
 0.82255610338E+00 0.74925082990E+00 0.68173778629E+00 0.63007673516E+00 0.58883191608E+00
 0.55409760288E+00 0.53534429944E+00 0.53661012295E+00 0.54547022885E+00 0.55634430599E+00
 0.58475244186E+00 0.64064148017E+00 0.70677749491E+00 0.76301945847E+00 0.81448332385E+00
 0.87559202405E+00 0.94183284087E+00 0.99695201356E+00 0.10341254174E+01 0.10518121093E+01
 0.10425296349E+01 0.10038471566E+01 0.83542277152E+00 0.79868625479E+00 0.76101717233E+00
 0.72064325013E+00 0.68231916231E+00 0.65382579664E+00 0.63331988927E+00 0.61409910018E+00
 0.59940456241E+00 0.59748798123E+00 0.60412914060E+00 0.60693072006E+00 0.60726040128E+00
 0.62110231953E+00 0.65540833234E+00 0.69851392473E+00 0.73733329075E+00 0.77069393244E+00
 0.80224060512E+00 0.83207949812E+00 0.85861551345E+00 0.87855532693E+00 0.88369538394E+00
 0.86754812054E+00 0.74035135109E+00 0.72300932319E+00 0.70745773892E+00 0.69458239316E+00
 0.68551124315E+00 0.68401226593E+00 0.68990465782E+00 0.69621332515E+00 0.69795662229E+00
 0.69869694921E+00 0.70272150793E+00 0.70528870847E+00 0.69795006426E+00 0.68179660731E+00
 0.66890933015E+00 0.67018800830E+00 0.68552442280E+00 0.70590192855E+00 0.72227406511E+00
 0.73236819717E+00 0.74034412619E+00 0.74957351705E+00 0.75637637931E+00 0.75365028552E+00
 0.66506349570E+00 0.66361808812E+00 0.66629063314E+00 0.67595108483E+00 0.69296039935E+00
 0.71747202470E+00 0.74932276577E+00 0.78456531638E+00 0.81497885447E+00 0.83398364552E+00
 0.84212615728E+00 0.84369348214E+00 0.83799870990E+00 0.81807981748E+00 0.78075929011E+00
 0.73552345434E+00 0.69913332597E+00 0.68089654231E+00 0.67597196960E+00 0.67375024987E+00
 0.66958689671E+00 0.66610316143E+00 0.66568493263E+00 0.66624056350E+00 0.61066554181E+00
 0.62000245901E+00 0.63738590454E+00 0.66621869697E+00 0.70727722494E+00 0.75777400448E+00
 0.81456973166E+00 0.87539697532E+00 0.93513366644E+00 0.98362291075E+00 0.10114186043E+01
 0.10177751010E+01 0.10092533062E+01 0.98917213899E+00 0.95222374180E+00 0.89307228760E+00
 0.81847663716E+00 0.74648110122E+00 0.69253569087E+00 0.65873987607E+00 0.63732738309E+00
 0.62162886815E+00 0.61108311815E+00 0.60746613139E+00 0.57886098276E+00 0.59242867496E+00
 0.61942512389E+00 0.66296881833E+00 0.72513671025E+00 0.80250673746E+00 0.88817411677E+00
 0.97649478123E+00 0.10631083536E+01 0.11408347880E+01 0.11984073459E+01 0.12255735537E+01
 0.12203055913E+01 0.11900299382E+01 0.11436288243E+01 0.10821781611E+01 0.10008546604E+01
 0.90165853526E+00 0.80033271371E+00 0.71627651698E+00 0.65727744504E+00 0.61811130800E+00
 0.59213785205E+00 0.57858790670E+00 0.76173107401E+00 0.78075658192E+00 0.83526828377E+00
 0.92609459625E+00 0.10545337869E+01 0.12165910026E+01 0.14019631304E+01 0.15973638022E+01
 0.17884977524E+01 0.19607729706E+01 0.21001877126E+01 0.21923289020E+01 0.22223864221E+01
 0.21830861097E+01 0.20843009735E+01 0.19476915873E+01 0.17884640509E+01 0.16089701603E+01
 0.14135443372E+01 0.12209224047E+01 0.10545627120E+01 0.92606745613E+00 0.83493712504E+00
 0.77973178726E+00 0.78039331663E+00 0.78101929071E+00 0.83044435324E+00 0.92752118100E+00
 0.10712164607E+01 0.12579146113E+01 0.14800646028E+01 0.17258151593E+01 0.19772410912E+01
 0.22116478464E+01 0.24090196094E+01 0.25560688060E+01 0.26396592309E+01 0.26425727572E+01
 0.25556966217E+01 0.23930745770E+01 0.21855927038E+01 0.19586858788E+01 0.17231179612E+01
 0.14867475734E+01 0.12649583749E+01 0.10753628282E+01 0.92885798964E+00 0.82983180695E+00
 0.83541863670E+00 0.80408674540E+00 0.83484662551E+00 0.92812708956E+00 0.10795657327E+01
 0.12816234533E+01 0.15280139899E+01 0.18117535051E+01 0.21174685314E+01 0.24189889826E+01
 0.26872467523E+01 0.28998129867E+01 0.30417180370E+01 0.30993883910E+01 0.30591312251E+01
 0.29161689488E+01 0.26857340117E+01 0.24018092093E+01 0.21011785989E+01 0.18078191893E+01
 0.15327373808E+01 0.12853161056E+01 0.10793360615E+01 0.92750097691E+00 0.92807046968E+00
 0.85425756269E+00 0.85056652693E+00 0.92504148350E+00 0.10754925098E+01 0.12870037627E+01
 0.15489233493E+01 0.18589277785E+01 0.22065249030E+01 0.25655388246E+01 0.29049598540E+01
 0.31957658003E+01 0.34088841677E+01 0.35215621510E+01 0.35270226843E+01 0.34273963616E+01
 0.32226723816E+01 0.29226982942E+01 0.25650899294E+01 0.22007034139E+01 0.18603039762E+01
 0.15509256150E+01 0.12812945491E+01 0.10699842531E+01 0.10545626976E+01 0.93423273513E+00
 0.88492151057E+00 0.92115625610E+00 0.10545476303E+01 0.12673170901E+01 0.15367510751E+01
 0.18623469469E+01 0.22429275268E+01 0.26501505398E+01 0.30480271818E+01 0.34133793998E+01
 0.37154462628E+01 0.39061131021E+01 0.39581737137E+01 0.38876302842E+01 0.37154509684E+01
 0.34386623143E+01 0.30658244055E+01 0.26482496098E+01 0.22429472305E+01 0.18697025362E+01
 0.15322558829E+01 0.12528952715E+01 0.12069478094E+01 0.10379179310E+01 0.94291702994E+00
 0.92697314584E+00 0.10208109694E+01 0.12202075039E+01 0.14873664963E+01 0.18118610279E+01
 0.22089178941E+01 0.26585410598E+01 0.31074804033E+01 0.35278735682E+01 0.39106475750E+01
 0.42067236921E+01 0.43454965559E+01 0.43149114792E+01 0.41601157714E+01 0.39049669184E+01
 0.35420618806E+01 0.30994454126E+01 0.26456765904E+01 0.22207180901E+01 0.18238123284E+01
 0.14721114752E+01 0.13818944693E+01 0.11551589869E+01 0.10197270620E+01 0.95271452099E+00
 0.98818471999E+00 0.11531713415E+01 0.14092784133E+01 0.17183566446E+01 0.21014283584E+01
 0.25706547945E+01 0.30678460356E+01 0.35322695133E+01 0.39625249387E+01 0.43476414930E+01
 0.46066626829E+01 0.46691062437E+01 0.45570739482E+01 0.43244461207E+01 0.39783557286E+01
 0.35260687678E+01 0.30341745288E+01 0.25691114703E+01 0.21333099834E+01 0.17217609719E+01
 0.15795877821E+01 0.12826143391E+01 0.11035967440E+01 0.99730770127E+00 0.97076431279E+00
 0.10779034909E+01 0.13103379851E+01 0.16039660794E+01 0.19518594894E+01 0.23982397188E+01
 0.29206339939E+01 0.34301566163E+01 0.38890155029E+01 0.43149496296E+01 0.46683353336E+01
 0.48514953797E+01 0.48306678474E+01 0.46546841553E+01 0.43518099827E+01 0.39163376762E+01
 0.33978783709E+01 0.28913128802E+01 0.24291730545E+01 0.19846927324E+01 0.17884640586E+01
 0.14228953643E+01 0.11870598424E+01 0.10482071977E+01 0.97271189074E+00 0.10076335479E+01
 0.11912203472E+01 0.14694859715E+01 0.17884647555E+01 0.21827383389E+01 0.26834838649E+01
 0.32224575203E+01 0.37154620652E+01 0.41586190810E+01 0.45549806324E+01 0.48297648730E+01
 0.49102682815E+01 0.48158288581E+01 0.45887238187E+01 0.42183117491E+01 0.37154510017E+01
 0.31764480121E+01 0.26852525084E+01 0.22291525532E+01 0.19788831735E+01 0.15707294033E+01
 0.12720561898E+01 0.10940441700E+01 0.98668774041E+00 0.95663767017E+00 0.10648338967E+01
 0.13052563830E+01 0.16056893139E+01 0.19521941520E+01 0.23937923839E+01 0.29180245833E+01
 0.34374186554E+01 0.39038347830E+01 0.43229150215E+01 0.46545572203E+01 0.48167350836E+01
 0.47949584755E+01 0.46399331950E+01 0.43600776535E+01 0.39302234579E+01 0.34022448989E+01
 0.28869959310E+01 0.24236046497E+01 0.21201495358E+01 0.17055687164E+01 0.13609439708E+01
 0.11348460866E+01 0.10011384982E+01 0.92998013572E+00 0.96102478815E+00 0.11308160193E+01
 0.13968892892E+01 0.17087876048E+01 0.20863019913E+01 0.25532192819E+01 0.30593807324E+01
 0.35385632677E+01 0.39761192699E+01 0.43520880832E+01 0.45908291956E+01 0.46409714872E+01
 0.45391642786E+01 0.43295034592E+01 0.39940222774E+01 0.35310442500E+01 0.30237642120E+01
 0.25543396475E+01 0.22000756658E+01 0.18022475695E+01 0.14443983961E+01 0.11766626739E+01
 0.10104744438E+01 0.91568508238E+00 0.89499191903E+00 0.98660840949E+00 0.11895688343E+01
 0.14599263907E+01 0.17835838981E+01 0.21802715013E+01 0.26338708360E+01 0.30898621735E+01
 0.35195552108E+01 0.39139997964E+01 0.42198300087E+01 0.43613215567E+01 0.43286334548E+01
 0.41717225628E+01 0.39117011013E+01 0.35365486690E+01 0.30803803398E+01 0.26222077229E+01
 0.22223864639E+01 0.18470752487E+01 0.15029249126E+01 0.12178801678E+01 0.10184894421E+01
 0.89928730214E+00 0.85008488669E+00 0.88571479355E+00 0.10184854871E+01 0.12302555319E+01
 0.15008156189E+01 0.18332254047E+01 0.22224071003E+01 0.26308329054E+01 0.30235321695E+01
 0.33922754872E+01 0.37154621057E+01 0.39323495153E+01 0.39941748159E+01 0.39106705991E+01
 0.37154463364E+01 0.34208327976E+01 0.30412365380E+01 0.26250461236E+01 0.21907688212E+01
 0.18415414056E+01 0.15216441523E+01 0.12456639422E+01 0.10298485627E+01 0.88334479640E+00
 0.80839823361E+00 0.80887394477E+00 0.88758925772E+00 0.10377104743E+01 0.12491675864E+01
 0.15198298404E+01 0.18456169095E+01 0.22028582226E+01 0.25567979185E+01 0.28852728836E+01
 0.31766760699E+01 0.34063714537E+01 0.35358481715E+01 0.35402880478E+01 0.34232209103E+01
 0.32033660719E+01 0.29033916681E+01 0.25538471786E+01 0.21042104244E+01 0.17934228948E+01
 0.15007559126E+01 0.12473514321E+01 0.10396230498E+01 0.87962094188E+00 0.77831194162E+00
 0.74772158345E+00 0.78658812921E+00 0.88483195958E+00 0.10376054798E+01 0.12455889342E+01
 0.15048383334E+01 0.18025919949E+01 0.21181278633E+01 0.24229654284E+01 0.26875065794E+01
 0.28932701911E+01 0.30321735096E+01 0.30914872934E+01 0.30520498947E+01 0.29089814555E+01
 0.26837056091E+01 0.24076626176E+01 0.19658214087E+01 0.17084662168E+01 0.14503986672E+01
 0.12222333024E+01 0.10367349176E+01 0.88649582494E+00 0.77400273527E+00 0.71711604331E+00
 0.72210680727E+00 0.77759651398E+00 0.87776499183E+00 0.10270648449E+01 0.12213523468E+01
 0.14479853116E+01 0.17017206741E+01 0.19743002520E+01 0.22320081450E+01 0.24326705630E+01
 0.25635878817E+01 0.26354810169E+01 0.26437974150E+01 0.25685842543E+01 0.24119220520E+01
 0.22032238987E+01 0.17884977702E+01 0.15908138155E+01 0.13790588425E+01 0.11800987807E+01
 0.10184778546E+01 0.89106492855E+00 0.78884511467E+00 0.72265424222E+00 0.70472360128E+00
 0.72740993193E+00 0.78256543908E+00 0.87879781790E+00 0.10184854668E+01 0.11829308413E+01
 0.13610407462E+01 0.15641462033E+01 0.17884647657E+01 0.19915934286E+01 0.21330782462E+01
 0.22125409688E+01 0.22429275648E+01 0.22148734559E+01 0.21169870425E+01 0.19662280398E+01
 0.15912339396E+01 0.14486656415E+01 0.12906965445E+01 0.11309016085E+01 0.99532097101E+00
 0.89200076705E+00 0.81069365753E+00 0.75187100188E+00 0.72687590681E+00 0.73233142492E+00
 0.75587000869E+00 0.80430419010E+00 0.89353652178E+00 0.10137648801E+01 0.11389644244E+01
 0.12679349218E+01 0.14191347345E+01 0.15847506529E+01 0.17265050570E+01 0.18197057329E+01
 0.18676186612E+01 0.18710977815E+01 0.18199019420E+01 0.17190237657E+01 0.13934472950E+01
 0.12969480187E+01 0.11911099927E+01 0.10793757427E+01 0.97896751750E+00 0.90283547465E+00
 0.84584244180E+00 0.80254523545E+00 0.78032926482E+00 0.78106969188E+00 0.79085047344E+00
 0.80481958377E+00 0.84156905948E+00 0.91400000204E+00 0.10053891886E+01 0.10940069390E+01
 0.11827045130E+01 0.12829741579E+01 0.13861444020E+01 0.14713733697E+01 0.15282352272E+01
 0.15529449196E+01 0.15370113616E+01 0.14787076018E+01 0.12112104722E+01 0.11528763299E+01
 0.10915917722E+01 0.10286759717E+01 0.97200735487E+00 0.93167738730E+00 0.90619746774E+00
 0.88721433579E+00 0.87533284122E+00 0.87606686134E+00 0.88298292304E+00 0.88312811632E+00
 0.87995515333E+00 0.89331503840E+00 0.93334215257E+00 0.98917271761E+00 0.10464743870E+01
 0.11019053641E+01 0.11565333665E+01 0.12075763965E+01 0.12505349867E+01 0.12796202135E+01