    3    3    1    1
  0.9072772E+02  0.3190316E-09  0.3190316E-09  0.3087900E-08  0.5000000E-15
  1.000000000000000E-004
  CAR 
 unknown system                          
     18     10     14
 
  0.0000000E+00  0.0000000E+00  0.0000000E+00  0.1562500E-01
    1      -17.798035   1.000000
    2      -16.589634   1.000000
    3       -9.307375   1.000000
    4       -6.345863   1.000000
    5       -6.345603   1.000000
    6       -5.486213   1.000000
    7       -5.238463   1.000000
    8       -5.237997   1.000000
    9       -3.763269   1.000000
   10       -0.989357   0.000000
   11       -0.988576   0.000000
   12       -0.766927   0.000000
   13       -0.766241   0.000000
   14        1.642501   0.000000
 
  0.1250000E+00 -0.2081668E-16  0.0000000E+00  0.9375000E-01
    1      -17.584006   1.000000
    2      -16.487247   1.000000
    3       -9.063005   1.000000
    4       -6.810484   1.000000
    5       -6.293374   1.000000
    6       -6.111905   1.000000
    7       -5.574974   1.000000
    8       -4.807455   1.000000
    9       -3.902556   1.000000
   10       -1.272651   0.000000
   11       -1.205910   0.000000
   12       -1.004239   0.000000
   13       -0.635593   0.000000
   14        2.009369   0.000000
 
  0.2500000E+00 -0.4163336E-16  0.0000000E+00  0.9375000E-01
    1      -17.015455   1.000000
    2      -16.218339   1.000000
    3       -8.696993   1.000000
    4       -7.538800   1.000000
    5       -7.274961   1.000000
    6       -6.211343   1.000000
    7       -5.525687   1.000000
    8       -5.059487   1.000000
    9       -4.471051   1.000000
   10       -1.596510   0.000000
   11       -1.421201   0.000000
   12       -0.878319   0.000000
   13       -0.020196   0.000000
   14        2.831741   0.000000
 
  0.3750000E+00 -0.8326673E-16  0.0000000E+00  0.9375000E-01
    1      -16.340527   1.000000
    2      -15.909751   1.000000
    3       -9.136369   1.000000
    4       -8.143668   1.000000
    5       -7.669916   1.000000
    6       -6.710383   1.000000
    7       -5.468541   1.000000
    8       -4.936070   1.000000
    9       -4.665321   1.000000
   10       -1.603985   0.000000
   11       -1.324092   0.000000
   12       -0.159610   0.000000
   13        0.372031   0.000000
   14        3.396407   0.000000
 
  0.5000000E+00 -0.8326673E-16  0.0000000E+00  0.4687500E-01
    1      -16.012254   1.000000
    2      -15.766405   1.000000
    3       -9.469361   1.000000
    4       -8.509875   1.000000
    5       -7.795327   1.000000
    6       -6.890998   1.000000
    7       -5.606772   1.000000
    8       -4.708854   1.000000
    9       -4.383796   1.000000
   10       -1.582288   0.000000
   11       -1.067642   0.000000
   12        0.140135   0.000000
   13        0.488061   0.000000
   14        2.442188   0.000000
 
  0.1250000E+00  0.1250000E+00  0.0000000E+00  0.9375000E-01
    1      -17.191324   1.000000
    2      -16.300139   1.000000
    3       -8.715792   1.000000
    4       -7.375595   1.000000
    5       -6.856189   1.000000
    6       -6.389505   1.000000
    7       -5.773252   1.000000
    8       -4.672797   1.000000
    9       -4.275377   1.000000
   10       -1.671650   0.000000
   11       -1.294189   0.000000
   12       -1.281947   0.000000
   13       -0.041303   0.000000
   14        2.609311   0.000000
 
  0.2500000E+00  0.1250000E+00  0.0000000E+00  0.1875000E+00
    1      -16.557933   1.000000
    2      -16.001489   1.000000
    3       -8.779706   1.000000
    4       -7.802273   1.000000
    5       -7.538839   1.000000
    6       -6.894741   1.000000
    7       -5.674049   1.000000
    8       -5.035686   1.000000
    9       -4.559099   1.000000
   10       -1.755244   0.000000
   11       -1.308508   0.000000
   12       -0.811680   0.000000
   13        0.464008   0.000000
   14        3.585724   0.000000
 
  0.3750000E+00  0.1250000E+00  0.0000000E+00  0.1875000E+00
    1      -16.027503   1.000000
    2      -15.757528   1.000000
    3       -9.181595   1.000000
    4       -8.565759   1.000000
    5       -7.667732   1.000000
    6       -6.912169   1.000000
    7       -5.658848   1.000000
    8       -5.516921   1.000000
    9       -4.232184   1.000000
   10       -1.563198   0.000000
   11       -1.053135   0.000000
   12       -0.187769   0.000000
   13        0.498262   0.000000
   14        2.967844   0.000000
 
  0.2500000E+00  0.2500000E+00  0.0000000E+00  0.9375000E-01
    1      -16.042541   1.000000
    2      -15.748613   1.000000
    3       -8.821005   1.000000
    4       -8.615569   1.000000
    5       -7.341436   1.000000
    6       -6.960569   1.000000
    7       -6.641264   1.000000
    8       -5.383894   1.000000
    9       -4.261997   1.000000
   10       -1.614059   0.000000
   11       -1.002468   0.000000
   12       -0.685874   0.000000
   13        0.782382   0.000000
   14        3.798375   0.000000
 
  0.3750000E+00  0.2500000E+00  0.0000000E+00  0.9375000E-01
    1      -15.807561   1.000000
    2      -15.629579   1.000000
    3       -9.000358   1.000000
    4       -8.651700   1.000000
    5       -7.624935   1.000000
    6       -6.962941   1.000000
    7       -6.734612   1.000000
    8       -5.769437   1.000000
    9       -3.894694   1.000000
   10       -1.940377   0.000000
   11       -0.624889   0.000000
   12       -0.453137   0.000000
   13        0.925399   0.000000
   14        3.211400   0.000000
