unknown system                          
   1.00000000000000     
     3.190316    0.000000    0.000000
    -1.595158    2.762894    0.000000
     0.000000    0.000000   30.879004
   Mo   S 
     1     2
Direct
  0.333333  0.666667  0.120462
  0.666667  0.333333  0.069784
  0.666666  0.333333  0.171140
 
   12   12  120
 0.21819E-02 0.11476E-01 0.77648     0.51970E-03 0.97709     0.12806E-01 0.43054E-02 0.25009E-02 0.88537E-02 0.37551E-03
 0.13871E-01 0.63004E-02 0.32828E-02 0.14700E-02 0.13570E-02 0.22651E-02 0.16533E-01 0.76439E-02 0.35689E-01 0.42875E-02
 0.11206     0.27636E-02 0.20193E-02 0.31638E-02 0.61889E-03 0.25732E-02 0.22342E-02 0.15308E-02 0.23447E-01 0.95650E-02
 0.11484E-01 0.63157E-02 0.29541E-01 0.11203E-01 0.48087E-01 0.83354E-02 0.10019E-02 0.14027E-03 0.97445E-03 0.34334E-02
 0.36266E-02 0.19690E-02 0.53703E-02 0.58998E-02 0.10766E-01 0.90076     0.23780E-01 0.12427E-02 0.17949E-01 0.69779E-02
 0.14732E-02 0.55213E-03 0.30513E-01 0.10335E-01 0.27048E-01 0.12008E-01 0.65779E-01 0.21535E-01 0.28261E-01 0.35805E-01
 0.11445E-02 0.97964E-03 0.87370E-04 0.92655E-04 0.30555E-03 0.16270E-01 0.14700E-01 0.84912     0.24098E-01 0.36912E-02
 0.65356E-02 0.69671E-02 0.29968E-01 0.18251E-02 0.10520E-02 0.55731E-04 0.15481E-02 0.11122E-01 0.49758E-01 0.42545E-01
 0.22356E-01 0.55427E-02 0.18335E-01 0.19485E-01 0.81382E-02 0.20422     0.31101E-03 0.22261E-03 0.38882E-03 0.69685E-03
 0.13716     0.21432E-02 0.12177E-01 0.41894E-02 0.11490E-01 0.35340     0.85279E-02 0.58553     0.14659E-01 0.12260E-03
 0.66108E-02 0.12857E-02 0.32601E-03 0.76711E-03 0.33922     0.15390E-02 0.76455     0.78504     0.85029E-02 0.55033E-03
 0.70480E-01 0.14253     0.86466E-02 0.64091E-04 0.27730E-03 0.72096E-04 0.51369E-02 0.62873E-02 0.99806     0.12242E-02
 0.14707E-02 0.66921E-01 0.60683E-02 0.30280E-03 0.22649E-02 0.10610E-02 0.21752E-03 0.23555E-03 0.40978E-02 0.22942E-03
 0.15484E-01 0.54053     0.28345E-02 0.16913E-02 0.10536E-02 0.11584E-02 0.31093E-02 0.10313E-02 0.10963E-01 0.33910E-03
 0.24724E-01 0.41186E-03 0.55532E-03 0.21893E-02 0.35211E-02 0.78455E-02 0.26342E-01 0.37954E-02 0.18839     0.67106    
 0.29386E-01 0.59116E-01 0.27759E-01 0.27555E-02 0.14890     0.64930E-02 0.48145E-02 0.31965E-02 0.54976E-02 0.70626E-01
 0.63542E-01 0.52786E-01 0.98883     0.34034E-01 0.73268     0.65223E-01 0.11444E-01 0.88849E-02 0.25666E-02 0.28514    
 0.60841E-02 0.99147E-02 0.80135E-01 0.31883     0.67975E-01 0.24131     0.10463     0.69245E-01 0.11329     0.55410    
 0.22044E-01 0.70335E-03 0.65827E-01 0.12744E-01 0.98383E-01 0.19628E-01 0.19202     0.36796E-01 0.80480     0.35866    
 0.78172     0.10977E-01 0.99502     0.74719E-02 0.85719E-01 0.27858E-02 0.52388E-01 0.41695     0.10197     0.88710    
 0.33849     0.70537E-01 0.96910     0.10243     0.10096E-01 0.21892E-01 0.47833E-03 0.12416E-02 0.22588E-02 0.67648    
 0.77356E-01 0.35751     0.74179E-01 0.16615     0.45046E-01 0.21029     0.98587     0.11820E-01 0.38870E-01 0.31135E-03
 0.11714     0.31882E-01 0.10952     0.99832     0.89321     0.41147E-01 0.79291     0.95067E-01 0.44571E-01 0.98232E-01
 0.21238E-02 0.26261E-02 0.16243E-02 0.42505E-02 0.31700     0.16226E-01 0.61385E-01 0.10709     0.72683E-01 0.52179    
 0.35273E-01 0.10511     0.14811E-01 0.67802E-03 0.59903E-02 0.66558E-01 0.17351E-02 0.16328E-01 0.25813     0.12989E-01
 0.30729     0.33330     0.99759     0.28736E-02 0.10213E-01 0.16338E-01 0.73234E-01 0.38465E-03 0.57252E-02 0.41135E-03
 0.95649E-01 0.52813     0.13851     0.83658E-02 0.49523E-02 0.20503E-01 0.47604E-02 0.13059E-02 0.73356E-02 0.22428E-01
 0.13565E-02 0.45914E-02 0.31872E-02 0.10052E-02 0.13585E-01 0.49344E-01 0.44834E-02 0.30825E-02 0.29074E-02 0.51517E-01
 0.11678E-01 0.78691E-02 0.93824     0.25126E-02 0.76909E-01 0.10611E-01 0.15926E-02 0.39019E-02 0.40494E-02 0.80129E-02
 0.26955E-01 0.17996E-01 0.22300     0.67071     0.14463     0.86759     0.83917E-01 0.13619E-01 0.45579E-01 0.75097E-02
 0.65498E-02 0.54175E-02 0.16307E-01 0.93620     0.18842     0.24747     0.82686     0.21322     0.65960     0.90563    
 0.46437E-01 0.21169E-01 0.83533E-02 0.17739E-01 0.14026E-01 0.43966E-01 0.24568     0.98496     0.41584     0.94314    
 0.47795     0.31579     0.27850     0.47505     0.95597     0.28162E-02 0.57925E-01 0.35988E-01 0.99645     0.15169    
 0.91649     0.40890     0.98881     0.78559     0.89905     0.65605E-01 0.40682     0.15760E-01 0.14348E-01 0.98672E-02
 0.11830     0.94025     0.47561     0.99397     0.94681     0.56955     0.95918     0.30355     0.62011E-01 0.98928    
 0.21051E-02 0.59340E-01 0.11471E-01 0.75535     0.33534     0.78398     0.58278     0.79490     0.36491     0.99569    
 0.59448     0.46686E-01 0.10128     0.12628E-02 0.63700E-01 0.75500E-01 0.27840     0.83870     0.97136     0.34653    
 0.97366     0.37965     0.16741     0.12855     0.75510E-02 0.10635     0.28075E-02 0.11453E-01 0.20419     0.84340E-01
 0.24419     0.91794     0.33305     0.56297     0.10469     0.90733E-01 0.17287E-01 0.17859E-02 0.26391E-02 0.12721E-01
 0.58640E-02 0.82758     0.25336     0.73917E-01 0.38469     0.38281     0.18380     0.10272E-01 0.11280E-01 0.80337E-02
 0.73888E-02 0.12782E-02 0.63469E-01 0.18885E-02 0.37712E-01 0.27354     0.16581     0.38987E-01 0.12775E-01 0.15379E-01
 0.73604E-02 0.42605E-02 0.13257E-01 0.21614     0.51336E-02 0.70347     0.57509E-02 0.35409E-02 0.21049E-01 0.45213E-01
 0.63500E-02 0.55050E-02 0.69125E-02 0.16950     0.34057E-01 0.36564E-01 0.29630     0.12432E-01 0.40238E-01 0.20244    
 0.38383E-02 0.59038E-02 0.60413E-02 0.11428E-01 0.36988E-01 0.55376E-01 0.30790     0.57397     0.38953     0.80458    
 0.18957     0.44757E-01 0.47775E-01 0.11161E-01 0.10348E-01 0.93500E-02 0.33572E-01 0.41526     0.38454     0.53738    
 0.77806     0.54364     0.71055     0.79396     0.12299     0.37822E-01 0.19724E-01 0.19501E-01 0.26609E-01 0.12361    
 0.47528     0.83228     0.69959     0.91640     0.71313     0.61508     0.48818     0.34304     0.33014     0.85609E-02
 0.41037E-01 0.76779E-01 0.73686     0.49068     0.92176     0.71119     0.89995     0.80834     0.80436     0.23994    
 0.39576     0.31578E-01 0.20081E-01 0.26461E-01 0.22486     0.78107     0.71607     0.89615     0.85156     0.75925    
 0.85501     0.54899     0.23267     0.31736     0.72147E-02 0.23691     0.40227E-01 0.63227     0.62105     0.80637    
 0.76360     0.94472     0.68344     0.86977     0.60340     0.12774     0.62057E-01 0.46801E-02 0.54176E-01 0.15282    
 0.48654     0.78983     0.85718     0.67709     0.85391     0.64921     0.37526     0.19950     0.22365E-01 0.31781E-01
 0.75789E-02 0.28816E-01 0.24900     0.26843     0.51896     0.90366     0.62834     0.66408     0.22168     0.12365    
 0.30995E-01 0.57073E-02 0.61435E-02 0.16279E-01 0.16803E-01 0.35461     0.33366     0.25505     0.53442     0.50231    
 0.15766     0.26783E-01 0.20310E-01 0.14510E-01 0.12852E-01 0.45984E-02 0.32365E-01 0.66872E-02 0.47795E-01 0.19260    
 0.22756     0.11456     0.25912E-01 0.23022E-01 0.14672E-01 0.11918E-01 0.27506E-01 0.90225E-01 0.15739E-01 0.75293E-01
 0.12614E-01 0.98470E-02 0.33523E-01 0.54527E-01 0.10182E-01 0.10833E-01 0.15362E-01 0.83980E-01 0.76759E-01 0.11280    
 0.26660     0.42323E-01 0.54095E-01 0.57403E-01 0.87173E-02 0.97095E-02 0.10451E-01 0.17507E-01 0.55172E-01 0.13024    
 0.43488     0.63810     0.60431     0.72439     0.34857     0.11226     0.64878E-01 0.17415E-01 0.16609E-01 0.15723E-01
 0.58134E-01 0.39805     0.57337     0.73259     0.83774     0.76685     0.79019     0.72911     0.24110     0.61408E-01
 0.38332E-01 0.25866E-01 0.46126E-01 0.24914     0.64895     0.85514     0.86223     0.92631     0.86301     0.79476    
 0.65393     0.38496     0.29155     0.19173E-01 0.48925E-01 0.14697     0.71195     0.75240     0.92759     0.90037    
 0.94053     0.90033     0.84977     0.48242     0.48581     0.60800E-01 0.29299E-01 0.59959E-01 0.37711     0.80570    
 0.86554     0.93940     0.93870     0.91043     0.90149     0.72864     0.47246     0.28349     0.17880E-01 0.92240E-01
 0.10570     0.67574     0.79161     0.89945     0.91159     0.95043     0.86960     0.86658     0.68248     0.24350    
 0.69545E-01 0.11747E-01 0.67237E-01 0.25418     0.64402     0.84440     0.90063     0.86941     0.89907     0.80406    
 0.56624     0.28980     0.46676E-01 0.29232E-01 0.15006E-01 0.53416E-01 0.32216     0.49495     0.72162     0.87809    
 0.80021     0.76937     0.38194     0.19003     0.50964E-01 0.12708E-01 0.11670E-01 0.21798E-01 0.36538E-01 0.29334    
 0.45336     0.49433     0.67172     0.62661     0.21088     0.58895E-01 0.33622E-01 0.22785E-01 0.19638E-01 0.11271E-01
 0.33205E-01 0.17051E-01 0.76029E-01 0.23935     0.31931     0.23861     0.46225E-01 0.34822E-01 0.24819E-01 0.25317E-01
 0.48565E-01 0.85797E-01 0.35894E-01 0.63910E-01 0.22588E-01 0.20867E-01 0.53123E-01 0.73870E-01 0.16450E-01 0.18442E-01
 0.28216E-01 0.10178     0.15124     0.23251     0.32044     0.10892     0.88099E-01 0.56158E-01 0.15896E-01 0.15949E-01
 0.15893E-01 0.25350E-01 0.84889E-01 0.24300     0.56244     0.71869     0.72815     0.75922     0.50743     0.21809    
 0.95820E-01 0.25354E-01 0.24586E-01 0.23805E-01 0.96177E-01 0.46191     0.69032     0.82022     0.87672     0.85355    
 0.84147     0.75698     0.36741     0.99036E-01 0.66721E-01 0.32963E-01 0.75856E-01 0.38249     0.73833     0.88087    
 0.90869     0.93408     0.90759     0.86180     0.74074     0.46626     0.37119     0.34624E-01 0.66361E-01 0.24612    
 0.75386     0.84683     0.93376     0.93542     0.94724     0.92488     0.88094     0.64141     0.59649     0.11270    
 0.41948E-01 0.11934     0.52620     0.84473     0.90909     0.94668     0.95007     0.93826     0.92094     0.81458    
 0.64055     0.37911     0.36559E-01 0.10001     0.21641     0.74588     0.86061     0.92590     0.93848     0.95003    
 0.91654     0.88909     0.75655     0.38935     0.11349     0.25361E-01 0.11376     0.38928     0.74346     0.88078    
 0.92012     0.91638     0.91933     0.86693     0.69339     0.41749     0.10296     0.48422E-01 0.33420E-01 0.11040    
 0.44469     0.65142     0.81466     0.88951     0.86390     0.83063     0.53449     0.30213     0.95664E-01 0.29813E-01
 0.26778E-01 0.41082E-01 0.77896E-01 0.38046     0.57625     0.65005     0.74939     0.71275     0.30606     0.11540    
 0.55934E-01 0.38250E-01 0.38911E-01 0.27658E-01 0.47382E-01 0.35944E-01 0.12931     0.33612     0.41921     0.37175    
 0.77106E-01 0.51620E-01 0.38045E-01 0.47885E-01 0.93339E-01 0.14080     0.78586E-01 0.82748E-01 0.35813E-01 0.36911E-01
 0.84234E-01 0.10977     0.24479E-01 0.26457E-01 0.46015E-01 0.15355     0.27089     0.38390     0.43578     0.22214    
 0.14880     0.69648E-01 0.23774E-01 0.23868E-01 0.21071E-01 0.35179E-01 0.12612     0.35834     0.65575     0.77755    
 0.79718     0.80233     0.61201     0.32986     0.14175     0.35241E-01 0.34120E-01 0.33890E-01 0.14577     0.53124    
 0.75002     0.85390     0.88992     0.88058     0.86525     0.78592     0.46243     0.15044     0.10549     0.43096E-01
 0.11760     0.48213     0.78015     0.88368     0.91080     0.92489     0.90884     0.87630     0.78167     0.53979    
 0.48149     0.54335E-01 0.99130E-01 0.34190     0.78920     0.86857     0.92167     0.92432     0.93121     0.91645    
 0.88676     0.71430     0.67126     0.19270     0.59857E-01 0.21117     0.61921     0.86709     0.90944     0.93091    
 0.93043     0.92658     0.91533     0.85123     0.73185     0.49842     0.65212E-01 0.13838     0.34097     0.79819    
 0.88309     0.92071     0.92642     0.93210     0.91616     0.89847     0.81041     0.51204     0.18570     0.46629E-01
 0.18965     0.50337     0.80612     0.89357     0.91535     0.91290     0.91560     0.88595     0.76849     0.53380    
 0.18759     0.77540E-01 0.63254E-01 0.19456     0.55720     0.73658     0.85128     0.88946     0.87695     0.85668    
 0.64018     0.42157     0.16174     0.58441E-01 0.49121E-01 0.70531E-01 0.14137     0.49942     0.66175     0.72487    
 0.78604     0.76205     0.40544     0.19169     0.91746E-01 0.62964E-01 0.69032E-01 0.55782E-01 0.71919E-01 0.64621E-01
 0.20768     0.44249     0.50050     0.47475     0.11854     0.77241E-01 0.59203E-01 0.83529E-01 0.15930     0.22103    
 0.14529     0.12420     0.55012E-01 0.59119E-01 0.12828     0.16009     0.34464E-01 0.36709E-01 0.71836E-01 0.22627    
 0.39849     0.51719     0.54410     0.34566     0.23776     0.96712E-01 0.33429E-01 0.33448E-01 0.27705E-01 0.48214E-01
 0.17017     0.43776     0.70215     0.80208     0.82580     0.81672     0.65563     0.42400     0.19502     0.47799E-01
 0.46054E-01 0.47615E-01 0.19448     0.57933     0.76597     0.84837     0.87185     0.86858     0.85808     0.78593    
 0.51379     0.20742     0.15426     0.55325E-01 0.16981     0.53112     0.78798     0.85246     0.86378     0.86516    
 0.86007     0.84989     0.79096     0.57246     0.55807     0.79187E-01 0.13752     0.42056     0.79158     0.84506    
 0.85281     0.81485     0.82312     0.84790     0.85748     0.73647     0.68973     0.29943     0.80979E-01 0.32131    
 0.65466     0.86043     0.86017     0.82297     0.77622     0.81905     0.86402     0.85102     0.77352     0.57082    
 0.11214     0.18417     0.45967     0.81136     0.86984     0.86130     0.81867     0.82235     0.85853     0.87959    
 0.83377     0.58973     0.28504     0.82200E-01 0.28927     0.57922     0.83444     0.87607     0.86482     0.84558    
 0.86733     0.86940     0.79777     0.61809     0.28612     0.13592     0.11557     0.30212     0.62113     0.77299    
 0.84948     0.85895     0.84864     0.84929     0.69145     0.51090     0.24434     0.11124     0.94840E-01 0.12443    
 0.23128     0.58784     0.68902     0.74858     0.79030     0.77468     0.47488     0.26565     0.14410     0.10834    
 0.12494     0.10856     0.11372     0.10627     0.30646     0.51018     0.54626     0.53698     0.16188     0.11055    
 0.91899E-01 0.13489     0.24188     0.31585     0.23761     0.18213     0.78873E-01 0.89110E-01 0.17979     0.21105    
 0.47663E-01 0.51226E-01 0.10462     0.29714     0.49353     0.60853     0.61373     0.45023     0.33870     0.12683    
 0.45723E-01 0.46356E-01 0.37783E-01 0.64499E-01 0.20541     0.47849     0.72358     0.81688     0.84283     0.81968    
 0.67809     0.50060     0.23222     0.62155E-01 0.61172E-01 0.64015E-01 0.22965     0.59708     0.76288     0.83247    
 0.84826     0.84960     0.84251     0.76733     0.53722     0.25166     0.20632     0.68625E-01 0.21942     0.54129    
 0.77836     0.80821     0.78350     0.75550     0.77766     0.80908     0.78315     0.56527     0.56902     0.11588    
 0.16141     0.49008     0.77395     0.80614     0.72043     0.53633     0.54420     0.71648     0.81304     0.74392    
 0.68863     0.40452     0.10911     0.40225     0.67552     0.84510     0.77762     0.54416     0.34227     0.54218    
 0.77932     0.84043     0.80301     0.59384     0.18794     0.22059     0.57022     0.81057     0.85014     0.75211    
 0.54193     0.54051     0.75178     0.85435     0.84770     0.64785     0.37650     0.13497     0.37184     0.64567    
 0.85116     0.85227     0.78046     0.71577     0.78602     0.84646     0.81172     0.68128     0.37131     0.21192    
 0.17771     0.40229     0.65677     0.79962     0.83801     0.81458     0.80485     0.83459     0.71523     0.57378    
 0.32818     0.17731     0.15437     0.19251     0.33569     0.62544     0.69082     0.75483     0.77836     0.76893    
 0.51182     0.32613     0.20789     0.17051     0.19450     0.17429     0.16530     0.16893     0.40724     0.52093    
 0.56063     0.56282     0.19617     0.14716     0.13501     0.19688     0.32465     0.40543     0.33690     0.23330    
 0.10794     0.13249     0.22242     0.24378     0.63891E-01 0.69910E-01 0.14003     0.35711     0.56014     0.66918    
 0.66266     0.54432     0.41634     0.14685     0.61938E-01 0.63553E-01 0.52528E-01 0.83203E-01 0.22704     0.48833    
 0.73161     0.82882     0.85459     0.81964     0.69731     0.54443     0.23984     0.78400E-01 0.79893E-01 0.80872E-01
 0.24505     0.58899     0.75974     0.83239     0.85155     0.85639     0.84228     0.75021     0.54610     0.26569    
 0.24150     0.86224E-01 0.24709     0.52901     0.76872     0.79657     0.76765     0.73112     0.76120     0.79978    
 0.77276     0.54103     0.53365     0.16248     0.16997     0.53878     0.75715     0.79758     0.68032     0.45858    
 0.46281     0.67880     0.79873     0.75530     0.69135     0.43995     0.14151     0.40848     0.69713     0.84503    
 0.76135     0.46261     0.23793     0.46329     0.76070     0.84343     0.82629     0.57296     0.24814     0.23073    
 0.61908     0.80822     0.85617     0.72988     0.46335     0.45733     0.73242     0.85449     0.85685     0.67017    
 0.38416     0.17585     0.37350     0.67936     0.86093     0.85381     0.76156     0.68064     0.76813     0.85041    
 0.82016     0.69756     0.38946     0.24544     0.20941     0.41807     0.65912     0.82384     0.84100     0.80007    
 0.79263     0.83755     0.72445     0.59082     0.35560     0.21027     0.19204     0.22812     0.37281     0.60210    
 0.69177     0.76368     0.76642     0.76319     0.52319     0.35595     0.24235     0.20389     0.22737     0.20583    
 0.19349     0.22398     0.44825     0.49375     0.55805     0.55832     0.21682     0.17881     0.16849     0.23041    
 0.35036     0.42673     0.36666     0.24171     0.13770     0.18359     0.23839     0.25323     0.81971E-01 0.91470E-01
 0.16975     0.38905     0.57963     0.67956     0.67473     0.59323     0.42827     0.15840     0.84998E-01 0.83712E-01
 0.75748E-01 0.10624     0.23194     0.44614     0.68910     0.80250     0.82906     0.78253     0.67026     0.51115    
 0.22816     0.10026     0.10355     0.10074     0.24233     0.55336     0.73620     0.82639     0.85997     0.86676    
 0.83618     0.72003     0.52513     0.25492     0.24276     0.10868     0.24572     0.48829     0.74759     0.80770    
 0.81110     0.79494     0.80648     0.81065     0.74723     0.50313     0.46373     0.18180     0.16292     0.52136    
 0.72559     0.80702     0.75273     0.65024     0.64965     0.75334     0.80533     0.74502     0.65876     0.35759    
 0.14470     0.32352     0.67265     0.84083     0.80660     0.64901     0.50776     0.65286     0.80407     0.83909    
 0.80440     0.47598     0.21294     0.19422     0.52935     0.77006     0.86573     0.79656     0.65310     0.64328    
 0.80069     0.85929     0.82977     0.59871     0.30434     0.17460     0.29893     0.61321     0.83292     0.85914    
 0.80481     0.75720     0.81009     0.85903     0.78773     0.61338     0.33361     0.23992     0.21589     0.34677    
 0.58102     0.80672     0.83590     0.80646     0.80140     0.83653     0.68155     0.50448     0.29822     0.21499    
 0.21960     0.23117     0.30465     0.48997     0.65720     0.75129     0.74144     0.73922     0.48716     0.30988    
 0.20307     0.18859     0.22795     0.21112     0.18368     0.20209     0.36870     0.43409     0.53327     0.51629    
 0.22024     0.18365     0.15516     0.19350     0.29321     0.36146     0.29968     0.19339     0.13916     0.19916    
 0.22801     0.24923     0.10385     0.11221     0.17297     0.34296     0.49544     0.59189     0.59670     0.51967    
 0.34447     0.15791     0.11201     0.10655     0.12048     0.14488     0.22196     0.33195     0.53465     0.67197    
 0.70418     0.64364     0.52548     0.38219     0.21245     0.13748     0.14092     0.13453     0.23642     0.48648    
 0.63811     0.75067     0.81393     0.82134     0.76424     0.62793     0.45346     0.24476     0.22320     0.13390    
 0.22789     0.40581     0.67714     0.77928     0.80736     0.80655     0.80630     0.77675     0.66870     0.43516    
 0.34984     0.15202     0.13795     0.40884     0.62684     0.76705     0.77808     0.75619     0.75018     0.77914    
 0.76877     0.65626     0.51747     0.22124     0.11193     0.20126     0.53083     0.77666     0.80468     0.74898    
 0.69945     0.75582     0.80199     0.76793     0.66900     0.33043     0.15238     0.14909     0.35224     0.62927    
 0.82052     0.81165     0.75605     0.74444     0.81665     0.80837     0.70611     0.46032     0.23983     0.15809    
 0.23977     0.47220     0.70623     0.80720     0.80366     0.78394     0.80684     0.81120     0.64730     0.46603    
 0.28366     0.22093     0.20525     0.28902     0.44837     0.67916     0.75978     0.77259     0.76397     0.77260    
 0.52605     0.34598     0.24037     0.20393     0.21612     0.21600     0.23899     0.33367     0.51745     0.65999    
 0.66449     0.64487     0.37797     0.20335     0.14955     0.16668     0.21260     0.20190     0.16603     0.14925    
 0.22768     0.32871     0.46893     0.43120     0.20842     0.15479     0.11253     0.14285     0.23704     0.30202    
 0.23632     0.14414     0.10863     0.16229     0.20853     0.24741     0.13990     0.13169     0.14412     0.22890    
 0.33976     0.44689     0.45886     0.35593     0.21519     0.13805     0.13614     0.14284     0.21085     0.22563    
 0.22293     0.21666     0.32835     0.43849     0.46842     0.41451     0.31857     0.25045     0.21731     0.21100    
 0.21516     0.20155     0.26170     0.41571     0.44247     0.52888     0.61812     0.61971     0.54925     0.45262    
 0.36470     0.26609     0.22215     0.17740     0.22459     0.31214     0.55010     0.64884     0.67356     0.68615    
 0.68216     0.63205     0.52389     0.35515     0.23916     0.13326     0.12980     0.28063     0.43468     0.60990    
 0.68683     0.69538     0.68236     0.68264     0.62380     0.47020     0.31522     0.15270     0.10257     0.13990    
 0.32994     0.57329     0.67141     0.68071     0.66695     0.69149     0.67570     0.55237     0.42968     0.21465    
 0.10920     0.11037     0.21826     0.40111     0.62618     0.69538     0.69197     0.67612     0.70298     0.60362    
 0.47366     0.29847     0.13105     0.77452E-01 0.13295     0.30487     0.46869     0.60153     0.67975     0.68767    
 0.67964     0.60895     0.41186     0.30025     0.14601     0.81465E-01 0.75528E-01 0.14815     0.29261     0.44255    
 0.53410     0.63924     0.60986     0.56859     0.32083     0.22034     0.13214     0.75173E-01 0.70004E-01 0.79099E-01
 0.13041     0.21524     0.31913     0.46579     0.52735     0.45545     0.25850     0.14283     0.10900     0.81357E-01
 0.77625E-01 0.75160E-01 0.81777E-01 0.10700     0.15591     0.22402     0.38912     0.33904     0.20706     0.14273    
 0.10137     0.10420     0.13164     0.15424     0.12809     0.10694     0.10104     0.14226     0.20685     0.27858    
 0.21349     0.16574     0.13151     0.16215     0.21551     0.28760     0.29960     0.22485     0.14915     0.12995    
 0.17346     0.21709     0.34443     0.35903     0.26110     0.18599     0.22658     0.24611     0.24648     0.23549    
 0.21204     0.21400     0.27102     0.32851     0.33325     0.30657     0.36206     0.39591     0.26894     0.28125    
 0.31950     0.31077     0.29421     0.29929     0.33165     0.34424     0.27286     0.25971     0.25954     0.27738    
 0.44096     0.41979     0.37850     0.38962     0.39980     0.39990     0.38070     0.32686     0.21000     0.17049    
 0.17859     0.24121     0.26396     0.37988     0.45658     0.44461     0.43184     0.43705     0.39534     0.30634    
 0.21068     0.15870     0.13384     0.14720     0.22964     0.30885     0.37696     0.43291     0.43631     0.44067    
 0.39486     0.29553     0.24055     0.14172     0.80488E-01 0.81350E-01 0.13961     0.22894     0.32558     0.39213    
 0.44258     0.42657     0.40264     0.30343     0.25146     0.14064     0.39882E-01 0.17173E-01 0.41193E-01 0.14200    
 0.24520     0.30570     0.39635     0.44301     0.39317     0.30910     0.23098     0.14038     0.30585E-01 0.54808E-02
 0.49071E-02 0.31036E-01 0.13846     0.24869     0.27820     0.42160     0.37342     0.31161     0.21988     0.14319    
 0.40437E-01 0.49093E-02 0.23538E-02 0.51243E-02 0.40206E-01 0.14103     0.21841     0.28948     0.40576     0.28377    
 0.22108     0.15029     0.80617E-01 0.18054E-01 0.49770E-02 0.50519E-02 0.18178E-01 0.78403E-01 0.16023     0.19887    
 0.35536     0.31064     0.24750     0.19141     0.13107     0.77315E-01 0.41100E-01 0.31941E-01 0.38758E-01 0.79999E-01
 0.13353     0.18485     0.24824     0.37819     0.33630     0.22916     0.17895     0.16756     0.13898     0.13578    
 0.14215     0.14549     0.15549     0.17197     0.24855     0.33164     0.44407     0.46144     0.30181     0.22073    
 0.21622     0.16401     0.14474     0.16299     0.19448     0.24193     0.34123     0.42621     0.42486     0.39821    
 0.50641     0.40733     0.20193     0.17741     0.16437     0.15528     0.17839     0.24517     0.35958     0.43656    
 0.34392     0.33201     0.30025     0.32271     0.40849     0.24437     0.17691     0.17371     0.19237     0.24440    
 0.31396     0.35783     0.24005     0.23189     0.25559     0.25621     0.20011     0.24639     0.24509     0.19915    
 0.19886     0.22485     0.24369     0.24675     0.19417     0.19628     0.17919     0.18874     0.21790     0.17752    
 0.17664     0.20286     0.19773     0.20107     0.19086     0.17905     0.16334     0.12054     0.79100E-01 0.78422E-01
 0.11598     0.16242     0.16668     0.16817     0.20282     0.19698     0.17508     0.15460     0.14783     0.77341E-01
 0.16857E-01 0.58718E-02 0.17980E-01 0.76643E-01 0.14315     0.15984     0.18717     0.23221     0.18558     0.15895    
 0.15955     0.76485E-01 0.73926E-02 0.18258E-03 0.13918E-03 0.74771E-02 0.76587E-01 0.16675     0.16941     0.26085    
 0.22992     0.18601     0.20761     0.11965     0.17388E-01 0.14264E-03 0.57990E-05 0.14521E-03 0.17436E-01 0.11883    
 0.20670     0.21994     0.36401     0.21792     0.23701     0.19217     0.78588E-01 0.61203E-02 0.13696E-03 0.17203E-03
 0.61232E-02 0.76878E-01 0.19445     0.23793     0.36116     0.36329     0.31123     0.25965     0.17509     0.76569E-01
 0.17995E-01 0.74493E-02 0.16592E-01 0.78608E-01 0.18167     0.25067     0.30983     0.48730     0.44184     0.28836    
 0.25889     0.20107     0.11601     0.75717E-01 0.78282E-01 0.12143     0.19423     0.23411     0.32405     0.41419    
 0.44006     0.44112     0.28396     0.24040     0.21659     0.16154     0.14976     0.16793     0.19389     0.23845    
 0.33571     0.42582     0.41635     0.40915     0.52448     0.34839     0.20435     0.19418     0.16927     0.15924    
 0.18357     0.24891     0.35596     0.42966     0.34002     0.31918     0.28571     0.37141     0.40392     0.23081    
 0.18839     0.18698     0.20042     0.25059     0.31633     0.35739     0.23805     0.23068     0.25656     0.22945    
 0.20657     0.27628     0.25130     0.20354     0.21061     0.23490     0.25211     0.24667     0.19454     0.19183    
 0.17461     0.19476     0.21502     0.17124     0.18911     0.21717     0.20663     0.20944     0.20040     0.18412    
 0.16536     0.12233     0.79159E-01 0.76285E-01 0.11645     0.17236     0.16934     0.17581     0.21111     0.21047    
 0.18234     0.16181     0.15180     0.79780E-01 0.17222E-01 0.63325E-02 0.18705E-01 0.77578E-01 0.14777     0.17038    
 0.19274     0.24421     0.19247     0.16655     0.16571     0.78270E-01 0.81537E-02 0.21001E-03 0.17277E-03 0.81520E-02
 0.79613E-01 0.16487     0.18103     0.25623     0.24936     0.18372     0.20709     0.11949     0.18063E-01 0.18102E-03
 0.77091E-05 0.17897E-03 0.18093E-01 0.12011     0.20815     0.21813     0.36942     0.22068     0.22066     0.19664    
 0.77515E-01 0.63303E-02 0.17437E-03 0.22426E-03 0.62572E-02 0.77307E-01 0.18663     0.25148     0.32656     0.39385    
 0.32308     0.24419     0.17200     0.77778E-01 0.18608E-01 0.77975E-02 0.17546E-01 0.78142E-01 0.17982     0.24086    
 0.31773     0.46022     0.43942     0.29011     0.26370     0.18868     0.11706     0.79739E-01 0.80349E-01 0.12092    
 0.19244     0.23013     0.32324     0.40117     0.33510     0.32019     0.22968     0.23032     0.23102     0.23815    
 0.26469     0.25476     0.21502     0.20906     0.26471     0.32507     0.31598     0.32474     0.39202     0.29184    
 0.28262     0.33948     0.33582     0.32239     0.31401     0.31658     0.32766     0.33292     0.26520     0.23801    
 0.23066     0.37765     0.43441     0.37986     0.41567     0.43826     0.42167     0.41474     0.38992     0.33284    
 0.21222     0.16808     0.18403     0.18997     0.28772     0.45791     0.47401     0.45129     0.47034     0.46406    
 0.41974     0.30877     0.21657     0.15249     0.12686     0.16191     0.22833     0.28781     0.41781     0.47882    
 0.46474     0.46209     0.42578     0.31354     0.24741     0.14994     0.82272E-01 0.78553E-01 0.14332     0.26552    
 0.33269     0.41614     0.46416     0.47339     0.42122     0.33227     0.26534     0.15083     0.43303E-01 0.20984E-01
 0.45783E-01 0.14538     0.26181     0.34643     0.41280     0.47115     0.41427     0.33734     0.25349     0.14768    
 0.37498E-01 0.69047E-02 0.68590E-02 0.37236E-01 0.15180     0.24173     0.32006     0.41131     0.42796     0.30536    
 0.22477     0.14543     0.44799E-01 0.70205E-02 0.36129E-02 0.67366E-02 0.45107E-01 0.14756     0.22644     0.28710    
 0.42436     0.29327     0.19221     0.16151     0.80378E-01 0.20392E-01 0.67385E-02 0.74880E-02 0.20131E-01 0.81203E-01
 0.14743     0.23177     0.29292     0.37059     0.26909     0.16705     0.12651     0.82380E-01 0.45940E-01 0.35265E-01
 0.44571E-01 0.81674E-01 0.13137     0.16708     0.26554     0.33509     0.32920     0.23242     0.18772     0.14577    
 0.14416     0.15362     0.15118     0.14578     0.15458     0.16830     0.24435     0.30676     0.20274     0.19921    