       N       E                     dE             d eps       ncg     rms          rms(c)
DAV:   1     0.107909315217E+03    0.10791E+03   -0.41820E+03   288   0.508E+02
DAV:   2    -0.962984319199E+01   -0.11754E+03   -0.10907E+03   458   0.142E+02
DAV:   3    -0.231208395803E+02   -0.13491E+02   -0.13373E+02   394   0.635E+01
DAV:   4    -0.233660737917E+02   -0.24523E+00   -0.24477E+00   382   0.104E+01
DAV:   5    -0.233709027191E+02   -0.48289E-02   -0.48276E-02   378   0.134E+00    0.691E+00
RMM:   6    -0.222105363599E+02    0.11604E+01   -0.53957E+00   292   0.116E+01    0.263E+00
RMM:   7    -0.218287265891E+02    0.38181E+00   -0.56836E-01   291   0.330E+00    0.154E+00
RMM:   8    -0.217681460571E+02    0.60581E-01   -0.23438E-01   305   0.245E+00    0.348E-01
RMM:   9    -0.217635075568E+02    0.46385E-02   -0.81999E-03   335   0.548E-01    0.922E-02
RMM:  10    -0.217628226586E+02    0.68490E-03   -0.16035E-03   337   0.207E-01    0.434E-02
RMM:  11    -0.217627810798E+02    0.41579E-04   -0.17215E-03   320   0.181E-01    0.519E-02
RMM:  12    -0.217626995190E+02    0.81561E-04   -0.51313E-04   306   0.121E-01    0.152E-02
RMM:  13    -0.217631684466E+02   -0.46893E-03   -0.14699E-04   304   0.612E-02    0.180E-02
RMM:  14    -0.217632481009E+02   -0.79654E-04   -0.26149E-05   327   0.257E-02    0.535E-03
RMM:  15    -0.217634045936E+02   -0.15649E-03   -0.15128E-05   281   0.150E-02    0.386E-03
RMM:  16    -0.217634460828E+02   -0.41489E-04   -0.28165E-06   237   0.707E-03    0.248E-03
RMM:  17    -0.217634782114E+02   -0.32129E-04   -0.18806E-06   202   0.645E-03    0.214E-03
RMM:  18    -0.217634802416E+02   -0.20302E-05   -0.16775E-07   155   0.251E-03    0.187E-03
RMM:  19    -0.217634848766E+02   -0.46350E-05   -0.45050E-07   178   0.322E-03    0.183E-03
RMM:  20    -0.217634859961E+02   -0.11195E-05   -0.83511E-08   134   0.177E-03    0.177E-03
RMM:  21    -0.217634868586E+02   -0.86255E-06   -0.12427E-08    74   0.935E-04
   1 F= -.22354285E+02 E0= -.22354285E+02  d E =-.795892E-10
