 vasp.5.4.4.18Apr17-6-g9f103f2a35 (build Jun 30 2017 11:15:00) complex          
  
 executed on    STALLO_VASP_5.4.4 date 2019.11.08  11:46:57
 running on    4 total cores
 distrk:  each k-point on    4 cores,    1 groups
 distr:  one band on NCORES_PER_BAND=   2 cores,    2 groups


--------------------------------------------------------------------------------------------------------


 INCAR:
 POTCAR:   PAW_PBE Mo 08Apr2002                   
 POTCAR:    PAW_PBE S 17Jan2003                   
 POTCAR:   PAW_PBE Mo 08Apr2002                   
   VRHFIN =Mo: 4p5s4d                                                           
   LEXCH  = PE                                                                  
   EATOM  =   217.5180 eV,   15.9871 Ry                                         
                                                                                
   TITEL  = PAW_PBE Mo 08Apr2002                                                
   LULTRA =        F    use ultrasoft PP ?                                      
   IUNSCR =        1    unscreen: 0-lin 1-nonlin 2-no                           
   RPACOR =    2.200    partial core radius                                     
   POMASS =   95.940; ZVAL   =    6.000    mass and valenz                      
   RCORE  =    2.750    outmost cutoff radius                                   
   RWIGS  =    2.750; RWIGS  =    1.455    wigner-seitz radius (au A)           
   ENMAX  =  224.584; ENMIN  =  168.438 eV                                      
   RCLOC  =    2.111    cutoff for local pot                                    
   LCOR   =        T    correct aug charges                                     
   LPAW   =        T    paw PP                                                  
   EAUG   =  345.278                                                            
   DEXC   =    -.088                                                            
   RMAX   =    3.077    core radius for proj-oper                               
   RAUG   =    1.300    factor for augmentation sphere                          
   RDEP   =    2.815    radius for radial grids                                 
   QCUT   =   -4.063; QGAM   =    8.126    optimization parameters              
                                                                                
   Description                                                                  
     l     E      TYP  RCUT    TYP  RCUT                                        
     2   .000     23  2.500                                                     
     2   .000     23  2.500                                                     
     0   .000     23  2.600                                                     
     0  1.000     23  2.600                                                     
     1   .400     23  2.750                                                     
     1  2.000     23  2.750                                                     
     3   .000      7   .000                                                     
  local pseudopotential read in
  partial core-charges read in
  atomic valenz-charges read in
  non local Contribution for L=           2  read in
    real space projection operators read in
  non local Contribution for L=           2  read in
    real space projection operators read in
  non local Contribution for L=           0  read in
    real space projection operators read in
  non local Contribution for L=           0  read in
    real space projection operators read in
  non local Contribution for L=           1  read in
    real space projection operators read in
  non local Contribution for L=           1  read in
    real space projection operators read in
    PAW grid and wavefunctions read in
 
   number of l-projection  operators is LMAX  =           6
   number of lm-projection operators is LMMAX =          18
 
 POTCAR:    PAW_PBE S 17Jan2003                   
   VRHFIN =S : s2p4                                                             
   LEXCH  = PE                                                                  
   EATOM  =   276.8230 eV,   20.3459 Ry                                         
                                                                                
   TITEL  = PAW_PBE S 17Jan2003                                                 
   LULTRA =        F    use ultrasoft PP ?                                      
   IUNSCR =        1    unscreen: 0-lin 1-nonlin 2-no                           
   RPACOR =    1.500    partial core radius                                     
   POMASS =   32.066; ZVAL   =    6.000    mass and valenz                      
   RCORE  =    1.900    outmost cutoff radius                                   
   RWIGS  =    2.200; RWIGS  =    1.164    wigner-seitz radius (au A)           
   ENMAX  =  280.000; ENMIN  =  194.016 eV                                      
   ICORE  =        2    local potential                                         
   LCOR   =        T    correct aug charges                                     
   LPAW   =        T    paw PP                                                  
   EAUG   =  335.092                                                            
   DEXC   =     .000                                                            
   RMAX   =    2.867    core radius for proj-oper                               
   RAUG   =    1.300    factor for augmentation sphere                          
   RDEP   =    1.954    radius for radial grids                                 
   QCUT   =   -4.360; QGAM   =    8.721    optimization parameters              
                                                                                
   Description                                                                  
     l     E      TYP  RCUT    TYP  RCUT                                        
     0   .000     23  1.900                                                     
     0   .000     23  1.900                                                     
     1   .000     23  1.900                                                     
     1   .000     23  1.900                                                     
     2   .000     23  1.900                                                     
  local pseudopotential read in
  partial core-charges read in
  atomic valenz-charges read in
  non local Contribution for L=           0  read in
    real space projection operators read in
  non local Contribution for L=           0  read in
    real space projection operators read in
  non local Contribution for L=           1  read in
    real space projection operators read in
  non local Contribution for L=           1  read in
    real space projection operators read in
    PAW grid and wavefunctions read in
 
   number of l-projection  operators is LMAX  =           4
   number of lm-projection operators is LMMAX =           8
 

 ----------------------------------------------------------------------------- 
|                                                                             |
|  ADVICE TO THIS USER RUNNING 'VASP/VAMP'   (HEAR YOUR MASTER'S VOICE ...):  |
|                                                                             |
|      You have a (more or less) 'small supercell' and for smaller cells      |
|      it is recommended  to use the reciprocal-space projection scheme!      |
|      The real space optimization is not  efficient for small cells and it   |
|      is also less accurate ...                                              |
|      Therefore set LREAL=.FALSE. in the  INCAR file                         |
|                                                                             |
 ----------------------------------------------------------------------------- 

 Optimization of the real space projectors (new method)

 maximal supplied QI-value         = 13.61
 optimisation between [QCUT,QGAM] = [  8.03, 16.19] = [ 18.05, 73.41] Ry 
 Optimized for a Real-space Cutoff    1.97 Angstroem

   l    n(q)    QCUT    max X(q) W(low)/X(q) W(high)/X(q)  e(spline) 
   2      9     8.028     3.671    0.48E-05    0.25E-04    0.70E-07
   2      9     8.028    25.193    0.26E-03    0.70E-03    0.27E-06
   0     10     8.028    26.379    0.19E-04    0.25E-05    0.73E-08
   0     10     8.028    49.709    0.28E-04    0.49E-04    0.74E-07
   1      9     8.028     7.852    0.15E-04    0.15E-05    0.29E-07
   1      9     8.028    10.693    0.92E-04    0.27E-04    0.86E-07
 Optimization of the real space projectors (new method)

 maximal supplied QI-value         = 19.84
 optimisation between [QCUT,QGAM] = [  7.94, 16.07] = [ 17.64, 72.34] Ry 
 Optimized for a Real-space Cutoff    1.55 Angstroem

   l    n(q)    QCUT    max X(q) W(low)/X(q) W(high)/X(q)  e(spline) 
   0      7     7.937     5.487    0.27E-04    0.20E-04    0.12E-07
   0      7     7.937    85.627    0.10E-03    0.36E-03    0.16E-06
   1      7     7.937     3.530    0.15E-04    0.55E-04    0.56E-07
   1      7     7.937    42.714    0.49E-03    0.85E-03    0.12E-06
 PAW_PBE Mo 08Apr2002                   :
 energy of atom  1       EATOM= -217.5180
 kinetic energy error for atom=    0.0235 (will be added to EATOM!!)
  PAW_PBE S 17Jan2003                   :
 energy of atom  2       EATOM= -276.8230
 kinetic energy error for atom=    0.0359 (will be added to EATOM!!)
 
 
 POSCAR: MoS2_mp-2815_computed                   
  positions in cartesian coordinates
  velocities in cartesian coordinates
  No initial velocities read in
 exchange correlation table for  LEXCH =        8
   RHO(1)=    0.500       N(1)  =     2000
   RHO(2)=  100.500       N(2)  =     4000
 


--------------------------------------------------------------------------------------------------------


 ion  position               nearest neighbor table
   1  0.333  0.667  0.120-   3 2.42   2 2.42   2 2.42   3 2.42   3 2.42   2 2.42
   2  0.667  0.333  0.070-   1 2.42   1 2.42   1 2.42
   3  0.667  0.333  0.171-   1 2.42   1 2.42   1 2.42
 
  LATTYP: Found a hexagonal cell.
 ALAT       =     3.1903157300
 C/A-ratio  =     9.6789806757
  
  Lattice vectors:
  
 A1 = (   3.1903157300,   0.0000000000,   0.0000000000)
 A2 = (  -1.5951578650,   2.7628944683,   0.0000000000)
 A3 = (   0.0000000000,   0.0000000000,  30.8790043000)


Analysis of symmetry for initial positions (statically):
=====================================================================
 Subroutine PRICEL returns:
 Original cell was already a primitive cell.
 

 Routine SETGRP: Setting up the symmetry group for a 
 hexagonal supercell.


 Subroutine GETGRP returns: Found 12 space group operations
 (whereof  6 operations were pure point group operations)
 out of a pool of 24 trial point group operations.


The static configuration has the point symmetry C_3v.
 The point group associated with its full space group is D_3h.


Analysis of symmetry for dynamics (positions and initial velocities):
=====================================================================
 Subroutine PRICEL returns:
 Original cell was already a primitive cell.
 

 Routine SETGRP: Setting up the symmetry group for a 
 hexagonal supercell.


 Subroutine GETGRP returns: Found 12 space group operations
 (whereof  6 operations were pure point group operations)
 out of a pool of 24 trial point group operations.


The dynamic configuration has the point symmetry C_3v.
 The point group associated with its full space group is D_3h.


 Subroutine INISYM returns: Found 12 space group operations
 (whereof  6 operations are pure point group operations),
 and found     1 'primitive' translations

 
 
 KPOINTS: k-density: 4.0                          

Automatic generation of k-mesh.
Space group operators:
 irot       det(A)        alpha          n_x          n_y          n_z        tau_x        tau_y        tau_z
    1     1.000000     0.000000     1.000000     0.000000     0.000000     0.000000     0.000000     0.000000
    2     1.000000   120.000000     0.000000     0.000000    -1.000000     0.000000     0.000000     0.000000
    3     1.000000   120.000000     0.000000     0.000000     1.000000     0.000000     0.000000     0.000000
    4    -1.000000   180.000000     1.000000    -0.000000     0.000000     0.000000     0.000000     0.000000
    5    -1.000000   180.000000     0.500000    -0.866025     0.000000     0.000000     0.000000     0.000000
    6    -1.000000   180.000000    -0.500000    -0.866025     0.000000     0.000000     0.000000     0.000000
    7    -1.000000    60.000000     0.000000     0.000000    -1.000000     0.000000     0.000000     0.240924
    8    -1.000000   179.999999     0.000000     0.000000     1.000000     0.000000     0.000000     0.240924
    9    -1.000000    60.000000     0.000000     0.000000     1.000000     0.000000     0.000001     0.240924
   10     1.000000   180.000000     0.866025    -0.500000     0.000000     0.000000     0.000000     0.240924
   11     1.000000   180.000000     0.000000     1.000000     0.000000     0.000000     0.000000     0.240924
   12     1.000000   180.000000     0.866025     0.500000     0.000000    -0.000000     0.000001     0.240924
 
 Subroutine IBZKPT returns following result:
 ===========================================
 
 Found     10 irreducible k-points:
 
 Following reciprocal coordinates:
            Coordinates               Weight
  0.000000  0.000000  0.000000      1.000000
  0.125000 -0.000000  0.000000      6.000000
  0.250000 -0.000000  0.000000      6.000000
  0.375000 -0.000000  0.000000      6.000000
  0.500000 -0.000000  0.000000      3.000000
  0.125000  0.125000  0.000000      6.000000
  0.250000  0.125000  0.000000     12.000000
  0.375000  0.125000  0.000000     12.000000
  0.250000  0.250000  0.000000      6.000000
  0.375000  0.250000  0.000000      6.000000
 
 Following cartesian coordinates:
            Coordinates               Weight
  0.000000  0.000000  0.000000      1.000000
  0.039181  0.022621  0.000000      6.000000
  0.078362  0.045242  0.000000      6.000000
  0.117543  0.067864  0.000000      6.000000
  0.156724  0.090485  0.000000      3.000000
  0.039181  0.067864  0.000000      6.000000
  0.078362  0.090485  0.000000     12.000000
  0.117543  0.113106  0.000000     12.000000
  0.078362  0.135727  0.000000      6.000000
  0.117543  0.158348  0.000000      6.000000
 


--------------------------------------------------------------------------------------------------------




 Dimension of arrays:
   k-points           NKPTS =     10   k-points in BZ     NKDIM =     10   number of bands    NBANDS=     14
   number of dos      NEDOS =   2401   number of ions     NIONS =      3
   non local maximal  LDIM  =      6   non local SUM 2l+1 LMDIM =     18
   total plane-waves  NPLWV =  17280
   max r-space proj   IRMAX =   2069   max aug-charges    IRDMAX=   4275
   dimension x,y,z NGX =    12 NGY =   12 NGZ =  120
   dimension x,y,z NGXF=    24 NGYF=   24 NGZF=  240
   support grid    NGXF=    24 NGYF=   24 NGZF=  240
   ions per type =               1   2
   NGX,Y,Z   is equivalent  to a cutoff of   6.25,  6.25,  6.46 a.u.
   NGXF,Y,Z  is equivalent  to a cutoff of  12.51, 12.51, 12.92 a.u.

 SYSTEM =  unknown system                          
 POSCAR =  MoS2_mp-2815_computed                   

 Startparameter for this run:
   NWRITE =      2    write-flag & timer
   PREC   = normal    normal or accurate (medium, high low for compatibility)
   ISTART =      0    job   : 0-new  1-cont  2-samecut
   ICHARG =      2    charge: 1-file 2-atom 10-const
   ISPIN  =      1    spin polarized calculation?
   LNONCOLLINEAR =      F non collinear calculations
   LSORBIT =      F    spin-orbit coupling
   INIWAV =      1    electr: 0-lowe 1-rand  2-diag
   LASPH  =      F    aspherical Exc in radial PAW
   METAGGA=      F    non-selfconsistent MetaGGA calc.

 Electronic Relaxation 1
   ENCUT  =  250.0 eV  18.37 Ry    4.29 a.u.   4.11  4.11 39.81*2*pi/ulx,y,z
   ENINI  =  250.0     initial cutoff
   ENAUG  =  345.3 eV  augmentation charge cutoff
   NELM   =     60;   NELMIN=  4; NELMDL= -5     # of ELM steps 
   EDIFF  = 0.1E-05   stopping-criterion for ELM
   LREAL  =      T    real-space projection
   NLSPLINE    = F    spline interpolate recip. space projectors
   LCOMPAT=      F    compatible to vasp.4.4
   GGA_COMPAT  = T    GGA compatible to vasp.4.4-vasp.4.6
   LMAXPAW     = -100 max onsite density
   LMAXMIX     =    2 max onsite mixed and CHGCAR
   VOSKOWN=      0    Vosko Wilk Nusair interpolation
   ROPT   =   -0.00050  -0.00050
 Ionic relaxation
   EDIFFG = 0.1E-04   stopping-criterion for IOM
   NSW    =      0    number of steps for IOM
   NBLOCK =      1;   KBLOCK =      1    inner block; outer block 
   IBRION =     -1    ionic relax: 0-MD 1-quasi-New 2-CG
   NFREE  =      0    steps in history (QN), initial steepest desc. (CG)
   ISIF   =      2    stress and relaxation
   IWAVPR =     10    prediction:  0-non 1-charg 2-wave 3-comb
   ISYM   =      2    0-nonsym 1-usesym 2-fastsym
   LCORR  =      T    Harris-Foulkes like correction to forces

   POTIM  = 0.5000    time-step for ionic-motion
   TEIN   =    0.0    initial temperature
   TEBEG  =    0.0;   TEEND  =   0.0 temperature during run
   SMASS  =  -3.00    Nose mass-parameter (am)
   estimated Nose-frequenzy (Omega)   =  0.10E-29 period in steps =****** mass=  -0.233E-27a.u.
   SCALEE = 1.0000    scale energy and forces
   NPACO  =    256;   APACO  = 16.0  distance and # of slots for P.C.
   PSTRESS=    0.0 pullay stress

  Mass of Ions in am
   POMASS =  95.94 32.07
  Ionic Valenz
   ZVAL   =   6.00  6.00
  Atomic Wigner-Seitz radii
   RWIGS  =  -1.00 -1.00
  virtual crystal weights 
   VCA    =   1.00  1.00
   NELECT =      18.0000    total number of electrons
   NUPDOWN=      -1.0000    fix difference up-down

 DOS related values:
   EMIN   = -12.00;   EMAX   = 12.00  energy-range for DOS
   EFERMI =   0.00
   ISMEAR =     0;   SIGMA  =   0.20  broadening in eV -4-tet -1-fermi 0-gaus

 Electronic relaxation 2 (details)
   IALGO  =     68    algorithm
   LDIAG  =      T    sub-space diagonalisation (order eigenvalues)
   LSUBROT=      F    optimize rotation matrix (better conditioning)
   TURBO    =      0    0=normal 1=particle mesh
   IRESTART =      0    0=no restart 2=restart with 2 vectors
   NREBOOT  =      0    no. of reboots
   NMIN     =      0    reboot dimension
   EREF     =   0.00    reference energy to select bands
   IMIX   =      4    mixing-type and parameters
     AMIX     =   0.40;   BMIX     =  1.00
     AMIX_MAG =   1.60;   BMIX_MAG =  1.00
     AMIN     =   0.10
     WC   =   100.;   INIMIX=   1;  MIXPRE=   1;  MAXMIX= -45

 Intra band minimization:
   WEIMIN = 0.0000     energy-eigenvalue tresh-hold
   EBREAK =  0.18E-07  absolut break condition
   DEPER  =   0.30     relativ break condition  

   TIME   =   0.40     timestep for ELM

  volume/ion in A,a.u.               =      90.73       612.26
  Fermi-wavevector in a.u.,A,eV,Ry     =   0.662031  1.251058  5.963237  0.438286
  Thomas-Fermi vector in A             =   1.734975
 
 Write flags
   LWAVE        =      F    write WAVECAR
   LDOWNSAMPLE  =      F    k-point downsampling of WAVECAR
   LCHARG       =      T    write CHGCAR
   LVTOT        =      F    write LOCPOT, total local potential
   LVHAR        =      F    write LOCPOT, Hartree potential only
   LELF         =      T    write electronic localiz. function (ELF)
   LORBIT       =     11    0 simple, 1 ext, 2 COOP (PROOUT), +10 PAW based schemes


 Dipole corrections
   LMONO  =      F    monopole corrections only (constant potential shift)
   LDIPOL =      F    correct potential (dipole corrections)
   IDIPOL =      0    1-x, 2-y, 3-z, 4-all directions 
   EPSILON=  1.0000000 bulk dielectric constant

 Exchange correlation treatment:
   GGA     =    --    GGA type
   LEXCH   =     8    internal setting for exchange type
   VOSKOWN=      0    Vosko Wilk Nusair interpolation
   LHFCALC =     F    Hartree Fock is set to
   LHFONE  =     F    Hartree Fock one center treatment
   AEXX    =    0.0000 exact exchange contribution

 Linear response parameters
   LEPSILON=     F    determine dielectric tensor
   LRPA    =     F    only Hartree local field effects (RPA)
   LNABLA  =     F    use nabla operator in PAW spheres
   LVEL    =     F    velocity operator in full k-point grid
   LINTERFAST=   F  fast interpolation
   KINTER  =     0    interpolate to denser k-point grid
   CSHIFT  =0.1000    complex shift for real part using Kramers Kronig
   OMEGAMAX=  -1.0    maximum frequency
   DEG_THRESHOLD= 0.2000000E-02 threshold for treating states as degnerate
   RTIME   =   -0.100 relaxation time in fs
  (WPLASMAI=    0.000 imaginary part of plasma frequency in eV, 0.658/RTIME)
   DFIELD  = 0.0000000 0.0000000 0.0000000 field for delta impulse in time
 
 Orbital magnetization related:
   ORBITALMAG=     F  switch on orbital magnetization
   LCHIMAG   =     F  perturbation theory with respect to B field
   DQ        =  0.001000  dq finite difference perturbation B field
   LLRAUG    =     F  two centre corrections for induced B field



--------------------------------------------------------------------------------------------------------


 Static calculation
 charge density and potential will be updated during run
 non-spin polarized calculation
 RMM-DIIS sequential band-by-band and
  variant of blocked Davidson during initial phase
 perform sub-space diagonalisation
    before iterative eigenvector-optimisation
 modified Broyden-mixing scheme, WC =      100.0
 initial mixing is a Kerker type mixing with AMIX =  0.4000 and BMIX =      1.0000
 Hartree-type preconditioning will be used
 using additional bands            5
 real space projection scheme for non local part
 use partial core corrections
 calculate Harris-corrections to forces 
   (improved forces if not selfconsistent)
 use gradient corrections 
 use of overlap-Matrix (Vanderbilt PP)
 Gauss-broadening in eV      SIGMA  =   0.20


--------------------------------------------------------------------------------------------------------


  energy-cutoff  :      250.00
  volume of cell :      272.18
      direct lattice vectors                 reciprocal lattice vectors
     3.190315730  0.000000000  0.000000000     0.313448600  0.180969634  0.000000000
    -1.595157865  2.762894468  0.000000000     0.000000000  0.361939267  0.000000000
     0.000000000  0.000000000 30.879004300     0.000000000  0.000000000  0.032384464

  length of vectors
     3.190315730  3.190315730 30.879004300     0.361939267  0.361939267  0.032384464


 
 k-points in units of 2pi/SCALE and weight: k-density: 4.0                          
   0.00000000  0.00000000  0.00000000       0.016
   0.03918108  0.02262120  0.00000000       0.094
   0.07836215  0.04524241  0.00000000       0.094
   0.11754323  0.06786361  0.00000000       0.094
   0.15672430  0.09048482  0.00000000       0.047
   0.03918108  0.06786361  0.00000000       0.094
   0.07836215  0.09048482  0.00000000       0.188
   0.11754323  0.11310602  0.00000000       0.188
   0.07836215  0.13572723  0.00000000       0.094
   0.11754323  0.15834843  0.00000000       0.094
 
 k-points in reciprocal lattice and weights: k-density: 4.0                          
   0.00000000  0.00000000  0.00000000       0.016
   0.12500000 -0.00000000  0.00000000       0.094
   0.25000000 -0.00000000  0.00000000       0.094
   0.37500000 -0.00000000  0.00000000       0.094
   0.50000000 -0.00000000  0.00000000       0.047
   0.12500000  0.12500000  0.00000000       0.094
   0.25000000  0.12500000  0.00000000       0.188
   0.37500000  0.12500000  0.00000000       0.188
   0.25000000  0.25000000  0.00000000       0.094
   0.37500000  0.25000000  0.00000000       0.094
 
 position of ions in fractional coordinates (direct lattice) 
   0.33333300  0.66666700  0.12046214
   0.66666700  0.33333300  0.06978420
   0.66666600  0.33333300  0.17114009
 
 position of ions in cartesian coordinates  (Angst):
  -0.00000160  1.84193057  3.71975108
   1.59515946  0.92096390  2.15486668
   1.59515627  0.92096390  5.28463547
 


--------------------------------------------------------------------------------------------------------


 k-point  1 :   0.0000 0.0000 0.0000  plane waves:    2353
 k-point  2 :   0.1250-0.0000 0.0000  plane waves:    2397
 k-point  3 :   0.2500-0.0000 0.0000  plane waves:    2437
 k-point  4 :   0.3750-0.0000 0.0000  plane waves:    2471
 k-point  5 :   0.5000-0.0000 0.0000  plane waves:    2476
 k-point  6 :   0.1250 0.1250 0.0000  plane waves:    2418
 k-point  7 :   0.2500 0.1250 0.0000  plane waves:    2445
 k-point  8 :   0.3750 0.1250 0.0000  plane waves:    2447
 k-point  9 :   0.2500 0.2500 0.0000  plane waves:    2452
 k-point 10 :   0.3750 0.2500 0.0000  plane waves:    2456

 maximum and minimum number of plane-waves per node :      1242     1167

 maximum number of plane-waves:      2476
 maximum index in each direction: 
   IXMAX=    4   IYMAX=    4   IZMAX=   39
   IXMIN=   -4   IYMIN=   -4   IZMIN=  -39


 real space projection operators:
  total allocation   :        396.00 KBytes
  max/ min on nodes  :        199.50        196.50


 parallel 3D FFT for wavefunctions:
    minimum data exchange during FFTs selected (reduces bandwidth)
 parallel 3D FFT for charge:
    minimum data exchange during FFTs selected (reduces bandwidth)


 total amount of memory used by VASP MPI-rank0    35517. kBytes
=======================================================================

   base      :      30000. kBytes
   nonlr-proj:        343. kBytes
   fftplans  :       1430. kBytes
   grid      :       2293. kBytes
   one-center:         31. kBytes
   wavefun   :       1420. kBytes
 
     INWAV:  cpu time    0.0010: real time    0.0001
 Broyden mixing: mesh for mixing (old mesh)
   NGX =  9   NGY =  9   NGZ = 79
  (NGX  = 24   NGY  = 24   NGZ  =240)
  gives a total of   6399 points

 initial charge density was supplied:
 charge density of overlapping atoms calculated
 number of electron      18.0000000 magnetization 
 keeping initial charge density in first step


--------------------------------------------------------------------------------------------------------


 Maximum index for non-local projection operator          960
 Maximum index for augmentation-charges         1009 (set IRDMAX)


--------------------------------------------------------------------------------------------------------


 First call to EWALD:  gamma=   0.273
 Maximum number of real-space cells 6x 6x 1
 Maximum number of reciprocal cells 2x 2x11

    FEWALD:  cpu time    0.0010: real time    0.0014


--------------------------------------- Iteration      1(   1)  ---------------------------------------


    POTLOK:  cpu time    0.0190: real time    0.0320
    SETDIJ:  cpu time    0.0020: real time    0.0026
     EDDAV:  cpu time    0.1050: real time    0.1081
       DOS:  cpu time    0.0010: real time    0.0019
    --------------------------------------------
      LOOP:  cpu time    0.1270: real time    0.1446

 eigenvalue-minimisations  :   288
 total energy-change (2. order) : 0.1079093E+03  (-0.4182004E+03)
 number of electron      18.0000000 magnetization 
 augmentation part       18.0000000 magnetization 

 Free energy of the ion-electron system (eV)
  ---------------------------------------------------
  alpha Z        PSCENC =        10.89288288
  Ewald energy   TEWEN  =      5368.65661653
  -Hartree energ DENC   =     -6042.21104468
  -exchange      EXHF   =         0.00000000
  -V(xc)+E(xc)   XCENC  =       -36.31053498
  PAW double counting   =       406.88651198     -329.34073203
  entropy T*S    EENTRO =        -0.02769722
  eigenvalues    EBANDS =       -41.70526301
  atomic energy  EATOM  =       771.06857575
  Solvation  Ediel_sol  =         0.00000000
  ---------------------------------------------------
  free energy    TOTEN  =       107.90931522 eV

  energy without entropy =      107.93701243  energy(sigma->0) =      107.92316383


--------------------------------------------------------------------------------------------------------




--------------------------------------- Iteration      1(   2)  ---------------------------------------


     EDDAV:  cpu time    0.1500: real time    0.1501
       DOS:  cpu time    0.0010: real time    0.0016
    --------------------------------------------
      LOOP:  cpu time    0.1510: real time    0.1517

 eigenvalue-minimisations  :   458
 total energy-change (2. order) :-0.1175392E+03  (-0.1090720E+03)
 number of electron      18.0000000 magnetization 
 augmentation part       18.0000000 magnetization 

 Free energy of the ion-electron system (eV)
  ---------------------------------------------------
  alpha Z        PSCENC =        10.89288288
  Ewald energy   TEWEN  =      5368.65661653
  -Hartree energ DENC   =     -6042.21104468
  -exchange      EXHF   =         0.00000000
  -V(xc)+E(xc)   XCENC  =       -36.31053498
  PAW double counting   =       406.88651198     -329.34073203
  entropy T*S    EENTRO =        -0.00000000
  eigenvalues    EBANDS =      -159.27211864
  atomic energy  EATOM  =       771.06857575
  Solvation  Ediel_sol  =         0.00000000
  ---------------------------------------------------
  free energy    TOTEN  =        -9.62984319 eV

  energy without entropy =       -9.62984319  energy(sigma->0) =       -9.62984319


--------------------------------------------------------------------------------------------------------




--------------------------------------- Iteration      1(   3)  ---------------------------------------


     EDDAV:  cpu time    0.1310: real time    0.1303
       DOS:  cpu time    0.0010: real time    0.0016
    --------------------------------------------
      LOOP:  cpu time    0.1320: real time    0.1320

 eigenvalue-minimisations  :   394
 total energy-change (2. order) :-0.1349100E+02  (-0.1337306E+02)
 number of electron      18.0000000 magnetization 
 augmentation part       18.0000000 magnetization 

 Free energy of the ion-electron system (eV)
  ---------------------------------------------------
  alpha Z        PSCENC =        10.89288288
  Ewald energy   TEWEN  =      5368.65661653
  -Hartree energ DENC   =     -6042.21104468
  -exchange      EXHF   =         0.00000000
  -V(xc)+E(xc)   XCENC  =       -36.31053498
  PAW double counting   =       406.88651198     -329.34073203
  entropy T*S    EENTRO =        -0.00000000
  eigenvalues    EBANDS =      -172.76311503
  atomic energy  EATOM  =       771.06857575
  Solvation  Ediel_sol  =         0.00000000
  ---------------------------------------------------
  free energy    TOTEN  =       -23.12083958 eV

  energy without entropy =      -23.12083958  energy(sigma->0) =      -23.12083958


--------------------------------------------------------------------------------------------------------




--------------------------------------- Iteration      1(   4)  ---------------------------------------


     EDDAV:  cpu time    0.1270: real time    0.1303
       DOS:  cpu time    0.0010: real time    0.0016
    --------------------------------------------
      LOOP:  cpu time    0.1280: real time    0.1319

 eigenvalue-minimisations  :   382
 total energy-change (2. order) :-0.2452342E+00  (-0.2447674E+00)
 number of electron      18.0000000 magnetization 
 augmentation part       18.0000000 magnetization 

 Free energy of the ion-electron system (eV)
  ---------------------------------------------------
  alpha Z        PSCENC =        10.89288288
  Ewald energy   TEWEN  =      5368.65661653
  -Hartree energ DENC   =     -6042.21104468
  -exchange      EXHF   =         0.00000000
  -V(xc)+E(xc)   XCENC  =       -36.31053498
  PAW double counting   =       406.88651198     -329.34073203
  entropy T*S    EENTRO =        -0.00000000
  eigenvalues    EBANDS =      -173.00834924
  atomic energy  EATOM  =       771.06857575
  Solvation  Ediel_sol  =         0.00000000
  ---------------------------------------------------
  free energy    TOTEN  =       -23.36607379 eV

  energy without entropy =      -23.36607379  energy(sigma->0) =      -23.36607379


--------------------------------------------------------------------------------------------------------




--------------------------------------- Iteration      1(   5)  ---------------------------------------


     EDDAV:  cpu time    0.1260: real time    0.1258
       DOS:  cpu time    0.0010: real time    0.0016
    CHARGE:  cpu time    0.0080: real time    0.0084
    MIXING:  cpu time    0.0010: real time    0.0008
    --------------------------------------------
      LOOP:  cpu time    0.1360: real time    0.1366

 eigenvalue-minimisations  :   378
 total energy-change (2. order) :-0.4828927E-02  (-0.4827559E-02)
 number of electron      17.9999935 magnetization 
 augmentation part       -0.9518910 magnetization 

 Broyden mixing:
  rms(total) = 0.69127E+00    rms(broyden)= 0.69108E+00
  rms(prec ) = 0.73467E+00
  weight for this iteration     100.00

 Free energy of the ion-electron system (eV)
  ---------------------------------------------------
  alpha Z        PSCENC =        10.89288288
  Ewald energy   TEWEN  =      5368.65661653
  -Hartree energ DENC   =     -6042.21104468
  -exchange      EXHF   =         0.00000000
  -V(xc)+E(xc)   XCENC  =       -36.31053498
  PAW double counting   =       406.88651198     -329.34073203
  entropy T*S    EENTRO =        -0.00000000
  eigenvalues    EBANDS =      -173.01317817
  atomic energy  EATOM  =       771.06857575
  Solvation  Ediel_sol  =         0.00000000
  ---------------------------------------------------
  free energy    TOTEN  =       -23.37090272 eV

  energy without entropy =      -23.37090272  energy(sigma->0) =      -23.37090272


--------------------------------------------------------------------------------------------------------




--------------------------------------- Iteration      1(   6)  ---------------------------------------


    POTLOK:  cpu time    0.0160: real time    0.0154
    SETDIJ:  cpu time    0.0020: real time    0.0018
    EDDIAG:  cpu time    0.0190: real time    0.0200
  RMM-DIIS:  cpu time    0.0650: real time    0.0651
    ORTHCH:  cpu time    0.0020: real time    0.0022
       DOS:  cpu time    0.0020: real time    0.0016
    CHARGE:  cpu time    0.0080: real time    0.0084
    MIXING:  cpu time    0.0010: real time    0.0008
    --------------------------------------------
      LOOP:  cpu time    0.1150: real time    0.1155

 eigenvalue-minimisations  :   292
 total energy-change (2. order) : 0.1160366E+01  (-0.5395666E+00)
 number of electron      17.9999938 magnetization 
 augmentation part       -0.4082519 magnetization 

 Broyden mixing:
  rms(total) = 0.26297E+00    rms(broyden)= 0.26275E+00
  rms(prec ) = 0.29793E+00
  weight for this iteration     100.00

 eigenvalues of (default mixing * dielectric matrix)
  average eigenvalue GAMMA=   0.8353
  0.8353

 Free energy of the ion-electron system (eV)
  ---------------------------------------------------
  alpha Z        PSCENC =        10.89288288
  Ewald energy   TEWEN  =      5368.65661653
  -Hartree energ DENC   =     -6040.44238075
  -exchange      EXHF   =         0.00000000
  -V(xc)+E(xc)   XCENC  =       -35.41116751
  PAW double counting   =       426.18587969     -349.53080631
  entropy T*S    EENTRO =        -0.00000003
  eigenvalues    EBANDS =      -173.63013661
  atomic energy  EATOM  =       771.06857575
  Solvation  Ediel_sol  =         0.00000000
  ---------------------------------------------------
  free energy    TOTEN  =       -22.21053636 eV

  energy without entropy =      -22.21053633  energy(sigma->0) =      -22.21053634


--------------------------------------------------------------------------------------------------------




--------------------------------------- Iteration      1(   7)  ---------------------------------------


    POTLOK:  cpu time    0.0140: real time    0.0145
    SETDIJ:  cpu time    0.0020: real time    0.0018
    EDDIAG:  cpu time    0.0200: real time    0.0197
  RMM-DIIS:  cpu time    0.0640: real time    0.0639
    ORTHCH:  cpu time    0.0020: real time    0.0022
       DOS:  cpu time    0.0020: real time    0.0016
    CHARGE:  cpu time    0.0080: real time    0.0082
    MIXING:  cpu time    0.0010: real time    0.0007
    --------------------------------------------
      LOOP:  cpu time    0.1130: real time    0.1127

 eigenvalue-minimisations  :   291
 total energy-change (2. order) : 0.3818098E+00  (-0.5683624E-01)
 number of electron      17.9999937 magnetization 
 augmentation part       -0.6117032 magnetization 

 Broyden mixing:
  rms(total) = 0.15400E+00    rms(broyden)= 0.15398E+00
  rms(prec ) = 0.16046E+00
  weight for this iteration     100.00

 eigenvalues of (default mixing * dielectric matrix)
  average eigenvalue GAMMA=   1.3732
  0.6638  2.0827

 Free energy of the ion-electron system (eV)
  ---------------------------------------------------
  alpha Z        PSCENC =        10.89288288
  Ewald energy   TEWEN  =      5368.65661653
  -Hartree energ DENC   =     -6045.99099489
  -exchange      EXHF   =         0.00000000
  -V(xc)+E(xc)   XCENC  =       -35.55468025
  PAW double counting   =       445.19138791     -368.76881421
  entropy T*S    EENTRO =        -0.00000000
  eigenvalues    EBANDS =      -167.32370031
  atomic energy  EATOM  =       771.06857575
  Solvation  Ediel_sol  =         0.00000000
  ---------------------------------------------------
  free energy    TOTEN  =       -21.82872659 eV

  energy without entropy =      -21.82872659  energy(sigma->0) =      -21.82872659


--------------------------------------------------------------------------------------------------------




--------------------------------------- Iteration      1(   8)  ---------------------------------------


    POTLOK:  cpu time    0.0140: real time    0.0146
    SETDIJ:  cpu time    0.0020: real time    0.0018
    EDDIAG:  cpu time    0.0190: real time    0.0196
  RMM-DIIS:  cpu time    0.0680: real time    0.0670
    ORTHCH:  cpu time    0.0020: real time    0.0022
       DOS:  cpu time    0.0010: real time    0.0016
    CHARGE:  cpu time    0.0090: real time    0.0082
    MIXING:  cpu time    0.0000: real time    0.0012
    --------------------------------------------
      LOOP:  cpu time    0.1150: real time    0.1163

 eigenvalue-minimisations  :   305
 total energy-change (2. order) : 0.6058053E-01  (-0.2343840E-01)
 number of electron      17.9999937 magnetization 
 augmentation part       -0.5609830 magnetization 

 Broyden mixing:
  rms(total) = 0.34787E-01    rms(broyden)= 0.34760E-01
  rms(prec ) = 0.36568E-01
  weight for this iteration     100.00

 eigenvalues of (default mixing * dielectric matrix)
  average eigenvalue GAMMA=   1.4984
  1.9167  1.9167  0.6617

 Free energy of the ion-electron system (eV)
  ---------------------------------------------------
  alpha Z        PSCENC =        10.89288288
  Ewald energy   TEWEN  =      5368.65661653
  -Hartree energ DENC   =     -6049.98499647
  -exchange      EXHF   =         0.00000000
  -V(xc)+E(xc)   XCENC  =       -35.26838012
  PAW double counting   =       471.30500250     -395.40334441
  entropy T*S    EENTRO =        -0.00000000
  eigenvalues    EBANDS =      -163.03450271
  atomic energy  EATOM  =       771.06857575
  Solvation  Ediel_sol  =         0.00000000
  ---------------------------------------------------
  free energy    TOTEN  =       -21.76814606 eV

  energy without entropy =      -21.76814606  energy(sigma->0) =      -21.76814606


--------------------------------------------------------------------------------------------------------




--------------------------------------- Iteration      1(   9)  ---------------------------------------


    POTLOK:  cpu time    0.0150: real time    0.0147
    SETDIJ:  cpu time    0.0020: real time    0.0018
    EDDIAG:  cpu time    0.0190: real time    0.0195
  RMM-DIIS:  cpu time    0.0740: real time    0.0742
    ORTHCH:  cpu time    0.0020: real time    0.0022
       DOS:  cpu time    0.0020: real time    0.0016
    CHARGE:  cpu time    0.0080: real time    0.0082
    MIXING:  cpu time    0.0010: real time    0.0008
    --------------------------------------------
      LOOP:  cpu time    0.1230: real time    0.1230

 eigenvalue-minimisations  :   335
 total energy-change (2. order) : 0.4638500E-02  (-0.8199855E-03)
 number of electron      17.9999937 magnetization 
 augmentation part       -0.5583809 magnetization 

 Broyden mixing:
  rms(total) = 0.92235E-02    rms(broyden)= 0.92171E-02
  rms(prec ) = 0.10918E-01
  weight for this iteration     100.00

 eigenvalues of (default mixing * dielectric matrix)
  average eigenvalue GAMMA=   1.5054
  0.6630  1.0481  2.4435  1.8669

 Free energy of the ion-electron system (eV)
  ---------------------------------------------------
  alpha Z        PSCENC =        10.89288288
  Ewald energy   TEWEN  =      5368.65661653
  -Hartree energ DENC   =     -6051.27884030
  -exchange      EXHF   =         0.00000000
  -V(xc)+E(xc)   XCENC  =       -35.21879314
  PAW double counting   =       476.73428581     -400.90364323
  entropy T*S    EENTRO =        -0.00000000
  eigenvalues    EBANDS =      -161.71459185
  atomic energy  EATOM  =       771.06857575
  Solvation  Ediel_sol  =         0.00000000
  ---------------------------------------------------
  free energy    TOTEN  =       -21.76350756 eV

  energy without entropy =      -21.76350756  energy(sigma->0) =      -21.76350756


--------------------------------------------------------------------------------------------------------




--------------------------------------- Iteration      1(  10)  ---------------------------------------


    POTLOK:  cpu time    0.0140: real time    0.0148
    SETDIJ:  cpu time    0.0020: real time    0.0018
    EDDIAG:  cpu time    0.0200: real time    0.0195
  RMM-DIIS:  cpu time    0.0750: real time    0.0750
    ORTHCH:  cpu time    0.0010: real time    0.0022
       DOS:  cpu time    0.0020: real time    0.0016
    CHARGE:  cpu time    0.0080: real time    0.0082
    MIXING:  cpu time    0.0010: real time    0.0008
    --------------------------------------------
      LOOP:  cpu time    0.1230: real time    0.1240

 eigenvalue-minimisations  :   337
 total energy-change (2. order) : 0.6848982E-03  (-0.1603461E-03)
 number of electron      17.9999936 magnetization 
 augmentation part       -0.5614365 magnetization 

 Broyden mixing:
  rms(total) = 0.43370E-02    rms(broyden)= 0.43318E-02
  rms(prec ) = 0.57328E-02
  weight for this iteration     100.00

 eigenvalues of (default mixing * dielectric matrix)
  average eigenvalue GAMMA=   1.6705
  0.6636  1.0335  2.1687  2.2434  2.2434

 Free energy of the ion-electron system (eV)
  ---------------------------------------------------
  alpha Z        PSCENC =        10.89288288
  Ewald energy   TEWEN  =      5368.65661653
  -Hartree energ DENC   =     -6052.42603098
  -exchange      EXHF   =         0.00000000
  -V(xc)+E(xc)   XCENC  =       -35.19422754
  PAW double counting   =       479.25367111     -403.45532906
  entropy T*S    EENTRO =        -0.00000000
  eigenvalues    EBANDS =      -160.55898135
  atomic energy  EATOM  =       771.06857575
  Solvation  Ediel_sol  =         0.00000000
  ---------------------------------------------------
  free energy    TOTEN  =       -21.76282266 eV

  energy without entropy =      -21.76282266  energy(sigma->0) =      -21.76282266


--------------------------------------------------------------------------------------------------------




--------------------------------------- Iteration      1(  11)  ---------------------------------------


    POTLOK:  cpu time    0.0150: real time    0.0147
    SETDIJ:  cpu time    0.0020: real time    0.0018
    EDDIAG:  cpu time    0.0190: real time    0.0196
  RMM-DIIS:  cpu time    0.0720: real time    0.0717
    ORTHCH:  cpu time    0.0020: real time    0.0022
       DOS:  cpu time    0.0020: real time    0.0016
    CHARGE:  cpu time    0.0080: real time    0.0082
    MIXING:  cpu time    0.0010: real time    0.0009
    --------------------------------------------
      LOOP:  cpu time    0.1210: real time    0.1206

 eigenvalue-minimisations  :   320
 total energy-change (2. order) : 0.4157883E-04  (-0.1721457E-03)
 number of electron      17.9999937 magnetization 
 augmentation part       -0.5587372 magnetization 

 Broyden mixing:
  rms(total) = 0.51944E-02    rms(broyden)= 0.51902E-02
  rms(prec ) = 0.58525E-02
  weight for this iteration     100.00

 eigenvalues of (default mixing * dielectric matrix)
  average eigenvalue GAMMA=   1.6663
  2.8084  2.8084  0.6639  1.4032  1.4032  0.9109

 Free energy of the ion-electron system (eV)
  ---------------------------------------------------
  alpha Z        PSCENC =        10.89288288
  Ewald energy   TEWEN  =      5368.65661653
  -Hartree energ DENC   =     -6053.60513389
  -exchange      EXHF   =         0.00000000
  -V(xc)+E(xc)   XCENC  =       -35.18193031
  PAW double counting   =       478.68094244     -402.87310625
  entropy T*S    EENTRO =        -0.00000000
  eigenvalues    EBANDS =      -159.40162823
  atomic energy  EATOM  =       771.06857575
  Solvation  Ediel_sol  =         0.00000000
  ---------------------------------------------------
  free energy    TOTEN  =       -21.76278108 eV

  energy without entropy =      -21.76278108  energy(sigma->0) =      -21.76278108


--------------------------------------------------------------------------------------------------------




--------------------------------------- Iteration      1(  12)  ---------------------------------------


    POTLOK:  cpu time    0.0140: real time    0.0148
    SETDIJ:  cpu time    0.0020: real time    0.0018
    EDDIAG:  cpu time    0.0200: real time    0.0195
  RMM-DIIS:  cpu time    0.0690: real time    0.0688
    ORTHCH:  cpu time    0.0020: real time    0.0022
       DOS:  cpu time    0.0010: real time    0.0016
    CHARGE:  cpu time    0.0080: real time    0.0082
    MIXING:  cpu time    0.0010: real time    0.0009
    --------------------------------------------
      LOOP:  cpu time    0.1170: real time    0.1179

 eigenvalue-minimisations  :   306
 total energy-change (2. order) : 0.8156077E-04  (-0.5131349E-04)
 number of electron      17.9999936 magnetization 
 augmentation part       -0.5605211 magnetization 

 Broyden mixing:
  rms(total) = 0.15217E-02    rms(broyden)= 0.15110E-02
  rms(prec ) = 0.20466E-02
  weight for this iteration     100.00

 eigenvalues of (default mixing * dielectric matrix)
  average eigenvalue GAMMA=   1.9647
  3.8387  2.8037  2.8037  0.6639  0.9692  1.3369  1.3369

 Free energy of the ion-electron system (eV)
  ---------------------------------------------------
  alpha Z        PSCENC =        10.89288288
  Ewald energy   TEWEN  =      5368.65661653
  -Hartree energ DENC   =     -6054.31094835
  -exchange      EXHF   =         0.00000000
  -V(xc)+E(xc)   XCENC  =       -35.17694952
  PAW double counting   =       478.85127977     -403.04123008
  entropy T*S    EENTRO =        -0.00000000
  eigenvalues    EBANDS =      -158.70292650
  atomic energy  EATOM  =       771.06857575
  Solvation  Ediel_sol  =         0.00000000
  ---------------------------------------------------
  free energy    TOTEN  =       -21.76269952 eV

  energy without entropy =      -21.76269952  energy(sigma->0) =      -21.76269952


--------------------------------------------------------------------------------------------------------




--------------------------------------- Iteration      1(  13)  ---------------------------------------


    POTLOK:  cpu time    0.0160: real time    0.0173
    SETDIJ:  cpu time    0.0010: real time    0.0018
    EDDIAG:  cpu time    0.0200: real time    0.0195
  RMM-DIIS:  cpu time    0.0670: real time    0.0667
    ORTHCH:  cpu time    0.0020: real time    0.0022
       DOS:  cpu time    0.0010: real time    0.0016
    CHARGE:  cpu time    0.0090: real time    0.0082
    MIXING:  cpu time    0.0010: real time    0.0010
    --------------------------------------------
      LOOP:  cpu time    0.1170: real time    0.1183

 eigenvalue-minimisations  :   304
 total energy-change (2. order) :-0.4689276E-03  (-0.1469874E-04)
 number of electron      17.9999936 magnetization 
 augmentation part       -0.5594500 magnetization 

 Broyden mixing:
  rms(total) = 0.18003E-02    rms(broyden)= 0.17916E-02
  rms(prec ) = 0.19581E-02
  weight for this iteration     100.00

 eigenvalues of (default mixing * dielectric matrix)
  average eigenvalue GAMMA=   1.9108
  4.8182  2.6987  2.3562  1.4168  1.4168  0.6639  0.9578  0.9578

 Free energy of the ion-electron system (eV)
  ---------------------------------------------------
  alpha Z        PSCENC =        10.89288288
  Ewald energy   TEWEN  =      5368.65661653
  -Hartree energ DENC   =     -6055.07926484
  -exchange      EXHF   =         0.00000000
  -V(xc)+E(xc)   XCENC  =       -35.17049734
  PAW double counting   =       478.84020198     -403.03524862
  entropy T*S    EENTRO =        -0.00000000
  eigenvalues    EBANDS =      -157.93643479
  atomic energy  EATOM  =       771.06857575
  Solvation  Ediel_sol  =         0.00000000
  ---------------------------------------------------
  free energy    TOTEN  =       -21.76316845 eV

  energy without entropy =      -21.76316845  energy(sigma->0) =      -21.76316845


--------------------------------------------------------------------------------------------------------




--------------------------------------- Iteration      1(  14)  ---------------------------------------


    POTLOK:  cpu time    0.0140: real time    0.0148
    SETDIJ:  cpu time    0.0020: real time    0.0018
    EDDIAG:  cpu time    0.0200: real time    0.0196
  RMM-DIIS:  cpu time    0.0720: real time    0.0722
    ORTHCH:  cpu time    0.0020: real time    0.0022
       DOS:  cpu time    0.0020: real time    0.0016
    CHARGE:  cpu time    0.0080: real time    0.0081
    MIXING:  cpu time    0.0010: real time    0.0012
    --------------------------------------------
      LOOP:  cpu time    0.1210: real time    0.1216

 eigenvalue-minimisations  :   327
 total energy-change (2. order) :-0.7965435E-04  (-0.2614934E-05)
 number of electron      17.9999936 magnetization 
 augmentation part       -0.5604852 magnetization 

 Broyden mixing:
  rms(total) = 0.53538E-03    rms(broyden)= 0.50502E-03
  rms(prec ) = 0.64375E-03
  weight for this iteration     100.00

 eigenvalues of (default mixing * dielectric matrix)
  average eigenvalue GAMMA=   2.2095
  6.7994  3.0529  2.3559  2.3559  0.6640  1.5095  0.9807  0.9807  1.1869

 Free energy of the ion-electron system (eV)
  ---------------------------------------------------
  alpha Z        PSCENC =        10.89288288
  Ewald energy   TEWEN  =      5368.65661653
  -Hartree energ DENC   =     -6055.23618727
  -exchange      EXHF   =         0.00000000
  -V(xc)+E(xc)   XCENC  =       -35.17267458
  PAW double counting   =       478.62909367     -402.81925941
  entropy T*S    EENTRO =        -0.00000000
  eigenvalues    EBANDS =      -157.78229567
  atomic energy  EATOM  =       771.06857575
  Solvation  Ediel_sol  =         0.00000000
  ---------------------------------------------------
  free energy    TOTEN  =       -21.76324810 eV

  energy without entropy =      -21.76324810  energy(sigma->0) =      -21.76324810


--------------------------------------------------------------------------------------------------------




--------------------------------------- Iteration      1(  15)  ---------------------------------------


    POTLOK:  cpu time    0.0150: real time    0.0148
    SETDIJ:  cpu time    0.0020: real time    0.0018
    EDDIAG:  cpu time    0.0190: real time    0.0195
  RMM-DIIS:  cpu time    0.0620: real time    0.0612
    ORTHCH:  cpu time    0.0020: real time    0.0022
       DOS:  cpu time    0.0010: real time    0.0016
    CHARGE:  cpu time    0.0090: real time    0.0082
    MIXING:  cpu time    0.0010: real time    0.0011
    --------------------------------------------
      LOOP:  cpu time    0.1110: real time    0.1104

 eigenvalue-minimisations  :   281
 total energy-change (2. order) :-0.1564927E-03  (-0.1512826E-05)
 number of electron      17.9999936 magnetization 
 augmentation part       -0.5600245 magnetization 

 Broyden mixing:
  rms(total) = 0.38587E-03    rms(broyden)= 0.34284E-03
  rms(prec ) = 0.40384E-03
  weight for this iteration     100.00
  WARNING: grid for Broyden might be to small

 eigenvalues of (default mixing * dielectric matrix)
  average eigenvalue GAMMA=   2.1700
  6.7159  3.4972  2.6082  1.7320  1.7320  1.7086  0.6640  1.0425  1.0425  0.9570

 Free energy of the ion-electron system (eV)
  ---------------------------------------------------
  alpha Z        PSCENC =        10.89288288
  Ewald energy   TEWEN  =      5368.65661653
  -Hartree energ DENC   =     -6055.41969992
  -exchange      EXHF   =         0.00000000
  -V(xc)+E(xc)   XCENC  =       -35.17189360
  PAW double counting   =       478.67074532     -402.86188739
  entropy T*S    EENTRO =        -0.00000000
  eigenvalues    EBANDS =      -157.59874416
  atomic energy  EATOM  =       771.06857575
  Solvation  Ediel_sol  =         0.00000000
  ---------------------------------------------------
  free energy    TOTEN  =       -21.76340459 eV

  energy without entropy =      -21.76340459  energy(sigma->0) =      -21.76340459


--------------------------------------------------------------------------------------------------------




--------------------------------------- Iteration      1(  16)  ---------------------------------------


    POTLOK:  cpu time    0.0140: real time    0.0150
    SETDIJ:  cpu time    0.0020: real time    0.0018
    EDDIAG:  cpu time    0.0200: real time    0.0195
  RMM-DIIS:  cpu time    0.0570: real time    0.0573
    ORTHCH:  cpu time    0.0010: real time    0.0022
       DOS:  cpu time    0.0030: real time    0.0016
    CHARGE:  cpu time    0.0070: real time    0.0082
    MIXING:  cpu time    0.0020: real time    0.0012
    --------------------------------------------
      LOOP:  cpu time    0.1060: real time    0.1068

 eigenvalue-minimisations  :   237
 total energy-change (2. order) :-0.4148916E-04  (-0.2816508E-06)
 number of electron      17.9999936 magnetization 
 augmentation part       -0.5603378 magnetization 

 Broyden mixing:
  rms(total) = 0.24836E-03    rms(broyden)= 0.17427E-03
  rms(prec ) = 0.20414E-03
  weight for this iteration     100.00
  WARNING: grid for Broyden might be to small

 eigenvalues of (default mixing * dielectric matrix)
  average eigenvalue GAMMA=   2.3603
  7.4483  4.5505  2.9385  2.5848  2.1399  1.5059  0.6640  1.2057  0.9977  0.9977
  0.9300

 Free energy of the ion-electron system (eV)
  ---------------------------------------------------
  alpha Z        PSCENC =        10.89288288
  Ewald energy   TEWEN  =      5368.65661653
  -Hartree energ DENC   =     -6055.46585611
  -exchange      EXHF   =         0.00000000
  -V(xc)+E(xc)   XCENC  =       -35.17214953
  PAW double counting   =       478.70618801     -402.89764595
  entropy T*S    EENTRO =        -0.00000000
  eigenvalues    EBANDS =      -157.55205767
  atomic energy  EATOM  =       771.06857575
  Solvation  Ediel_sol  =         0.00000000
  ---------------------------------------------------
  free energy    TOTEN  =       -21.76344608 eV

  energy without entropy =      -21.76344608  energy(sigma->0) =      -21.76344608


--------------------------------------------------------------------------------------------------------




--------------------------------------- Iteration      1(  17)  ---------------------------------------


    POTLOK:  cpu time    0.0150: real time    0.0148
    SETDIJ:  cpu time    0.0020: real time    0.0018
    EDDIAG:  cpu time    0.0190: real time    0.0194
  RMM-DIIS:  cpu time    0.0490: real time    0.0491
    ORTHCH:  cpu time    0.0020: real time    0.0022
       DOS:  cpu time    0.0010: real time    0.0016
    CHARGE:  cpu time    0.0090: real time    0.0081
    MIXING:  cpu time    0.0010: real time    0.0013
    --------------------------------------------
      LOOP:  cpu time    0.0980: real time    0.0984

 eigenvalue-minimisations  :   202
 total energy-change (2. order) :-0.3212858E-04  (-0.1880556E-06)
 number of electron      17.9999936 magnetization 
 augmentation part       -0.5602471 magnetization 

 Broyden mixing:
  rms(total) = 0.21409E-03    rms(broyden)= 0.12059E-03
  rms(prec ) = 0.13212E-03
  weight for this iteration     100.00
  WARNING: grid for Broyden might be to small

 eigenvalues of (default mixing * dielectric matrix)
  average eigenvalue GAMMA=   2.2633
  7.6320  4.7161  2.9299  2.4846  2.1495  1.4917  0.6640  1.3159  0.9960  0.9960
  0.9301  0.8538

 Free energy of the ion-electron system (eV)
  ---------------------------------------------------
  alpha Z        PSCENC =        10.89288288
  Ewald energy   TEWEN  =      5368.65661653
  -Hartree energ DENC   =     -6055.49284889
  -exchange      EXHF   =         0.00000000
  -V(xc)+E(xc)   XCENC  =       -35.17218121
  PAW double counting   =       478.67405939     -402.86482405
  entropy T*S    EENTRO =        -0.00000000
  eigenvalues    EBANDS =      -157.52575861
  atomic energy  EATOM  =       771.06857575
  Solvation  Ediel_sol  =         0.00000000
  ---------------------------------------------------
  free energy    TOTEN  =       -21.76347821 eV

  energy without entropy =      -21.76347821  energy(sigma->0) =      -21.76347821


--------------------------------------------------------------------------------------------------------




--------------------------------------- Iteration      1(  18)  ---------------------------------------


    POTLOK:  cpu time    0.0150: real time    0.0146
    SETDIJ:  cpu time    0.0020: real time    0.0018
    EDDIAG:  cpu time    0.0190: real time    0.0194
  RMM-DIIS:  cpu time    0.0470: real time    0.0470
    ORTHCH:  cpu time    0.0020: real time    0.0022
       DOS:  cpu time    0.0010: real time    0.0016
    CHARGE:  cpu time    0.0090: real time    0.0081
    MIXING:  cpu time    0.0010: real time    0.0013
    --------------------------------------------
      LOOP:  cpu time    0.0960: real time    0.0961

 eigenvalue-minimisations  :   155
 total energy-change (2. order) :-0.2030225E-05  (-0.1677508E-07)
 number of electron      17.9999936 magnetization 
 augmentation part       -0.5602356 magnetization 

 Broyden mixing:
  rms(total) = 0.18705E-03    rms(broyden)= 0.60831E-04
  rms(prec ) = 0.69590E-04
  weight for this iteration     100.00
  WARNING: grid for Broyden might be to small

 eigenvalues of (default mixing * dielectric matrix)
  average eigenvalue GAMMA=   2.3450
  7.5737  5.5593  2.7921  2.7921  2.3167  2.0262  1.6177  0.6640  1.1320  1.1320
  1.0349  0.9525  0.8913

 Free energy of the ion-electron system (eV)
  ---------------------------------------------------
  alpha Z        PSCENC =        10.89288288
  Ewald energy   TEWEN  =      5368.65661653
  -Hartree energ DENC   =     -6055.49451227
  -exchange      EXHF   =         0.00000000
  -V(xc)+E(xc)   XCENC  =       -35.17215468
  PAW double counting   =       478.68106769     -402.87198360
  entropy T*S    EENTRO =        -0.00000000
  eigenvalues    EBANDS =      -157.52397255
  atomic energy  EATOM  =       771.06857575
  Solvation  Ediel_sol  =         0.00000000
  ---------------------------------------------------
  free energy    TOTEN  =       -21.76348024 eV

  energy without entropy =      -21.76348024  energy(sigma->0) =      -21.76348024


--------------------------------------------------------------------------------------------------------




--------------------------------------- Iteration      1(  19)  ---------------------------------------


    POTLOK:  cpu time    0.0150: real time    0.0146
    SETDIJ:  cpu time    0.0020: real time    0.0018
    EDDIAG:  cpu time    0.0190: real time    0.0194
  RMM-DIIS:  cpu time    0.0470: real time    0.0467
    ORTHCH:  cpu time    0.0020: real time    0.0022
       DOS:  cpu time    0.0010: real time    0.0016
    CHARGE:  cpu time    0.0090: real time    0.0081
    MIXING:  cpu time    0.0010: real time    0.0014
    --------------------------------------------
      LOOP:  cpu time    0.0960: real time    0.0960

 eigenvalue-minimisations  :   178
 total energy-change (2. order) :-0.4634998E-05  (-0.4505016E-07)
 number of electron      17.9999936 magnetization 
 augmentation part       -0.5602557 magnetization 

 Broyden mixing:
  rms(total) = 0.18340E-03    rms(broyden)= 0.48440E-04
  rms(prec ) = 0.53319E-04
  weight for this iteration     100.00
  WARNING: grid for Broyden might be to small

 eigenvalues of (default mixing * dielectric matrix)
  average eigenvalue GAMMA=   2.3510
  7.6761  5.7229  3.4087  2.7831  2.3838  1.8642  1.8642  1.4946  0.6640  1.1081
  1.1081  0.9576  0.9391  0.9391

 Free energy of the ion-electron system (eV)
  ---------------------------------------------------
  alpha Z        PSCENC =        10.89288288
  Ewald energy   TEWEN  =      5368.65661653
  -Hartree energ DENC   =     -6055.49811811
  -exchange      EXHF   =         0.00000000
  -V(xc)+E(xc)   XCENC  =       -35.17220010
  PAW double counting   =       478.68499529     -402.87602794
  entropy T*S    EENTRO =        -0.00000000
  eigenvalues    EBANDS =      -157.52020917
  atomic energy  EATOM  =       771.06857575
  Solvation  Ediel_sol  =         0.00000000
  ---------------------------------------------------
  free energy    TOTEN  =       -21.76348488 eV

  energy without entropy =      -21.76348488  energy(sigma->0) =      -21.76348488


--------------------------------------------------------------------------------------------------------




--------------------------------------- Iteration      1(  20)  ---------------------------------------


    POTLOK:  cpu time    0.0150: real time    0.0147
    SETDIJ:  cpu time    0.0020: real time    0.0018
    EDDIAG:  cpu time    0.0190: real time    0.0194
  RMM-DIIS:  cpu time    0.0430: real time    0.0433
    ORTHCH:  cpu time    0.0020: real time    0.0022
       DOS:  cpu time    0.0020: real time    0.0016
    CHARGE:  cpu time    0.0080: real time    0.0081
    MIXING:  cpu time    0.0020: real time    0.0015
    --------------------------------------------
      LOOP:  cpu time    0.0930: real time    0.0926

 eigenvalue-minimisations  :   134
 total energy-change (2. order) :-0.1119457E-05  (-0.8351087E-08)
 number of electron      17.9999936 magnetization 
 augmentation part       -0.5602421 magnetization 

 Broyden mixing:
  rms(total) = 0.17716E-03    rms(broyden)= 0.98539E-05
  rms(prec ) = 0.13804E-04
  weight for this iteration     100.00
  WARNING: grid for Broyden might be to small

 eigenvalues of (default mixing * dielectric matrix)
  average eigenvalue GAMMA=   2.3934
  7.8171  6.1462  4.0244  2.9236  2.6220  2.0792  1.7356  1.7356  0.6640  1.1560
  1.1560  1.0342  0.9531  0.9269  0.9269

 Free energy of the ion-electron system (eV)
  ---------------------------------------------------
  alpha Z        PSCENC =        10.89288288
  Ewald energy   TEWEN  =      5368.65661653
  -Hartree energ DENC   =     -6055.50521353
  -exchange      EXHF   =         0.00000000
  -V(xc)+E(xc)   XCENC  =       -35.17214510
  PAW double counting   =       478.68284120     -402.87385147
  entropy T*S    EENTRO =        -0.00000000
  eigenvalues    EBANDS =      -157.51319225
  atomic energy  EATOM  =       771.06857575
  Solvation  Ediel_sol  =         0.00000000
  ---------------------------------------------------
  free energy    TOTEN  =       -21.76348600 eV

  energy without entropy =      -21.76348600  energy(sigma->0) =      -21.76348600


--------------------------------------------------------------------------------------------------------




--------------------------------------- Iteration      1(  21)  ---------------------------------------


    POTLOK:  cpu time    0.0140: real time    0.0149
    SETDIJ:  cpu time    0.0020: real time    0.0018
    EDDIAG:  cpu time    0.0190: real time    0.0194
  RMM-DIIS:  cpu time    0.0380: real time    0.0371
    ORTHCH:  cpu time    0.0020: real time    0.0022
       DOS:  cpu time    0.0010: real time    0.0016
    --------------------------------------------
      LOOP:  cpu time    0.0760: real time    0.0770

 eigenvalue-minimisations  :    74
 total energy-change (2. order) :-0.8625535E-06  (-0.1242690E-08)
 number of electron      17.9999936 magnetization 
 augmentation part       -0.5602421 magnetization 

 Free energy of the ion-electron system (eV)
  ---------------------------------------------------
  alpha Z        PSCENC =        10.89288288
  Ewald energy   TEWEN  =      5368.65661653
  -Hartree energ DENC   =     -6055.50794218
  -exchange      EXHF   =         0.00000000
  -V(xc)+E(xc)   XCENC  =       -35.17214770
  PAW double counting   =       478.68455212     -402.87558391
  entropy T*S    EENTRO =        -0.00000000
  eigenvalues    EBANDS =      -157.51044034
  atomic energy  EATOM  =       771.06857575
  Solvation  Ediel_sol  =         0.00000000
  ---------------------------------------------------
  free energy    TOTEN  =       -21.76348686 eV

  energy without entropy =      -21.76348686  energy(sigma->0) =      -21.76348686


--------------------------------------------------------------------------------------------------------




 average (electrostatic) potential at core
  the test charge radii are     1.2296  0.9698
  (the norm of the test charge is              1.0000)
       1 -47.2159       2 -95.0682       3 -95.0683
 
 
 
 E-fermi :  -2.9400     XC(G=0):  -2.5494     alpha+bet : -2.3217


 k-point     1 :       0.0000    0.0000    0.0000
  band No.  band energies     occupation 
      1     -17.7980      2.00000
      2     -16.5896      2.00000
      3      -9.3074      2.00000
      4      -6.3459      2.00000
      5      -6.3456      2.00000
      6      -5.4862      2.00000
      7      -5.2385      2.00000
      8      -5.2380      2.00000
      9      -3.7633      2.00000
     10      -0.9894      0.00000
     11      -0.9886      0.00000
     12      -0.7669      0.00000
     13      -0.7662      0.00000
     14       1.6425      0.00000

 k-point     2 :       0.1250   -0.0000    0.0000
  band No.  band energies     occupation 
      1     -17.5840      2.00000
      2     -16.4872      2.00000
      3      -9.0630      2.00000
      4      -6.8105      2.00000
      5      -6.2934      2.00000
      6      -6.1119      2.00000
      7      -5.5750      2.00000
      8      -4.8075      2.00000
      9      -3.9026      2.00000
     10      -1.2727      0.00000
     11      -1.2059      0.00000
     12      -1.0042      0.00000
     13      -0.6356      0.00000
     14       2.0094      0.00000

 k-point     3 :       0.2500   -0.0000    0.0000
  band No.  band energies     occupation 
      1     -17.0155      2.00000
      2     -16.2183      2.00000
      3      -8.6970      2.00000
      4      -7.5388      2.00000
      5      -7.2750      2.00000
      6      -6.2113      2.00000
      7      -5.5257      2.00000
      8      -5.0595      2.00000
      9      -4.4711      2.00000
     10      -1.5965      0.00000
     11      -1.4212      0.00000
     12      -0.8783      0.00000
     13      -0.0202      0.00000
     14       2.8317      0.00000

 k-point     4 :       0.3750   -0.0000    0.0000
  band No.  band energies     occupation 
      1     -16.3405      2.00000
      2     -15.9098      2.00000
      3      -9.1364      2.00000
      4      -8.1437      2.00000
      5      -7.6699      2.00000
      6      -6.7104      2.00000
      7      -5.4685      2.00000
      8      -4.9361      2.00000
      9      -4.6653      2.00000
     10      -1.6040      0.00000
     11      -1.3241      0.00000
     12      -0.1596      0.00000
     13       0.3720      0.00000
     14       3.3964      0.00000

 k-point     5 :       0.5000   -0.0000    0.0000
  band No.  band energies     occupation 
      1     -16.0123      2.00000
      2     -15.7664      2.00000
      3      -9.4694      2.00000
      4      -8.5099      2.00000
      5      -7.7953      2.00000
      6      -6.8910      2.00000
      7      -5.6068      2.00000
      8      -4.7089      2.00000
      9      -4.3838      2.00000
     10      -1.5823      0.00000
     11      -1.0676      0.00000
     12       0.1401      0.00000
     13       0.4881      0.00000
     14       2.4422      0.00000

 k-point     6 :       0.1250    0.1250    0.0000
  band No.  band energies     occupation 
      1     -17.1913      2.00000
      2     -16.3001      2.00000
      3      -8.7158      2.00000
      4      -7.3756      2.00000
      5      -6.8562      2.00000
      6      -6.3895      2.00000
      7      -5.7733      2.00000
      8      -4.6728      2.00000
      9      -4.2754      2.00000
     10      -1.6716      0.00000
     11      -1.2942      0.00000
     12      -1.2819      0.00000
     13      -0.0413      0.00000
     14       2.6093      0.00000

 k-point     7 :       0.2500    0.1250    0.0000
  band No.  band energies     occupation 
      1     -16.5579      2.00000
      2     -16.0015      2.00000
      3      -8.7797      2.00000
      4      -7.8023      2.00000
      5      -7.5388      2.00000
      6      -6.8947      2.00000
      7      -5.6740      2.00000
      8      -5.0357      2.00000
      9      -4.5591      2.00000
     10      -1.7552      0.00000
     11      -1.3085      0.00000
     12      -0.8117      0.00000
     13       0.4640      0.00000
     14       3.5857      0.00000

 k-point     8 :       0.3750    0.1250    0.0000
  band No.  band energies     occupation 
      1     -16.0275      2.00000
      2     -15.7575      2.00000
      3      -9.1816      2.00000
      4      -8.5658      2.00000
      5      -7.6677      2.00000
      6      -6.9122      2.00000
      7      -5.6588      2.00000
      8      -5.5169      2.00000
      9      -4.2322      2.00000
     10      -1.5632      0.00000
     11      -1.0531      0.00000
     12      -0.1878      0.00000
     13       0.4983      0.00000
     14       2.9678      0.00000

 k-point     9 :       0.2500    0.2500    0.0000
  band No.  band energies     occupation 
      1     -16.0425      2.00000
      2     -15.7486      2.00000
      3      -8.8210      2.00000
      4      -8.6156      2.00000
      5      -7.3414      2.00000
      6      -6.9606      2.00000
      7      -6.6413      2.00000
      8      -5.3839      2.00000
      9      -4.2620      2.00000
     10      -1.6141      0.00000
     11      -1.0025      0.00000
     12      -0.6859      0.00000
     13       0.7824      0.00000
     14       3.7984      0.00000

 k-point    10 :       0.3750    0.2500    0.0000
  band No.  band energies     occupation 
      1     -15.8076      2.00000
      2     -15.6296      2.00000
      3      -9.0004      2.00000
      4      -8.6517      2.00000
      5      -7.6249      2.00000
      6      -6.9629      2.00000
      7      -6.7346      2.00000
      8      -5.7694      2.00000
      9      -3.8947      2.00000
     10      -1.9404      0.00000
     11      -0.6249      0.00000
     12      -0.4531      0.00000
     13       0.9254      0.00000
     14       3.2114      0.00000


--------------------------------------------------------------------------------------------------------


 soft charge-density along one line, spin component           1
         0         1         2         3         4         5         6         7         8         9
 total charge-density along one line
 
 pseudopotential strength for first ion, spin component:           1
-10.077  -0.000  -0.000   0.000  -0.000   0.111   0.000   0.000
 -0.000 -10.077  -0.000  -0.000  -0.000   0.000   0.111   0.000
 -0.000  -0.000 -10.056  -0.000   0.000   0.000   0.000   0.110
  0.000  -0.000  -0.000 -10.077   0.000  -0.000   0.000   0.000
 -0.000  -0.000   0.000   0.000 -10.077   0.000   0.000  -0.000
  0.111   0.000   0.000  -0.000   0.000   0.097  -0.000  -0.000
  0.000   0.111   0.000   0.000   0.000  -0.000   0.097  -0.000
  0.000   0.000   0.110   0.000  -0.000  -0.000  -0.000   0.097
 -0.000   0.000   0.000   0.111  -0.000   0.000   0.000  -0.000
  0.000   0.000  -0.000  -0.000   0.111  -0.000  -0.000   0.000
 -0.000  -0.000  -0.005  -0.000   0.000   0.000   0.000   0.000
  0.000   0.000   0.001   0.000  -0.000  -0.000  -0.000  -0.000
 -0.000   0.000  -0.000  -0.000  -0.007   0.000  -0.000   0.000
 -0.000   0.000   0.000  -0.000  -0.000  -0.000  -0.000  -0.000
 -0.007  -0.000   0.000   0.000  -0.000  -0.000  -0.000  -0.000
  0.000  -0.000   0.000   0.000   0.004  -0.000   0.000  -0.000
  0.000  -0.000  -0.000   0.000   0.000  -0.000   0.000   0.000
  0.004   0.000  -0.000   0.000   0.000   0.000  -0.000   0.000
 total augmentation occupancy for first ion, spin component:           1
  0.970  -0.000  -0.000  -0.000  -0.000   0.662  -0.000  -0.000   0.000  -0.000  -0.000   0.000   0.000  -0.000  -0.066  -0.000
 -0.000   0.911   0.000   0.000  -0.000   0.000   0.897   0.000   0.000   0.000  -0.000   0.000   0.000   0.000   0.000   0.000
 -0.000  -0.000   1.035   0.000   0.000  -0.000   0.000   0.567   0.000   0.000   0.111  -0.019  -0.000  -0.000   0.000   0.000
 -0.000   0.000   0.000   0.911   0.000  -0.000   0.000   0.000   0.897   0.000   0.000   0.000   0.000   0.000  -0.000   0.000
 -0.000   0.000   0.000  -0.000   0.970  -0.000   0.000   0.000   0.000   0.662   0.000  -0.000  -0.066   0.000  -0.000   0.007
  0.662   0.000  -0.000  -0.000  -0.000   0.769   0.000  -0.000   0.000  -0.000   0.000   0.000   0.000   0.000  -0.143  -0.000
 -0.000   0.897   0.000   0.000  -0.000  -0.000   1.206   0.000   0.000   0.000   0.000   0.000   0.000   0.000  -0.000   0.000
 -0.000  -0.000   0.567  -0.000   0.000  -0.000   0.000   0.551   0.000   0.000   0.066  -0.023  -0.000  -0.000   0.000   0.000
 -0.000   0.000   0.000   0.897   0.000  -0.000   0.000   0.000   1.206   0.000   0.000  -0.000   0.000  -0.000   0.000   0.000
 -0.000   0.000   0.000   0.000   0.662  -0.000   0.000   0.000   0.000   0.769   0.000  -0.000  -0.143   0.000  -0.000   0.024
 -0.000   0.000   0.111   0.000   0.000   0.000   0.000   0.066   0.000   0.000   1.210  -0.183  -0.000   0.000   0.000   0.000
  0.000  -0.000  -0.019   0.000  -0.000   0.000   0.000  -0.023   0.000  -0.000  -0.183   0.041   0.000   0.000   0.000  -0.000
  0.000  -0.000  -0.000   0.000  -0.066   0.000  -0.000  -0.000   0.000  -0.143  -0.000   0.000   0.217   0.000   0.000  -0.033
 -0.000   0.000  -0.000  -0.000   0.000   0.000   0.000  -0.000   0.000   0.000   0.000   0.000   0.000   0.265   0.000   0.000
 -0.066   0.000   0.000  -0.000  -0.000  -0.143   0.000   0.000   0.000  -0.000   0.000   0.000   0.000   0.000   0.217  -0.000
 -0.000   0.000   0.000   0.000   0.007  -0.000   0.000   0.000   0.000   0.024  -0.000  -0.000  -0.033   0.000  -0.000   0.005
  0.000  -0.000  -0.000   0.000   0.000  -0.000   0.000  -0.000  -0.000  -0.000   0.000  -0.000   0.000  -0.039   0.000   0.000
  0.007   0.000  -0.000   0.000   0.000   0.024   0.000  -0.000  -0.000   0.000   0.000  -0.000  -0.000   0.000  -0.033   0.000


------------------------ aborting loop because EDIFF is reached ----------------------------------------


 


 total charge     
 
# of ion       s       p       d       tot
------------------------------------------
    1        0.414   0.593   4.443   5.450
    2        1.366   2.356   0.000   3.722
    3        1.366   2.356   0.000   3.722
--------------------------------------------------
tot          3.145   5.305   4.443  12.894
 
    CHARGE:  cpu time    0.0080: real time    0.0084
    FORLOC:  cpu time    0.0010: real time    0.0016
    FORNL :  cpu time    0.0320: real time    0.0317
    STRESS:  cpu time    0.0970: real time    0.0975
    FORCOR:  cpu time    0.0170: real time    0.0166
    FORHAR:  cpu time    0.0040: real time    0.0038
    MIXING:  cpu time    0.0010: real time    0.0016
    OFIELD:  cpu time    0.0000: real time    0.0000

  DFT-D2 method for vdW energy calculation
  -------------------------------------------------------------------

  Parameters of vdW forcefield:
         C6(Jnm^6/mol)     R0(A)
   -----------------------------
   Mo      24.670          1.639
   S        5.570          1.683

  IVDW =   1
  VDW_RADIUS =    50.000 A
  VDW_S6 =     0.750
  VDW_SR =     1.000
  VDW_D =    20.000
  LVDW_EWALD = F

  Number of pair interactions contributing to vdW energy:   11979
  Edisp (eV):   -0.59080
    FORVDW:  cpu time    0.0140: real time    0.0202

  FORCE on cell =-STRESS in cart. coord.  units (eV):
  Direction    XX          YY          ZZ          XY          YZ          ZX
  --------------------------------------------------------------------------------------
  Alpha Z    10.89288    10.89288    10.89288
  Ewald    5935.52296  5935.52341 -6502.38985     0.00019     0.00000     0.00012
  Hartree  6017.27046  6017.27046 -5979.02920     0.00002     0.00000    -0.00000
  E(xc)     -70.33532   -70.33529   -70.93955     0.00003    -0.00003    -0.00002
  Local  -12232.60644-12232.60802 12195.60009    -0.00129    -0.00029    -0.00022
  n-local   127.30944   125.92893   131.85934    -0.26633    -0.00002    -0.00004
  augment   -25.66859   -25.66815   -26.77280     0.00038    -0.00002    -0.00001
  Kinetic   236.13867   238.93185   240.02699    -7.43043     0.00006     0.00007
  Fock        0.00000     0.00000     0.00000     0.00000     0.00000     0.00000
  vdW         0.16052     0.16052    -0.13380     0.00000     0.00000    -0.00000
  -------------------------------------------------------------------------------------
  Total      -0.60941    -0.60941    -0.88592    -0.00000     0.00000     0.00000
  in kB      -3.58723    -3.58723    -5.21487    -0.00000     0.00000     0.00000
  external pressure =       -4.13 kB  Pullay stress =        0.00 kB


 VOLUME and BASIS-vectors are now :
 -----------------------------------------------------------------------------
  energy-cutoff  :      250.00
  volume of cell :      272.18
      direct lattice vectors                 reciprocal lattice vectors
     3.190315730  0.000000000  0.000000000     0.313448600  0.180969634  0.000000000
    -1.595157865  2.762894468  0.000000000     0.000000000  0.361939267  0.000000000
     0.000000000  0.000000000 30.879004300     0.000000000  0.000000000  0.032384464

  length of vectors
     3.190315730  3.190315730 30.879004300     0.361939267  0.361939267  0.032384464


 FORCES acting on ions
    electron-ion (+dipol)            ewald-force                    non-local-force                 convergence-correction
 -----------------------------------------------------------------------------------------------
   -.139E-04 0.116E-05 -.600E-04   0.931E-04 -.108E-03 0.343E-06   -.486E-16 0.208E-16 -.813E-19   -.463E-09 0.245E-09 0.234E-06
   -.122E-02 -.165E-04 0.596E+03   -.864E-04 0.538E-04 -.601E+03   -.121E-16 -.243E-16 0.495E+01   0.759E-09 -.328E-09 -.382E-03
   0.112E-02 0.107E-02 -.596E+03   -.674E-05 0.538E-04 0.601E+03   -.260E-17 -.243E-16 -.495E+01   -.959E-09 -.278E-09 0.382E-03
 -----------------------------------------------------------------------------------------------
   -.108E-03 0.105E-02 -.262E-03   0.253E-13 0.199E-13 0.000E+00   -.633E-16 -.278E-16 0.000E+00   -.663E-09 -.361E-09 0.621E-06
 
 
 POSITION                                       TOTAL-FORCE (eV/Angst)
 -----------------------------------------------------------------------------------
     -0.00000      1.84193      3.71975         0.000000      0.000000     -0.000000
      1.59516      0.92096      2.15487        -0.000000     -0.000000      0.100923
      1.59516      0.92096      5.28464         0.000000     -0.000000     -0.100923
 -----------------------------------------------------------------------------------
    total drift:                               -0.000108      0.001050     -0.000261


--------------------------------------------------------------------------------------------------------



  FREE ENERGIE OF THE ION-ELECTRON SYSTEM (eV)
  ---------------------------------------------------
  free  energy   TOTEN  =       -22.35428508 eV

  energy  without entropy=      -22.35428508  energy(sigma->0) =      -22.35428508
 


--------------------------------------------------------------------------------------------------------


    POTLOK:  cpu time    0.0160: real time    0.0165


--------------------------------------------------------------------------------------------------------


     LOOP+:  cpu time    2.7456: real time    2.8507
    4ORBIT:  cpu time    0.0000: real time    0.0000
 


 total charge     
 
# of ion       s       p       d       tot
------------------------------------------
    1        0.414   0.593   4.443   5.450
    2        1.366   2.356   0.000   3.722
    3        1.366   2.356   0.000   3.722
--------------------------------------------------
tot          3.145   5.305   4.443  12.894
 

 total amount of memory used by VASP MPI-rank0    35517. kBytes
=======================================================================

   base      :      30000. kBytes
   nonlr-proj:        343. kBytes
   fftplans  :       1430. kBytes
   grid      :       2293. kBytes
   one-center:         31. kBytes
   wavefun   :       1420. kBytes
 
  
  
 General timing and accounting informations for this job:
 ========================================================
  
                  Total CPU time used (sec):        3.880
                            User time (sec):        3.789
                          System time (sec):        0.091
                         Elapsed time (sec):        4.735
  
                   Maximum memory used (kb):       29224.
                   Average memory used (kb):           0.
  
                          Minor page faults:         7428
                          Major page faults:          128
                 Voluntary context switches:         2498
