perl: warning: Setting locale failed.
perl: warning: Please check that your locale settings:
	LANGUAGE = (unset),
	LC_ALL = (unset),
	LC_CTYPE = "UTF-8",
	LANG = "en_US.iso885915"
    are supported and installed on your system.
perl: warning: Falling back to the standard locale ("C").
Starting job 28532611 ("jobname") on c15-25 at Fri Nov 8 11:46:57 CET 2019
 running on    4 total cores
 distrk:  each k-point on    4 cores,    1 groups
 distr:  one band on    2 cores,    2 groups
 using from now: INCAR     
 vasp.5.4.4.18Apr17-6-g9f103f2a35 (build Jun 30 2017 11:15:00) complex          
  
 POSCAR found type information on POSCAR  Mo S 
 POSCAR found :  2 types and       3 ions
 scaLAPACK will be used

 ----------------------------------------------------------------------------- 
|                                                                             |
|  ADVICE TO THIS USER RUNNING 'VASP/VAMP'   (HEAR YOUR MASTER'S VOICE ...):  |
|                                                                             |
|      You have a (more or less) 'small supercell' and for smaller cells      |
|      it is recommended  to use the reciprocal-space projection scheme!      |
|      The real space optimization is not  efficient for small cells and it   |
|      is also less accurate ...                                              |
|      Therefore set LREAL=.FALSE. in the  INCAR file                         |
|                                                                             |
 ----------------------------------------------------------------------------- 

 LDA part: xc-table for Pade appr. of Perdew
 POSCAR, INCAR and KPOINTS ok, starting setup
 FFT: planning ...
 WAVECAR not read
 entering main loop
       N       E                     dE             d eps       ncg     rms          rms(c)
DAV:   1     0.107909315217E+03    0.10791E+03   -0.41820E+03   288   0.508E+02
DAV:   2    -0.962984319199E+01   -0.11754E+03   -0.10907E+03   458   0.142E+02
DAV:   3    -0.231208395803E+02   -0.13491E+02   -0.13373E+02   394   0.635E+01
DAV:   4    -0.233660737917E+02   -0.24523E+00   -0.24477E+00   382   0.104E+01
DAV:   5    -0.233709027191E+02   -0.48289E-02   -0.48276E-02   378   0.134E+00    0.691E+00
RMM:   6    -0.222105363599E+02    0.11604E+01   -0.53957E+00   292   0.116E+01    0.263E+00
RMM:   7    -0.218287265891E+02    0.38181E+00   -0.56836E-01   291   0.330E+00    0.154E+00
RMM:   8    -0.217681460571E+02    0.60581E-01   -0.23438E-01   305   0.245E+00    0.348E-01
RMM:   9    -0.217635075568E+02    0.46385E-02   -0.81999E-03   335   0.548E-01    0.922E-02
RMM:  10    -0.217628226586E+02    0.68490E-03   -0.16035E-03   337   0.207E-01    0.434E-02
RMM:  11    -0.217627810798E+02    0.41579E-04   -0.17215E-03   320   0.181E-01    0.519E-02
RMM:  12    -0.217626995190E+02    0.81561E-04   -0.51313E-04   306   0.121E-01    0.152E-02
RMM:  13    -0.217631684466E+02   -0.46893E-03   -0.14699E-04   304   0.612E-02    0.180E-02
RMM:  14    -0.217632481009E+02   -0.79654E-04   -0.26149E-05   327   0.257E-02    0.535E-03
RMM:  15    -0.217634045936E+02   -0.15649E-03   -0.15128E-05   281   0.150E-02    0.386E-03
RMM:  16    -0.217634460828E+02   -0.41489E-04   -0.28165E-06   237   0.707E-03    0.248E-03
RMM:  17    -0.217634782114E+02   -0.32129E-04   -0.18806E-06   202   0.645E-03    0.214E-03
RMM:  18    -0.217634802416E+02   -0.20302E-05   -0.16775E-07   155   0.251E-03    0.187E-03
RMM:  19    -0.217634848766E+02   -0.46350E-05   -0.45050E-07   178   0.322E-03    0.183E-03
RMM:  20    -0.217634859961E+02   -0.11195E-05   -0.83511E-08   134   0.177E-03    0.177E-03
RMM:  21    -0.217634868586E+02   -0.86255E-06   -0.12427E-08    74   0.935E-04
   1 F= -.22354285E+02 E0= -.22354285E+02  d E =-.795892E-10

Currently Loaded Modulefiles:
  1) Anaconda3/5.1.0       3) vesta/3.3.8           5) intel/2016.1
  2) gnuplot/5.0.4         4) imagemagick/6.7.9-0   6) vasp/5.4.1.Feb16

Job script resource usage:
       JobID  MaxVMSize     MaxRSS 
------------ ---------- ---------- 
28532611.ba+    216888K      2122K 

Job step resource usage:
       JobID    JobName  AllocCPUS  MaxVMSize     MaxRSS    Elapsed ExitCode 
------------ ---------- ---------- ---------- ---------- ---------- -------- 
28532611        jobname          4                         00:00:07      0:0 
28532611.0    pmi_proxy          1    279832K       522K   00:00:05      0:0 

Job 28532611 ("jobname") completed on c15-25 at Fri Nov 8 11:47:02 CET 2019
