<?xml version="1.0" encoding="ISO-8859-1"?>
<modeling>
 <generator>
  <i name="program" type="string">vasp </i>
  <i name="version" type="string">5.4.4.18Apr17-6-g9f103f2a35  </i>
  <i name="subversion" type="string">(build Jun 30 2017 11:15:00) complex            parallel </i>
  <i name="platform" type="string">STALLO_VASP_5.4.4 </i>
  <i name="date" type="string">2019 11 08 </i>
  <i name="time" type="string">11:46:57 </i>
 </generator>
 <incar>
  <i type="string" name="PREC">normal    ! low/normal/accurate</i>
  <i type="string" name="ALGO"> Fast      ! Algorithm for electronic re</i>
  <i type="int" name="ISPIN">     1</i>
  <i type="int" name="NELMIN">     4</i>
  <i name="EDIFF">      0.00000100</i>
  <i type="int" name="NSW">     0</i>
  <i name="ENCUT">    250.00000000</i>
  <i type="int" name="NEDOS">  2401</i>
  <i type="string" name="LREAL"> Auto      ! Projection in reciprocal sp</i>
  <i name="EMIN">    -12.00000000</i>
  <i name="EMAX">     12.00000000</i>
  <i type="int" name="ISMEAR">     0</i>
  <i name="SIGMA">      0.20000000</i>
  <i type="logical" name="LWAVE"> F  </i>
  <i type="int" name="LORBIT">    11</i>
  <i type="logical" name="LELF"> T  </i>
  <v type="int" name="KPOINT_BSE">    -1     0     0     0</v>
 </incar>
 <structure name="primitive_cell" >
  <crystal>
   <varray name="basis" >
    <v>       3.19031573       0.00000000       0.00000000 </v>
    <v>      -1.59515786       2.76289447       0.00000000 </v>
    <v>       0.00000000       0.00000000      30.87900430 </v>
   </varray>
   <i name="volume">    272.18315887 </i>
   <varray name="rec_basis" >
    <v>       0.31344860       0.18096963       0.00000000 </v>
    <v>       0.00000000       0.36193927       0.00000000 </v>
    <v>       0.00000000       0.00000000       0.03238446 </v>
   </varray>
  </crystal>
  <varray name="positions" >
   <v>       0.33333300      -0.33333300       0.12046214 </v>
   <v>      -0.33333400       0.33333300       0.17114009 </v>
   <v>      -0.33333300       0.33333300       0.06978420 </v>
  </varray>
 </structure>
 <varray name="primitive_index" >
  <v type="int" >        1 </v>
  <v type="int" >        3 </v>
  <v type="int" >        2 </v>
 </varray>
 <kpoints>
  <generation param="Gamma">
   <v type="int" name="divisions">       8        8        1 </v>
   <v name="usershift">      0.00000000       0.00000000       0.00000000 </v>
   <v name="genvec1">      0.12500000       0.00000000       0.00000000 </v>
   <v name="genvec2">      0.00000000       0.12500000       0.00000000 </v>
   <v name="genvec3">      0.00000000       0.00000000       1.00000000 </v>
   <v name="shift">      0.00000000       0.00000000       0.00000000 </v>
  </generation>
  <varray name="kpointlist" >
   <v>       0.00000000       0.00000000       0.00000000 </v>
   <v>       0.12500000      -0.00000000       0.00000000 </v>
   <v>       0.25000000      -0.00000000       0.00000000 </v>
   <v>       0.37500000      -0.00000000       0.00000000 </v>
   <v>       0.50000000      -0.00000000       0.00000000 </v>
   <v>       0.12500000       0.12500000       0.00000000 </v>
   <v>       0.25000000       0.12500000       0.00000000 </v>
   <v>       0.37500000       0.12500000       0.00000000 </v>
   <v>       0.25000000       0.25000000       0.00000000 </v>
   <v>       0.37500000       0.25000000       0.00000000 </v>
  </varray>
  <varray name="weights" >
   <v>       0.01562500 </v>
   <v>       0.09375000 </v>
   <v>       0.09375000 </v>
   <v>       0.09375000 </v>
   <v>       0.04687500 </v>
   <v>       0.09375000 </v>
   <v>       0.18750000 </v>
   <v>       0.18750000 </v>
   <v>       0.09375000 </v>
   <v>       0.09375000 </v>
  </varray>
 </kpoints>
 <parameters>
  <separator name="general" >
   <i type="string" name="SYSTEM">unknown system</i>
   <i type="logical" name="LCOMPAT"> F  </i>
  </separator>
  <separator name="electronic" >
   <i type="string" name="PREC">normal</i>
   <i name="ENMAX">    250.00000000</i>
   <i name="ENAUG">    345.27800000</i>
   <i name="EDIFF">      0.00000100</i>
   <i type="int" name="IALGO">    68</i>
   <i type="int" name="IWAVPR">    10</i>
   <i type="int" name="NBANDS">    14</i>
   <i name="NELECT">     18.00000000</i>
   <i type="int" name="TURBO">     0</i>
   <i type="int" name="IRESTART">     0</i>
   <i type="int" name="NREBOOT">     0</i>
   <i type="int" name="NMIN">     0</i>
   <i name="EREF">      0.00000000</i>
   <separator name="electronic smearing" >
    <i type="int" name="ISMEAR">     0</i>
    <i name="SIGMA">      0.20000000</i>
    <i name="KSPACING">      0.50000000</i>
    <i type="logical" name="KGAMMA"> T  </i>
   </separator>
   <separator name="electronic projectors" >
    <i type="logical" name="LREAL"> T  </i>
    <v name="ROPT">     -0.00050000     -0.00050000</v>
    <i type="int" name="LMAXPAW">  -100</i>
    <i type="int" name="LMAXMIX">     2</i>
    <i type="logical" name="NLSPLINE"> F  </i>
   </separator>
   <separator name="electronic startup" >
    <i type="int" name="ISTART">     0</i>
    <i type="int" name="ICHARG">     2</i>
    <i type="int" name="INIWAV">     1</i>
   </separator>
   <separator name="electronic spin" >
    <i type="int" name="ISPIN">     1</i>
    <i type="logical" name="LNONCOLLINEAR"> F  </i>
    <v name="MAGMOM">      1.00000000      1.00000000      1.00000000</v>
    <i name="NUPDOWN">     -1.00000000</i>
    <i type="logical" name="LSORBIT"> F  </i>
    <v name="SAXIS">      0.00000000      0.00000000      1.00000000</v>
    <i type="logical" name="LSPIRAL"> F  </i>
    <v name="QSPIRAL">      0.00000000      0.00000000      0.00000000</v>
    <i type="logical" name="LZEROZ"> F  </i>
   </separator>
   <separator name="electronic exchange-correlation" >
    <i type="logical" name="LASPH"> F  </i>
    <i type="logical" name="LMETAGGA"> F  </i>
   </separator>
   <separator name="electronic convergence" >
    <i type="int" name="NELM">    60</i>
    <i type="int" name="NELMDL">    -5</i>
    <i type="int" name="NELMIN">     4</i>
    <i name="ENINI">    250.00000000</i>
    <separator name="electronic convergence detail" >
     <i type="logical" name="LDIAG"> T  </i>
     <i type="logical" name="LSUBROT"> F  </i>
     <i name="WEIMIN">      0.00000000</i>
     <i name="EBREAK">      0.00000002</i>
     <i name="DEPER">      0.30000000</i>
     <i type="int" name="NRMM">     4</i>
     <i name="TIME">      0.40000000</i>
    </separator>
   </separator>
   <separator name="electronic mixer" >
    <i name="AMIX">      0.40000000</i>
    <i name="BMIX">      1.00000000</i>
    <i name="AMIN">      0.10000000</i>
    <i name="AMIX_MAG">      1.60000000</i>
    <i name="BMIX_MAG">      1.00000000</i>
    <separator name="electronic mixer details" >
     <i type="int" name="IMIX">     4</i>
     <i type="logical" name="MIXFIRST"> F  </i>
     <i type="int" name="MAXMIX">   -45</i>
     <i name="WC">    100.00000000</i>
     <i type="int" name="INIMIX">     1</i>
     <i type="int" name="MIXPRE">     1</i>
     <i type="int" name="MREMOVE">     5</i>
    </separator>
   </separator>
   <separator name="electronic dipolcorrection" >
    <i type="logical" name="LDIPOL"> F  </i>
    <i type="logical" name="LMONO"> F  </i>
    <i type="int" name="IDIPOL">     0</i>
    <i name="EPSILON">      1.00000000</i>
    <v name="DIPOL">   -100.00000000   -100.00000000   -100.00000000</v>
    <i name="EFIELD">      0.00000000</i>
   </separator>
  </separator>
  <separator name="grids" >
   <i type="int" name="NGX">    12</i>
   <i type="int" name="NGY">    12</i>
   <i type="int" name="NGZ">   120</i>
   <i type="int" name="NGXF">    24</i>
   <i type="int" name="NGYF">    24</i>
   <i type="int" name="NGZF">   240</i>
   <i type="logical" name="ADDGRID"> F  </i>
  </separator>
  <separator name="ionic" >
   <i type="int" name="NSW">     0</i>
   <i type="int" name="IBRION">    -1</i>
   <i type="int" name="MDALGO">     0</i>
   <i type="int" name="ISIF">     2</i>
   <i name="PSTRESS">      0.00000000</i>
   <i name="EDIFFG">      0.00001000</i>
   <i type="int" name="NFREE">     0</i>
   <i name="POTIM">      0.50000000</i>
   <i name="SMASS">     -3.00000000</i>
   <i name="SCALEE">      1.00000000</i>
  </separator>
  <separator name="ionic md" >
   <i name="TEBEG">      0.00010000</i>
   <i name="TEEND">      0.00010000</i>
   <i type="int" name="NBLOCK">     1</i>
   <i type="int" name="KBLOCK">     1</i>
   <i type="int" name="NPACO">   256</i>
   <i name="APACO">     16.00000000</i>
  </separator>
  <separator name="symmetry" >
   <i type="int" name="ISYM">     2</i>
   <i name="SYMPREC">      0.00001000</i>
  </separator>
  <separator name="dos" >
   <i type="int" name="LORBIT">    11</i>
   <v name="RWIGS">     -1.00000000     -1.00000000</v>
   <i type="int" name="NEDOS">  2401</i>
   <i name="EMIN">    -12.00000000</i>
   <i name="EMAX">     12.00000000</i>
   <i name="EFERMI">      0.00000000</i>
  </separator>
  <separator name="writing" >
   <i type="int" name="NWRITE">     2</i>
   <i type="logical" name="LWAVE"> F  </i>
   <i type="logical" name="LDOWNSAMPLE"> F  </i>
   <i type="logical" name="LCHARG"> T  </i>
   <i type="logical" name="LPARD"> F  </i>
   <i type="logical" name="LVTOT"> F  </i>
   <i type="logical" name="LVHAR"> F  </i>
   <i type="logical" name="LELF"> T  </i>
   <i type="logical" name="LOPTICS"> F  </i>
   <v name="STM">      0.00000000      0.00000000      0.00000000      0.00000000      0.00000000      0.00000000      0.00000000</v>
  </separator>
  <separator name="performance" >
   <i type="int" name="NPAR">     2</i>
   <i type="int" name="NSIM">     4</i>
   <i type="int" name="NBLK">    -1</i>
   <i type="logical" name="LPLANE"> T  </i>
   <i type="logical" name="LSCALAPACK"> T  </i>
   <i type="logical" name="LSCAAWARE"> F  </i>
   <i type="logical" name="LSCALU"> F  </i>
   <i type="logical" name="LASYNC"> F  </i>
   <i type="logical" name="LORBITALREAL"> F  </i>
  </separator>
  <separator name="miscellaneous" >
   <i type="int" name="IDIOT">     3</i>
   <i type="int" name="ISPECIAL">     0</i>
   <i type="logical" name="LMUSIC"> F  </i>
   <v name="POMASS">     95.94000000     32.06600000</v>
   <v name="DARWINR">      0.00000000      0.00000000</v>
   <v name="DARWINV">      1.00000000      1.00000000</v>
   <i type="logical" name="LCORR"> T  </i>
  </separator>
  <i type="logical" name="GGA_COMPAT"> T  </i>
  <i type="logical" name="LBERRY"> F  </i>
  <i type="int" name="ICORELEVEL">     0</i>
  <i type="logical" name="LDAU"> F  </i>
  <i type="int" name="I_CONSTRAINED_M">     0</i>
  <separator name="electronic exchange-correlation" >
   <i type="string" name="GGA">--</i>
   <i type="int" name="VOSKOWN">     0</i>
   <i type="logical" name="LHFCALC"> F  </i>
   <i type="string" name="PRECFOCK"></i>
   <i type="logical" name="LSYMGRAD"> F  </i>
   <i type="logical" name="LHFONE"> F  </i>
   <i type="logical" name="LRHFCALC"> F  </i>
   <i type="logical" name="LTHOMAS"> F  </i>
   <i type="logical" name="LMODELHF"> F  </i>
   <i name="ENCUT4O">     -1.00000000</i>
   <i type="int" name="EXXOEP">     0</i>
   <i type="int" name="FOURORBIT">     0</i>
   <i name="AEXX">      0.00000000</i>
   <i name="HFALPHA">      0.00000000</i>
   <i name="MCALPHA">      0.00000000</i>
   <i name="ALDAX">      1.00000000</i>
   <i name="AGGAX">      1.00000000</i>
   <i name="ALDAC">      1.00000000</i>
   <i name="AGGAC">      1.00000000</i>
   <i type="int" name="NKREDX">     1</i>
   <i type="int" name="NKREDY">     1</i>
   <i type="int" name="NKREDZ">     1</i>
   <i type="logical" name="SHIFTRED"> F  </i>
   <i type="logical" name="ODDONLY"> F  </i>
   <i type="logical" name="EVENONLY"> F  </i>
   <i type="int" name="LMAXFOCK">     0</i>
   <i type="int" name="NMAXFOCKAE">     0</i>
   <i type="logical" name="LFOCKAEDFT"> F  </i>
   <i name="HFSCREEN">      0.00000000</i>
   <i name="HFSCREENC">      0.00000000</i>
   <i type="int" name="NBANDSGWLOW">     0</i>
  </separator>
  <separator name="vdW DFT" >
   <i type="logical" name="LUSE_VDW"> F  </i>
   <i name="Zab_VDW">     -0.84910000</i>
   <i name="PARAM1">      0.12340000</i>
   <i name="PARAM2">      1.00000000</i>
   <i name="PARAM3">      0.00000000</i>
  </separator>
  <separator name="model GW" >
   <i type="int" name="MODEL_GW">     0</i>
   <i name="MODEL_EPS0">     54.43663177</i>
   <i name="MODEL_ALPHA">      1.00000000</i>
  </separator>
  <separator name="linear response parameters" >
   <i type="logical" name="LEPSILON"> F  </i>
   <i type="logical" name="LRPA"> F  </i>
   <i type="logical" name="LNABLA"> F  </i>
   <i type="logical" name="LVEL"> F  </i>
   <i type="int" name="KINTER">     0</i>
   <i name="CSHIFT">      0.10000000</i>
   <i name="OMEGAMAX">     -1.00000000</i>
   <i name="DEG_THRESHOLD">      0.00200000</i>
   <i name="RTIME">     -0.10000000</i>
   <i name="WPLASMAI">      0.00000000</i>
   <v name="DFIELD">      0.00000000      0.00000000      0.00000000</v>
   <v name="WPLASMA">      0.00000000      0.00000000      0.00000000      0.00000000      0.00000000      0.00000000      0.00000000      0.00000000      0.00000000</v>
  </separator>
  <separator name="orbital magnetization" >
   <i type="logical" name="NUCIND"> F  </i>
   <v name="MAGPOS">      0.00000000      0.00000000      0.00000000</v>
   <i type="logical" name="LNICSALL"> T  </i>
   <i type="logical" name="ORBITALMAG"> F  </i>
   <i type="logical" name="LMAGBLOCH"> F  </i>
   <i type="logical" name="LCHIMAG"> F  </i>
   <i type="logical" name="LGAUGE"> T  </i>
   <i type="int" name="MAGATOM">     0</i>
   <v name="MAGDIPOL">      0.00000000      0.00000000      0.00000000</v>
   <v name="AVECCONST">      0.00000000      0.00000000      0.00000000</v>
  </separator>
  <separator name="response functions" >
   <i type="logical" name="LADDER"> F  </i>
   <i type="logical" name="LRPAFORCE"> F  </i>
   <i type="logical" name="LFXC"> F  </i>
   <i type="logical" name="LHARTREE"> T  </i>
   <i type="int" name="IBSE">     0</i>
   <v type="int" name="KPOINT">    -1     0     0     0</v>
   <i type="logical" name="LTCTE"> F  </i>
   <i type="logical" name="LTETE"> F  </i>
   <i type="logical" name="LTRIPLET"> F  </i>
   <i type="logical" name="LFXCEPS"> F  </i>
   <i type="logical" name="LFXHEG"> F  </i>
   <i type="int" name="NATURALO">     2</i>
   <i type="logical" name="L2ORDER"> F  </i>
   <i type="logical" name="LMP2LT"> F  </i>
   <i type="logical" name="LUSEW"> F  </i>
   <i name="ENCUTGW">     -2.00000000</i>
   <i name="ENCUTGWSOFT">     -2.00000000</i>
   <i name="ENCUTLF">     -1.00000000</i>
   <i type="int" name="LMAXMP2">    -1</i>
   <i name="SCISSOR">      0.00000000</i>
   <i type="int" name="NOMEGA">     0</i>
   <i type="int" name="NOMEGAR">     0</i>
   <i type="int" name="NBANDSGW">    -1</i>
   <i type="int" name="NBANDSO">    -1</i>
   <i type="int" name="NBANDSV">    -1</i>
   <i type="int" name="NELM">     1</i>
   <i type="int" name="NELMHF">     1</i>
   <i type="int" name="DIM">     3</i>
   <i type="int" name="ANTIRES">     0</i>
   <i name="OMEGAMAX">    -30.00000000</i>
   <i name="OMEGAMIN">    -30.00000000</i>
   <i name="OMEGATL">   -200.00000000</i>
   <i type="int" name="OMEGAGRID">   140</i>
   <i name="CSHIFT">     -0.10000000</i>
   <i type="logical" name="SELFENERGY"> F  </i>
   <i type="logical" name="LSPECTRAL"> F  </i>
   <i type="logical" name="LSPECTRALGW"> F  </i>
   <i type="logical" name="LSINGLES"> F  </i>
   <i type="logical" name="LFERMIGW"> F  </i>
   <i type="logical" name="ODDONLYGW"> F  </i>
   <i type="logical" name="EVENONLYGW"> F  </i>
   <i type="int" name="NKREDLFX">     1</i>
   <i type="int" name="NKREDLFY">     1</i>
   <i type="int" name="NKREDLFZ">     1</i>
   <i type="int" name="MAXMEM">  2800</i>
   <i type="int" name="TELESCOPE">     0</i>
   <i type="int" name="TAUPAR">     1</i>
   <i type="int" name="OMEGAPAR">    -1</i>
   <i name="LAMBDA">      1.00000000</i>
  </separator>
  <separator name="External order field" >
   <i name="OFIELD_KAPPA">      0.00000000</i>
   <v name="OFIELD_K">      0.00000000      0.00000000      0.00000000</v>
   <i name="OFIELD_Q6_NEAR">      0.00000000</i>
   <i name="OFIELD_Q6_FAR">      0.00000000</i>
   <i name="OFIELD_A">      0.00000000</i>
  </separator>
 </parameters>
 <atominfo>
  <atoms>       3 </atoms>
  <types>       2 </types>
  <array name="atoms" >
   <dimension dim="1">ion</dimension>
   <field type="string">element</field>
   <field type="int">atomtype</field>
   <set>
    <rc><c>Mo</c><c>   1</c></rc>
    <rc><c>S </c><c>   2</c></rc>
    <rc><c>S </c><c>   2</c></rc>
   </set>
  </array>
  <array name="atomtypes" >
   <dimension dim="1">type</dimension>
   <field type="int">atomspertype</field>
   <field type="string">element</field>
   <field>mass</field>
   <field>valence</field>
   <field type="string">pseudopotential</field>
   <set>
    <rc><c>   1</c><c>Mo</c><c>     95.94000000</c><c>      6.00000000</c><c> PAW_PBE Mo 08Apr2002                   </c></rc>
    <rc><c>   2</c><c>S </c><c>     32.06600000</c><c>      6.00000000</c><c>  PAW_PBE S 17Jan2003                   </c></rc>
   </set>
  </array>
 </atominfo>
 <structure name="initialpos" >
  <crystal>
   <varray name="basis" >
    <v>       3.19031573       0.00000000       0.00000000 </v>
    <v>      -1.59515786       2.76289447       0.00000000 </v>
    <v>       0.00000000       0.00000000      30.87900430 </v>
   </varray>
   <i name="volume">    272.18315887 </i>
   <varray name="rec_basis" >
    <v>       0.31344860       0.18096963       0.00000000 </v>
    <v>       0.00000000       0.36193927       0.00000000 </v>
    <v>       0.00000000       0.00000000       0.03238446 </v>
   </varray>
  </crystal>
  <varray name="positions" >
   <v>       0.33333300       0.66666700       0.12046214 </v>
   <v>       0.66666700       0.33333300       0.06978420 </v>
   <v>       0.66666600       0.33333300       0.17114009 </v>
  </varray>
 </structure>
 <calculation>
  <scstep>
   <time name="dav">    0.10    0.11</time>
   <time name="total">    0.13    0.14</time>
   <energy>
    <i name="alphaZ">     10.89288288 </i>
    <i name="ewald">   5368.65661653 </i>
    <i name="hartreedc">  -6042.21104468 </i>
    <i name="XCdc">    -36.31053498 </i>
    <i name="pawpsdc">    406.88651198 </i>
    <i name="pawaedc">   -329.34073203 </i>
    <i name="eentropy">     -0.02769722 </i>
    <i name="bandstr">    -41.70526301 </i>
    <i name="atom">    771.06857575 </i>
    <i name="e_fr_energy">    107.90931522 </i>
    <i name="e_wo_entrp">    107.93701243 </i>
    <i name="e_0_energy">    107.92316383 </i>
   </energy>
  </scstep>
  <scstep>
   <time name="dav">    0.15    0.15</time>
   <time name="total">    0.15    0.15</time>
   <energy>
    <i name="e_fr_energy">     -9.62984319 </i>
    <i name="e_wo_entrp">     -9.62984319 </i>
    <i name="e_0_energy">     -9.62984319 </i>
   </energy>
  </scstep>
  <scstep>
   <time name="dav">    0.13    0.13</time>
   <time name="total">    0.13    0.13</time>
   <energy>
    <i name="e_fr_energy">    -23.12083958 </i>
    <i name="e_wo_entrp">    -23.12083958 </i>
    <i name="e_0_energy">    -23.12083958 </i>
   </energy>
  </scstep>
  <scstep>
   <time name="dav">    0.13    0.13</time>
   <time name="total">    0.13    0.13</time>
   <energy>
    <i name="e_fr_energy">    -23.36607379 </i>
    <i name="e_wo_entrp">    -23.36607379 </i>
    <i name="e_0_energy">    -23.36607379 </i>
   </energy>
  </scstep>
  <scstep>
   <time name="dav">    0.13    0.13</time>
   <time name="total">    0.14    0.14</time>
   <energy>
    <i name="e_fr_energy">    -23.37090272 </i>
    <i name="e_wo_entrp">    -23.37090272 </i>
    <i name="e_0_energy">    -23.37090272 </i>
   </energy>
  </scstep>
  <scstep>
   <time name="diag">    0.02    0.02</time>
   <time name="diis">    0.06    0.07</time>
   <time name="orth">    0.00    0.00</time>
   <time name="total">    0.11    0.12</time>
   <energy>
    <i name="e_fr_energy">    -22.21053636 </i>
    <i name="e_wo_entrp">    -22.21053633 </i>
    <i name="e_0_energy">    -22.21053634 </i>
   </energy>
  </scstep>
  <scstep>
   <time name="diag">    0.02    0.02</time>
   <time name="diis">    0.06    0.06</time>
   <time name="orth">    0.00    0.00</time>
   <time name="total">    0.11    0.11</time>
   <energy>
    <i name="e_fr_energy">    -21.82872659 </i>
    <i name="e_wo_entrp">    -21.82872659 </i>
    <i name="e_0_energy">    -21.82872659 </i>
   </energy>
  </scstep>
  <scstep>
   <time name="diag">    0.02    0.02</time>
   <time name="diis">    0.07    0.07</time>
   <time name="orth">    0.00    0.00</time>
   <time name="total">    0.11    0.12</time>
   <energy>
    <i name="e_fr_energy">    -21.76814606 </i>
    <i name="e_wo_entrp">    -21.76814606 </i>
    <i name="e_0_energy">    -21.76814606 </i>
   </energy>
  </scstep>
  <scstep>
   <time name="diag">    0.02    0.02</time>
   <time name="diis">    0.07    0.07</time>
   <time name="orth">    0.00    0.00</time>
   <time name="total">    0.12    0.12</time>
   <energy>
    <i name="e_fr_energy">    -21.76350756 </i>
    <i name="e_wo_entrp">    -21.76350756 </i>
    <i name="e_0_energy">    -21.76350756 </i>
   </energy>
  </scstep>
  <scstep>
   <time name="diag">    0.02    0.02</time>
   <time name="diis">    0.07    0.08</time>
   <time name="orth">    0.00    0.00</time>
   <time name="total">    0.12    0.12</time>
   <energy>
    <i name="e_fr_energy">    -21.76282266 </i>
    <i name="e_wo_entrp">    -21.76282266 </i>
    <i name="e_0_energy">    -21.76282266 </i>
   </energy>
  </scstep>
  <scstep>
   <time name="diag">    0.02    0.02</time>
   <time name="diis">    0.07    0.07</time>
   <time name="orth">    0.00    0.00</time>
   <time name="total">    0.12    0.12</time>
   <energy>
    <i name="e_fr_energy">    -21.76278108 </i>
    <i name="e_wo_entrp">    -21.76278108 </i>
    <i name="e_0_energy">    -21.76278108 </i>
   </energy>
  </scstep>
  <scstep>
   <time name="diag">    0.02    0.02</time>
   <time name="diis">    0.07    0.07</time>
   <time name="orth">    0.00    0.00</time>
   <time name="total">    0.12    0.12</time>
   <energy>
    <i name="e_fr_energy">    -21.76269952 </i>
    <i name="e_wo_entrp">    -21.76269952 </i>
    <i name="e_0_energy">    -21.76269952 </i>
   </energy>
  </scstep>
  <scstep>
   <time name="diag">    0.02    0.02</time>
   <time name="diis">    0.07    0.07</time>
   <time name="orth">    0.00    0.00</time>
   <time name="total">    0.12    0.12</time>
   <energy>
    <i name="e_fr_energy">    -21.76316845 </i>
    <i name="e_wo_entrp">    -21.76316845 </i>
    <i name="e_0_energy">    -21.76316845 </i>
   </energy>
  </scstep>
  <scstep>
   <time name="diag">    0.02    0.02</time>
   <time name="diis">    0.07    0.07</time>
   <time name="orth">    0.00    0.00</time>
   <time name="total">    0.12    0.12</time>
   <energy>
    <i name="e_fr_energy">    -21.76324810 </i>
    <i name="e_wo_entrp">    -21.76324810 </i>
    <i name="e_0_energy">    -21.76324810 </i>
   </energy>
  </scstep>
  <scstep>
   <time name="diag">    0.02    0.02</time>
   <time name="diis">    0.06    0.06</time>
   <time name="orth">    0.00    0.00</time>
   <time name="total">    0.11    0.11</time>
   <energy>
    <i name="e_fr_energy">    -21.76340459 </i>
    <i name="e_wo_entrp">    -21.76340459 </i>
    <i name="e_0_energy">    -21.76340459 </i>
   </energy>
  </scstep>
  <scstep>
   <time name="diag">    0.02    0.02</time>
   <time name="diis">    0.06    0.06</time>
   <time name="orth">    0.00    0.00</time>
   <time name="total">    0.11    0.11</time>
   <energy>
    <i name="e_fr_energy">    -21.76344608 </i>
    <i name="e_wo_entrp">    -21.76344608 </i>
    <i name="e_0_energy">    -21.76344608 </i>
   </energy>
  </scstep>
  <scstep>
   <time name="diag">    0.02    0.02</time>
   <time name="diis">    0.05    0.05</time>
   <time name="orth">    0.00    0.00</time>
   <time name="total">    0.10    0.10</time>
   <energy>
    <i name="e_fr_energy">    -21.76347821 </i>
    <i name="e_wo_entrp">    -21.76347821 </i>
    <i name="e_0_energy">    -21.76347821 </i>
   </energy>
  </scstep>
  <scstep>
   <time name="diag">    0.02    0.02</time>
   <time name="diis">    0.05    0.05</time>
   <time name="orth">    0.00    0.00</time>
   <time name="total">    0.10    0.10</time>
   <energy>
    <i name="e_fr_energy">    -21.76348024 </i>
    <i name="e_wo_entrp">    -21.76348024 </i>
    <i name="e_0_energy">    -21.76348024 </i>
   </energy>
  </scstep>
  <scstep>
   <time name="diag">    0.02    0.02</time>
   <time name="diis">    0.05    0.05</time>
   <time name="orth">    0.00    0.00</time>
   <time name="total">    0.10    0.10</time>
   <energy>
    <i name="e_fr_energy">    -21.76348488 </i>
    <i name="e_wo_entrp">    -21.76348488 </i>
    <i name="e_0_energy">    -21.76348488 </i>
   </energy>
  </scstep>
  <scstep>
   <time name="diag">    0.02    0.02</time>
   <time name="diis">    0.04    0.04</time>
   <time name="orth">    0.00    0.00</time>
   <time name="total">    0.09    0.09</time>
   <energy>
    <i name="e_fr_energy">    -21.76348600 </i>
    <i name="e_wo_entrp">    -21.76348600 </i>
    <i name="e_0_energy">    -21.76348600 </i>
   </energy>
  </scstep>
  <scstep>
   <time name="diag">    0.02    0.02</time>
   <time name="diis">    0.04    0.04</time>
   <time name="orth">    0.00    0.00</time>
   <time name="total">    0.08    0.08</time>
   <energy>
    <i name="alphaZ">     10.89288288 </i>
    <i name="ewald">   5368.65661653 </i>
    <i name="hartreedc">  -6055.50794218 </i>
    <i name="XCdc">    -35.17214770 </i>
    <i name="pawpsdc">    478.68455212 </i>
    <i name="pawaedc">   -402.87558391 </i>
    <i name="eentropy">     -0.00000000 </i>
    <i name="bandstr">   -157.51044034 </i>
    <i name="atom">    771.06857575 </i>
    <i name="e_fr_energy">    -21.76348686 </i>
    <i name="e_wo_entrp">    -21.76348686 </i>
    <i name="e_0_energy">    -21.76348686 </i>
   </energy>
  </scstep>
  <structure>
   <crystal>
    <varray name="basis" >
     <v>       3.19031573       0.00000000       0.00000000 </v>
     <v>      -1.59515786       2.76289447       0.00000000 </v>
     <v>       0.00000000       0.00000000      30.87900430 </v>
    </varray>
    <i name="volume">    272.18315887 </i>
    <varray name="rec_basis" >
     <v>       0.31344860       0.18096963       0.00000000 </v>
     <v>       0.00000000       0.36193927       0.00000000 </v>
     <v>       0.00000000       0.00000000       0.03238446 </v>
    </varray>
   </crystal>
   <varray name="positions" >
    <v>       0.33333300       0.66666700       0.12046214 </v>
    <v>       0.66666700       0.33333300       0.06978420 </v>
    <v>       0.66666600       0.33333300       0.17114009 </v>
   </varray>
  </structure>
  <varray name="forces" >
   <v>       0.00000000       0.00000000      -0.00000000 </v>
   <v>      -0.00000000      -0.00000000       0.10092340 </v>
   <v>       0.00000000      -0.00000000      -0.10092340 </v>
  </varray>
  <varray name="stress" >
   <v>      -3.58722574       0.00000000       0.00000000 </v>
   <v>      -0.00000000      -3.58722574      -0.00000000 </v>
   <v>       0.00000000       0.00000000      -5.21486625 </v>
  </varray>
  <energy>
   <i name="e_fr_energy">    -22.35428508 </i>
   <i name="e_wo_entrp">    -22.35428508 </i>
   <i name="e_0_energy">     -0.00000000 </i>
  </energy>
  <time name="totalsc">    2.75    2.85</time>
  <eigenvalues>
   <array>
    <dimension dim="1">band</dimension>
    <dimension dim="2">kpoint</dimension>
    <dimension dim="3">spin</dimension>
    <field>eigene</field>
    <field>occ</field>
    <set>
     <set comment="spin 1">
      <set comment="kpoint 1">
       <r>  -17.7980    1.0000 </r>
       <r>  -16.5896    1.0000 </r>
       <r>   -9.3074    1.0000 </r>
       <r>   -6.3459    1.0000 </r>
       <r>   -6.3456    1.0000 </r>
       <r>   -5.4862    1.0000 </r>
       <r>   -5.2385    1.0000 </r>
       <r>   -5.2380    1.0000 </r>
       <r>   -3.7633    1.0000 </r>
       <r>   -0.9894    0.0000 </r>
       <r>   -0.9886    0.0000 </r>
       <r>   -0.7669    0.0000 </r>
       <r>   -0.7662    0.0000 </r>
       <r>    1.6425    0.0000 </r>
      </set>
      <set comment="kpoint 2">
       <r>  -17.5840    1.0000 </r>
       <r>  -16.4872    1.0000 </r>
       <r>   -9.0630    1.0000 </r>
       <r>   -6.8105    1.0000 </r>
       <r>   -6.2934    1.0000 </r>
       <r>   -6.1119    1.0000 </r>
       <r>   -5.5750    1.0000 </r>
       <r>   -4.8075    1.0000 </r>
       <r>   -3.9026    1.0000 </r>
       <r>   -1.2727    0.0000 </r>
       <r>   -1.2059    0.0000 </r>
       <r>   -1.0042    0.0000 </r>
       <r>   -0.6356    0.0000 </r>
       <r>    2.0094    0.0000 </r>
      </set>
      <set comment="kpoint 3">
       <r>  -17.0155    1.0000 </r>
       <r>  -16.2183    1.0000 </r>
       <r>   -8.6970    1.0000 </r>
       <r>   -7.5388    1.0000 </r>
       <r>   -7.2750    1.0000 </r>
       <r>   -6.2113    1.0000 </r>
       <r>   -5.5257    1.0000 </r>
       <r>   -5.0595    1.0000 </r>
       <r>   -4.4711    1.0000 </r>
       <r>   -1.5965    0.0000 </r>
       <r>   -1.4212    0.0000 </r>
       <r>   -0.8783    0.0000 </r>
       <r>   -0.0202    0.0000 </r>
       <r>    2.8317    0.0000 </r>
      </set>
      <set comment="kpoint 4">
       <r>  -16.3405    1.0000 </r>
       <r>  -15.9098    1.0000 </r>
       <r>   -9.1364    1.0000 </r>
       <r>   -8.1437    1.0000 </r>
       <r>   -7.6699    1.0000 </r>
       <r>   -6.7104    1.0000 </r>
       <r>   -5.4685    1.0000 </r>
       <r>   -4.9361    1.0000 </r>
       <r>   -4.6653    1.0000 </r>
       <r>   -1.6040    0.0000 </r>
       <r>   -1.3241    0.0000 </r>
       <r>   -0.1596    0.0000 </r>
       <r>    0.3720    0.0000 </r>
       <r>    3.3964    0.0000 </r>
      </set>
      <set comment="kpoint 5">
       <r>  -16.0123    1.0000 </r>
       <r>  -15.7664    1.0000 </r>
       <r>   -9.4694    1.0000 </r>
       <r>   -8.5099    1.0000 </r>
       <r>   -7.7953    1.0000 </r>
       <r>   -6.8910    1.0000 </r>
       <r>   -5.6068    1.0000 </r>
       <r>   -4.7089    1.0000 </r>
       <r>   -4.3838    1.0000 </r>
       <r>   -1.5823    0.0000 </r>
       <r>   -1.0676    0.0000 </r>
       <r>    0.1401    0.0000 </r>
       <r>    0.4881    0.0000 </r>
       <r>    2.4422    0.0000 </r>
      </set>
      <set comment="kpoint 6">
       <r>  -17.1913    1.0000 </r>
       <r>  -16.3001    1.0000 </r>
       <r>   -8.7158    1.0000 </r>
       <r>   -7.3756    1.0000 </r>
       <r>   -6.8562    1.0000 </r>
       <r>   -6.3895    1.0000 </r>
       <r>   -5.7733    1.0000 </r>
       <r>   -4.6728    1.0000 </r>
       <r>   -4.2754    1.0000 </r>
       <r>   -1.6716    0.0000 </r>
       <r>   -1.2942    0.0000 </r>
       <r>   -1.2819    0.0000 </r>
       <r>   -0.0413    0.0000 </r>
       <r>    2.6093    0.0000 </r>
      </set>
      <set comment="kpoint 7">
       <r>  -16.5579    1.0000 </r>
       <r>  -16.0015    1.0000 </r>
       <r>   -8.7797    1.0000 </r>
       <r>   -7.8023    1.0000 </r>
       <r>   -7.5388    1.0000 </r>
       <r>   -6.8947    1.0000 </r>
       <r>   -5.6740    1.0000 </r>
       <r>   -5.0357    1.0000 </r>
       <r>   -4.5591    1.0000 </r>
       <r>   -1.7552    0.0000 </r>
       <r>   -1.3085    0.0000 </r>
       <r>   -0.8117    0.0000 </r>
       <r>    0.4640    0.0000 </r>
       <r>    3.5857    0.0000 </r>
      </set>
      <set comment="kpoint 8">
       <r>  -16.0275    1.0000 </r>
       <r>  -15.7575    1.0000 </r>
       <r>   -9.1816    1.0000 </r>
       <r>   -8.5658    1.0000 </r>
       <r>   -7.6677    1.0000 </r>
       <r>   -6.9122    1.0000 </r>
       <r>   -5.6588    1.0000 </r>
       <r>   -5.5169    1.0000 </r>
       <r>   -4.2322    1.0000 </r>
       <r>   -1.5632    0.0000 </r>
       <r>   -1.0531    0.0000 </r>
       <r>   -0.1878    0.0000 </r>
       <r>    0.4983    0.0000 </r>
       <r>    2.9678    0.0000 </r>
      </set>
      <set comment="kpoint 9">
       <r>  -16.0425    1.0000 </r>
       <r>  -15.7486    1.0000 </r>
       <r>   -8.8210    1.0000 </r>
       <r>   -8.6156    1.0000 </r>
       <r>   -7.3414    1.0000 </r>
       <r>   -6.9606    1.0000 </r>
       <r>   -6.6413    1.0000 </r>
       <r>   -5.3839    1.0000 </r>
       <r>   -4.2620    1.0000 </r>
       <r>   -1.6141    0.0000 </r>
       <r>   -1.0025    0.0000 </r>
       <r>   -0.6859    0.0000 </r>
       <r>    0.7824    0.0000 </r>
       <r>    3.7984    0.0000 </r>
      </set>
      <set comment="kpoint 10">
       <r>  -15.8076    1.0000 </r>
       <r>  -15.6296    1.0000 </r>
       <r>   -9.0004    1.0000 </r>
       <r>   -8.6517    1.0000 </r>
       <r>   -7.6249    1.0000 </r>
       <r>   -6.9629    1.0000 </r>
       <r>   -6.7346    1.0000 </r>
       <r>   -5.7694    1.0000 </r>
       <r>   -3.8947    1.0000 </r>
       <r>   -1.9404    0.0000 </r>
       <r>   -0.6249    0.0000 </r>
       <r>   -0.4531    0.0000 </r>
       <r>    0.9254    0.0000 </r>
       <r>    3.2114    0.0000 </r>
      </set>
     </set>
    </set>
   </array>
  </eigenvalues>
  <separator name="orbital magnetization" >
   <v name="MAGDIPOLOUT">      0.00000000      0.00000000      0.00000000</v>
  </separator>
  <dos>
   <i name="efermi">     -2.94000000 </i>
   <total>
    <array>
     <dimension dim="1">gridpoints</dimension>
     <dimension dim="2">spin</dimension>
     <field>energy</field>
     <field>total</field>
     <field>integrated</field>
     <set>
      <set comment="spin 1">
       <r>   -12.0000   400.0000     4.0000 </r>
       <r>   -11.9900     0.0000     4.0000 </r>
       <r>   -11.9800     0.0000     4.0000 </r>
       <r>   -11.9700     0.0000     4.0000 </r>
       <r>   -11.9600     0.0000     4.0000 </r>
       <r>   -11.9500     0.0000     4.0000 </r>
       <r>   -11.9400     0.0000     4.0000 </r>
       <r>   -11.9300     0.0000     4.0000 </r>
       <r>   -11.9200     0.0000     4.0000 </r>
       <r>   -11.9100     0.0000     4.0000 </r>
       <r>   -11.9000     0.0000     4.0000 </r>
       <r>   -11.8900     0.0000     4.0000 </r>
       <r>   -11.8800     0.0000     4.0000 </r>
       <r>   -11.8700     0.0000     4.0000 </r>
       <r>   -11.8600     0.0000     4.0000 </r>
       <r>   -11.8500     0.0000     4.0000 </r>
       <r>   -11.8400     0.0000     4.0000 </r>
       <r>   -11.8300     0.0000     4.0000 </r>
       <r>   -11.8200     0.0000     4.0000 </r>
       <r>   -11.8100     0.0000     4.0000 </r>
       <r>   -11.8000     0.0000     4.0000 </r>
       <r>   -11.7900     0.0000     4.0000 </r>
       <r>   -11.7800     0.0000     4.0000 </r>
       <r>   -11.7700     0.0000     4.0000 </r>
       <r>   -11.7600     0.0000     4.0000 </r>
       <r>   -11.7500     0.0000     4.0000 </r>
       <r>   -11.7400     0.0000     4.0000 </r>
       <r>   -11.7300     0.0000     4.0000 </r>
       <r>   -11.7200     0.0000     4.0000 </r>
       <r>   -11.7100     0.0000     4.0000 </r>
       <r>   -11.7000     0.0000     4.0000 </r>
       <r>   -11.6900     0.0000     4.0000 </r>
       <r>   -11.6800     0.0000     4.0000 </r>
       <r>   -11.6700     0.0000     4.0000 </r>
       <r>   -11.6600     0.0000     4.0000 </r>
       <r>   -11.6500     0.0000     4.0000 </r>
       <r>   -11.6400     0.0000     4.0000 </r>
       <r>   -11.6300     0.0000     4.0000 </r>
       <r>   -11.6200     0.0000     4.0000 </r>
       <r>   -11.6100     0.0000     4.0000 </r>
       <r>   -11.6000     0.0000     4.0000 </r>
       <r>   -11.5900     0.0000     4.0000 </r>
       <r>   -11.5800     0.0000     4.0000 </r>
       <r>   -11.5700     0.0000     4.0000 </r>
       <r>   -11.5600     0.0000     4.0000 </r>
       <r>   -11.5500     0.0000     4.0000 </r>
       <r>   -11.5400     0.0000     4.0000 </r>
       <r>   -11.5300     0.0000     4.0000 </r>
       <r>   -11.5200     0.0000     4.0000 </r>
       <r>   -11.5100     0.0000     4.0000 </r>
       <r>   -11.5000     0.0000     4.0000 </r>
       <r>   -11.4900     0.0000     4.0000 </r>
       <r>   -11.4800     0.0000     4.0000 </r>
       <r>   -11.4700     0.0000     4.0000 </r>
       <r>   -11.4600     0.0000     4.0000 </r>
       <r>   -11.4500     0.0000     4.0000 </r>
       <r>   -11.4400     0.0000     4.0000 </r>
       <r>   -11.4300     0.0000     4.0000 </r>
       <r>   -11.4200     0.0000     4.0000 </r>
       <r>   -11.4100     0.0000     4.0000 </r>
       <r>   -11.4000     0.0000     4.0000 </r>
       <r>   -11.3900     0.0000     4.0000 </r>
       <r>   -11.3800     0.0000     4.0000 </r>
       <r>   -11.3700     0.0000     4.0000 </r>
       <r>   -11.3600     0.0000     4.0000 </r>
       <r>   -11.3500     0.0000     4.0000 </r>
       <r>   -11.3400     0.0000     4.0000 </r>
       <r>   -11.3300     0.0000     4.0000 </r>
       <r>   -11.3200     0.0000     4.0000 </r>
       <r>   -11.3100     0.0000     4.0000 </r>
       <r>   -11.3000     0.0000     4.0000 </r>
       <r>   -11.2900     0.0000     4.0000 </r>
       <r>   -11.2800     0.0000     4.0000 </r>
       <r>   -11.2700     0.0000     4.0000 </r>
       <r>   -11.2600     0.0000     4.0000 </r>
       <r>   -11.2500     0.0000     4.0000 </r>
       <r>   -11.2400     0.0000     4.0000 </r>
       <r>   -11.2300     0.0000     4.0000 </r>
       <r>   -11.2200     0.0000     4.0000 </r>
       <r>   -11.2100     0.0000     4.0000 </r>
       <r>   -11.2000     0.0000     4.0000 </r>
       <r>   -11.1900     0.0000     4.0000 </r>
       <r>   -11.1800     0.0000     4.0000 </r>
       <r>   -11.1700     0.0000     4.0000 </r>
       <r>   -11.1600     0.0000     4.0000 </r>
       <r>   -11.1500     0.0000     4.0000 </r>
       <r>   -11.1400     0.0000     4.0000 </r>
       <r>   -11.1300     0.0000     4.0000 </r>
       <r>   -11.1200     0.0000     4.0000 </r>
       <r>   -11.1100     0.0000     4.0000 </r>
       <r>   -11.1000     0.0000     4.0000 </r>
       <r>   -11.0900     0.0000     4.0000 </r>
       <r>   -11.0800     0.0000     4.0000 </r>
       <r>   -11.0700     0.0000     4.0000 </r>
       <r>   -11.0600     0.0000     4.0000 </r>
       <r>   -11.0500     0.0000     4.0000 </r>
       <r>   -11.0400     0.0000     4.0000 </r>
       <r>   -11.0300     0.0000     4.0000 </r>
       <r>   -11.0200     0.0000     4.0000 </r>
       <r>   -11.0100     0.0000     4.0000 </r>
       <r>   -11.0000     0.0000     4.0000 </r>
       <r>   -10.9900     0.0000     4.0000 </r>
       <r>   -10.9800     0.0000     4.0000 </r>
       <r>   -10.9700     0.0000     4.0000 </r>
       <r>   -10.9600     0.0000     4.0000 </r>
       <r>   -10.9500     0.0000     4.0000 </r>
       <r>   -10.9400     0.0000     4.0000 </r>
       <r>   -10.9300     0.0000     4.0000 </r>
       <r>   -10.9200     0.0000     4.0000 </r>
       <r>   -10.9100     0.0000     4.0000 </r>
       <r>   -10.9000     0.0000     4.0000 </r>
       <r>   -10.8900     0.0000     4.0000 </r>
       <r>   -10.8800     0.0000     4.0000 </r>
       <r>   -10.8700     0.0000     4.0000 </r>
       <r>   -10.8600     0.0000     4.0000 </r>
       <r>   -10.8500     0.0000     4.0000 </r>
       <r>   -10.8400     0.0000     4.0000 </r>
       <r>   -10.8300     0.0000     4.0000 </r>
       <r>   -10.8200     0.0000     4.0000 </r>
       <r>   -10.8100     0.0000     4.0000 </r>
       <r>   -10.8000     0.0000     4.0000 </r>
       <r>   -10.7900     0.0000     4.0000 </r>
       <r>   -10.7800     0.0000     4.0000 </r>
       <r>   -10.7700     0.0000     4.0000 </r>
       <r>   -10.7600     0.0000     4.0000 </r>
       <r>   -10.7500     0.0000     4.0000 </r>
       <r>   -10.7400     0.0000     4.0000 </r>
       <r>   -10.7300     0.0000     4.0000 </r>
       <r>   -10.7200     0.0000     4.0000 </r>
       <r>   -10.7100     0.0000     4.0000 </r>
       <r>   -10.7000     0.0000     4.0000 </r>
       <r>   -10.6900     0.0000     4.0000 </r>
       <r>   -10.6800     0.0000     4.0000 </r>
       <r>   -10.6700     0.0000     4.0000 </r>
       <r>   -10.6600     0.0000     4.0000 </r>
       <r>   -10.6500     0.0000     4.0000 </r>
       <r>   -10.6400     0.0000     4.0000 </r>
       <r>   -10.6300     0.0000     4.0000 </r>
       <r>   -10.6200     0.0000     4.0000 </r>
       <r>   -10.6100     0.0000     4.0000 </r>
       <r>   -10.6000     0.0000     4.0000 </r>
       <r>   -10.5900     0.0000     4.0000 </r>
       <r>   -10.5800     0.0000     4.0000 </r>
       <r>   -10.5700     0.0000     4.0000 </r>
       <r>   -10.5600     0.0000     4.0000 </r>
       <r>   -10.5500     0.0000     4.0000 </r>
       <r>   -10.5400     0.0000     4.0000 </r>
       <r>   -10.5300     0.0000     4.0000 </r>
       <r>   -10.5200     0.0000     4.0000 </r>
       <r>   -10.5100     0.0000     4.0000 </r>
       <r>   -10.5000     0.0000     4.0000 </r>
       <r>   -10.4900     0.0000     4.0000 </r>
       <r>   -10.4800     0.0000     4.0000 </r>
       <r>   -10.4700     0.0000     4.0000 </r>
       <r>   -10.4600     0.0000     4.0000 </r>
       <r>   -10.4500     0.0000     4.0000 </r>
       <r>   -10.4400     0.0000     4.0000 </r>
       <r>   -10.4300     0.0000     4.0000 </r>
       <r>   -10.4200     0.0000     4.0000 </r>
       <r>   -10.4100     0.0000     4.0000 </r>
       <r>   -10.4000     0.0000     4.0000 </r>
       <r>   -10.3900     0.0000     4.0000 </r>
       <r>   -10.3800     0.0000     4.0000 </r>
       <r>   -10.3700     0.0000     4.0000 </r>
       <r>   -10.3600     0.0000     4.0000 </r>
       <r>   -10.3500     0.0000     4.0000 </r>
       <r>   -10.3400     0.0000     4.0000 </r>
       <r>   -10.3300     0.0000     4.0000 </r>
       <r>   -10.3200     0.0000     4.0000 </r>
       <r>   -10.3100     0.0000     4.0000 </r>
       <r>   -10.3000     0.0000     4.0000 </r>
       <r>   -10.2900     0.0000     4.0000 </r>
       <r>   -10.2800     0.0000     4.0000 </r>
       <r>   -10.2700     0.0000     4.0000 </r>
       <r>   -10.2600     0.0000     4.0000 </r>
       <r>   -10.2500     0.0000     4.0000 </r>
       <r>   -10.2400     0.0000     4.0000 </r>
       <r>   -10.2300     0.0000     4.0000 </r>
       <r>   -10.2200     0.0000     4.0000 </r>
       <r>   -10.2100     0.0000     4.0000 </r>
       <r>   -10.2000     0.0000     4.0000 </r>
       <r>   -10.1900     0.0000     4.0000 </r>
       <r>   -10.1800     0.0000     4.0000 </r>
       <r>   -10.1700     0.0000     4.0000 </r>
       <r>   -10.1600     0.0000     4.0000 </r>
       <r>   -10.1500     0.0000     4.0000 </r>
       <r>   -10.1400     0.0000     4.0000 </r>
       <r>   -10.1300     0.0000     4.0000 </r>
       <r>   -10.1200     0.0000     4.0000 </r>
       <r>   -10.1100     0.0000     4.0000 </r>
       <r>   -10.1000     0.0000     4.0000 </r>
       <r>   -10.0900     0.0000     4.0000 </r>
       <r>   -10.0800     0.0000     4.0000 </r>
       <r>   -10.0700     0.0000     4.0000 </r>
       <r>   -10.0600     0.0000     4.0000 </r>
       <r>   -10.0500     0.0001     4.0000 </r>
       <r>   -10.0400     0.0001     4.0000 </r>
       <r>   -10.0300     0.0001     4.0000 </r>
       <r>   -10.0200     0.0001     4.0000 </r>
       <r>   -10.0100     0.0002     4.0000 </r>
       <r>   -10.0000     0.0002     4.0000 </r>
       <r>    -9.9900     0.0003     4.0000 </r>
       <r>    -9.9800     0.0003     4.0000 </r>
       <r>    -9.9700     0.0004     4.0000 </r>
       <r>    -9.9600     0.0006     4.0000 </r>
       <r>    -9.9500     0.0007     4.0000 </r>
       <r>    -9.9400     0.0009     4.0000 </r>
       <r>    -9.9300     0.0012     4.0001 </r>
       <r>    -9.9200     0.0015     4.0001 </r>
       <r>    -9.9100     0.0019     4.0001 </r>
       <r>    -9.9000     0.0023     4.0001 </r>
       <r>    -9.8900     0.0029     4.0001 </r>
       <r>    -9.8800     0.0036     4.0002 </r>
       <r>    -9.8700     0.0044     4.0002 </r>
       <r>    -9.8600     0.0053     4.0003 </r>
       <r>    -9.8500     0.0065     4.0003 </r>
       <r>    -9.8400     0.0079     4.0004 </r>
       <r>    -9.8300     0.0095     4.0005 </r>
       <r>    -9.8200     0.0114     4.0006 </r>
       <r>    -9.8100     0.0136     4.0008 </r>
       <r>    -9.8000     0.0161     4.0009 </r>
       <r>    -9.7900     0.0190     4.0011 </r>
       <r>    -9.7800     0.0224     4.0013 </r>
       <r>    -9.7700     0.0262     4.0016 </r>
       <r>    -9.7600     0.0305     4.0019 </r>
       <r>    -9.7500     0.0353     4.0023 </r>
       <r>    -9.7400     0.0408     4.0027 </r>
       <r>    -9.7300     0.0468     4.0031 </r>
       <r>    -9.7200     0.0535     4.0037 </r>
       <r>    -9.7100     0.0609     4.0043 </r>
       <r>    -9.7000     0.0690     4.0050 </r>
       <r>    -9.6900     0.0778     4.0057 </r>
       <r>    -9.6800     0.0874     4.0066 </r>
       <r>    -9.6700     0.0978     4.0076 </r>
       <r>    -9.6600     0.1088     4.0087 </r>
       <r>    -9.6500     0.1207     4.0099 </r>
       <r>    -9.6400     0.1333     4.0112 </r>
       <r>    -9.6300     0.1467     4.0127 </r>
       <r>    -9.6200     0.1608     4.0143 </r>
       <r>    -9.6100     0.1756     4.0161 </r>
       <r>    -9.6000     0.1912     4.0180 </r>
       <r>    -9.5900     0.2074     4.0200 </r>
       <r>    -9.5800     0.2244     4.0223 </r>
       <r>    -9.5700     0.2421     4.0247 </r>
       <r>    -9.5600     0.2605     4.0273 </r>
       <r>    -9.5500     0.2797     4.0301 </r>
       <r>    -9.5400     0.2997     4.0331 </r>
       <r>    -9.5300     0.3206     4.0363 </r>
       <r>    -9.5200     0.3425     4.0397 </r>
       <r>    -9.5100     0.3654     4.0434 </r>
       <r>    -9.5000     0.3895     4.0473 </r>
       <r>    -9.4900     0.4149     4.0514 </r>
       <r>    -9.4800     0.4419     4.0559 </r>
       <r>    -9.4700     0.4706     4.0606 </r>
       <r>    -9.4600     0.5011     4.0656 </r>
       <r>    -9.4500     0.5338     4.0709 </r>
       <r>    -9.4400     0.5688     4.0766 </r>
       <r>    -9.4300     0.6063     4.0827 </r>
       <r>    -9.4200     0.6466     4.0891 </r>
       <r>    -9.4100     0.6899     4.0960 </r>
       <r>    -9.4000     0.7363     4.1034 </r>
       <r>    -9.3900     0.7860     4.1112 </r>
       <r>    -9.3800     0.8391     4.1196 </r>
       <r>    -9.3700     0.8957     4.1286 </r>
       <r>    -9.3600     0.9558     4.1382 </r>
       <r>    -9.3500     1.0194     4.1483 </r>
       <r>    -9.3400     1.0862     4.1592 </r>
       <r>    -9.3300     1.1563     4.1708 </r>
       <r>    -9.3200     1.2292     4.1831 </r>
       <r>    -9.3100     1.3048     4.1961 </r>
       <r>    -9.3000     1.3826     4.2099 </r>
       <r>    -9.2900     1.4621     4.2246 </r>
       <r>    -9.2800     1.5429     4.2400 </r>
       <r>    -9.2700     1.6244     4.2562 </r>
       <r>    -9.2600     1.7059     4.2733 </r>
       <r>    -9.2500     1.7869     4.2912 </r>
       <r>    -9.2400     1.8666     4.3098 </r>
       <r>    -9.2300     1.9444     4.3293 </r>
       <r>    -9.2200     2.0197     4.3495 </r>
       <r>    -9.2100     2.0917     4.3704 </r>
       <r>    -9.2000     2.1598     4.3920 </r>
       <r>    -9.1900     2.2236     4.4142 </r>
       <r>    -9.1800     2.2826     4.4370 </r>
       <r>    -9.1700     2.3362     4.4604 </r>
       <r>    -9.1600     2.3842     4.4842 </r>
       <r>    -9.1500     2.4264     4.5085 </r>
       <r>    -9.1400     2.4627     4.5331 </r>
       <r>    -9.1300     2.4930     4.5581 </r>
       <r>    -9.1200     2.5175     4.5832 </r>
       <r>    -9.1100     2.5364     4.6086 </r>
       <r>    -9.1000     2.5500     4.6341 </r>
       <r>    -9.0900     2.5588     4.6597 </r>
       <r>    -9.0800     2.5633     4.6853 </r>
       <r>    -9.0700     2.5643     4.7110 </r>
       <r>    -9.0600     2.5624     4.7366 </r>
       <r>    -9.0500     2.5584     4.7622 </r>
       <r>    -9.0400     2.5531     4.7877 </r>
       <r>    -9.0300     2.5475     4.8132 </r>
       <r>    -9.0200     2.5424     4.8386 </r>
       <r>    -9.0100     2.5387     4.8640 </r>
       <r>    -9.0000     2.5372     4.8894 </r>
       <r>    -8.9900     2.5389     4.9148 </r>
       <r>    -8.9800     2.5445     4.9402 </r>
       <r>    -8.9700     2.5547     4.9657 </r>
       <r>    -8.9600     2.5700     4.9914 </r>
       <r>    -8.9500     2.5911     5.0174 </r>
       <r>    -8.9400     2.6183     5.0435 </r>
       <r>    -8.9300     2.6518     5.0701 </r>
       <r>    -8.9200     2.6918     5.0970 </r>
       <r>    -8.9100     2.7384     5.1244 </r>
       <r>    -8.9000     2.7913     5.1523 </r>
       <r>    -8.8900     2.8504     5.1808 </r>
       <r>    -8.8800     2.9151     5.2099 </r>
       <r>    -8.8700     2.9851     5.2398 </r>
       <r>    -8.8600     3.0597     5.2704 </r>
       <r>    -8.8500     3.1381     5.3018 </r>
       <r>    -8.8400     3.2195     5.3340 </r>
       <r>    -8.8300     3.3030     5.3670 </r>
       <r>    -8.8200     3.3876     5.4009 </r>
       <r>    -8.8100     3.4724     5.4356 </r>
       <r>    -8.8000     3.5562     5.4711 </r>
       <r>    -8.7900     3.6380     5.5075 </r>
       <r>    -8.7800     3.7168     5.5447 </r>
       <r>    -8.7700     3.7915     5.5826 </r>
       <r>    -8.7600     3.8610     5.6212 </r>
       <r>    -8.7500     3.9245     5.6605 </r>
       <r>    -8.7400     3.9811     5.7003 </r>
       <r>    -8.7300     4.0299     5.7406 </r>
       <r>    -8.7200     4.0701     5.7813 </r>
       <r>    -8.7100     4.1011     5.8223 </r>
       <r>    -8.7000     4.1224     5.8635 </r>
       <r>    -8.6900     4.1334     5.9048 </r>
       <r>    -8.6800     4.1339     5.9462 </r>
       <r>    -8.6700     4.1235     5.9874 </r>
       <r>    -8.6600     4.1021     6.0284 </r>
       <r>    -8.6500     4.0697     6.0691 </r>
       <r>    -8.6400     4.0263     6.1094 </r>
       <r>    -8.6300     3.9722     6.1491 </r>
       <r>    -8.6200     3.9076     6.1882 </r>
       <r>    -8.6100     3.8330     6.2265 </r>
       <r>    -8.6000     3.7487     6.2640 </r>
       <r>    -8.5900     3.6553     6.3006 </r>
       <r>    -8.5800     3.5536     6.3361 </r>
       <r>    -8.5700     3.4442     6.3705 </r>
       <r>    -8.5600     3.3280     6.4038 </r>
       <r>    -8.5500     3.2058     6.4359 </r>
       <r>    -8.5400     3.0785     6.4667 </r>
       <r>    -8.5300     2.9470     6.4961 </r>
       <r>    -8.5200     2.8124     6.5243 </r>
       <r>    -8.5100     2.6756     6.5510 </r>
       <r>    -8.5000     2.5376     6.5764 </r>
       <r>    -8.4900     2.3993     6.6004 </r>
       <r>    -8.4800     2.2619     6.6230 </r>
       <r>    -8.4700     2.1261     6.6443 </r>
       <r>    -8.4600     1.9930     6.6642 </r>
       <r>    -8.4500     1.8632     6.6828 </r>
       <r>    -8.4400     1.7377     6.7002 </r>
       <r>    -8.4300     1.6170     6.7164 </r>
       <r>    -8.4200     1.5019     6.7314 </r>
       <r>    -8.4100     1.3929     6.7453 </r>
       <r>    -8.4000     1.2905     6.7582 </r>
       <r>    -8.3900     1.1949     6.7702 </r>
       <r>    -8.3800     1.1066     6.7812 </r>
       <r>    -8.3700     1.0256     6.7915 </r>
       <r>    -8.3600     0.9521     6.8010 </r>
       <r>    -8.3500     0.8860     6.8099 </r>
       <r>    -8.3400     0.8273     6.8182 </r>
       <r>    -8.3300     0.7758     6.8259 </r>
       <r>    -8.3200     0.7312     6.8332 </r>
       <r>    -8.3100     0.6933     6.8402 </r>
       <r>    -8.3000     0.6617     6.8468 </r>
       <r>    -8.2900     0.6359     6.8531 </r>
       <r>    -8.2800     0.6155     6.8593 </r>
       <r>    -8.2700     0.6000     6.8653 </r>
       <r>    -8.2600     0.5888     6.8712 </r>
       <r>    -8.2500     0.5816     6.8770 </r>
       <r>    -8.2400     0.5776     6.8828 </r>
       <r>    -8.2300     0.5766     6.8885 </r>
       <r>    -8.2200     0.5778     6.8943 </r>
       <r>    -8.2100     0.5810     6.9001 </r>
       <r>    -8.2000     0.5857     6.9060 </r>
       <r>    -8.1900     0.5915     6.9119 </r>
       <r>    -8.1800     0.5981     6.9179 </r>
       <r>    -8.1700     0.6054     6.9239 </r>
       <r>    -8.1600     0.6130     6.9301 </r>
       <r>    -8.1500     0.6210     6.9363 </r>
       <r>    -8.1400     0.6292     6.9426 </r>
       <r>    -8.1300     0.6378     6.9489 </r>
       <r>    -8.1200     0.6469     6.9554 </r>
       <r>    -8.1100     0.6566     6.9620 </r>
       <r>    -8.1000     0.6672     6.9686 </r>
       <r>    -8.0900     0.6791     6.9754 </r>
       <r>    -8.0800     0.6925     6.9824 </r>
       <r>    -8.0700     0.7079     6.9894 </r>
       <r>    -8.0600     0.7257     6.9967 </r>
       <r>    -8.0500     0.7464     7.0042 </r>
       <r>    -8.0400     0.7705     7.0119 </r>
       <r>    -8.0300     0.7984     7.0199 </r>
       <r>    -8.0200     0.8307     7.0282 </r>
       <r>    -8.0100     0.8676     7.0368 </r>
       <r>    -8.0000     0.9097     7.0459 </r>
       <r>    -7.9900     0.9573     7.0555 </r>
       <r>    -7.9800     1.0107     7.0656 </r>
       <r>    -7.9700     1.0701     7.0763 </r>
       <r>    -7.9600     1.1357     7.0877 </r>
       <r>    -7.9500     1.2075     7.0997 </r>
       <r>    -7.9400     1.2857     7.1126 </r>
       <r>    -7.9300     1.3700     7.1263 </r>
       <r>    -7.9200     1.4604     7.1409 </r>
       <r>    -7.9100     1.5567     7.1565 </r>
       <r>    -7.9000     1.6584     7.1731 </r>
       <r>    -7.8900     1.7652     7.1907 </r>
       <r>    -7.8800     1.8767     7.2095 </r>
       <r>    -7.8700     1.9923     7.2294 </r>
       <r>    -7.8600     2.1114     7.2505 </r>
       <r>    -7.8500     2.2333     7.2728 </r>
       <r>    -7.8400     2.3574     7.2964 </r>
       <r>    -7.8300     2.4829     7.3212 </r>
       <r>    -7.8200     2.6091     7.3473 </r>
       <r>    -7.8100     2.7352     7.3747 </r>
       <r>    -7.8000     2.8604     7.4033 </r>
       <r>    -7.7900     2.9840     7.4331 </r>
       <r>    -7.7800     3.1050     7.4642 </r>
       <r>    -7.7700     3.2227     7.4964 </r>
       <r>    -7.7600     3.3364     7.5298 </r>
       <r>    -7.7500     3.4454     7.5642 </r>
       <r>    -7.7400     3.5488     7.5997 </r>
       <r>    -7.7300     3.6461     7.6362 </r>
       <r>    -7.7200     3.7367     7.6735 </r>
       <r>    -7.7100     3.8199     7.7117 </r>
       <r>    -7.7000     3.8952     7.7507 </r>
       <r>    -7.6900     3.9623     7.7903 </r>
       <r>    -7.6800     4.0207     7.8305 </r>
       <r>    -7.6700     4.0702     7.8712 </r>
       <r>    -7.6600     4.1105     7.9123 </r>
       <r>    -7.6500     4.1414     7.9537 </r>
       <r>    -7.6400     4.1630     7.9954 </r>
       <r>    -7.6300     4.1752     8.0371 </r>
       <r>    -7.6200     4.1782     8.0789 </r>
       <r>    -7.6100     4.1722     8.1206 </r>
       <r>    -7.6000     4.1573     8.1622 </r>
       <r>    -7.5900     4.1341     8.2036 </r>
       <r>    -7.5800     4.1029     8.2446 </r>
       <r>    -7.5700     4.0642     8.2852 </r>
       <r>    -7.5600     4.0186     8.3254 </r>
       <r>    -7.5500     3.9666     8.3651 </r>
       <r>    -7.5400     3.9089     8.4042 </r>
       <r>    -7.5300     3.8461     8.4426 </r>
       <r>    -7.5200     3.7789     8.4804 </r>
       <r>    -7.5100     3.7079     8.5175 </r>
       <r>    -7.5000     3.6338     8.5538 </r>
       <r>    -7.4900     3.5572     8.5894 </r>
       <r>    -7.4800     3.4786     8.6242 </r>
       <r>    -7.4700     3.3987     8.6582 </r>
       <r>    -7.4600     3.3178     8.6914 </r>
       <r>    -7.4500     3.2364     8.7237 </r>
       <r>    -7.4400     3.1549     8.7553 </r>
       <r>    -7.4300     3.0735     8.7860 </r>
       <r>    -7.4200     2.9927     8.8159 </r>
       <r>    -7.4100     2.9124     8.8451 </r>
       <r>    -7.4000     2.8330     8.8734 </r>
       <r>    -7.3900     2.7544     8.9009 </r>
       <r>    -7.3800     2.6769     8.9277 </r>
       <r>    -7.3700     2.6004     8.9537 </r>
       <r>    -7.3600     2.5251     8.9790 </r>
       <r>    -7.3500     2.4511     9.0035 </r>
       <r>    -7.3400     2.3784     9.0272 </r>
       <r>    -7.3300     2.3072     9.0503 </r>
       <r>    -7.3200     2.2376     9.0727 </r>
       <r>    -7.3100     2.1700     9.0944 </r>
       <r>    -7.3000     2.1047     9.1154 </r>
       <r>    -7.2900     2.0419     9.1359 </r>
       <r>    -7.2800     1.9823     9.1557 </r>
       <r>    -7.2700     1.9262     9.1749 </r>
       <r>    -7.2600     1.8743     9.1937 </r>
       <r>    -7.2500     1.8272     9.2120 </r>
       <r>    -7.2400     1.7857     9.2298 </r>
       <r>    -7.2300     1.7504     9.2473 </r>
       <r>    -7.2200     1.7222     9.2645 </r>
       <r>    -7.2100     1.7019     9.2816 </r>
       <r>    -7.2000     1.6902     9.2985 </r>
       <r>    -7.1900     1.6880     9.3153 </r>
       <r>    -7.1800     1.6958     9.3323 </r>
       <r>    -7.1700     1.7145     9.3494 </r>
       <r>    -7.1600     1.7444     9.3669 </r>
       <r>    -7.1500     1.7862     9.3848 </r>
       <r>    -7.1400     1.8400     9.4032 </r>
       <r>    -7.1300     1.9061     9.4222 </r>
       <r>    -7.1200     1.9844     9.4421 </r>
       <r>    -7.1100     2.0749     9.4628 </r>
       <r>    -7.1000     2.1772     9.4846 </r>
       <r>    -7.0900     2.2907     9.5075 </r>
       <r>    -7.0800     2.4148     9.5316 </r>
       <r>    -7.0700     2.5484     9.5571 </r>
       <r>    -7.0600     2.6906     9.5840 </r>
       <r>    -7.0500     2.8401     9.6124 </r>
       <r>    -7.0400     2.9955     9.6424 </r>
       <r>    -7.0300     3.1552     9.6739 </r>
       <r>    -7.0200     3.3176     9.7071 </r>
       <r>    -7.0100     3.4809     9.7419 </r>
       <r>    -7.0000     3.6434     9.7784 </r>
       <r>    -6.9900     3.8032     9.8164 </r>
       <r>    -6.9800     3.9586     9.8560 </r>
       <r>    -6.9700     4.1078     9.8970 </r>
       <r>    -6.9600     4.2490     9.9395 </r>
       <r>    -6.9500     4.3807     9.9833 </r>
       <r>    -6.9400     4.5014    10.0284 </r>
       <r>    -6.9300     4.6097    10.0745 </r>
       <r>    -6.9200     4.7046    10.1215 </r>
       <r>    -6.9100     4.7851    10.1694 </r>
       <r>    -6.9000     4.8503    10.2179 </r>
       <r>    -6.8900     4.8998    10.2669 </r>
       <r>    -6.8800     4.9333    10.3162 </r>
       <r>    -6.8700     4.9505    10.3657 </r>
       <r>    -6.8600     4.9516    10.4152 </r>
       <r>    -6.8500     4.9368    10.4646 </r>
       <r>    -6.8400     4.9067    10.5136 </r>
       <r>    -6.8300     4.8618    10.5623 </r>
       <r>    -6.8200     4.8028    10.6103 </r>
       <r>    -6.8100     4.7308    10.6576 </r>
       <r>    -6.8000     4.6466    10.7041 </r>
       <r>    -6.7900     4.5514    10.7496 </r>
       <r>    -6.7800     4.4463    10.7940 </r>
       <r>    -6.7700     4.3324    10.8374 </r>
       <r>    -6.7600     4.2109    10.8795 </r>
       <r>    -6.7500     4.0832    10.9203 </r>
       <r>    -6.7400     3.9503    10.9598 </r>
       <r>    -6.7300     3.8134    10.9979 </r>
       <r>    -6.7200     3.6736    11.0347 </r>
       <r>    -6.7100     3.5321    11.0700 </r>
       <r>    -6.7000     3.3899    11.1039 </r>
       <r>    -6.6900     3.2479    11.1364 </r>
       <r>    -6.6800     3.1072    11.1674 </r>
       <r>    -6.6700     2.9685    11.1971 </r>
       <r>    -6.6600     2.8328    11.2255 </r>
       <r>    -6.6500     2.7008    11.2525 </r>
       <r>    -6.6400     2.5731    11.2782 </r>
       <r>    -6.6300     2.4505    11.3027 </r>
       <r>    -6.6200     2.3336    11.3260 </r>
       <r>    -6.6100     2.2229    11.3483 </r>
       <r>    -6.6000     2.1189    11.3695 </r>
       <r>    -6.5900     2.0219    11.3897 </r>
       <r>    -6.5800     1.9324    11.4090 </r>
       <r>    -6.5700     1.8506    11.4275 </r>
       <r>    -6.5600     1.7768    11.4453 </r>
       <r>    -6.5500     1.7111    11.4624 </r>
       <r>    -6.5400     1.6536    11.4789 </r>
       <r>    -6.5300     1.6042    11.4950 </r>
       <r>    -6.5200     1.5630    11.5106 </r>
       <r>    -6.5100     1.5298    11.5259 </r>
       <r>    -6.5000     1.5042    11.5409 </r>
       <r>    -6.4900     1.4862    11.5558 </r>
       <r>    -6.4800     1.4752    11.5705 </r>
       <r>    -6.4700     1.4708    11.5853 </r>
       <r>    -6.4600     1.4726    11.6000 </r>
       <r>    -6.4500     1.4799    11.6148 </r>
       <r>    -6.4400     1.4923    11.6297 </r>
       <r>    -6.4300     1.5090    11.6448 </r>
       <r>    -6.4200     1.5294    11.6601 </r>
       <r>    -6.4100     1.5527    11.6756 </r>
       <r>    -6.4000     1.5784    11.6914 </r>
       <r>    -6.3900     1.6057    11.7075 </r>
       <r>    -6.3800     1.6339    11.7238 </r>
       <r>    -6.3700     1.6624    11.7404 </r>
       <r>    -6.3600     1.6905    11.7573 </r>
       <r>    -6.3500     1.7175    11.7745 </r>
       <r>    -6.3400     1.7430    11.7919 </r>
       <r>    -6.3300     1.7663    11.8096 </r>
       <r>    -6.3200     1.7871    11.8275 </r>
       <r>    -6.3100     1.8049    11.8455 </r>
       <r>    -6.3000     1.8193    11.8637 </r>
       <r>    -6.2900     1.8300    11.8820 </r>
       <r>    -6.2800     1.8368    11.9004 </r>
       <r>    -6.2700     1.8395    11.9188 </r>
       <r>    -6.2600     1.8380    11.9371 </r>
       <r>    -6.2500     1.8321    11.9555 </r>
       <r>    -6.2400     1.8219    11.9737 </r>
       <r>    -6.2300     1.8075    11.9918 </r>
       <r>    -6.2200     1.7889    12.0097 </r>
       <r>    -6.2100     1.7662    12.0273 </r>
       <r>    -6.2000     1.7397    12.0447 </r>
       <r>    -6.1900     1.7097    12.0618 </r>
       <r>    -6.1800     1.6764    12.0786 </r>
       <r>    -6.1700     1.6401    12.0950 </r>
       <r>    -6.1600     1.6012    12.1110 </r>
       <r>    -6.1500     1.5603    12.1266 </r>
       <r>    -6.1400     1.5176    12.1418 </r>
       <r>    -6.1300     1.4738    12.1565 </r>
       <r>    -6.1200     1.4294    12.1708 </r>
       <r>    -6.1100     1.3849    12.1846 </r>
       <r>    -6.1000     1.3409    12.1981 </r>
       <r>    -6.0900     1.2981    12.2110 </r>
       <r>    -6.0800     1.2572    12.2236 </r>
       <r>    -6.0700     1.2187    12.2358 </r>
       <r>    -6.0600     1.1834    12.2476 </r>
       <r>    -6.0500     1.1519    12.2591 </r>
       <r>    -6.0400     1.1250    12.2704 </r>
       <r>    -6.0300     1.1032    12.2814 </r>
       <r>    -6.0200     1.0874    12.2923 </r>
       <r>    -6.0100     1.0781    12.3031 </r>
       <r>    -6.0000     1.0760    12.3138 </r>
       <r>    -5.9900     1.0815    12.3247 </r>
       <r>    -5.9800     1.0954    12.3356 </r>
       <r>    -5.9700     1.1179    12.3468 </r>
       <r>    -5.9600     1.1496    12.3583 </r>
       <r>    -5.9500     1.1907    12.3702 </r>
       <r>    -5.9400     1.2416    12.3826 </r>
       <r>    -5.9300     1.3023    12.3956 </r>
       <r>    -5.9200     1.3731    12.4094 </r>
       <r>    -5.9100     1.4538    12.4239 </r>
       <r>    -5.9000     1.5443    12.4393 </r>
       <r>    -5.8900     1.6444    12.4558 </r>
       <r>    -5.8800     1.7538    12.4733 </r>
       <r>    -5.8700     1.8720    12.4920 </r>
       <r>    -5.8600     1.9985    12.5120 </r>
       <r>    -5.8500     2.1327    12.5334 </r>
       <r>    -5.8400     2.2739    12.5561 </r>
       <r>    -5.8300     2.4211    12.5803 </r>
       <r>    -5.8200     2.5736    12.6060 </r>
       <r>    -5.8100     2.7304    12.6333 </r>
       <r>    -5.8000     2.8903    12.6623 </r>
       <r>    -5.7900     3.0524    12.6928 </r>
       <r>    -5.7800     3.2156    12.7249 </r>
       <r>    -5.7700     3.3785    12.7587 </r>
       <r>    -5.7600     3.5402    12.7941 </r>
       <r>    -5.7500     3.6994    12.8311 </r>
       <r>    -5.7400     3.8550    12.8697 </r>
       <r>    -5.7300     4.0058    12.9097 </r>
       <r>    -5.7200     4.1507    12.9512 </r>
       <r>    -5.7100     4.2887    12.9941 </r>
       <r>    -5.7000     4.4187    13.0383 </r>
       <r>    -5.6900     4.5399    13.0837 </r>
       <r>    -5.6800     4.6513    13.1302 </r>
       <r>    -5.6700     4.7521    13.1777 </r>
       <r>    -5.6600     4.8417    13.2262 </r>
       <r>    -5.6500     4.9194    13.2753 </r>
       <r>    -5.6400     4.9846    13.3252 </r>
       <r>    -5.6300     5.0370    13.3756 </r>
       <r>    -5.6200     5.0763    13.4263 </r>
       <r>    -5.6100     5.1021    13.4773 </r>
       <r>    -5.6000     5.1144    13.5285 </r>
       <r>    -5.5900     5.1131    13.5796 </r>
       <r>    -5.5800     5.0983    13.6306 </r>
       <r>    -5.5700     5.0702    13.6813 </r>
       <r>    -5.5600     5.0291    13.7316 </r>
       <r>    -5.5500     4.9753    13.7814 </r>
       <r>    -5.5400     4.9093    13.8304 </r>
       <r>    -5.5300     4.8316    13.8788 </r>
       <r>    -5.5200     4.7430    13.9262 </r>
       <r>    -5.5100     4.6440    13.9726 </r>
       <r>    -5.5000     4.5355    14.0180 </r>
       <r>    -5.4900     4.4184    14.0622 </r>
       <r>    -5.4800     4.2935    14.1051 </r>
       <r>    -5.4700     4.1620    14.1467 </r>
       <r>    -5.4600     4.0247    14.1870 </r>
       <r>    -5.4500     3.8828    14.2258 </r>
       <r>    -5.4400     3.7374    14.2632 </r>
       <r>    -5.4300     3.5895    14.2991 </r>
       <r>    -5.4200     3.4404    14.3335 </r>
       <r>    -5.4100     3.2911    14.3664 </r>
       <r>    -5.4000     3.1427    14.3978 </r>
       <r>    -5.3900     2.9964    14.4278 </r>
       <r>    -5.3800     2.8532    14.4563 </r>
       <r>    -5.3700     2.7140    14.4834 </r>
       <r>    -5.3600     2.5800    14.5092 </r>
       <r>    -5.3500     2.4520    14.5338 </r>
       <r>    -5.3400     2.3308    14.5571 </r>
       <r>    -5.3300     2.2173    14.5792 </r>
       <r>    -5.3200     2.1120    14.6004 </r>
       <r>    -5.3100     2.0156    14.6205 </r>
       <r>    -5.3000     1.9285    14.6398 </r>
       <r>    -5.2900     1.8513    14.6583 </r>
       <r>    -5.2800     1.7841    14.6762 </r>
       <r>    -5.2700     1.7271    14.6934 </r>
       <r>    -5.2600     1.6804    14.7102 </r>
       <r>    -5.2500     1.6441    14.7267 </r>
       <r>    -5.2400     1.6178    14.7429 </r>
       <r>    -5.2300     1.6014    14.7589 </r>
       <r>    -5.2200     1.5946    14.7748 </r>
       <r>    -5.2100     1.5968    14.7908 </r>
       <r>    -5.2000     1.6074    14.8069 </r>
       <r>    -5.1900     1.6259    14.8231 </r>
       <r>    -5.1800     1.6516    14.8396 </r>
       <r>    -5.1700     1.6835    14.8565 </r>
       <r>    -5.1600     1.7209    14.8737 </r>
       <r>    -5.1500     1.7628    14.8913 </r>
       <r>    -5.1400     1.8084    14.9094 </r>
       <r>    -5.1300     1.8566    14.9280 </r>
       <r>    -5.1200     1.9066    14.9470 </r>
       <r>    -5.1100     1.9573    14.9666 </r>
       <r>    -5.1000     2.0079    14.9867 </r>
       <r>    -5.0900     2.0575    15.0072 </r>
       <r>    -5.0800     2.1053    15.0283 </r>
       <r>    -5.0700     2.1506    15.0498 </r>
       <r>    -5.0600     2.1928    15.0717 </r>
       <r>    -5.0500     2.2313    15.0940 </r>
       <r>    -5.0400     2.2657    15.1167 </r>
       <r>    -5.0300     2.2958    15.1397 </r>
       <r>    -5.0200     2.3213    15.1629 </r>
       <r>    -5.0100     2.3422    15.1863 </r>
       <r>    -5.0000     2.3585    15.2099 </r>
       <r>    -4.9900     2.3705    15.2336 </r>
       <r>    -4.9800     2.3782    15.2574 </r>
       <r>    -4.9700     2.3823    15.2812 </r>
       <r>    -4.9600     2.3830    15.3050 </r>
       <r>    -4.9500     2.3810    15.3288 </r>
       <r>    -4.9400     2.3767    15.3526 </r>
       <r>    -4.9300     2.3709    15.3763 </r>
       <r>    -4.9200     2.3641    15.4000 </r>
       <r>    -4.9100     2.3571    15.4235 </r>
       <r>    -4.9000     2.3504    15.4470 </r>
       <r>    -4.8900     2.3446    15.4705 </r>
       <r>    -4.8800     2.3404    15.4939 </r>
       <r>    -4.8700     2.3381    15.5173 </r>
       <r>    -4.8600     2.3383    15.5406 </r>
       <r>    -4.8500     2.3414    15.5641 </r>
       <r>    -4.8400     2.3476    15.5875 </r>
       <r>    -4.8300     2.3571    15.6111 </r>
       <r>    -4.8200     2.3699    15.6348 </r>
       <r>    -4.8100     2.3862    15.6587 </r>
       <r>    -4.8000     2.4058    15.6827 </r>
       <r>    -4.7900     2.4286    15.7070 </r>
       <r>    -4.7800     2.4543    15.7316 </r>
       <r>    -4.7700     2.4826    15.7564 </r>
       <r>    -4.7600     2.5131    15.7815 </r>
       <r>    -4.7500     2.5454    15.8070 </r>
       <r>    -4.7400     2.5789    15.8328 </r>
       <r>    -4.7300     2.6131    15.8589 </r>
       <r>    -4.7200     2.6476    15.8854 </r>
       <r>    -4.7100     2.6818    15.9122 </r>
       <r>    -4.7000     2.7151    15.9393 </r>
       <r>    -4.6900     2.7470    15.9668 </r>
       <r>    -4.6800     2.7771    15.9946 </r>
       <r>    -4.6700     2.8048    16.0226 </r>
       <r>    -4.6600     2.8298    16.0509 </r>
       <r>    -4.6500     2.8517    16.0794 </r>
       <r>    -4.6400     2.8703    16.1081 </r>
       <r>    -4.6300     2.8854    16.1370 </r>
       <r>    -4.6200     2.8967    16.1660 </r>
       <r>    -4.6100     2.9044    16.1950 </r>
       <r>    -4.6000     2.9083    16.2241 </r>
       <r>    -4.5900     2.9087    16.2532 </r>
       <r>    -4.5800     2.9056    16.2822 </r>
       <r>    -4.5700     2.8994    16.3112 </r>
       <r>    -4.5600     2.8904    16.3401 </r>
       <r>    -4.5500     2.8789    16.3689 </r>
       <r>    -4.5400     2.8654    16.3976 </r>
       <r>    -4.5300     2.8504    16.4261 </r>
       <r>    -4.5200     2.8343    16.4544 </r>
       <r>    -4.5100     2.8176    16.4826 </r>
       <r>    -4.5000     2.8008    16.5106 </r>
       <r>    -4.4900     2.7844    16.5384 </r>
       <r>    -4.4800     2.7689    16.5661 </r>
       <r>    -4.4700     2.7546    16.5937 </r>
       <r>    -4.4600     2.7420    16.6211 </r>
       <r>    -4.4500     2.7312    16.6484 </r>
       <r>    -4.4400     2.7225    16.6756 </r>
       <r>    -4.4300     2.7160    16.7028 </r>
       <r>    -4.4200     2.7117    16.7299 </r>
       <r>    -4.4100     2.7095    16.7570 </r>
       <r>    -4.4000     2.7093    16.7841 </r>
       <r>    -4.3900     2.7106    16.8112 </r>
       <r>    -4.3800     2.7133    16.8383 </r>
       <r>    -4.3700     2.7167    16.8655 </r>
       <r>    -4.3600     2.7204    16.8927 </r>
       <r>    -4.3500     2.7238    16.9199 </r>
       <r>    -4.3400     2.7261    16.9472 </r>
       <r>    -4.3300     2.7269    16.9745 </r>
       <r>    -4.3200     2.7253    17.0017 </r>
       <r>    -4.3100     2.7207    17.0289 </r>
       <r>    -4.3000     2.7125    17.0561 </r>
       <r>    -4.2900     2.7002    17.0831 </r>
       <r>    -4.2800     2.6832    17.1099 </r>
       <r>    -4.2700     2.6611    17.1365 </r>
       <r>    -4.2600     2.6337    17.1628 </r>
       <r>    -4.2500     2.6007    17.1888 </r>
       <r>    -4.2400     2.5622    17.2145 </r>
       <r>    -4.2300     2.5182    17.2397 </r>
       <r>    -4.2200     2.4689    17.2643 </r>
       <r>    -4.2100     2.4146    17.2885 </r>
       <r>    -4.2000     2.3559    17.3120 </r>
       <r>    -4.1900     2.2932    17.3350 </r>
       <r>    -4.1800     2.2273    17.3573 </r>
       <r>    -4.1700     2.1589    17.3788 </r>
       <r>    -4.1600     2.0889    17.3997 </r>
       <r>    -4.1500     2.0180    17.4199 </r>
       <r>    -4.1400     1.9471    17.4394 </r>
       <r>    -4.1300     1.8771    17.4582 </r>
       <r>    -4.1200     1.8088    17.4762 </r>
       <r>    -4.1100     1.7430    17.4937 </r>
       <r>    -4.1000     1.6804    17.5105 </r>
       <r>    -4.0900     1.6215    17.5267 </r>
       <r>    -4.0800     1.5670    17.5424 </r>
       <r>    -4.0700     1.5171    17.5575 </r>
       <r>    -4.0600     1.4721    17.5723 </r>
       <r>    -4.0500     1.4323    17.5866 </r>
       <r>    -4.0400     1.3975    17.6006 </r>
       <r>    -4.0300     1.3678    17.6142 </r>
       <r>    -4.0200     1.3427    17.6277 </r>
       <r>    -4.0100     1.3221    17.6409 </r>
       <r>    -4.0000     1.3054    17.6539 </r>
       <r>    -3.9900     1.2922    17.6669 </r>
       <r>    -3.9800     1.2818    17.6797 </r>
       <r>    -3.9700     1.2736    17.6924 </r>
       <r>    -3.9600     1.2669    17.7051 </r>
       <r>    -3.9500     1.2611    17.7177 </r>
       <r>    -3.9400     1.2555    17.7302 </r>
       <r>    -3.9300     1.2494    17.7427 </r>
       <r>    -3.9200     1.2422    17.7552 </r>
       <r>    -3.9100     1.2334    17.7675 </r>
       <r>    -3.9000     1.2225    17.7797 </r>
       <r>    -3.8900     1.2090    17.7918 </r>
       <r>    -3.8800     1.1928    17.8037 </r>
       <r>    -3.8700     1.1734    17.8155 </r>
       <r>    -3.8600     1.1508    17.8270 </r>
       <r>    -3.8500     1.1249    17.8382 </r>
       <r>    -3.8400     1.0958    17.8492 </r>
       <r>    -3.8300     1.0635    17.8598 </r>
       <r>    -3.8200     1.0282    17.8701 </r>
       <r>    -3.8100     0.9903    17.8800 </r>
       <r>    -3.8000     0.9499    17.8895 </r>
       <r>    -3.7900     0.9074    17.8986 </r>
       <r>    -3.7800     0.8633    17.9072 </r>
       <r>    -3.7700     0.8178    17.9154 </r>
       <r>    -3.7600     0.7715    17.9231 </r>
       <r>    -3.7500     0.7247    17.9303 </r>
       <r>    -3.7400     0.6778    17.9371 </r>
       <r>    -3.7300     0.6313    17.9434 </r>
       <r>    -3.7200     0.5854    17.9493 </r>
       <r>    -3.7100     0.5405    17.9547 </r>
       <r>    -3.7000     0.4969    17.9597 </r>
       <r>    -3.6900     0.4549    17.9642 </r>
       <r>    -3.6800     0.4147    17.9684 </r>
       <r>    -3.6700     0.3764    17.9721 </r>
       <r>    -3.6600     0.3403    17.9755 </r>
       <r>    -3.6500     0.3063    17.9786 </r>
       <r>    -3.6400     0.2745    17.9813 </r>
       <r>    -3.6300     0.2450    17.9838 </r>
       <r>    -3.6200     0.2178    17.9860 </r>
       <r>    -3.6100     0.1928    17.9879 </r>
       <r>    -3.6000     0.1700    17.9896 </r>
       <r>    -3.5900     0.1493    17.9911 </r>
       <r>    -3.5800     0.1306    17.9924 </r>
       <r>    -3.5700     0.1137    17.9935 </r>
       <r>    -3.5600     0.0987    17.9945 </r>
       <r>    -3.5500     0.0852    17.9954 </r>
       <r>    -3.5400     0.0734    17.9961 </r>
       <r>    -3.5300     0.0629    17.9967 </r>
       <r>    -3.5200     0.0537    17.9973 </r>
       <r>    -3.5100     0.0457    17.9977 </r>
       <r>    -3.5000     0.0387    17.9981 </r>
       <r>    -3.4900     0.0327    17.9984 </r>
       <r>    -3.4800     0.0275    17.9987 </r>
       <r>    -3.4700     0.0230    17.9989 </r>
       <r>    -3.4600     0.0192    17.9991 </r>
       <r>    -3.4500     0.0160    17.9993 </r>
       <r>    -3.4400     0.0132    17.9994 </r>
       <r>    -3.4300     0.0109    17.9995 </r>
       <r>    -3.4200     0.0090    17.9996 </r>
       <r>    -3.4100     0.0073    17.9997 </r>
       <r>    -3.4000     0.0060    17.9998 </r>
       <r>    -3.3900     0.0049    17.9998 </r>
       <r>    -3.3800     0.0039    17.9998 </r>
       <r>    -3.3700     0.0032    17.9999 </r>
       <r>    -3.3600     0.0025    17.9999 </r>
       <r>    -3.3500     0.0020    17.9999 </r>
       <r>    -3.3400     0.0016    17.9999 </r>
       <r>    -3.3300     0.0013    18.0000 </r>
       <r>    -3.3200     0.0010    18.0000 </r>
       <r>    -3.3100     0.0008    18.0000 </r>
       <r>    -3.3000     0.0006    18.0000 </r>
       <r>    -3.2900     0.0005    18.0000 </r>
       <r>    -3.2800     0.0004    18.0000 </r>
       <r>    -3.2700     0.0003    18.0000 </r>
       <r>    -3.2600     0.0002    18.0000 </r>
       <r>    -3.2500     0.0002    18.0000 </r>
       <r>    -3.2400     0.0001    18.0000 </r>
       <r>    -3.2300     0.0001    18.0000 </r>
       <r>    -3.2200     0.0001    18.0000 </r>
       <r>    -3.2100     0.0001    18.0000 </r>
       <r>    -3.2000     0.0000    18.0000 </r>
       <r>    -3.1900     0.0000    18.0000 </r>
       <r>    -3.1800     0.0000    18.0000 </r>
       <r>    -3.1700     0.0000    18.0000 </r>
       <r>    -3.1600     0.0000    18.0000 </r>
       <r>    -3.1500     0.0000    18.0000 </r>
       <r>    -3.1400     0.0000    18.0000 </r>
       <r>    -3.1300     0.0000    18.0000 </r>
       <r>    -3.1200     0.0000    18.0000 </r>
       <r>    -3.1100     0.0000    18.0000 </r>
       <r>    -3.1000     0.0000    18.0000 </r>
       <r>    -3.0900     0.0000    18.0000 </r>
       <r>    -3.0800     0.0000    18.0000 </r>
       <r>    -3.0700     0.0000    18.0000 </r>
       <r>    -3.0600     0.0000    18.0000 </r>
       <r>    -3.0500     0.0000    18.0000 </r>
       <r>    -3.0400     0.0000    18.0000 </r>
       <r>    -3.0300     0.0000    18.0000 </r>
       <r>    -3.0200     0.0000    18.0000 </r>
       <r>    -3.0100     0.0000    18.0000 </r>
       <r>    -3.0000     0.0000    18.0000 </r>
       <r>    -2.9900     0.0000    18.0000 </r>
       <r>    -2.9800     0.0000    18.0000 </r>
       <r>    -2.9700     0.0000    18.0000 </r>
       <r>    -2.9600     0.0000    18.0000 </r>
       <r>    -2.9500     0.0000    18.0000 </r>
       <r>    -2.9400     0.0000    18.0000 </r>
       <r>    -2.9300     0.0000    18.0000 </r>
       <r>    -2.9200     0.0000    18.0000 </r>
       <r>    -2.9100     0.0000    18.0000 </r>
       <r>    -2.9000     0.0000    18.0000 </r>
       <r>    -2.8900     0.0000    18.0000 </r>
       <r>    -2.8800     0.0000    18.0000 </r>
       <r>    -2.8700     0.0000    18.0000 </r>
       <r>    -2.8600     0.0000    18.0000 </r>
       <r>    -2.8500     0.0000    18.0000 </r>
       <r>    -2.8400     0.0000    18.0000 </r>
       <r>    -2.8300     0.0000    18.0000 </r>
       <r>    -2.8200     0.0000    18.0000 </r>
       <r>    -2.8100     0.0000    18.0000 </r>
       <r>    -2.8000     0.0000    18.0000 </r>
       <r>    -2.7900     0.0000    18.0000 </r>
       <r>    -2.7800     0.0000    18.0000 </r>
       <r>    -2.7700     0.0000    18.0000 </r>
       <r>    -2.7600     0.0000    18.0000 </r>
       <r>    -2.7500     0.0000    18.0000 </r>
       <r>    -2.7400     0.0000    18.0000 </r>
       <r>    -2.7300     0.0000    18.0000 </r>
       <r>    -2.7200     0.0000    18.0000 </r>
       <r>    -2.7100     0.0000    18.0000 </r>
       <r>    -2.7000     0.0000    18.0000 </r>
       <r>    -2.6900     0.0000    18.0000 </r>
       <r>    -2.6800     0.0000    18.0000 </r>
       <r>    -2.6700     0.0000    18.0000 </r>
       <r>    -2.6600     0.0000    18.0000 </r>
       <r>    -2.6500     0.0000    18.0000 </r>
       <r>    -2.6400     0.0000    18.0000 </r>
       <r>    -2.6300     0.0000    18.0000 </r>
       <r>    -2.6200     0.0000    18.0000 </r>
       <r>    -2.6100     0.0000    18.0000 </r>
       <r>    -2.6000     0.0000    18.0000 </r>
[...]
        <r>  0.0072  0.0713  0.0134  0.0405  0.0000  0.0000  0.0000  0.0000  0.0000 </r>
        <r>  0.0072  0.0713  0.0134  0.0405  0.0000  0.0000  0.0000  0.0000  0.0000 </r>
       </set>
       <set comment="band 11">
        <r>  0.0059  0.0061  0.0000  0.0055  0.2851  0.0000  0.0991  0.0000  0.1012 </r>
        <r>  0.0007  0.0397  0.0049  0.0956  0.0000  0.0000  0.0000  0.0000  0.0000 </r>
        <r>  0.0007  0.0397  0.0049  0.0956  0.0000  0.0000  0.0000  0.0000  0.0000 </r>
       </set>
       <set comment="band 12">
        <r>  0.0000  0.0000  0.0002  0.0000  0.0000  0.2432  0.0000  0.3035  0.0000 </r>
        <r>  0.0257  0.0395  0.0135  0.0145  0.0000  0.0000  0.0000  0.0000  0.0000 </r>
        <r>  0.0257  0.0395  0.0135  0.0145  0.0000  0.0000  0.0000  0.0000  0.0000 </r>
       </set>
       <set comment="band 13">
        <r>  0.0000  0.0000  0.0027  0.0000  0.0000  0.2525  0.0000  0.1916  0.0000 </r>
        <r>  0.0025  0.0406  0.0086  0.1196  0.0000  0.0000  0.0000  0.0000  0.0000 </r>
        <r>  0.0025  0.0406  0.0086  0.1196  0.0000  0.0000  0.0000  0.0000  0.0000 </r>
       </set>
       <set comment="band 14">
        <r>  0.0072  0.0036  0.0000  0.0017  0.0013  0.0003  0.0199  0.0001  0.0033 </r>
        <r>  0.0080  0.0061  0.0113  0.0023  0.0000  0.0000  0.0000  0.0000  0.0000 </r>
        <r>  0.0054  0.0042  0.0009  0.0014  0.0000  0.0000  0.0000  0.0000  0.0000 </r>
       </set>
      </set>
      <set comment="kpoint 7">
       <set comment="band 1">
        <r>  0.0576  0.0184  0.0000  0.0166  0.0142  0.0000  0.0008  0.0000  0.0116 </r>
        <r>  0.3024  0.0013  0.0053  0.0010  0.0000  0.0000  0.0000  0.0000  0.0000 </r>
        <r>  0.3024  0.0013  0.0053  0.0010  0.0000  0.0000  0.0000  0.0000  0.0000 </r>
       </set>
       <set comment="band 2">
        <r>  0.0000  0.0000  0.0239  0.0000  0.0000  0.0400  0.0000  0.0372  0.0000 </r>
        <r>  0.3250  0.0007  0.0018  0.0006  0.0000  0.0000  0.0000  0.0000  0.0000 </r>
        <r>  0.3250  0.0007  0.0018  0.0006  0.0000  0.0000  0.0000  0.0000  0.0000 </r>
       </set>
       <set comment="band 3">
        <r>  0.0219  0.0058  0.0000  0.0251  0.1216  0.0000  0.0657  0.0000  0.1287 </r>
        <r>  0.0017  0.0523  0.0478  0.0482  0.0000  0.0000  0.0000  0.0000  0.0000 </r>
        <r>  0.0017  0.0523  0.0478  0.0482  0.0000  0.0000  0.0000  0.0000  0.0000 </r>
       </set>
       <set comment="band 4">
        <r>  0.0000  0.0000  0.0208  0.0000  0.0000  0.0062  0.0000  0.2847  0.0000 </r>
        <r>  0.0062  0.0662  0.0150  0.0979  0.0000  0.0000  0.0000  0.0000  0.0000 </r>
        <r>  0.0062  0.0662  0.0150  0.0979  0.0000  0.0000  0.0000  0.0000  0.0000 </r>
       </set>
       <set comment="band 5">
        <r>  0.1216  0.0191  0.0000  0.0235  0.0287  0.0000  0.0522  0.0000  0.0057 </r>
        <r>  0.0328  0.0238  0.1106  0.0311  0.0000  0.0000  0.0000  0.0000  0.0000 </r>
        <r>  0.0328  0.0238  0.1106  0.0311  0.0000  0.0000  0.0000  0.0000  0.0000 </r>
       </set>
       <set comment="band 6">
        <r>  0.0000  0.0000  0.0056  0.0000  0.0000  0.3934  0.0000  0.0047  0.0000 </r>
        <r>  0.0029  0.0869  0.0506  0.0342  0.0000  0.0000  0.0000  0.0000  0.0000 </r>
        <r>  0.0029  0.0869  0.0506  0.0342  0.0000  0.0000  0.0000  0.0000  0.0000 </r>
       </set>
       <set comment="band 7">
        <r>  0.0135  0.0434  0.0000  0.0225  0.0265  0.0000  0.1134  0.0000  0.1179 </r>
        <r>  0.0016  0.0793  0.0035  0.0967  0.0000  0.0000  0.0000  0.0000  0.0000 </r>
        <r>  0.0016  0.0794  0.0035  0.0967  0.0000  0.0000  0.0000  0.0000  0.0000 </r>
       </set>
       <set comment="band 8">
        <r>  0.0000  0.0000  0.0647  0.0000  0.0000  0.0064  0.0000  0.0673  0.0000 </r>
        <r>  0.0087  0.0383  0.1533  0.0651  0.0000  0.0000  0.0000  0.0000  0.0000 </r>
        <r>  0.0087  0.0383  0.1533  0.0651  0.0000  0.0000  0.0000  0.0000  0.0000 </r>
       </set>
       <set comment="band 9">
        <r>  0.0025  0.0077  0.0000  0.0016  0.2466  0.0000  0.2341  0.0000  0.1593 </r>
        <r>  0.0043  0.0375  0.0216  0.0219  0.0000  0.0000  0.0000  0.0000  0.0000 </r>
        <r>  0.0043  0.0375  0.0216  0.0219  0.0000  0.0000  0.0000  0.0000  0.0000 </r>
       </set>
       <set comment="band 10">
        <r>  0.0080  0.0088  0.0000  0.0051  0.1226  0.0000  0.0882  0.0000  0.3459 </r>
        <r>  0.0034  0.0445  0.0233  0.0137  0.0000  0.0000  0.0000  0.0000  0.0000 </r>
        <r>  0.0034  0.0445  0.0233  0.0137  0.0000  0.0000  0.0000  0.0000  0.0000 </r>
       </set>
       <set comment="band 11">
        <r>  0.0114  0.0028  0.0000  0.0006  0.3142  0.0000  0.3113  0.0000  0.0886 </r>
        <r>  0.0004  0.0205  0.0071  0.0398  0.0000  0.0000  0.0000  0.0000  0.0000 </r>
        <r>  0.0004  0.0205  0.0071  0.0398  0.0000  0.0000  0.0000  0.0000  0.0000 </r>
       </set>
       <set comment="band 12">
        <r>  0.0000  0.0000  0.0065  0.0000  0.0000  0.1057  0.0000  0.4327  0.0000 </r>
        <r>  0.0211  0.0366  0.0268  0.0058  0.0000  0.0000  0.0000  0.0000  0.0000 </r>
        <r>  0.0211  0.0366  0.0268  0.0057  0.0000  0.0000  0.0000  0.0000  0.0000 </r>
       </set>
       <set comment="band 13">
        <r>  0.0000  0.0000  0.0026  0.0000  0.0000  0.3984  0.0000  0.0885  0.0000 </r>
        <r>  0.0083  0.0430  0.0288  0.0702  0.0000  0.0000  0.0000  0.0000  0.0000 </r>
        <r>  0.0083  0.0430  0.0288  0.0702  0.0000  0.0000  0.0000  0.0000  0.0000 </r>
       </set>
       <set comment="band 14">
        <r>  0.0020  0.0109  0.0000  0.0161  0.0051  0.0000  0.0145  0.0000  0.0090 </r>
        <r>  0.0091  0.0054  0.0066  0.0013  0.0000  0.0000  0.0000  0.0000  0.0000 </r>
        <r>  0.0089  0.0053  0.0058  0.0012  0.0000  0.0000  0.0000  0.0000  0.0000 </r>
       </set>
      </set>
      <set comment="kpoint 8">
       <set comment="band 1">
        <r>  0.0208  0.0185  0.0000  0.0307  0.0314  0.0000  0.0003  0.0000  0.0158 </r>
        <r>  0.3195  0.0004  0.0059  0.0003  0.0000  0.0000  0.0000  0.0000  0.0000 </r>
        <r>  0.3195  0.0004  0.0059  0.0003  0.0000  0.0000  0.0000  0.0000  0.0000 </r>
       </set>
       <set comment="band 2">
        <r>  0.0000  0.0000  0.0071  0.0000  0.0000  0.0407  0.0000  0.0721  0.0000 </r>
        <r>  0.3310  0.0003  0.0027  0.0003  0.0000  0.0000  0.0000  0.0000  0.0000 </r>
        <r>  0.3310  0.0003  0.0027  0.0003  0.0000  0.0000  0.0000  0.0000  0.0000 </r>
       </set>
       <set comment="band 3">
        <r>  0.1026  0.0024  0.0000  0.0266  0.0645  0.0000  0.0342  0.0000  0.0433 </r>
        <r>  0.0043  0.0508  0.0087  0.1020  0.0000  0.0000  0.0000  0.0000  0.0000 </r>
        <r>  0.0043  0.0508  0.0087  0.1020  0.0000  0.0000  0.0000  0.0000  0.0000 </r>
       </set>
       <set comment="band 4">
        <r>  0.0000  0.0000  0.0350  0.0000  0.0000  0.0692  0.0000  0.1796  0.0000 </r>
        <r>  0.0071  0.0573  0.0054  0.1112  0.0000  0.0000  0.0000  0.0000  0.0000 </r>
        <r>  0.0071  0.0573  0.0054  0.1112  0.0000  0.0000  0.0000  0.0000  0.0000 </r>
       </set>
       <set comment="band 5">
        <r>  0.0162  0.0240  0.0000  0.0179  0.1402  0.0000  0.0903  0.0000  0.0527 </r>
        <r>  0.0206  0.0058  0.1295  0.0199  0.0000  0.0000  0.0000  0.0000  0.0000 </r>
        <r>  0.0206  0.0058  0.1295  0.0199  0.0000  0.0000  0.0000  0.0000  0.0000 </r>
       </set>
       <set comment="band 6">
        <r>  0.0000  0.0000  0.0256  0.0000  0.0000  0.3185  0.0000  0.0260  0.0000 </r>
        <r>  0.0020  0.1085  0.0279  0.0475  0.0000  0.0000  0.0000  0.0000  0.0000 </r>
        <r>  0.0020  0.1085  0.0279  0.0475  0.0000  0.0000  0.0000  0.0000  0.0000 </r>
       </set>
       <set comment="band 7">
        <r>  0.0233  0.0415  0.0000  0.0489  0.0014  0.0000  0.0710  0.0000  0.0230 </r>
        <r>  0.0063  0.1215  0.0320  0.0561  0.0000  0.0000  0.0000  0.0000  0.0000 </r>
        <r>  0.0063  0.1216  0.0321  0.0561  0.0000  0.0000  0.0000  0.0000  0.0000 </r>
       </set>
       <set comment="band 8">
        <r>  0.0000  0.0000  0.0363  0.0000  0.0000  0.0160  0.0000  0.1501  0.0000 </r>
        <r>  0.0118  0.0172  0.1757  0.0390  0.0000  0.0000  0.0000  0.0000  0.0000 </r>
        <r>  0.0118  0.0171  0.1757  0.0390  0.0000  0.0000  0.0000  0.0000  0.0000 </r>
       </set>
       <set comment="band 9">
        <r>  0.0034  0.0197  0.0000  0.0198  0.1840  0.0000  0.1603  0.0000  0.1971 </r>
        <r>  0.0008  0.0479  0.0257  0.0262  0.0000  0.0000  0.0000  0.0000  0.0000 </r>
        <r>  0.0008  0.0479  0.0257  0.0262  0.0000  0.0000  0.0000  0.0000  0.0000 </r>
       </set>
       <set comment="band 10">
        <r>  0.0051  0.0091  0.0000  0.0018  0.0649  0.0000  0.3342  0.0000  0.3775 </r>
        <r>  0.0002  0.0266  0.0149  0.0068  0.0000  0.0000  0.0000  0.0000  0.0000 </r>
        <r>  0.0002  0.0266  0.0149  0.0068  0.0000  0.0000  0.0000  0.0000  0.0000 </r>
       </set>
       <set comment="band 11">
        <r>  0.0154  0.0057  0.0000  0.0107  0.3789  0.0000  0.2184  0.0000  0.1807 </r>
        <r>  0.0021  0.0014  0.0171  0.0181  0.0000  0.0000  0.0000  0.0000  0.0000 </r>
        <r>  0.0021  0.0014  0.0171  0.0181  0.0000  0.0000  0.0000  0.0000  0.0000 </r>
       </set>
       <set comment="band 12">
        <r>  0.0000  0.0000  0.0063  0.0000  0.0000  0.1640  0.0000  0.3325  0.0000 </r>
        <r>  0.0091  0.0683  0.0151  0.0162  0.0000  0.0000  0.0000  0.0000  0.0000 </r>
        <r>  0.0091  0.0683  0.0151  0.0162  0.0000  0.0000  0.0000  0.0000  0.0000 </r>
       </set>
       <set comment="band 13">
        <r>  0.0000  0.0000  0.0004  0.0000  0.0000  0.3332  0.0000  0.1444  0.0000 </r>
        <r>  0.0189  0.0144  0.0665  0.0291  0.0000  0.0000  0.0000  0.0000  0.0000 </r>
        <r>  0.0189  0.0144  0.0665  0.0291  0.0000  0.0000  0.0000  0.0000  0.0000 </r>
       </set>
       <set comment="band 14">
        <r>  0.1877  0.0089  0.0000  0.0533  0.0404  0.0000  0.0061  0.0000  0.0387 </r>
        <r>  0.0001  0.0013  0.0115  0.0051  0.0000  0.0000  0.0000  0.0000  0.0000 </r>
        <r>  0.0001  0.0013  0.0115  0.0051  0.0000  0.0000  0.0000  0.0000  0.0000 </r>
       </set>
      </set>
      <set comment="kpoint 9">
       <set comment="band 1">
        <r>  0.0218  0.0321  0.0000  0.0178  0.0177  0.0000  0.0004  0.0000  0.0266 </r>
        <r>  0.3183  0.0009  0.0058  0.0003  0.0000  0.0000  0.0000  0.0000  0.0000 </r>
        <r>  0.3183  0.0009  0.0058  0.0003  0.0000  0.0000  0.0000  0.0000  0.0000 </r>
       </set>
       <set comment="band 2">
        <r>  0.0000  0.0000  0.0084  0.0000  0.0000  0.0705  0.0000  0.0376  0.0000 </r>
        <r>  0.3319  0.0005  0.0027  0.0002  0.0000  0.0000  0.0000  0.0000  0.0000 </r>
        <r>  0.3319  0.0005  0.0027  0.0002  0.0000  0.0000  0.0000  0.0000  0.0000 </r>
       </set>
       <set comment="band 3">
        <r>  0.0650  0.0098  0.0000  0.0293  0.0359  0.0000  0.0616  0.0000  0.1071 </r>
        <r>  0.0004  0.1066  0.0170  0.0360  0.0000  0.0000  0.0000  0.0000  0.0000 </r>
        <r>  0.0004  0.1067  0.0171  0.0360  0.0000  0.0000  0.0000  0.0000  0.0000 </r>
       </set>
       <set comment="band 4">
        <r>  0.0000  0.0000  0.0084  0.0000  0.0000  0.1284  0.0000  0.2208  0.0000 </r>
        <r>  0.0041  0.0958  0.0001  0.0666  0.0000  0.0000  0.0000  0.0000  0.0000 </r>
        <r>  0.0041  0.0958  0.0001  0.0666  0.0000  0.0000  0.0000  0.0000  0.0000 </r>
       </set>
       <set comment="band 5">
        <r>  0.0785  0.0205  0.0000  0.0103  0.0692  0.0000  0.0001  0.0000  0.0673 </r>
        <r>  0.0340  0.0203  0.1496  0.0150  0.0000  0.0000  0.0000  0.0000  0.0000 </r>
        <r>  0.0340  0.0203  0.1496  0.0150  0.0000  0.0000  0.0000  0.0000  0.0000 </r>
       </set>
       <set comment="band 6">
        <r>  0.0000  0.0000  0.0470  0.0000  0.0000  0.1651  0.0000  0.0582  0.0000 </r>
        <r>  0.0039  0.0671  0.0535  0.0781  0.0000  0.0000  0.0000  0.0000  0.0000 </r>
        <r>  0.0039  0.0671  0.0535  0.0781  0.0000  0.0000  0.0000  0.0000  0.0000 </r>
       </set>
       <set comment="band 7">
        <r>  0.0102  0.0636  0.0000  0.0362  0.0089  0.0000  0.1207  0.0000  0.0185 </r>
        <r>  0.0005  0.0419  0.0089  0.1233  0.0000  0.0000  0.0000  0.0000  0.0000 </r>
        <r>  0.0005  0.0419  0.0089  0.1233  0.0000  0.0000  0.0000  0.0000  0.0000 </r>
       </set>
       <set comment="band 8">
        <r>  0.0000  0.0000  0.0523  0.0000  0.0000  0.0592  0.0000  0.0753  0.0000 </r>
        <r>  0.0130  0.0383  0.1560  0.0459  0.0000  0.0000  0.0000  0.0000  0.0000 </r>
        <r>  0.0130  0.0383  0.1560  0.0459  0.0000  0.0000  0.0000  0.0000  0.0000 </r>
       </set>
       <set comment="band 9">
        <r>  0.0074  0.0001  0.0000  0.0000  0.2536  0.0000  0.1474  0.0000  0.2690 </r>
        <r>  0.0010  0.0277  0.0016  0.0449  0.0000  0.0000  0.0000  0.0000  0.0000 </r>
        <r>  0.0010  0.0277  0.0016  0.0449  0.0000  0.0000  0.0000  0.0000  0.0000 </r>
       </set>
       <set comment="band 10">
        <r>  0.0074  0.0139  0.0000  0.0052  0.0463  0.0000  0.5213  0.0000  0.1099 </r>
        <r>  0.0006  0.0275  0.0274  0.0128  0.0000  0.0000  0.0000  0.0000  0.0000 </r>
        <r>  0.0006  0.0275  0.0274  0.0128  0.0000  0.0000  0.0000  0.0000  0.0000 </r>
       </set>
       <set comment="band 11">
        <r>  0.0246  0.0117  0.0000  0.0045  0.4757  0.0000  0.0544  0.0000  0.2306 </r>
        <r>  0.0023  0.0029  0.0261  0.0081  0.0000  0.0000  0.0000  0.0000  0.0000 </r>
        <r>  0.0023  0.0029  0.0261  0.0081  0.0000  0.0000  0.0000  0.0000  0.0000 </r>
       </set>
       <set comment="band 12">
        <r>  0.0000  0.0000  0.0020  0.0000  0.0000  0.1394  0.0000  0.3940  0.0000 </r>
        <r>  0.0077  0.0257  0.0088  0.0394  0.0000  0.0000  0.0000  0.0000  0.0000 </r>
        <r>  0.0077  0.0257  0.0088  0.0394  0.0000  0.0000  0.0000  0.0000  0.0000 </r>
       </set>
       <set comment="band 13">
        <r>  0.0000  0.0000  0.0016  0.0000  0.0000  0.3945  0.0000  0.1490  0.0000 </r>
        <r>  0.0208  0.0094  0.0755  0.0248  0.0000  0.0000  0.0000  0.0000  0.0000 </r>
        <r>  0.0208  0.0094  0.0755  0.0248  0.0000  0.0000  0.0000  0.0000  0.0000 </r>
       </set>
       <set comment="band 14">
        <r>  0.1320  0.0178  0.0000  0.0490  0.0233  0.0000  0.0105  0.0000  0.0695 </r>
        <r>  0.0001  0.0023  0.0278  0.0034  0.0000  0.0000  0.0000  0.0000  0.0000 </r>
        <r>  0.0001  0.0023  0.0278  0.0034  0.0000  0.0000  0.0000  0.0000  0.0000 </r>
       </set>
      </set>
      <set comment="kpoint 10">
       <set comment="band 1">
        <r>  0.0037  0.0239  0.0000  0.0333  0.0320  0.0000  0.0001  0.0000  0.0232 </r>
        <r>  0.3268  0.0001  0.0062  0.0000  0.0000  0.0000  0.0000  0.0000  0.0000 </r>
        <r>  0.3268  0.0001  0.0062  0.0000  0.0000  0.0000  0.0000  0.0000  0.0000 </r>
       </set>
       <set comment="band 2">
        <r>  0.0000  0.0000  0.0012  0.0000  0.0000  0.0490  0.0000  0.0725  0.0000 </r>
        <r>  0.3361  0.0001  0.0031  0.0001  0.0000  0.0000  0.0000  0.0000  0.0000 </r>
        <r>  0.3361  0.0001  0.0031  0.0001  0.0000  0.0000  0.0000  0.0000  0.0000 </r>
       </set>
       <set comment="band 3">
        <r>  0.0000  0.0000  0.0052  0.0000  0.0000  0.1910  0.0000  0.1716  0.0000 </r>
        <r>  0.0014  0.0682  0.0002  0.0892  0.0000  0.0000  0.0000  0.0000  0.0000 </r>
        <r>  0.0014  0.0682  0.0002  0.0892  0.0000  0.0000  0.0000  0.0000  0.0000 </r>
       </set>
       <set comment="band 4">
        <r>  0.1158  0.0140  0.0000  0.0182  0.0234  0.0000  0.0697  0.0000  0.0120 </r>
        <r>  0.0010  0.0456  0.0008  0.1277  0.0000  0.0000  0.0000  0.0000  0.0000 </r>
        <r>  0.0010  0.0456  0.0008  0.1277  0.0000  0.0000  0.0000  0.0000  0.0000 </r>
       </set>
       <set comment="band 5">
        <r>  0.0098  0.0425  0.0000  0.0147  0.1350  0.0000  0.0570  0.0000  0.0583 </r>
        <r>  0.0128  0.0514  0.0919  0.0171  0.0000  0.0000  0.0000  0.0000  0.0000 </r>
        <r>  0.0128  0.0514  0.0919  0.0171  0.0000  0.0000  0.0000  0.0000  0.0000 </r>
       </set>
       <set comment="band 6">
        <r>  0.0254  0.0245  0.0000  0.0604  0.0232  0.0000  0.0166  0.0000  0.0499 </r>
        <r>  0.0173  0.0806  0.0842  0.0298  0.0000  0.0000  0.0000  0.0000  0.0000 </r>
        <r>  0.0173  0.0806  0.0842  0.0298  0.0000  0.0000  0.0000  0.0000  0.0000 </r>
       </set>
       <set comment="band 7">
        <r>  0.0000  0.0000  0.0880  0.0000  0.0000  0.0673  0.0000  0.0295  0.0000 </r>
        <r>  0.0021  0.1084  0.0206  0.0916  0.0000  0.0000  0.0000  0.0000  0.0000 </r>
        <r>  0.0021  0.1084  0.0206  0.0916  0.0000  0.0000  0.0000  0.0000  0.0000 </r>
       </set>
       <set comment="band 8">
        <r>  0.0000  0.0000  0.0202  0.0000  0.0000  0.0930  0.0000  0.1434  0.0000 </r>
        <r>  0.0174  0.0143  0.1843  0.0176  0.0000  0.0000  0.0000  0.0000  0.0000 </r>
        <r>  0.0174  0.0143  0.1843  0.0176  0.0000  0.0000  0.0000  0.0000  0.0000 </r>
       </set>
       <set comment="band 9">
        <r>  0.0039  0.0023  0.0000  0.0065  0.3005  0.0000  0.0598  0.0000  0.3201 </r>
        <r>  0.0000  0.0395  0.0037  0.0253  0.0000  0.0000  0.0000  0.0000  0.0000 </r>
        <r>  0.0000  0.0395  0.0037  0.0253  0.0000  0.0000  0.0000  0.0000  0.0000 </r>
       </set>
       <set comment="band 10">
        <r>  0.0367  0.0018  0.0000  0.0007  0.0402  0.0000  0.7004  0.0000  0.0491 </r>
        <r>  0.0000  0.0133  0.0025  0.0204  0.0000  0.0000  0.0000  0.0000  0.0000 </r>
        <r>  0.0000  0.0133  0.0025  0.0204  0.0000  0.0000  0.0000  0.0000  0.0000 </r>
       </set>
       <set comment="band 11">
        <r>  0.0000  0.0000  0.0013  0.0000  0.0000  0.3129  0.0000  0.1960  0.0000 </r>
        <r>  0.0008  0.0487  0.0001  0.0299  0.0000  0.0000  0.0000  0.0000  0.0000 </r>
        <r>  0.0008  0.0487  0.0001  0.0299  0.0000  0.0000  0.0000  0.0000  0.0000 </r>
       </set>
       <set comment="band 12">
        <r>  0.0025  0.0104  0.0000  0.0214  0.2945  0.0000  0.0103  0.0000  0.3826 </r>
        <r>  0.0037  0.0009  0.0672  0.0012  0.0000  0.0000  0.0000  0.0000  0.0000 </r>
        <r>  0.0037  0.0009  0.0672  0.0012  0.0000  0.0000  0.0000  0.0000  0.0000 </r>
       </set>
       <set comment="band 13">
        <r>  0.0000  0.0000  0.0003  0.0000  0.0000  0.2358  0.0000  0.3392  0.0000 </r>
        <r>  0.0266  0.0010  0.0995  0.0019  0.0000  0.0000  0.0000  0.0000  0.0000 </r>
        <r>  0.0266  0.0010  0.0995  0.0019  0.0000  0.0000  0.0000  0.0000  0.0000 </r>
       </set>
       <set comment="band 14">
        <r>  0.1173  0.0534  0.0000  0.0641  0.0537  0.0000  0.0084  0.0000  0.0326 </r>
        <r>  0.0003  0.0020  0.0027  0.0043  0.0000  0.0000  0.0000  0.0000  0.0000 </r>
        <r>  0.0003  0.0020  0.0027  0.0043  0.0000  0.0000  0.0000  0.0000  0.0000 </r>
       </set>
      </set>
     </set>
    </set>
   </array>
  </projected>
 </calculation>
 <structure name="finalpos" >
  <crystal>
   <varray name="basis" >
    <v>       3.19031573       0.00000000       0.00000000 </v>
    <v>      -1.59515786       2.76289447       0.00000000 </v>
    <v>       0.00000000       0.00000000      30.87900430 </v>
   </varray>
   <i name="volume">    272.18315887 </i>
   <varray name="rec_basis" >
    <v>       0.31344860       0.18096963       0.00000000 </v>
    <v>       0.00000000       0.36193927       0.00000000 </v>
    <v>       0.00000000       0.00000000       0.03238446 </v>
   </varray>
  </crystal>
  <varray name="positions" >
   <v>       0.33333300       0.66666700       0.12046214 </v>
   <v>       0.66666700       0.33333300       0.06978420 </v>
   <v>       0.66666600       0.33333300       0.17114009 </v>
  </varray>
 </structure>
</modeling>
