unknown system                          
   1.00000000000000     
     3.190316    0.000000    0.000000
    -1.595158    2.762894    0.000000
     0.000000    0.000000   24.879004
   Mo   S 
     1     2
Direct
  0.333333  0.666667  0.149514
  0.666667  0.333333  0.086614
  0.666666  0.333333  0.212413
 
   24   24  192
 0.34276     0.34771     0.36115     0.38458     0.42043     0.46815     0.52372     0.58229     0.63956     0.69186    
 0.73567     0.76584     0.77507     0.75935     0.72458     0.68278     0.63955     0.59035     0.53177     0.47116    
 0.42042     0.38451     0.36090     0.34702     0.34747     0.34793     0.36028     0.38515     0.42431     0.47836    
 0.54563     0.62227     0.70154     0.77481     0.83600     0.88305     0.91215     0.91416     0.88276     0.82486    
 0.75657     0.68844     0.62026     0.55031     0.48339     0.42727     0.38606     0.35980     0.36128     0.35324    
 0.36084     0.38557     0.42739     0.48494     0.55797     0.64608     0.74403     0.84085     0.92531     0.99142    
  1.0372      1.0591      1.0494      1.0029     0.92421     0.82871     0.73254     0.64339     0.56143     0.48761    
 0.42723     0.38514     0.38597     0.36660     0.36398     0.38380     0.42740     0.48882     0.56542     0.66015    
 0.77070     0.88563     0.99282      1.0836      1.1495      1.1841      1.1879      1.1624      1.1025      1.0052    
 0.88534     0.76670     0.66121     0.56686     0.48478     0.42351     0.42042     0.38996     0.37394     0.38076    
 0.42042     0.48509     0.56432     0.66272     0.78406     0.91445      1.0379      1.1507      1.2460      1.3034    
  1.3133      1.2904      1.2460      1.1685      1.0504     0.91318     0.78406     0.66780     0.56105     0.47489    
 0.46131     0.41952     0.39318     0.38196     0.40746     0.47062     0.55080     0.64633     0.77255     0.92043    
  1.0605      1.1855      1.3052      1.4019      1.4398      1.4184      1.3693      1.3013      1.1955      1.0549    
 0.91138     0.78076     0.65461     0.54001     0.50957     0.44961     0.41778     0.39256     0.39563     0.44815    
 0.52868     0.61686     0.73273     0.88930      1.0519      1.1887      1.3146      1.4406      1.5276      1.5384    
  1.4928      1.4244      1.3257      1.1843      1.0282     0.88817     0.75512     0.61933     0.56978     0.48064    
 0.44024     0.41044     0.39188     0.42230     0.50004     0.58669     0.68351     0.82619      1.0038      1.1626    
  1.2901      1.4177      1.5376      1.5974      1.5828      1.5279      1.4435      1.3093      1.1399     0.98321    
 0.84791     0.70671     0.63955     0.51869     0.45762     0.42682     0.39687     0.39843     0.46065     0.55145    
 0.63956     0.75449     0.92254      1.1023      1.2460      1.3682      1.4914      1.5821      1.6030      1.5724    
  1.5150      1.4101      1.2460      1.0700     0.92384     0.78710     0.70463     0.56529     0.47489     0.43520    
 0.40460     0.38349     0.41469     0.49830     0.59003     0.68603     0.82531      1.0041      1.1695      1.3018    
  1.4240      1.5281      1.5730      1.5578      1.5179      1.4501      1.3203      1.1448     0.98241     0.84626    
 0.74972     0.61141     0.49796     0.43827     0.40759     0.37942     0.37937     0.43535     0.52316     0.61373    
 0.72606     0.88108      1.0496      1.1960      1.3259      1.4445      1.5165      1.5184      1.4803      1.4286    
  1.3384      1.1907      1.0247     0.88183     0.77128     0.64404     0.52459     0.44370     0.40375     0.37758    
 0.36305     0.38692     0.45257     0.53532     0.63091     0.75744     0.90813      1.0524      1.1826      1.3090    
  1.4111      1.4502      1.4273      1.3773      1.3073      1.1945      1.0458     0.89992     0.77507     0.65695    
 0.54479     0.45406     0.39860     0.36897     0.35317     0.35953     0.39859     0.46263     0.54324     0.64724    
 0.77508     0.90596      1.0245      1.1379      1.2460      1.3204      1.3368      1.3053      1.2460      1.1578    
  1.0369     0.90193     0.76478     0.65301     0.55064     0.46345     0.39859     0.35769     0.33770     0.33819    
 0.36092     0.40417     0.46588     0.54943     0.65594     0.77319     0.88352     0.98118      1.0702      1.1458    
  1.1911      1.1943      1.1577      1.0889     0.99386     0.88153     0.73864     0.63780     0.54319     0.46465    
 0.40260     0.35447     0.32408     0.31674     0.33012     0.35824     0.40112     0.46345     0.54621     0.64423    
 0.74823     0.84578     0.92551     0.98464      1.0268      1.0493      1.0408     0.99565     0.92272     0.83508    
 0.69557     0.61354     0.52870     0.45707     0.40356     0.35949     0.32356     0.30595     0.30951     0.32608    
 0.35316     0.39665     0.45658     0.52709     0.60864     0.70141     0.78918     0.85047     0.88422     0.90413    
 0.91011     0.88788     0.83576     0.76880     0.63956     0.57957     0.51064     0.44594     0.39862     0.36340    
 0.33173     0.30990     0.30572     0.31331     0.32715     0.35448     0.39859     0.44814     0.49802     0.56068    
 0.63956     0.71159     0.75493     0.77489     0.78406     0.77674     0.74365     0.69358     0.57781     0.53687    
 0.48805     0.43535     0.39298     0.36388     0.33942     0.31966     0.31292     0.31689     0.32260     0.33477    
 0.36481     0.40609     0.44121     0.47197     0.51598     0.57335     0.62272     0.65169     0.66629     0.66885    
 0.65194     0.61734     0.51756     0.49065     0.46060     0.42494     0.39195     0.36847     0.35008     0.33355    
 0.32557     0.32865     0.33321     0.33527     0.34701     0.37636     0.41067     0.43516     0.45448     0.48084    
 0.51264     0.53958     0.55816     0.56826     0.56450     0.54471     0.46430     0.44792     0.43189     0.41323    
 0.39434     0.38066     0.37094     0.36049     0.35205     0.35194     0.35694     0.35772     0.35537     0.36180    
 0.38188     0.40642     0.42557     0.43903     0.45062     0.46187     0.47320     0.48352     0.48740     0.47990    
 0.42043     0.41287     0.40680     0.40148     0.39685     0.39560     0.39811     0.40005     0.39862     0.39727    
 0.39964     0.40223     0.39860     0.38923     0.38245     0.38535     0.39687     0.40987     0.41784     0.41990    
 0.42042     0.42335     0.42702     0.42645     0.38593     0.38569     0.38756     0.39256     0.40024     0.41079    
 0.42496     0.44118     0.45479     0.46218     0.46468     0.46586     0.46518     0.45704     0.43830     0.41471    
 0.39718     0.39127     0.39259     0.39316     0.39016     0.38666     0.38560     0.38605     0.36103     0.36560    
 0.37385     0.38753     0.40668     0.42942     0.45456     0.48219     0.51052     0.53378     0.54627     0.54821    
 0.54467     0.53790     0.52322     0.49536     0.45750     0.42104     0.39570     0.38196     0.37382     0.36682    
 0.36133     0.35936     0.34676     0.35299     0.36517     0.38523     0.41451     0.45081     0.49022     0.53058    
 0.57112     0.60888     0.63737     0.65015     0.64624     0.63115     0.61098     0.58533     0.54874     0.50027    
 0.44918     0.40787     0.38096     0.36419     0.35282     0.34658     0.45985     0.46858     0.49328     0.53562    
 0.59798     0.67902     0.77293     0.87220     0.96935      1.0573      1.1292      1.1775      1.1929      1.1707    
  1.1175      1.0476     0.96932     0.88078     0.78151     0.68223     0.59798     0.53557     0.49303     0.46783    
 0.46832     0.46879     0.49161     0.53713     0.60659     0.69950     0.81239     0.93881      1.0686      1.1892    
  1.2905      1.3669      1.4118      1.4140      1.3666      1.2786      1.1698      1.0548     0.93673     0.81735    
 0.70477     0.60969     0.53811     0.49113     0.49341     0.47865     0.49297     0.53758     0.61146     0.71168    
 0.83603     0.98163      1.1400      1.2963      1.4346      1.5441      1.6186      1.6508      1.6315      1.5563    
  1.4334      1.2835      1.1279     0.97873     0.83962     0.71448     0.61129     0.53711     0.53709     0.50165    
 0.49889     0.53482     0.60980     0.71573     0.84751      1.0057      1.1852      1.3708      1.5460      1.6965    
  1.8074      1.8662      1.8703      1.8211      1.7165      1.5592      1.3705      1.1809      1.0068     0.84902    
 0.71148     0.60570     0.59798     0.54035     0.51470     0.53062     0.59798     0.70655     0.84264      1.0083    
  1.2051      1.4156      1.6198      1.8087      1.9681      2.0684      2.0929      2.0546      1.9681      1.8276    
  1.6330      1.4142      1.2051      1.0138     0.83924     0.69579     0.67182     0.59095     0.54393     0.53206    
 0.57820     0.68168     0.81785     0.98180      1.1871      1.4219      1.6528      1.8678      2.0701      2.2315    
  2.3043      2.2816      2.1969      2.0660      1.8783      1.6468      1.4123      1.1958     0.99062     0.80646    
 0.75799     0.64690     0.58295     0.54584     0.55950     0.64540     0.77829     0.93317      1.1281      1.3747    
  1.6346      1.8711      2.0940      2.3049      2.4504      2.4809      2.4136      2.2877      2.1057      1.8664    
  1.6095      1.3735      1.1518     0.93574     0.85897     0.70726     0.62345     0.57041     0.55072     0.60441    
 0.72783     0.87698      1.0496      1.2808      1.5576      1.8212      2.0541      2.2807      2.4800      2.5837    
  2.5681      2.4697      2.3080      2.0744      1.7972      1.5358      1.3038      1.0741     0.96932     0.77619    
 0.66105     0.59627     0.55347     0.56616     0.66419     0.81084     0.96932      1.1677      1.4317      1.7163    
  1.9681      2.1958      2.4120      2.5675      2.6109      2.5571      2.4371      2.2402      1.9681      1.6821    
  1.4331      1.2022      1.0707     0.85262     0.69905     0.61555     0.56143     0.53908     0.59382     0.72377    
 0.87871      1.0510      1.2791      1.5576      1.8285      2.0667      2.2875      2.4700      2.5578      2.5417    
  2.4592      2.3152      2.0863      1.8024      1.5346      1.3013      1.1441     0.92436     0.74156     0.62964    
 0.56606     0.52554     0.53621     0.62660     0.76826     0.92678      1.1190      1.3648      1.6317      1.8788    
  2.1062      2.3092      2.4386      2.4596      2.4002      2.2924      2.1195      1.8733      1.6053      1.3656    
  1.1833     0.97544     0.78423     0.64514     0.56432     0.51634     0.50097     0.54656     0.65464     0.79567    
 0.96155      1.1686      1.4076      1.6437      1.8647      2.0743      2.2413      2.3151      2.2908      2.2055    
  2.0725      1.8774      1.6367      1.3989      1.1929     0.99779     0.81495     0.66341     0.56118     0.50181    
 0.47536     0.49177     0.56118     0.67255     0.81334     0.98750      1.1929      1.4053      1.6051      1.7950    
  1.9681      2.0863      2.1175      2.0702      1.9681      1.8162      1.6182      1.4010      1.1764     0.99365    
 0.82438     0.67722     0.56276     0.48615     0.44728     0.44771     0.48942     0.56863     0.67981     0.82307    
 0.99671      1.1853      1.3674      1.5333      1.6823      1.8035      1.8737      1.8771      1.8161      1.7021    
  1.5468      1.3653      1.1323     0.96886     0.81330     0.67848     0.56752     0.48073     0.42528     0.40934    
 0.43155     0.48466     0.56599     0.67719     0.81640     0.97567      1.1426      1.3008      1.4348      1.5373    
  1.6080      1.6409      1.6228      1.5490      1.4319      1.2895      1.0611     0.92657     0.78863     0.66663    
 0.56795     0.48593     0.42201     0.38954     0.39328     0.42468     0.47934     0.56069     0.66603     0.78688    
 0.92147      1.0673      1.2043      1.3065      1.3694      1.4047      1.4110      1.3731      1.2910      1.1828    
 0.96935     0.86766     0.75500     0.64761     0.56119     0.49203     0.43324     0.39369     0.38348     0.39726    
 0.42848     0.48275     0.56118     0.64982     0.74163     0.84774     0.96932      1.0792      1.1516      1.1896    
  1.2051      1.1915      1.1397      1.0603     0.86755     0.79539     0.71293     0.62662     0.55299     0.49641    
 0.44903     0.41243     0.39685     0.40098     0.41547     0.44420     0.49747     0.56680     0.63272     0.69597    
 0.77336     0.86278     0.93929     0.98756      1.0122      1.0148     0.98776     0.93367     0.76651     0.71788    
 0.66412     0.60465     0.54955     0.50676     0.47214     0.44291     0.42682     0.42732     0.43477     0.44466    
 0.46893     0.51508     0.56927     0.61550     0.65777     0.70750     0.76119     0.80596     0.83622     0.85050    
 0.84283     0.81140     0.67499     0.64515     0.61457     0.58181     0.55054     0.52684     0.50931     0.49283    
 0.48018     0.47807     0.48328     0.48608     0.48742     0.49968     0.52809     0.56331     0.59496     0.62219    
 0.64795     0.67235     0.69402     0.71018     0.71423     0.70106     0.59798     0.58392     0.57132     0.56091    
 0.55347     0.55187     0.55597     0.56034     0.56119     0.56141     0.56446     0.56660     0.56118     0.54898    
 0.53943     0.54098     0.55347     0.56983     0.58302     0.59131     0.59798     0.60558     0.61108     0.60880    
 0.53705     0.53583     0.53800     0.54587     0.55963     0.57931     0.60470     0.63269     0.65685     0.67200    
 0.67853     0.67979     0.67519     0.65931     0.62969     0.59382     0.56486     0.55013     0.54589     0.54389    
 0.54055     0.53787     0.53763     0.53807     0.49315     0.50060     0.51461     0.53795     0.57119     0.61201    
 0.65783     0.70681     0.75487     0.79395     0.81649     0.82175     0.81481     0.79834     0.76833     0.72073    
 0.66091     0.60311     0.55956     0.53205     0.51457     0.50189     0.49348     0.49061     0.46756     0.47842    
 0.50014     0.53532     0.58560     0.64817     0.71742     0.78880     0.85882     0.92171     0.96840     0.99056    
 0.98641     0.96179     0.92390     0.87384     0.80801     0.72805     0.64644     0.57861     0.53083     0.49911    
 0.47819     0.46734     0.61635     0.63172     0.67585     0.74951     0.85371     0.98512      1.1353      1.2936    
  1.4486      1.5884      1.7018      1.7768      1.8013      1.7695      1.6892      1.5781      1.4485      1.3028    
  1.1445     0.98855     0.85374     0.74949     0.67559     0.63090     0.63143     0.63193     0.67197     0.75075    
 0.86743      1.0190      1.1991      1.3981      1.6016      1.7915      1.9517      2.0713      2.1392      2.1415    
  2.0710      1.9391      1.7709      1.5870      1.3960      1.2044      1.0246     0.87071     0.75180     0.67149    
 0.67598     0.65057     0.67553     0.75123     0.87424      1.0384      1.2385      1.4685      1.7159      1.9598    
  2.1772      2.3498      2.4652      2.5119      2.4790      2.3628      2.1760      1.9463      1.7030      1.4653    
  1.2422      1.0414     0.87405     0.75073     0.75108     0.69114     0.68821     0.74868     0.87081      1.0427    
  1.2555      1.5071      1.7886      2.0792      2.3540      2.5900      2.7632      2.8550      2.8593      2.7779    
  2.6112      2.3681      2.0788      1.7840      1.5082      1.2571      1.0382     0.86645     0.85374     0.75586    
 0.71595     0.74551     0.85372      1.0264      1.2454      1.5098      1.8182      2.1480      2.4704      2.7668    
  3.0121      3.1674      3.2102      3.1528      3.0122      2.7868      2.4844      2.1464      1.8182      1.5156    
  1.2418      1.0150     0.97750     0.83991     0.76279     0.75019     0.82638     0.98799      1.2049      1.4685    
  1.7905      2.1546      2.5185      2.8599      3.1709      3.4115      3.5249      3.5007      3.3747      3.1664    
  2.8712      2.5122      2.1444      1.7998      1.4780      1.1929      1.1195     0.93512     0.82490     0.77087    
 0.79997     0.93355      1.1411      1.3923      1.7032      2.0832      2.4860      2.8634      3.2135      3.5265    
  3.7370      3.7884      3.6978      3.5081      3.2260      2.8585      2.4594      2.0820      1.7284      1.3950    
  1.2796      1.0387     0.89290     0.80670     0.78572     0.87258      1.0606      1.2989      1.5816      1.9435    
  2.3664      2.7800      3.1538      3.5006      3.7878      3.9368      3.9204      3.7770      3.5297      3.1754    
  2.7545      2.3433      1.9679      1.6075      1.4485      1.1525     0.96079     0.84774     0.78696     0.81568    
 0.96408      1.1893      1.4485      1.7687      2.1743      2.6111      3.0122      3.3735      3.6962      3.9197    
  3.9855      3.9086      3.7228      3.4207      3.0122      2.5747      2.1756      1.8054      1.6027      1.2723    
  1.0301     0.88501     0.79794     0.77420     0.86194      1.0563      1.2999      1.5816      1.9397      2.3642    
  2.7858      3.1656      3.5070      3.7769      3.9094      3.8921      3.7654      3.5364      3.1865      2.7580    
  2.3397      1.9633      1.7175      1.3817      1.1024     0.91851     0.80958     0.75224     0.77788     0.91533    
  1.1308      1.3842      1.6908      2.0690      2.4792      2.8684      3.2244      3.5301      3.7245      3.7661    
  3.6837      3.5122      3.2385      2.8625      2.4510      2.0699      1.7829      1.4603      1.1703     0.95288    
 0.81744     0.74042     0.72405     0.79857     0.96309      1.1826      1.4456      1.7672      2.1346      2.5044    
  2.8534      3.1736      3.4219      3.5373      3.5114      3.3839      3.1718      2.8668      2.4969      2.1254    
  1.8013      1.4970      1.2179     0.98658     0.82439     0.72732     0.68745     0.71657     0.82439     0.99639    
  1.2163      1.4860      1.8013      2.1322      2.4508      2.7501      3.0122      3.1881      3.2385      3.1709    
  3.0121      2.7727      2.4648      2.1277      1.7755      1.4926      1.2332      1.0092     0.83388     0.71482    
 0.65393     0.65428     0.71814     0.84010      1.0120      1.2318      1.4958      1.7851      2.0719      2.3383    
  2.5749      2.7613      2.8663      2.8697      2.7746      2.5960      2.3527      2.0695      1.7049      1.4533    
  1.2162      1.0106     0.84181     0.71201     0.62994     0.60509     0.63644     0.71611     0.84023      1.0092    
  1.2194      1.4606      1.7159      1.9628      2.1774      2.3448      2.4579      2.5059      2.4735      2.3572    
  2.1744      1.9507      1.5924      1.3840      1.1751     0.99005     0.83933     0.71743     0.62648     0.58053    
 0.58446     0.62930     0.71055     0.83170     0.98931      1.1731      1.3787      1.5991      1.8076      1.9706    
  2.0776      2.1364      2.1429      2.0815      1.9543      1.7849      1.4486      1.2882      1.1167     0.95560    
 0.82438     0.72090     0.63823     0.58490     0.57039     0.58864     0.63329     0.71125     0.82439     0.95781    
  1.1025      1.2671      1.4485      1.6130      1.7282      1.7934      1.8182      1.7952      1.7155      1.5930    
  1.2888      1.1729      1.0448     0.91540     0.80547     0.72155     0.65573     0.60835     0.58822     0.59251    
 0.61151     0.65071     0.72279     0.82002     0.92175      1.0268      1.1496      1.2837      1.3987      1.4747    
  1.5140      1.5167      1.4749      1.3928      1.1286      1.0500     0.96399     0.87343     0.79206     0.73026    
 0.68411     0.64931     0.63152     0.63204     0.63980     0.65108     0.68074     0.73908     0.81293     0.88499    
 0.95736      1.0390      1.1228      1.1923      1.2387      1.2587      1.2456      1.1981     0.98087     0.93331    
 0.88340     0.83231     0.78635     0.75357     0.73292     0.71778     0.70850     0.70921     0.71466     0.71463    
 0.71203     0.72274     0.75489     0.79991     0.84637     0.89155     0.93620     0.97799      1.0132      1.0368    
  1.0411      1.0206     0.85371     0.83244     0.81254     0.79656     0.78697     0.78775     0.79878     0.81314    
 0.82438     0.83252     0.83867     0.83798     0.82439     0.80116     0.78125     0.77614     0.78696     0.80609    
 0.82498     0.84028     0.85372     0.86638     0.87384     0.86975     0.75104     0.75105     0.75651     0.77090    
 0.79524     0.82973     0.87350     0.92175     0.96528     0.99567      1.0106      1.0120     0.99915     0.96797    
 0.91858     0.86189     0.81432     0.78515     0.77094     0.76276     0.75606     0.75194     0.75130     0.75175    
 0.67571     0.69005     0.71588     0.75644     0.81240     0.88075     0.95742      1.0384      1.1166      1.1806    
  1.2195      1.2304      1.2178      1.1853      1.1309      1.0531     0.96066     0.87127     0.80002     0.75015    
 0.71581     0.69140     0.67606     0.67091     0.63062     0.65036     0.68955     0.75048     0.83419     0.93647    
  1.0495      1.1660      1.2789      1.3789      1.4528      1.4893      1.4849      1.4458      1.3812      1.2949    
  1.1864      1.0608     0.93461     0.82676     0.74575     0.68845     0.65007     0.63035     0.83299     0.85814    
 0.93065      1.0493      1.2127      1.4150      1.6453      1.8895      2.1313      2.3519      2.5314      2.6500    
  2.6896      2.6421      2.5179      2.3408      2.1313      1.8994      1.6551      1.4186      1.2127      1.0493    
 0.93038     0.85726     0.85783     0.85837     0.92264      1.0480      1.2307      1.4650      1.7420      2.0491    
  2.3668      2.6686      2.9275      3.1211      3.2291      3.2315      3.1208      2.9140      2.6467      2.3513    
  2.0470      1.7477      1.4709      1.2342      1.0491     0.92211     0.93080     0.89087     0.93030      1.0485    
  1.2391      1.4931      1.8029      2.1603      2.5484      2.9376      3.2916      3.5769      3.7670      3.8403    
  3.7816      3.5907      3.2904      2.9232      2.5347      2.1569      1.8068      1.4962      1.2389      1.0479    
  1.0510     0.95830     0.95515      1.0484      1.2343      1.4976      1.8275      2.2207      2.6655      3.1326    
  3.5833      3.9759      4.2672      4.4225      4.4271      4.2829      3.9987      3.5983      3.1321      2.6604    
  2.2218      1.8292      1.4928      1.2296      1.2127      1.0614      1.0028      1.0503      1.2127      1.4729    
  1.8101      2.2235      2.7107      3.2424      3.7759      4.2729      4.6850      4.9504      5.0309      4.9348    
  4.6851      4.2943      3.7908      3.2407      2.7107      2.2298      1.8064      1.4607      1.4069      1.1931    
  1.0767      1.0633      1.1787      1.4181      1.7482      2.1602      2.6673      3.2493      3.8512      4.4308    
  4.9556      5.3581      5.5574      5.5315      5.3187      4.9508      4.4428      3.8444      3.2385      2.6773    
  2.1704      1.7353      1.6284      1.3433      1.1721      1.0963      1.1455      1.3417      1.6516      2.0430    
  2.5349      3.1367      3.7925      4.4345      5.0365      5.5600      5.9100      6.0087      5.8682      5.5404    
  5.0498      4.4293      3.7641      3.1355      2.5618      2.0458      1.8746      1.5073      1.2781      1.1489    
  1.1264      1.2563      1.5307      1.8953      2.3457      2.9203      3.5965      4.2871      4.9373      5.5324    
  6.0084      6.2585      6.2410      5.9969      5.5635      4.9603      4.2598      3.5718      2.9463      2.3732    
  2.1313      1.6845      1.3871      1.2104      1.1268      1.1762      1.3905      1.7237      2.1313      2.6444    
  3.2886      3.9985      4.6851      5.3174      5.8664      6.2402      6.3578      6.2285      5.8949      5.3678    
  4.6851      3.9597      3.2900      2.6834      2.3671      1.8667      1.4986      1.2708      1.1411      1.1158    
  1.2463      1.5266      1.8960      2.3445      2.9146      3.5923      4.2914      4.9484      5.5383      5.9965    
  6.2292      6.2108      5.9841      5.5696      4.9707      4.2617      3.5661      2.9397      2.5481      2.0311    
  1.6113      1.3284      1.1597      1.0809      1.1259      1.3251      1.6416      2.0337      2.5195      3.1186    
  3.7819      4.4369      5.0460      5.5629      5.8967      5.9853      5.8531      5.5439      5.0611      4.4305    
  3.7518      3.1196      2.6565      2.1507      1.7132      1.3855      1.1765      1.0616      1.0441      1.1564    
  1.3965      1.7264      2.1350      2.6397      3.2242      3.8323      4.4208      4.9570      5.3690      5.5715    
  5.5440      5.3285      4.9551      4.4351      3.8242      3.2143      2.6896      2.2092      1.7836      1.4374    
  1.1926      1.0450     0.98754      1.0335      1.1926      1.4480      1.7820      2.1975      2.6897      3.2217    
  3.7516      4.2532      4.6851      4.9739      5.0632      4.9556      4.6850      4.2774      3.7665      3.2167    
  2.6486      2.2045      1.8069      1.4703      1.2091      1.0315     0.94062     0.94088      1.0349      1.2157    
  1.4733      1.8053      2.2079      2.6589      3.1217      3.5646      3.9598      4.2671      4.4376      4.4412    
  4.2812      3.9824      3.5800      3.1192      2.5346      2.1433      1.7819      1.4717      1.2198      1.0288    
 0.90903     0.87146     0.91575      1.0331      1.2182      1.4702      1.7852      2.1511      2.5465      2.9392    
  3.2918      3.5735      3.7625      3.8377      3.7791      3.5867      3.2888      2.9263      2.3559      2.0334    
  1.7184      1.4411      1.2148      1.0345     0.90334     0.83691     0.84099     0.90627      1.0273      1.2068    
  1.4402      1.7162      2.0279      2.3633      2.6858      2.9491      3.1309      3.2300      3.2368      3.1350    
  2.9318      2.6617      2.1313      1.8834      1.6266      1.3885      1.1925      1.0378     0.91766     0.84146    
 0.81945     0.84540     0.91254      1.0278      1.1926      1.3906      1.6114      1.8612      2.1313      2.3790    
  2.5616      2.6706      2.7107      2.6723      2.5480      2.3578      1.8845      1.7062      1.5143      1.3252    
  1.1638      1.0389     0.94244     0.87487     0.84494     0.84945     0.87819     0.93726      1.0403      1.1792    
  1.3318      1.4952      1.6814      1.8789      2.0497      2.1670      2.2281      2.2309      2.1670      2.0436    
  1.6382      1.5194      1.3905      1.2585      1.1411      1.0508     0.98405     0.93571     0.91064     0.90915    
 0.91926     0.93750     0.98052      1.0602      1.1632      1.2709      1.3835      1.5076      1.6319      1.7347    
  1.8031      1.8310      1.8103      1.7409      1.4105      1.3415      1.2679      1.1940      1.1287      1.0822    
  1.0536      1.0349      1.0248      1.0259      1.0316      1.0311      1.0287      1.0428      1.0837      1.1432    
  1.2090      1.2766      1.3444      1.4073      1.4588      1.4914      1.4959      1.4666      1.2127      1.1852    
  1.1589      1.1380      1.1268      1.1302      1.1481      1.1719      1.1925      1.2077      1.2166      1.2135    
  1.1926      1.1592      1.1295      1.1178      1.1268      1.1482      1.1722      1.1935      1.2127      1.2296    
  1.2387      1.2331      1.0509      1.0562      1.0700      1.0963      1.1367      1.1913      1.2586      1.3318    
  1.3986      1.4470      1.4718      1.4733      1.4509      1.4016      1.3285      1.2462      1.1748      1.1259    
  1.0964      1.0767      1.0616      1.0519      1.0485      1.0490     0.93051     0.95714      1.0027      1.0699    
  1.1587      1.2651      1.3836      1.5076      1.6265      1.7242      1.7852      1.8038      1.7835      1.7293    
  1.6417      1.5232      1.3870      1.2550      1.1455      1.0632      1.0027     0.95857     0.93087     0.92150    
 0.85697     0.89064     0.95659      1.0556      1.1870      1.3448      1.5189      1.6989      1.8737      2.0281    
  2.1428      2.2009      2.1962      2.1352      2.0305      1.8907      1.7207      1.5309      1.3428      1.1791    
  1.0505     0.95543     0.89032     0.85668      1.1337      1.1716      1.2812      1.4593      1.7026      2.0044    
  2.3525      2.7295      3.1114      3.4666      3.7595      3.9541      4.0204      3.9456      3.7449      3.4547    
  3.1114      2.7402      2.3631      2.0083      1.7026      1.4592      1.2809      1.1707      1.1713      1.1719    
  1.2670      1.4527      1.7241      2.0752      2.4971      2.9750      3.4819      3.9767      4.4113      4.7400    
  4.9218      4.9243      4.7395      4.3968      3.9533      3.4654      2.9727      2.5031      2.0815      1.7278    
  1.4538      1.2664      1.2814      1.2233      1.2808      1.4531      1.7338      2.1145      2.5895      3.1509    
  3.7762      4.4207      5.0235      5.5200      5.8528      5.9770      5.8685      5.5348      5.0223      4.4053    
  3.7615      3.1473      2.5937      2.1178      1.7336      1.4526      1.4611      1.3271      1.3237      1.4582    
  1.7278      2.1193      2.6254      3.2465      3.9685      4.7494      5.5250      6.2168      6.7398      7.0219    
  7.0269      6.7566      6.2412      5.5410      4.7488      3.9629      3.2476      2.6272      2.1141      1.7229    
  1.7026      1.4818      1.4000      1.4700      1.7026      2.0835      2.5971      3.2493      4.0403      4.9322    
  5.8589      6.7439      7.4891      7.9802      8.1400      7.9635      7.4891      6.7667      5.8748      4.9302    
  4.0403      3.2561      2.5932      2.0705      1.9957      1.6785      1.5118      1.4974      1.6631      2.0078    
  2.5037      3.1508      3.9701      4.9394      5.9845      7.0275      7.9841      8.7240      9.1077      9.0800    
  8.6818      7.9789      7.0403      5.9773      4.9280      3.9811      3.1617      2.4899      2.3345      1.9052    