unknown system                          
   1.00000000000000     
     3.190316    0.000000    0.000000
    -1.595158    2.762894    0.000000
     0.000000    0.000000   24.879004
   Mo   S 
     1     2
Direct
  0.333333  0.666667  0.149514
  0.666667  0.333333  0.086614
  0.666666  0.333333  0.212413
 
   24   24  192
 0.34276404390E+00 0.34771110554E+00 0.36114549441E+00 0.38457874917E+00 0.42043015055E+00
 0.46814724912E+00 0.52372365452E+00 0.58228725957E+00 0.63955908592E+00 0.69186212016E+00
 0.73567113098E+00 0.76583943274E+00 0.77506954657E+00 0.75934770789E+00 0.72458080643E+00
 0.68277850084E+00 0.63955441954E+00 0.59035372135E+00 0.53177435925E+00 0.47115847096E+00
 0.42041853559E+00 0.38451099086E+00 0.36090172025E+00 0.34701763971E+00 0.34747398834E+00
 0.34793151887E+00 0.36027933516E+00 0.38515093913E+00 0.42431218027E+00 0.47835789903E+00
 0.54562978116E+00 0.62227388112E+00 0.70154141189E+00 0.77481072135E+00 0.83600143881E+00
 0.88304838102E+00 0.91214825272E+00 0.91415584062E+00 0.88275617554E+00 0.82486429733E+00
 0.75656509025E+00 0.68843507720E+00 0.62025698319E+00 0.55030973381E+00 0.48338968170E+00
 0.42727430734E+00 0.38605958680E+00 0.35980130900E+00 0.36127504901E+00 0.35324496422E+00
 0.36084386786E+00 0.38557295354E+00 0.42739215632E+00 0.48493512066E+00 0.55796738962E+00
 0.64607699665E+00 0.74402648902E+00 0.84084851351E+00 0.92531481355E+00 0.99142479102E+00
 0.10372368050E+01 0.10590728343E+01 0.10494261878E+01 0.10028741510E+01 0.92421069014E+00
 0.82871074824E+00 0.73254278859E+00 0.64338570705E+00 0.56142817518E+00 0.48761484949E+00
 0.42723433752E+00 0.38513711995E+00 0.38597024826E+00 0.36660437103E+00 0.36397892154E+00
 0.38380048192E+00 0.42740091678E+00 0.48882452032E+00 0.56541906664E+00 0.66014738612E+00
 0.77070128117E+00 0.88562990476E+00 0.99281606312E+00 0.10836285358E+01 0.11495098285E+01
 0.11840586107E+01 0.11878616205E+01 0.11624415988E+01 0.11024624926E+01 0.10052425591E+01
 0.88533517660E+00 0.76669576809E+00 0.66121118470E+00 0.56685607856E+00 0.48477677572E+00
 0.42351376094E+00 0.42041852117E+00 0.38995709893E+00 0.37393991730E+00 0.38075647622E+00
 0.42042038637E+00 0.48508945364E+00 0.56432489511E+00 0.66271899475E+00 0.78405525086E+00
 0.91445128845E+00 0.10378628073E+01 0.11507351246E+01 0.12460104452E+01 0.13033932585E+01
 0.13132942829E+01 0.12903934575E+01 0.12460100696E+01 0.11685333520E+01 0.10504377807E+01
 0.91317510183E+00 0.78405964951E+00 0.66779971312E+00 0.56105486012E+00 0.47488554679E+00
 0.46131468581E+00 0.41952379319E+00 0.39318160912E+00 0.38195931178E+00 0.40746346040E+00
 0.47062334132E+00 0.55079877219E+00 0.64632977830E+00 0.77254730170E+00 0.92043376694E+00
 0.10605072653E+01 0.11855493514E+01 0.13052176146E+01 0.14018793725E+01 0.14398464249E+01
 0.14184214833E+01 0.13692526159E+01 0.13012934497E+01 0.11955281499E+01 0.10548656144E+01
 0.91137910477E+00 0.78075642472E+00 0.65460830935E+00 0.54000962643E+00 0.50956920750E+00
 0.44960678757E+00 0.41778407306E+00 0.39255868359E+00 0.39563218512E+00 0.44815069703E+00
 0.52868462681E+00 0.61685930712E+00 0.73272898078E+00 0.88930237650E+00 0.10519315429E+01
 0.11887103702E+01 0.13145693880E+01 0.14406161801E+01 0.15276090700E+01 0.15383828930E+01
 0.14928277341E+01 0.14243502339E+01 0.13256601747E+01 0.11843055738E+01 0.10282326202E+01
 0.88817323473E+00 0.75512127412E+00 0.61933453974E+00 0.56977576606E+00 0.48064457303E+00
 0.44023801308E+00 0.41044351337E+00 0.39188199744E+00 0.42229603002E+00 0.50004241731E+00
 0.58669003638E+00 0.68351378598E+00 0.82618683321E+00 0.10038383222E+01 0.11625818426E+01
 0.12900955700E+01 0.14177361703E+01 0.15375880212E+01 0.15974407064E+01 0.15827684862E+01
 0.15279024378E+01 0.14435493996E+01 0.13092700477E+01 0.11399076194E+01 0.98320532435E+00
 0.84790989707E+00 0.70671178029E+00 0.63955442714E+00 0.51869434140E+00 0.45762039998E+00
 0.42681876330E+00 0.39687252881E+00 0.39842806840E+00 0.46064504811E+00 0.55145413280E+00
 0.63955703605E+00 0.75448631073E+00 0.92254369286E+00 0.11022670936E+01 0.12460167155E+01
 0.13682138386E+01 0.14913647063E+01 0.15821364964E+01 0.16029989865E+01 0.15723551466E+01
 0.15150328885E+01 0.14100877108E+01 0.12460101028E+01 0.10700119518E+01 0.92383736967E+00
 0.78710004779E+00 0.70462570101E+00 0.56529097776E+00 0.47488849545E+00 0.43520150396E+00
 0.40460497107E+00 0.38349063533E+00 0.41469397751E+00 0.49829985959E+00 0.59002676762E+00
 0.68603123147E+00 0.82531212157E+00 0.10040896891E+01 0.11694678398E+01 0.13017987294E+01
 0.14240049393E+01 0.15280712367E+01 0.15729923936E+01 0.15577731580E+01 0.15179145037E+01
 0.14501124615E+01 0.13202884574E+01 0.11448113128E+01 0.98240579261E+00 0.84625516480E+00
 0.74972215062E+00 0.61140588345E+00 0.49796079416E+00 0.43826905804E+00 0.40759006531E+00
 0.37941636521E+00 0.37936860886E+00 0.43535117279E+00 0.52315759168E+00 0.61372929132E+00
 0.72606092104E+00 0.88107911172E+00 0.10496237303E+01 0.11959523153E+01 0.13258763744E+01
 0.14444733416E+01 0.15165060514E+01 0.15183888712E+01 0.14802625999E+01 0.14286238649E+01
 0.13384356285E+01 0.11906997034E+01 0.10246582099E+01 0.88183374714E+00 0.77128231592E+00
 0.64403715263E+00 0.52458733716E+00 0.44370133400E+00 0.40375374927E+00 0.37758187544E+00
 0.36304773905E+00 0.38691898911E+00 0.45257332515E+00 0.53531991674E+00 0.63091357885E+00
 0.75744423617E+00 0.90813274046E+00 0.10524084298E+01 0.11826389331E+01 0.13089537581E+01
 0.14111397456E+01 0.14502487263E+01 0.14273028166E+01 0.13773434546E+01 0.13072800974E+01
 0.11945339367E+01 0.10457594578E+01 0.89992002684E+00 0.77506958835E+00 0.65694662980E+00
 0.54478989535E+00 0.45406230759E+00 0.39860057665E+00 0.36897347180E+00 0.35316555034E+00
 0.35952846458E+00 0.39859287793E+00 0.46263435187E+00 0.54323836780E+00 0.64723923534E+00
 0.77507625075E+00 0.90595908933E+00 0.10244823855E+01 0.11378597264E+01 0.12460167559E+01
 0.13204344908E+01 0.13367745492E+01 0.13053004973E+01 0.12460105188E+01 0.11578115458E+01
 0.10368634888E+01 0.90193099480E+00 0.76478166200E+00 0.65301442528E+00 0.55064264318E+00
 0.46345250319E+00 0.39858513890E+00 0.35769259767E+00 0.33770420394E+00 0.33819361566E+00
 0.36092159080E+00 0.40416973290E+00 0.46588323042E+00 0.54943416404E+00 0.65594238154E+00
 0.77319424612E+00 0.88351571170E+00 0.98118468562E+00 0.10702180259E+01 0.11458193397E+01
 0.11911469918E+01 0.11943353309E+01 0.11577251574E+01 0.10889032879E+01 0.99386143576E+00
 0.88153424439E+00 0.73863920732E+00 0.63780027265E+00 0.54318964455E+00 0.46465066973E+00
 0.40260390817E+00 0.35447113337E+00 0.32407883433E+00 0.31674017179E+00 0.33011977806E+00
 0.35824225951E+00 0.40112253420E+00 0.46344661491E+00 0.54620644689E+00 0.64422700088E+00
 0.74823421033E+00 0.84578050659E+00 0.92551177194E+00 0.98463921575E+00 0.10267583685E+01
 0.10492846922E+01 0.10408308849E+01 0.99565418184E+00 0.92272012291E+00 0.83507899289E+00
 0.69556874571E+00 0.61353788707E+00 0.52869576972E+00 0.45707068298E+00 0.40356480548E+00
 0.35948712748E+00 0.32355974828E+00 0.30594615520E+00 0.30951189002E+00 0.32608311359E+00
 0.35315683094E+00 0.39664767933E+00 0.45658002295E+00 0.52709197313E+00 0.60864389983E+00
 0.70141421116E+00 0.78918423170E+00 0.85047144182E+00 0.88421700285E+00 0.90412579997E+00
 0.91011013883E+00 0.88787727810E+00 0.83576312215E+00 0.76880285861E+00 0.63955910365E+00
 0.57956990533E+00 0.51063788294E+00 0.44593785394E+00 0.39861646296E+00 0.36339618859E+00
 0.33172605690E+00 0.30989937629E+00 0.30571629075E+00 0.31330588583E+00 0.32715172338E+00
 0.35447878236E+00 0.39859285771E+00 0.44813933890E+00 0.49801626679E+00 0.56067898445E+00
 0.63955704622E+00 0.71159236081E+00 0.75493415245E+00 0.77489050761E+00 0.78405528880E+00
 0.77674264879E+00 0.74365318302E+00 0.69358448267E+00 0.57780569499E+00 0.53687149551E+00
 0.48805118048E+00 0.43534909067E+00 0.39297557990E+00 0.36388285316E+00 0.33941506064E+00
 0.31965524579E+00 0.31291839744E+00 0.31689197305E+00 0.32260057244E+00 0.33476984892E+00
 0.36480782208E+00 0.40609276040E+00 0.44121155334E+00 0.47197108243E+00 0.51598126627E+00
 0.57335128166E+00 0.62271969497E+00 0.65169197124E+00 0.66628521926E+00 0.66884588171E+00
 0.65193740900E+00 0.61733596628E+00 0.51756326876E+00 0.49065122212E+00 0.46059884054E+00
 0.42493521442E+00 0.39195125949E+00 0.36847000870E+00 0.35007932958E+00 0.33355466317E+00
 0.32556565673E+00 0.32864516572E+00 0.33320728103E+00 0.33526759076E+00 0.34700517279E+00
 0.37636114729E+00 0.41067034150E+00 0.43516236037E+00 0.45448466358E+00 0.48084328643E+00
 0.51263988189E+00 0.53957618232E+00 0.55816449694E+00 0.56825715413E+00 0.56450112866E+00
 0.54470732605E+00 0.46430251385E+00 0.44791869550E+00 0.43188971067E+00 0.41322852841E+00
 0.39434358108E+00 0.38066033993E+00 0.37093593326E+00 0.36048837796E+00 0.35205083784E+00
 0.35193577158E+00 0.35693704597E+00 0.35772188572E+00 0.35536778686E+00 0.36180257473E+00
 0.38188231349E+00 0.40642495479E+00 0.42557463010E+00 0.43902927538E+00 0.45061665341E+00
 0.46186670203E+00 0.47319693317E+00 0.48352052250E+00 0.48740105729E+00 0.47990136847E+00
 0.42043015180E+00 0.41287283183E+00 0.40679659654E+00 0.40148277388E+00 0.39685474594E+00
 0.39559744082E+00 0.39811165642E+00 0.40004803406E+00 0.39861645021E+00 0.39726730912E+00
 0.39963584860E+00 0.40223380474E+00 0.39860054372E+00 0.38922827150E+00 0.38244873611E+00
 0.38534866231E+00 0.39687252554E+00 0.40986907826E+00 0.41783734724E+00 0.41989813285E+00
 0.42042040204E+00 0.42335078317E+00 0.42701883733E+00 0.42644671893E+00 0.38593122359E+00
 0.38568890402E+00 0.38755673032E+00 0.39256163862E+00 0.40024436159E+00 0.41078893670E+00
 0.42496155445E+00 0.44118314189E+00 0.45479091619E+00 0.46218243209E+00 0.46467701074E+00
 0.46586278650E+00 0.46517570682E+00 0.45704103845E+00 0.43829538092E+00 0.41470677808E+00
 0.39717993878E+00 0.39127069100E+00 0.39258501140E+00 0.39315555174E+00 0.39015673721E+00
 0.38666490456E+00 0.38559930239E+00 0.38604707076E+00 0.36102832142E+00 0.36559578453E+00
 0.37384992390E+00 0.38753038999E+00 0.40667941441E+00 0.42942377238E+00 0.45455561158E+00
 0.48219078229E+00 0.51052069656E+00 0.53378117153E+00 0.54627485995E+00 0.54820602775E+00
 0.54467273190E+00 0.53790073177E+00 0.52321929795E+00 0.49535687778E+00 0.45750323019E+00
 0.42103886842E+00 0.39569609845E+00 0.38195901698E+00 0.37382273122E+00 0.36681699219E+00
 0.36133437472E+00 0.35935687666E+00 0.34676049511E+00 0.35299303349E+00 0.36516758469E+00
 0.38523436537E+00 0.41451309792E+00 0.45081281331E+00 0.49022300776E+00 0.53058288873E+00
 0.57111867874E+00 0.60888064657E+00 0.63737204333E+00 0.65014957909E+00 0.64623506797E+00
 0.63115196832E+00 0.61097769209E+00 0.58533116535E+00 0.54873502796E+00 0.50027193600E+00
 0.44917860528E+00 0.40787302265E+00 0.38095870330E+00 0.36419449010E+00 0.35281676112E+00
 0.34658085630E+00 0.45985034827E+00 0.46857628578E+00 0.49328220686E+00 0.53562349998E+00
 0.59798385345E+00 0.67901934683E+00 0.77293023511E+00 0.87220346652E+00 0.96934639524E+00
 0.10572584888E+01 0.11292376319E+01 0.11775190012E+01 0.11929176473E+01 0.11706548432E+01
 0.11174646626E+01 0.10475768563E+01 0.96931528031E+00 0.88078256384E+00 0.78150573748E+00
 0.68223175821E+00 0.59798426774E+00 0.53556748062E+00 0.49302717451E+00 0.46783184958E+00
 0.46831910876E+00 0.46879047404E+00 0.49160645877E+00 0.53713020565E+00 0.60658590851E+00
 0.69949736518E+00 0.81239289565E+00 0.93880657041E+00 0.10685901912E+01 0.11891566303E+01
 0.12904501808E+01 0.13669137383E+01 0.14118381802E+01 0.14139883885E+01 0.13666318327E+01
 0.12786389393E+01 0.11698180435E+01 0.10547535566E+01 0.93673365409E+00 0.81735228277E+00
 0.70477445154E+00 0.60968850035E+00 0.53810626583E+00 0.49113052007E+00 0.49340558936E+00
 0.47864719284E+00 0.49296771792E+00 0.53757789312E+00 0.61145673095E+00 0.71167955506E+00
 0.83603046597E+00 0.98162858284E+00 0.11400424680E+01 0.12962965913E+01 0.14345752129E+01
 0.15441334310E+01 0.16185966806E+01 0.16507870111E+01 0.16315103795E+01 0.15562707438E+01
 0.14334427074E+01 0.12835022493E+01 0.11279112386E+01 0.97873445123E+00 0.83961595047E+00
 0.71447730211E+00 0.61129461567E+00 0.53711475363E+00 0.53708700729E+00 0.50165052213E+00
 0.49889300675E+00 0.53481929074E+00 0.60980286505E+00 0.71573458289E+00 0.84750529617E+00
 0.10056988451E+01 0.11851839612E+01 0.13708292220E+01 0.15459889981E+01 0.16965033063E+01
 0.18073774471E+01 0.18662451839E+01 0.18702734375E+01 0.18210770261E+01 0.17164628355E+01
 0.15591684680E+01 0.13705163506E+01 0.11809012718E+01 0.10067740787E+01 0.84901788473E+00
 0.71147900317E+00 0.60569868343E+00 0.59798425331E+00 0.54035349825E+00 0.51470482448E+00
 0.53061731372E+00 0.59797690335E+00 0.70655143746E+00 0.84264169123E+00 0.10083294547E+01
 0.12050623024E+01 0.14156222279E+01 0.16197597075E+01 0.18087410105E+01 0.19680945211E+01
 0.20683713249E+01 0.20928857030E+01 0.20546217218E+01 0.19680949791E+01 0.18275524373E+01
 0.16330206724E+01 0.14142340893E+01 0.12050731525E+01 0.10137551051E+01 0.83923754933E+00
 0.69578663883E+00 0.67182499484E+00 0.59095139655E+00 0.54393388542E+00 0.53205982109E+00
 0.57819676142E+00 0.68167949262E+00 0.81784727819E+00 0.98179991787E+00 0.11870534670E+01
 0.14219103638E+01 0.16527529894E+01 0.18677865786E+01 0.20701473766E+01 0.22315061466E+01
 0.23043178538E+01 0.22816238847E+01 0.21969410718E+01 0.20659720355E+01 0.18783306738E+01
 0.16467612095E+01 0.14123278813E+01 0.11957850878E+01 0.99061998766E+00 0.80645828661E+00
 0.75798782677E+00 0.64690457217E+00 0.58294558045E+00 0.54583724118E+00 0.55949806021E+00
 0.64539740011E+00 0.77828519214E+00 0.93316521338E+00 0.11281023080E+01 0.13746837799E+01
 0.16345604019E+01 0.18710788076E+01 0.20939516468E+01 0.23049325261E+01 0.24503977569E+01
 0.24808998923E+01 0.24135557421E+01 0.22877024774E+01 0.21057090357E+01 0.18664451636E+01
 0.16095027529E+01 0.13735146339E+01 0.11518075692E+01 0.93574216530E+00 0.85897062388E+00
 0.70725773546E+00 0.62344574826E+00 0.57040856628E+00 0.55072484972E+00 0.60441165414E+00
 0.72783480821E+00 0.87698053142E+00 0.10496074592E+01 0.12808352901E+01 0.15576454454E+01
 0.18212209038E+01 0.20541061372E+01 0.22806872841E+01 0.24799546460E+01 0.25836714598E+01
 0.25681485354E+01 0.24697239293E+01 0.23080356719E+01 0.20744197282E+01 0.17972399528E+01
 0.15358369793E+01 0.13038354269E+01 0.10740952431E+01 0.96931528791E+00 0.77618644066E+00
 0.66104701244E+00 0.59626755956E+00 0.55347382617E+00 0.56615720362E+00 0.66419228084E+00
 0.81084368803E+00 0.96931890583E+00 0.11676575605E+01 0.14317237404E+01 0.17162806055E+01
 0.19681059137E+01 0.21958383459E+01 0.24120044722E+01 0.25674778792E+01 0.26108773162E+01
 0.25571215008E+01 0.24370736554E+01 0.22401868246E+01 0.19680950123E+01 0.16821043458E+01
 0.14330643008E+01 0.12021697702E+01 0.10707328016E+01 0.85262305090E+00 0.69904893732E+00
 0.61554678211E+00 0.56143024731E+00 0.53907697539E+00 0.59381975857E+00 0.72377376038E+00
 0.87871377328E+00 0.10509768278E+01 0.12791476301E+01 0.15576174799E+01 0.18285438680E+01
 0.20666948216E+01 0.22875403997E+01 0.24700036066E+01 0.25577948418E+01 0.25416610935E+01
 0.24592227138E+01 0.23151865862E+01 0.20862782341E+01 0.18023981761E+01 0.15345935963E+01
 0.13013076413E+01 0.11440967147E+01 0.92435737490E+00 0.74156184755E+00 0.62963868835E+00
 0.56606088064E+00 0.52553807337E+00 0.53621418210E+00 0.62659631259E+00 0.76825716996E+00
 0.92678095343E+00 0.11189908233E+01 0.13648253845E+01 0.16317108118E+01 0.18788474511E+01
 0.21062164492E+01 0.23092175912E+01 0.24386365251E+01 0.24596214673E+01 0.24002478201E+01
 0.22924323596E+01 0.21195177565E+01 0.18732717456E+01 0.16052567799E+01 0.13656403589E+01
 0.11832885405E+01 0.97544499024E+00 0.78422743511E+00 0.64514381162E+00 0.56432154862E+00
 0.51634347687E+00 0.50096817943E+00 0.54655674271E+00 0.65464305427E+00 0.79567262351E+00
 0.96155285014E+00 0.11685984253E+01 0.14075571026E+01 0.16436993069E+01 0.18647350238E+01
 0.20742595943E+01 0.22413110218E+01 0.23151329140E+01 0.22908201175E+01 0.22055082493E+01
 0.20725044857E+01 0.18773593299E+01 0.16366745895E+01 0.13988844842E+01 0.11929176891E+01
 0.99778567580E+00 0.81494616589E+00 0.66340887221E+00 0.56117915776E+00 0.50181038594E+00
 0.47535500824E+00 0.49176800590E+00 0.56117590654E+00 0.67254673893E+00 0.81334006994E+00
 0.98749987503E+00 0.11929309617E+01 0.14052784421E+01 0.16050787592E+01 0.17950329295E+01
 0.19681059542E+01 0.20862731225E+01 0.21174695668E+01 0.20701991576E+01 0.19680945946E+01
 0.18162129750E+01 0.16182182784E+01 0.14009959318E+01 0.11763762468E+01 0.99364511355E+00
 0.82437637360E+00 0.67721577275E+00 0.56275658586E+00 0.48615266521E+00 0.44728108255E+00
 0.44770656856E+00 0.48942221689E+00 0.56863144532E+00 0.67981387401E+00 0.82306897871E+00
 0.99671211747E+00 0.11853324200E+01 0.13674469240E+01 0.15333187477E+01 0.16822988744E+01
 0.18035093116E+01 0.18737003687E+01 0.18770505526E+01 0.18160988269E+01 0.17021232231E+01
 0.15467550153E+01 0.13652837074E+01 0.11323007142E+01 0.96886166377E+00 0.81329715693E+00
 0.67848268934E+00 0.56751964434E+00 0.48073110363E+00 0.42528337350E+00 0.40933824734E+00
 0.43154667058E+00 0.48465931448E+00 0.56599107261E+00 0.67719231892E+00 0.81640315496E+00
 0.97566531734E+00 0.11425598145E+01 0.13008248043E+01 0.14347868254E+01 0.15373123102E+01
 0.16079794626E+01 0.16408674822E+01 0.16228227910E+01 0.15489873420E+01 0.14318906023E+01
 0.12894586895E+01 0.10610956465E+01 0.92656791100E+00 0.78863417100E+00 0.66662928845E+00
 0.56795376364E+00 0.48593473611E+00 0.42200823302E+00 0.38953517810E+00 0.39327931517E+00
 0.42468483796E+00 0.47934339792E+00 0.56069396419E+00 0.66602886218E+00 0.78687612273E+00
 0.92146507395E+00 0.10673381087E+01 0.12043336932E+01 0.13064844155E+01 0.13693679183E+01
 0.14047089747E+01 0.14109588431E+01 0.13731468582E+01 0.12909807119E+01 0.11828492343E+01
 0.96934641297E+00 0.86765588433E+00 0.75499898531E+00 0.64760666663E+00 0.56118833301E+00
 0.49202998610E+00 0.43323816190E+00 0.39368667799E+00 0.38347859297E+00 0.39725745601E+00
 0.42848360996E+00 0.48274971499E+00 0.56117588633E+00 0.64982465587E+00 0.74162513722E+00
 0.84774256789E+00 0.96931891600E+00 0.10792346958E+01 0.11516202386E+01 0.11896449740E+01
 0.12050623404E+01 0.11914797367E+01 0.11396640759E+01 0.10602876743E+01 0.86755407201E+00
 0.79539172488E+00 0.71293340763E+00 0.62661572555E+00 0.55299072752E+00 0.49640664310E+00
 0.44903326929E+00 0.41242751376E+00 0.39685254633E+00 0.40097926978E+00 0.41546643383E+00
 0.44419995556E+00 0.49747361338E+00 0.56679734500E+00 0.63272447898E+00 0.69596840819E+00
 0.77335531188E+00 0.86277553376E+00 0.93929338707E+00 0.98755725910E+00 0.10121806166E+01
 0.10148253517E+01 0.98775678103E+00 0.93366991509E+00 0.76650719028E+00 0.71787904078E+00
 0.66412200861E+00 0.60464569716E+00 0.54954653749E+00 0.50675612345E+00 0.47214383961E+00
 0.44290508597E+00 0.42681510265E+00 0.42732413845E+00 0.43476948522E+00 0.44465952980E+00
 0.46893197161E+00 0.51508063284E+00 0.56926928167E+00 0.61549693063E+00 0.65776923722E+00
 0.70750164856E+00 0.76119034735E+00 0.80596175420E+00 0.83621863397E+00 0.85050360883E+00
 0.84283195018E+00 0.81140139519E+00 0.67498734333E+00 0.64515479823E+00 0.61456622875E+00
 0.58180988433E+00 0.55054378134E+00 0.52684245573E+00 0.50930936034E+00 0.49283169440E+00
 0.48018268998E+00 0.47806557989E+00 0.48328432856E+00 0.48608432601E+00 0.48742335286E+00
 0.49967781865E+00 0.52809133397E+00 0.56330739638E+00 0.59496417677E+00 0.62219161593E+00
 0.64795066883E+00 0.67234723153E+00 0.69401888151E+00 0.71018304756E+00 0.71423280401E+00
 0.70105910161E+00 0.59798385471E+00 0.58391628088E+00 0.57132393744E+00 0.56091025173E+00
 0.55346762301E+00 0.55187132928E+00 0.55596959350E+00 0.56034459166E+00 0.56118832025E+00
 0.56141215517E+00 0.56445657883E+00 0.56660381541E+00 0.56117912483E+00 0.54898340156E+00
 0.53942884360E+00 0.54097877349E+00 0.55347382290E+00 0.56983233518E+00 0.58301598128E+00
 0.59130799213E+00 0.59797691902E+00 0.60557888213E+00 0.61107832588E+00 0.60880311665E+00
 0.53705184600E+00 0.53583100424E+00 0.53800187744E+00 0.54586787868E+00 0.55963413100E+00
 0.57930706460E+00 0.60469612150E+00 0.63269347831E+00 0.65685027761E+00 0.67199560986E+00
 0.67853311465E+00 0.67978691133E+00 0.67519222294E+00 0.65930664554E+00 0.62968909554E+00
 0.59381918272E+00 0.56485692696E+00 0.55012579945E+00 0.54588765329E+00 0.54389491087E+00
 0.54054621356E+00 0.53786802285E+00 0.53762832628E+00 0.53807129833E+00 0.49314965205E+00
 0.50060318404E+00 0.51461348759E+00 0.53795145280E+00 0.57119137349E+00 0.61201297813E+00
 0.65783150239E+00 0.70680522359E+00 0.75486641711E+00 0.79395006080E+00 0.81649276009E+00
 0.82175481858E+00 0.81481362062E+00 0.79833987489E+00 0.76832644102E+00 0.72072610884E+00
 0.66091446083E+00 0.60311257482E+00 0.55956022870E+00 0.53204835915E+00 0.51457225658E+00
 0.50189130257E+00 0.49347869269E+00 0.49061495494E+00 0.46755730222E+00 0.47841837297E+00
 0.50014340143E+00 0.53532079850E+00 0.58560175388E+00 0.64816781115E+00 0.71741924364E+00
 0.78880374948E+00 0.85882160748E+00 0.92171176528E+00 0.96840185167E+00 0.99056374501E+00
 0.98641166093E+00 0.96179234354E+00 0.92389760076E+00 0.87384044490E+00 0.80800643378E+00
 0.72805070998E+00 0.64644480711E+00 0.57860610912E+00 0.53083396225E+00 0.49911199881E+00
 0.47818740697E+00 0.46733918335E+00 0.61634574287E+00 0.63171509904E+00 0.67585179708E+00
 0.74951040474E+00 0.85371150772E+00 0.98512115400E+00 0.11353329652E+01 0.12936270495E+01
 0.14485557886E+01 0.15884006878E+01 0.17017603643E+01 0.17767774610E+01 0.18013206187E+01
 0.17694660892E+01 0.16891925515E+01 0.15780510147E+01 0.14485271505E+01 0.13028067934E+01
 0.11444941971E+01 0.98854984336E+00 0.85373900187E+00 0.74949353277E+00 0.67559206022E+00
 0.63090461622E+00 0.63143264573E+00 0.63192550426E+00 0.67197460314E+00 0.75074601023E+00
 0.86742902508E+00 0.10189906482E+01 0.11991312127E+01 0.13981433174E+01 0.16016352687E+01
 0.17915229897E+01 0.19517352402E+01 0.20712925009E+01 0.21392245209E+01 0.21415200390E+01
 0.20709889661E+01 0.19391379508E+01 0.17709453675E+01 0.15869825162E+01 0.13960213692E+01
 0.12044263490E+01 0.10245698752E+01 0.87070980440E+00 0.75180166122E+00 0.67149212536E+00
 0.67598269934E+00 0.65056984517E+00 0.67552712439E+00 0.75122916650E+00 0.87423527084E+00
 0.10384301332E+01 0.12384912532E+01 0.14684639555E+01 0.17158614165E+01 0.19598238394E+01
 0.21771983676E+01 0.23498349797E+01 0.24652118204E+01 0.25119428459E+01 0.24789563227E+01
 0.23627626097E+01 0.21760301577E+01 0.19462654920E+01 0.17029801478E+01 0.14653432398E+01
 0.12422261937E+01 0.10413526470E+01 0.87405050088E+00 0.75073252113E+00 0.75108360632E+00
 0.69113854497E+00 0.68821259869E+00 0.74867984026E+00 0.87081282682E+00 0.10426854090E+01
 0.12555402319E+01 0.15070810138E+01 0.17886010484E+01 0.20791549600E+01 0.23540466251E+01
 0.25899662122E+01 0.27632253222E+01 0.28549787903E+01 0.28592882573E+01 0.27778537531E+01
 0.26112457272E+01 0.23680728464E+01 0.20787788678E+01 0.17839725253E+01 0.15081616700E+01
 0.12571248749E+01 0.10381654030E+01 0.86645341448E+00 0.85373898745E+00 0.75586131239E+00
 0.71594953639E+00 0.74551023090E+00 0.85372347176E+00 0.10264300285E+01 0.12453849476E+01
 0.15097598747E+01 0.18181935859E+01 0.21479682134E+01 0.24704001897E+01 0.27667998240E+01
 0.30121443460E+01 0.31674114728E+01 0.32102009513E+01 0.31528038214E+01 0.30121525229E+01
 0.27867784190E+01 0.24844416757E+01 0.21464400397E+01 0.18182108955E+01 0.15155922298E+01
 0.12418355683E+01 0.10150212118E+01 0.97750203386E+00 0.83990711697E+00 0.76279101070E+00
 0.75018638372E+00 0.82638457301E+00 0.98798661974E+00 0.12049049833E+01 0.14685226954E+01
 0.17904560771E+01 0.21545732871E+01 0.25185364981E+01 0.28599483286E+01 0.31709071081E+01
 0.34115306846E+01 0.35248770928E+01 0.35006978958E+01 0.33746843044E+01 0.31664141592E+01
 0.28711602678E+01 0.25121825973E+01 0.21444128658E+01 0.17998047307E+01 0.14779882205E+01
 0.11928505364E+01 0.11194791027E+01 0.93511612856E+00 0.82490115895E+00 0.77086952343E+00
 0.79996885925E+00 0.93354619649E+00 0.11411290391E+01 0.13922673832E+01 0.17031841542E+01
 0.20831720691E+01 0.24860233790E+01 0.28634068131E+01 0.32134940407E+01 0.35264587896E+01
 0.37370126225E+01 0.37884349225E+01 0.36978156964E+01 0.35081216653E+01 0.32260066417E+01
 0.28585153132E+01 0.24594265725E+01 0.20819660962E+01 0.17283858863E+01 0.13949522525E+01
 0.12795863215E+01 0.10386791309E+01 0.89289553702E+00 0.80669913115E+00 0.78571620593E+00
 0.87258036961E+00 0.10605903776E+01 0.12988710771E+01 0.15816114941E+01 0.19434511239E+01
 0.23664303046E+01 0.27800456457E+01 0.31538069943E+01 0.35006160684E+01 0.37877671046E+01
 0.39368214333E+01 0.39203685222E+01 0.37769884722E+01 0.35297449935E+01 0.31753925414E+01
 0.27545373221E+01 0.23432622787E+01 0.19678888034E+01 0.16075367086E+01 0.14485271581E+01
 0.11525232337E+01 0.96079297069E+00 0.84773847124E+00 0.78695738669E+00 0.81568006873E+00
 0.96407752679E+00 0.11893309694E+01 0.14485280918E+01 0.17687000483E+01 0.21742629238E+01
 0.26110820496E+01 0.30121646674E+01 0.33735053068E+01 0.36961647541E+01 0.39196559665E+01
 0.39855118960E+01 0.39086455317E+01 0.37228307934E+01 0.34206755912E+01 0.30121525561E+01
 0.25747122028E+01 0.21756395268E+01 0.18053608117E+01 0.16026992431E+01 0.12723437878E+01
 0.10300603604E+01 0.88501074054E+00 0.79793800311E+00 0.77420388270E+00 0.86194329276E+00
 0.10562837972E+01 0.12999382048E+01 0.15815919388E+01 0.19397098323E+01 0.23642469993E+01
 0.27857868980E+01 0.31656130193E+01 0.35070273097E+01 0.37769487325E+01 0.39093607244E+01
 0.38921470482E+01 0.37653838590E+01 0.35363939266E+01 0.31864726972E+01 0.27579899631E+01
 0.23397115772E+01 0.19632581657E+01 0.17175220140E+01 0.13816806931E+01 0.11024330068E+01
 0.91850968977E+00 0.80957699430E+00 0.75223898224E+00 0.77788291886E+00 0.91532923572E+00
 0.11308339469E+01 0.13842097624E+01 0.16907568350E+01 0.20690235860E+01 0.24791616063E+01
 0.28684203127E+01 0.32243843859E+01 0.35300783861E+01 0.37244942174E+01 0.37661437920E+01
 0.36836680915E+01 0.35122321542E+01 0.32385304151E+01 0.28624755105E+01 0.24510175369E+01
 0.20699198644E+01 0.17828955859E+01 0.14603032872E+01 0.11702989441E+01 0.95287530214E+00
 0.81743973104E+00 0.74041562291E+00 0.72405452004E+00 0.79857335046E+00 0.96309158575E+00
 0.11825935795E+01 0.14455557145E+01 0.17672293930E+01 0.21346330861E+01 0.25044141999E+01
 0.28533936878E+01 0.31736374793E+01 0.34218782699E+01 0.35372660297E+01 0.35114321833E+01
 0.33838591454E+01 0.31718203527E+01 0.28668181889E+01 0.24969162267E+01 0.21254243092E+01
 0.18013206605E+01 0.14969924377E+01 0.12179230003E+01 0.98658304328E+00 0.82438798744E+00
 0.72731625092E+00 0.68744998403E+00 0.71656882761E+00 0.82438572865E+00 0.99639262838E+00
 0.12162746564E+01 0.14860428157E+01 0.18013389320E+01 0.21322441020E+01 0.24508321433E+01
 0.27500982006E+01 0.30121647078E+01 0.31880679874E+01 0.32385091445E+01 0.31709144594E+01
 0.30121444195E+01 0.27726757790E+01 0.24648211939E+01 0.21276560264E+01 0.17755279889E+01
 0.14926291575E+01 0.12332331091E+01 0.10092121826E+01 0.83388218861E+00 0.71482402087E+00
 0.65393094721E+00 0.65428096490E+00 0.71814460890E+00 0.84010361950E+00 0.10119990646E+01
 0.12317844997E+01 0.14958338163E+01 0.17851027012E+01 0.20718702414E+01 0.23383492662E+01
 0.25748891130E+01 0.27612690356E+01 0.28662534901E+01 0.28697466311E+01 0.27745710031E+01
 0.25960001900E+01 0.23526816799E+01 0.20695149821E+01 0.17049063831E+01 0.14533381910E+01
 0.12162353541E+01 0.10105585748E+01 0.84181139034E+00 0.71200673727E+00 0.62994376609E+00
 0.60508576940E+00 0.63643990294E+00 0.71610752738E+00 0.84023278755E+00 0.10091523936E+01
 0.12194206779E+01 0.14605823793E+01 0.17159403001E+01 0.19627608915E+01 0.21774089454E+01
 0.23448070356E+01 0.24578623194E+01 0.25058915465E+01 0.24735462097E+01 0.23572339141E+01
 0.21744430448E+01 0.19506661210E+01 0.15923632380E+01 0.13839521416E+01 0.11750572888E+01
 0.99004594238E+00 0.83932812402E+00 0.71742533581E+00 0.62647775007E+00 0.58053301232E+00
 0.58445822546E+00 0.62930189218E+00 0.71054782001E+00 0.83169723166E+00 0.98931466841E+00
 0.11731266719E+01 0.13786500921E+01 0.15990833138E+01 0.18076060615E+01 0.19706341738E+01
 0.20776124167E+01 0.21363686629E+01 0.21429101409E+01 0.20815274419E+01 0.19542641693E+01
 0.17848941749E+01 0.14485558063E+01 0.12881852071E+01 0.11167413066E+01 0.95560380056E+00
 0.82438098223E+00 0.72089998773E+00 0.63823329835E+00 0.58489505252E+00 0.57039279602E+00
 0.58864119258E+00 0.63329390577E+00 0.71124860581E+00 0.82438570843E+00 0.95780760680E+00
 0.11025045037E+01 0.12671444973E+01 0.14485281020E+01 0.16129774816E+01 0.17281992685E+01
 0.17933584114E+01 0.18181936238E+01 0.17951564959E+01 0.17154708002E+01 0.15929617626E+01
 0.12888032332E+01 0.11728768532E+01 0.10447819146E+01 0.91540186533E+00 0.80546580864E+00
 0.72154793863E+00 0.65572666710E+00 0.60835464557E+00 0.58821671794E+00 0.59251371480E+00
 0.61150677588E+00 0.65070664779E+00 0.72278548911E+00 0.82002097039E+00 0.92175022211E+00
 0.10268117401E+01 0.11495636836E+01 0.12836687657E+01 0.13986883769E+01 0.14747466610E+01
 0.15139566951E+01 0.15166892855E+01 0.14748849737E+01 0.13927914700E+01 0.11286193600E+01
 0.10500132115E+01 0.96399305743E+00 0.87343351154E+00 0.79206272554E+00 0.73026210400E+00
 0.68410949118E+00 0.64930566378E+00 0.63151967873E+00 0.63203744631E+00 0.63980337473E+00
 0.65108427857E+00 0.68073638702E+00 0.73908117109E+00 0.81292598922E+00 0.88499434981E+00
 0.95736392280E+00 0.10389670842E+01 0.11228275710E+01 0.11922600149E+01 0.12386713300E+01
 0.12587274896E+01 0.12455955221E+01 0.11980620843E+01 0.98087104661E+00 0.93331425065E+00
 0.88340216579E+00 0.83231102952E+00 0.78634674299E+00 0.75357446733E+00 0.73291504654E+00
 0.71777987558E+00 0.70850436888E+00 0.70921268313E+00 0.71465966787E+00 0.71463027144E+00
 0.71202563815E+00 0.72273606139E+00 0.75489194850E+00 0.79990789432E+00 0.84637342586E+00
 0.89155075952E+00 0.93619917086E+00 0.97799461995E+00 0.10131592883E+01 0.10368452230E+01