   3   3   1   0
  0.7309871E+02  0.3190316E-09  0.3190316E-09  0.2487900E-08  0.5000000E-15
  1.000000000000000E-004
  CAR 
 unknown system                          
     12.00000000    -12.00000000 2401     -2.41000000      1.00000000
    -12.000  0.4000E+03  0.4000E+01
    -11.990  0.0000E+00  0.4000E+01
    -11.980  0.0000E+00  0.4000E+01
    -11.970  0.0000E+00  0.4000E+01
    -11.960  0.0000E+00  0.4000E+01
    -11.950  0.0000E+00  0.4000E+01
    -11.940  0.0000E+00  0.4000E+01
    -11.930  0.0000E+00  0.4000E+01
    -11.920  0.0000E+00  0.4000E+01
    -11.910  0.0000E+00  0.4000E+01
    -11.900  0.0000E+00  0.4000E+01
    -11.890  0.0000E+00  0.4000E+01
    -11.880  0.0000E+00  0.4000E+01
    -11.870  0.0000E+00  0.4000E+01
    -11.860  0.0000E+00  0.4000E+01
    -11.850  0.0000E+00  0.4000E+01
    -11.840  0.0000E+00  0.4000E+01
    -11.830  0.0000E+00  0.4000E+01
    -11.820  0.0000E+00  0.4000E+01
    -11.810  0.0000E+00  0.4000E+01
    -11.800  0.0000E+00  0.4000E+01
    -11.790  0.0000E+00  0.4000E+01
    -11.780  0.0000E+00  0.4000E+01
    -11.770  0.0000E+00  0.4000E+01
    -11.760  0.0000E+00  0.4000E+01
    -11.750  0.0000E+00  0.4000E+01
    -11.740  0.0000E+00  0.4000E+01
    -11.730  0.0000E+00  0.4000E+01
    -11.720  0.0000E+00  0.4000E+01
    -11.710  0.0000E+00  0.4000E+01
    -11.700  0.0000E+00  0.4000E+01
    -11.690  0.0000E+00  0.4000E+01
    -11.680  0.0000E+00  0.4000E+01
    -11.670  0.0000E+00  0.4000E+01
    -11.660  0.0000E+00  0.4000E+01
    -11.650  0.0000E+00  0.4000E+01
    -11.640  0.0000E+00  0.4000E+01
    -11.630  0.0000E+00  0.4000E+01
    -11.620  0.0000E+00  0.4000E+01
    -11.610  0.0000E+00  0.4000E+01
    -11.600  0.0000E+00  0.4000E+01
    -11.590  0.0000E+00  0.4000E+01
    -11.580  0.0000E+00  0.4000E+01
    -11.570  0.0000E+00  0.4000E+01
    -11.560  0.0000E+00  0.4000E+01
    -11.550  0.0000E+00  0.4000E+01
    -11.540  0.0000E+00  0.4000E+01
    -11.530  0.0000E+00  0.4000E+01
    -11.520  0.0000E+00  0.4000E+01
    -11.510  0.0000E+00  0.4000E+01
    -11.500  0.0000E+00  0.4000E+01
    -11.490  0.0000E+00  0.4000E+01
    -11.480  0.0000E+00  0.4000E+01
    -11.470  0.0000E+00  0.4000E+01
    -11.460  0.0000E+00  0.4000E+01
    -11.450  0.0000E+00  0.4000E+01
    -11.440  0.0000E+00  0.4000E+01
    -11.430  0.0000E+00  0.4000E+01
    -11.420  0.0000E+00  0.4000E+01
    -11.410  0.0000E+00  0.4000E+01
    -11.400  0.0000E+00  0.4000E+01
    -11.390  0.0000E+00  0.4000E+01
    -11.380  0.0000E+00  0.4000E+01
    -11.370  0.0000E+00  0.4000E+01
    -11.360  0.0000E+00  0.4000E+01
    -11.350  0.0000E+00  0.4000E+01
    -11.340  0.0000E+00  0.4000E+01
    -11.330  0.0000E+00  0.4000E+01
    -11.320  0.0000E+00  0.4000E+01
    -11.310  0.0000E+00  0.4000E+01
    -11.300  0.0000E+00  0.4000E+01
    -11.290  0.0000E+00  0.4000E+01
    -11.280  0.0000E+00  0.4000E+01
    -11.270  0.0000E+00  0.4000E+01
    -11.260  0.0000E+00  0.4000E+01
    -11.250  0.0000E+00  0.4000E+01
    -11.240  0.0000E+00  0.4000E+01
    -11.230  0.0000E+00  0.4000E+01
    -11.220  0.0000E+00  0.4000E+01
    -11.210  0.0000E+00  0.4000E+01
    -11.200  0.0000E+00  0.4000E+01
    -11.190  0.0000E+00  0.4000E+01
    -11.180  0.0000E+00  0.4000E+01
    -11.170  0.0000E+00  0.4000E+01
    -11.160  0.0000E+00  0.4000E+01
    -11.150  0.0000E+00  0.4000E+01
    -11.140  0.0000E+00  0.4000E+01
    -11.130  0.0000E+00  0.4000E+01
    -11.120  0.0000E+00  0.4000E+01
    -11.110  0.0000E+00  0.4000E+01
    -11.100  0.0000E+00  0.4000E+01
    -11.090  0.0000E+00  0.4000E+01
    -11.080  0.0000E+00  0.4000E+01
    -11.070  0.0000E+00  0.4000E+01
    -11.060  0.0000E+00  0.4000E+01
    -11.050  0.0000E+00  0.4000E+01
    -11.040  0.0000E+00  0.4000E+01
    -11.030  0.0000E+00  0.4000E+01
    -11.020  0.0000E+00  0.4000E+01
    -11.010  0.0000E+00  0.4000E+01
    -11.000  0.0000E+00  0.4000E+01
    -10.990  0.0000E+00  0.4000E+01
    -10.980  0.0000E+00  0.4000E+01
    -10.970  0.0000E+00  0.4000E+01
    -10.960  0.0000E+00  0.4000E+01
    -10.950  0.0000E+00  0.4000E+01
    -10.940  0.0000E+00  0.4000E+01
    -10.930  0.0000E+00  0.4000E+01
    -10.920  0.0000E+00  0.4000E+01
    -10.910  0.0000E+00  0.4000E+01
    -10.900  0.0000E+00  0.4000E+01
    -10.890  0.0000E+00  0.4000E+01
    -10.880  0.0000E+00  0.4000E+01
    -10.870  0.0000E+00  0.4000E+01
    -10.860  0.0000E+00  0.4000E+01
    -10.850  0.0000E+00  0.4000E+01
    -10.840  0.0000E+00  0.4000E+01
    -10.830  0.0000E+00  0.4000E+01
    -10.820  0.0000E+00  0.4000E+01
    -10.810  0.0000E+00  0.4000E+01
    -10.800  0.0000E+00  0.4000E+01
    -10.790  0.0000E+00  0.4000E+01
    -10.780  0.0000E+00  0.4000E+01
    -10.770  0.0000E+00  0.4000E+01
    -10.760  0.0000E+00  0.4000E+01
    -10.750  0.0000E+00  0.4000E+01
    -10.740  0.0000E+00  0.4000E+01
    -10.730  0.0000E+00  0.4000E+01
    -10.720  0.0000E+00  0.4000E+01
    -10.710  0.0000E+00  0.4000E+01
    -10.700  0.0000E+00  0.4000E+01
    -10.690  0.0000E+00  0.4000E+01
    -10.680  0.0000E+00  0.4000E+01
    -10.670  0.0000E+00  0.4000E+01
    -10.660  0.0000E+00  0.4000E+01
    -10.650  0.0000E+00  0.4000E+01
    -10.640  0.0000E+00  0.4000E+01
    -10.630  0.0000E+00  0.4000E+01
    -10.620  0.0000E+00  0.4000E+01
    -10.610  0.0000E+00  0.4000E+01
    -10.600  0.0000E+00  0.4000E+01
    -10.590  0.0000E+00  0.4000E+01
    -10.580  0.0000E+00  0.4000E+01
    -10.570  0.0000E+00  0.4000E+01
    -10.560  0.0000E+00  0.4000E+01
    -10.550  0.0000E+00  0.4000E+01
    -10.540  0.0000E+00  0.4000E+01
    -10.530  0.0000E+00  0.4000E+01
    -10.520  0.0000E+00  0.4000E+01
    -10.510  0.0000E+00  0.4000E+01
    -10.500  0.0000E+00  0.4000E+01
    -10.490  0.0000E+00  0.4000E+01
    -10.480  0.0000E+00  0.4000E+01
    -10.470  0.0000E+00  0.4000E+01
    -10.460  0.0000E+00  0.4000E+01
    -10.450  0.0000E+00  0.4000E+01
    -10.440  0.0000E+00  0.4000E+01
    -10.430  0.0000E+00  0.4000E+01
    -10.420  0.0000E+00  0.4000E+01
    -10.410  0.0000E+00  0.4000E+01
    -10.400  0.0000E+00  0.4000E+01
    -10.390  0.0000E+00  0.4000E+01
    -10.380  0.0000E+00  0.4000E+01
    -10.370  0.0000E+00  0.4000E+01
    -10.360  0.0000E+00  0.4000E+01
    -10.350  0.0000E+00  0.4000E+01
    -10.340  0.0000E+00  0.4000E+01
    -10.330  0.0000E+00  0.4000E+01
    -10.320  0.0000E+00  0.4000E+01
    -10.310  0.0000E+00  0.4000E+01
    -10.300  0.0000E+00  0.4000E+01
    -10.290  0.0000E+00  0.4000E+01
    -10.280  0.0000E+00  0.4000E+01
    -10.270  0.0000E+00  0.4000E+01
    -10.260  0.0000E+00  0.4000E+01
    -10.250  0.0000E+00  0.4000E+01
    -10.240  0.0000E+00  0.4000E+01
    -10.230  0.0000E+00  0.4000E+01
    -10.220  0.0000E+00  0.4000E+01
    -10.210  0.0000E+00  0.4000E+01
    -10.200  0.0000E+00  0.4000E+01
    -10.190  0.0000E+00  0.4000E+01
    -10.180  0.0000E+00  0.4000E+01
    -10.170  0.0000E+00  0.4000E+01
    -10.160  0.0000E+00  0.4000E+01
    -10.150  0.0000E+00  0.4000E+01
    -10.140  0.0000E+00  0.4000E+01
    -10.130  0.0000E+00  0.4000E+01
    -10.120  0.5204E-15  0.4000E+01
    -10.110  0.0000E+00  0.4000E+01
    -10.100  0.5204E-15  0.4000E+01
    -10.090  0.1041E-14  0.4000E+01
    -10.080  0.2082E-14  0.4000E+01
    -10.070  0.3123E-14  0.4000E+01
    -10.060  0.5725E-14  0.4000E+01
    -10.050  0.9888E-14  0.4000E+01
    -10.040  0.1717E-13  0.4000E+01
    -10.030  0.2966E-13  0.4000E+01
    -10.020  0.5152E-13  0.4000E+01
    -10.010  0.8795E-13  0.4000E+01
    -10.000  0.1499E-12  0.4000E+01
     -9.990  0.2545E-12  0.4000E+01
     -9.980  0.4288E-12  0.4000E+01
     -9.970  0.7208E-12  0.4000E+01
     -9.960  0.1204E-11  0.4000E+01
     -9.950  0.2003E-11  0.4000E+01
     -9.940  0.3313E-11  0.4000E+01
     -9.930  0.5454E-11  0.4000E+01
     -9.920  0.8932E-11  0.4000E+01
     -9.910  0.1456E-10  0.4000E+01
     -9.900  0.2361E-10  0.4000E+01
     -9.890  0.3809E-10  0.4000E+01
     -9.880  0.6116E-10  0.4000E+01
     -9.870  0.9770E-10  0.4000E+01
     -9.860  0.1553E-09  0.4000E+01
     -9.850  0.2456E-09  0.4000E+01
     -9.840  0.3865E-09  0.4000E+01
     -9.830  0.6053E-09  0.4000E+01
     -9.820  0.9431E-09  0.4000E+01
     -9.810  0.1462E-08  0.4000E+01
     -9.800  0.2255E-08  0.4000E+01
     -9.790  0.3462E-08  0.4000E+01
     -9.780  0.5287E-08  0.4000E+01
     -9.770  0.8034E-08  0.4000E+01
     -9.760  0.1215E-07  0.4000E+01
     -9.750  0.1828E-07  0.4000E+01
     -9.740  0.2736E-07  0.4000E+01
     -9.730  0.4076E-07  0.4000E+01
     -9.720  0.6041E-07  0.4000E+01
     -9.710  0.8909E-07  0.4000E+01
     -9.700  0.1307E-06  0.4000E+01
     -9.690  0.1909E-06  0.4000E+01
     -9.680  0.2773E-06  0.4000E+01
     -9.670  0.4009E-06  0.4000E+01
     -9.660  0.5767E-06  0.4000E+01
     -9.650  0.8253E-06  0.4000E+01
     -9.640  0.1175E-05  0.4000E+01
     -9.630  0.1665E-05  0.4000E+01
     -9.620  0.2348E-05  0.4000E+01
     -9.610  0.3294E-05  0.4000E+01
     -9.600  0.4599E-05  0.4000E+01
     -9.590  0.6387E-05  0.4000E+01
     -9.580  0.8828E-05  0.4000E+01
     -9.570  0.1214E-04  0.4000E+01
     -9.560  0.1661E-04  0.4000E+01
     -9.550  0.2262E-04  0.4000E+01
     -9.540  0.3064E-04  0.4000E+01
     -9.530  0.4131E-04  0.4000E+01
     -9.520  0.5540E-04  0.4000E+01
     -9.510  0.7394E-04  0.4000E+01
     -9.500  0.9820E-04  0.4000E+01
     -9.490  0.1298E-03  0.4000E+01
     -9.480  0.1706E-03  0.4000E+01
     -9.470  0.2232E-03  0.4000E+01
     -9.460  0.2906E-03  0.4000E+01
     -9.450  0.3764E-03  0.4000E+01
     -9.440  0.4852E-03  0.4000E+01
     -9.430  0.6223E-03  0.4000E+01
     -9.420  0.7941E-03  0.4000E+01
     -9.410  0.1008E-02  0.4000E+01
     -9.400  0.1274E-02  0.4000E+01
     -9.390  0.1602E-02  0.4000E+01
     -9.380  0.2005E-02  0.4000E+01
     -9.370  0.2496E-02  0.4000E+01
     -9.360  0.3092E-02  0.4000E+01
     -9.350  0.3811E-02  0.4000E+01
     -9.340  0.4675E-02  0.4000E+01
     -9.330  0.5706E-02  0.4000E+01
     -9.320  0.6931E-02  0.4000E+01
     -9.310  0.8378E-02  0.4000E+01
     -9.300  0.1008E-01  0.4001E+01
     -9.290  0.1206E-01  0.4001E+01
     -9.280  0.1437E-01  0.4001E+01
     -9.270  0.1703E-01  0.4001E+01
     -9.260  0.2010E-01  0.4001E+01
     -9.250  0.2359E-01  0.4001E+01
     -9.240  0.2757E-01  0.4002E+01
     -9.230  0.3206E-01  0.4002E+01
     -9.220  0.3711E-01  0.4002E+01
     -9.210  0.4276E-01  0.4003E+01
     -9.200  0.4903E-01  0.4003E+01
     -9.190  0.5597E-01  0.4004E+01
     -9.180  0.6360E-01  0.4004E+01
     -9.170  0.7195E-01  0.4005E+01
     -9.160  0.8103E-01  0.4006E+01
     -9.150  0.9086E-01  0.4007E+01
     -9.140  0.1015E+00  0.4008E+01
     -9.130  0.1128E+00  0.4009E+01
     -9.120  0.1249E+00  0.4010E+01
     -9.110  0.1378E+00  0.4012E+01
     -9.100  0.1514E+00  0.4013E+01
     -9.090  0.1658E+00  0.4015E+01
     -9.080  0.1809E+00  0.4017E+01
     -9.070  0.1967E+00  0.4019E+01
     -9.060  0.2133E+00  0.4021E+01
     -9.050  0.2305E+00  0.4023E+01
     -9.040  0.2485E+00  0.4026E+01
     -9.030  0.2672E+00  0.4028E+01
     -9.020  0.2867E+00  0.4031E+01
     -9.010  0.3070E+00  0.4034E+01
     -9.000  0.3283E+00  0.4037E+01
     -8.990  0.3505E+00  0.4041E+01
     -8.980  0.3739E+00  0.4045E+01
     -8.970  0.3985E+00  0.4049E+01
     -8.960  0.4244E+00  0.4053E+01
     -8.950  0.4520E+00  0.4057E+01
     -8.940  0.4814E+00  0.4062E+01
     -8.930  0.5127E+00  0.4067E+01
     -8.920  0.5462E+00  0.4073E+01
     -8.910  0.5821E+00  0.4079E+01
     -8.900  0.6206E+00  0.4085E+01
     -8.890  0.6620E+00  0.4092E+01
     -8.880  0.7064E+00  0.4099E+01
     -8.870  0.7540E+00  0.4106E+01
     -8.860  0.8049E+00  0.4114E+01
     -8.850  0.8593E+00  0.4123E+01
     -8.840  0.9171E+00  0.4132E+01
     -8.830  0.9785E+00  0.4142E+01
     -8.820  0.1043E+01  0.4152E+01
     -8.810  0.1111E+01  0.4163E+01
     -8.800  0.1182E+01  0.4175E+01
     -8.790  0.1256E+01  0.4188E+01
     -8.780  0.1333E+01  0.4201E+01
     -8.770  0.1411E+01  0.4215E+01
     -8.760  0.1491E+01  0.4230E+01
     -8.750  0.1572E+01  0.4246E+01
     -8.740  0.1654E+01  0.4262E+01
     -8.730  0.1735E+01  0.4280E+01
     -8.720  0.1816E+01  0.4298E+01
     -8.710  0.1895E+01  0.4317E+01
     -8.700  0.1972E+01  0.4336E+01
     -8.690  0.2046E+01  0.4357E+01
     -8.680  0.2117E+01  0.4378E+01
     -8.670  0.2184E+01  0.4400E+01
     -8.660  0.2246E+01  0.4422E+01
     -8.650  0.2303E+01  0.4445E+01
     -8.640  0.2355E+01  0.4469E+01
     -8.630  0.2401E+01  0.4493E+01
     -8.620  0.2441E+01  0.4517E+01
     -8.610  0.2475E+01  0.4542E+01
     -8.600  0.2503E+01  0.4567E+01
     -8.590  0.2525E+01  0.4592E+01
     -8.580  0.2542E+01  0.4618E+01
     -8.570  0.2554E+01  0.4643E+01
     -8.560  0.2561E+01  0.4669E+01
     -8.550  0.2564E+01  0.4695E+01
     -8.540  0.2564E+01  0.4720E+01
     -8.530  0.2561E+01  0.4746E+01
     -8.520  0.2556E+01  0.4771E+01
     -8.510  0.2551E+01  0.4797E+01
     -8.500  0.2545E+01  0.4822E+01
     -8.490  0.2540E+01  0.4848E+01
     -8.480  0.2537E+01  0.4873E+01
     -8.470  0.2537E+01  0.4899E+01
     -8.460  0.2540E+01  0.4924E+01
     -8.450  0.2547E+01  0.4949E+01
     -8.440  0.2559E+01  0.4975E+01
     -8.430  0.2576E+01  0.5001E+01
     -8.420  0.2599E+01  0.5027E+01
     -8.410  0.2629E+01  0.5053E+01
     -8.400  0.2664E+01  0.5080E+01
     -8.390  0.2707E+01  0.5107E+01
     -8.380  0.2756E+01  0.5134E+01
     -8.370  0.2811E+01  0.5162E+01
     -8.360  0.2872E+01  0.5191E+01
     -8.350  0.2939E+01  0.5221E+01
     -8.340  0.3010E+01  0.5251E+01
     -8.330  0.3087E+01  0.5281E+01
     -8.320  0.3166E+01  0.5313E+01
     -8.310  0.3248E+01  0.5346E+01
     -8.300  0.3332E+01  0.5379E+01
     -8.290  0.3417E+01  0.5413E+01
     -8.280  0.3502E+01  0.5448E+01
     -8.270  0.3585E+01  0.5484E+01
     -8.260  0.3666E+01  0.5521E+01
     -8.250  0.3744E+01  0.5558E+01
     -8.240  0.3817E+01  0.5596E+01
     -8.230  0.3884E+01  0.5635E+01
     -8.220  0.3945E+01  0.5675E+01
     -8.210  0.3999E+01  0.5715E+01
     -8.200  0.4045E+01  0.5755E+01
     -8.190  0.4082E+01  0.5796E+01
     -8.180  0.4110E+01  0.5837E+01
     -8.170  0.4127E+01  0.5878E+01
     -8.160  0.4135E+01  0.5920E+01
     -8.150  0.4131E+01  0.5961E+01
     -8.140  0.4117E+01  0.6002E+01
     -8.130  0.4091E+01  0.6043E+01
     -8.120  0.4055E+01  0.6083E+01
     -8.110  0.4008E+01  0.6124E+01
     -8.100  0.3950E+01  0.6163E+01
     -8.090  0.3882E+01  0.6202E+01
     -8.080  0.3804E+01  0.6240E+01
     -8.070  0.3716E+01  0.6277E+01
     -8.060  0.3620E+01  0.6313E+01
     -8.050  0.3515E+01  0.6348E+01
     -8.040  0.3403E+01  0.6382E+01
     -8.030  0.3285E+01  0.6415E+01
     -8.020  0.3161E+01  0.6447E+01
     -8.010  0.3032E+01  0.6477E+01
     -8.000  0.2899E+01  0.6506E+01
     -7.990  0.2764E+01  0.6534E+01
     -7.980  0.2627E+01  0.6560E+01
     -7.970  0.2488E+01  0.6585E+01
     -7.960  0.2350E+01  0.6609E+01
     -7.950  0.2214E+01  0.6631E+01
     -7.940  0.2079E+01  0.6651E+01
     -7.930  0.1947E+01  0.6671E+01
     -7.920  0.1818E+01  0.6689E+01
     -7.910  0.1695E+01  0.6706E+01
     -7.900  0.1576E+01  0.6722E+01
     -7.890  0.1463E+01  0.6736E+01
     -7.880  0.1356E+01  0.6750E+01
     -7.870  0.1256E+01  0.6763E+01
     -7.860  0.1163E+01  0.6774E+01
     -7.850  0.1078E+01  0.6785E+01
     -7.840  0.9993E+00  0.6795E+01
     -7.830  0.9284E+00  0.6804E+01
     -7.820  0.8650E+00  0.6813E+01
     -7.810  0.8089E+00  0.6821E+01
     -7.800  0.7599E+00  0.6829E+01
     -7.790  0.7177E+00  0.6836E+01
     -7.780  0.6821E+00  0.6843E+01
     -7.770  0.6525E+00  0.6849E+01
     -7.760  0.6287E+00  0.6855E+01
     -7.750  0.6101E+00  0.6861E+01
     -7.740  0.5961E+00  0.6867E+01
     -7.730  0.5864E+00  0.6873E+01
     -7.720  0.5804E+00  0.6879E+01
     -7.710  0.5775E+00  0.6885E+01
     -7.700  0.5772E+00  0.6891E+01
     -7.690  0.5792E+00  0.6896E+01
     -7.680  0.5829E+00  0.6902E+01
     -7.670  0.5879E+00  0.6908E+01
     -7.660  0.5940E+00  0.6914E+01
     -7.650  0.6008E+00  0.6920E+01
     -7.640  0.6081E+00  0.6926E+01
     -7.630  0.6158E+00  0.6932E+01
     -7.620  0.6238E+00  0.6939E+01
     -7.610  0.6321E+00  0.6945E+01
     -7.600  0.6407E+00  0.6951E+01
     -7.590  0.6499E+00  0.6958E+01
     -7.580  0.6598E+00  0.6964E+01
     -7.570  0.6707E+00  0.6971E+01
     -7.560  0.6830E+00  0.6978E+01
     -7.550  0.6970E+00  0.6985E+01
     -7.540  0.7131E+00  0.6992E+01
     -7.530  0.7318E+00  0.6999E+01
     -7.520  0.7536E+00  0.7007E+01
     -7.510  0.7790E+00  0.7015E+01
     -7.500  0.8083E+00  0.7023E+01
     -7.490  0.8421E+00  0.7031E+01
     -7.480  0.8808E+00  0.7040E+01
     -7.470  0.9248E+00  0.7049E+01
     -7.460  0.9744E+00  0.7059E+01
     -7.450  0.1030E+01  0.7069E+01
     -7.440  0.1091E+01  0.7080E+01
     -7.430  0.1159E+01  0.7092E+01
     -7.420  0.1233E+01  0.7104E+01
     -7.410  0.1314E+01  0.7117E+01
     -7.400  0.1400E+01  0.7131E+01
     -7.390  0.1493E+01  0.7146E+01
     -7.380  0.1591E+01  0.7162E+01
     -7.370  0.1695E+01  0.7179E+01
     -7.360  0.1803E+01  0.7197E+01
     -7.350  0.1917E+01  0.7216E+01
     -7.340  0.2034E+01  0.7237E+01
     -7.330  0.2154E+01  0.7258E+01
     -7.320  0.2277E+01  0.7281E+01
     -7.310  0.2401E+01  0.7305E+01
     -7.300  0.2527E+01  0.7330E+01
     -7.290  0.2654E+01  0.7357E+01
     -7.280  0.2780E+01  0.7385E+01
     -7.270  0.2904E+01  0.7414E+01
     -7.260  0.3027E+01  0.7444E+01
     -7.250  0.3147E+01  0.7475E+01
     -7.240  0.3264E+01  0.7508E+01
     -7.230  0.3376E+01  0.7542E+01
     -7.220  0.3483E+01  0.7577E+01
     -7.210  0.3584E+01  0.7612E+01
     -7.200  0.3679E+01  0.7649E+01
     -7.190  0.3767E+01  0.7687E+01
     -7.180  0.3847E+01  0.7725E+01
     -7.170  0.3920E+01  0.7765E+01
     -7.160  0.3984E+01  0.7804E+01
     -7.150  0.4039E+01  0.7845E+01
     -7.140  0.4085E+01  0.7886E+01
     -7.130  0.4122E+01  0.7927E+01
     -7.120  0.4150E+01  0.7968E+01
     -7.110  0.4168E+01  0.8010E+01
     -7.100  0.4177E+01  0.8052E+01
     -7.090  0.4177E+01  0.8094E+01
     -7.080  0.4167E+01  0.8135E+01
     -7.070  0.4150E+01  0.8177E+01
     -7.060  0.4123E+01  0.8218E+01
     -7.050  0.4090E+01  0.8259E+01
     -7.040  0.4048E+01  0.8299E+01
     -7.030  0.4001E+01  0.8339E+01
     -7.020  0.3947E+01  0.8379E+01
     -7.010  0.3887E+01  0.8418E+01
     -7.000  0.3823E+01  0.8456E+01
     -6.990  0.3754E+01  0.8493E+01
     -6.980  0.3682E+01  0.8530E+01
     -6.970  0.3607E+01  0.8566E+01
     -6.960  0.3530E+01  0.8602E+01
     -6.950  0.3451E+01  0.8636E+01
     -6.940  0.3371E+01  0.8670E+01
     -6.930  0.3290E+01  0.8703E+01
     -6.920  0.3208E+01  0.8735E+01
     -6.910  0.3127E+01  0.8766E+01
     -6.900  0.3046E+01  0.8797E+01
     -6.890  0.2965E+01  0.8826E+01
     -6.880  0.2885E+01  0.8855E+01
     -6.870  0.2806E+01  0.8883E+01
     -6.860  0.2728E+01  0.8910E+01
     -6.850  0.2651E+01  0.8937E+01
     -6.840  0.2575E+01  0.8963E+01
     -6.830  0.2500E+01  0.8988E+01
     -6.820  0.2426E+01  0.9012E+01
     -6.810  0.2354E+01  0.9035E+01
     -6.800  0.2283E+01  0.9058E+01
     -6.790  0.2214E+01  0.9080E+01
     -6.780  0.2147E+01  0.9102E+01
     -6.770  0.2083E+01  0.9123E+01
     -6.760  0.2021E+01  0.9143E+01
     -6.750  0.1962E+01  0.9163E+01
     -6.740  0.1908E+01  0.9182E+01
     -6.730  0.1857E+01  0.9200E+01
     -6.720  0.1812E+01  0.9218E+01
     -6.710  0.1773E+01  0.9236E+01
     -6.700  0.1740E+01  0.9253E+01
     -6.690  0.1714E+01  0.9271E+01
     -6.680  0.1697E+01  0.9288E+01
     -6.670  0.1688E+01  0.9304E+01
     -6.660  0.1689E+01  0.9321E+01
     -6.650  0.1701E+01  0.9338E+01
     -6.640  0.1723E+01  0.9356E+01
     -6.630  0.1757E+01  0.9373E+01
     -6.620  0.1803E+01  0.9391E+01
     -6.610  0.1861E+01  0.9410E+01
     -6.600  0.1932E+01  0.9429E+01
     -6.590  0.2014E+01  0.9449E+01
     -6.580  0.2109E+01  0.9470E+01
     -6.570  0.2215E+01  0.9492E+01
     -6.560  0.2332E+01  0.9516E+01
     -6.550  0.2460E+01  0.9540E+01
     -6.540  0.2596E+01  0.9566E+01
     -6.530  0.2741E+01  0.9594E+01
     -6.520  0.2893E+01  0.9623E+01
     -6.510  0.3050E+01  0.9653E+01
     -6.500  0.3211E+01  0.9685E+01
     -6.490  0.3374E+01  0.9719E+01
     -6.480  0.3537E+01  0.9754E+01
     -6.470  0.3698E+01  0.9791E+01
     -6.460  0.3857E+01  0.9830E+01
     -6.450  0.4010E+01  0.9870E+01
     -6.440  0.4157E+01  0.9912E+01
     -6.430  0.4295E+01  0.9955E+01
     -6.420  0.4423E+01  0.9999E+01
     -6.410  0.4539E+01  0.1004E+02
     -6.400  0.4643E+01  0.1009E+02
     -6.390  0.4733E+01  0.1014E+02
     -6.380  0.4808E+01  0.1019E+02
     -6.370  0.4868E+01  0.1023E+02
     -6.360  0.4912E+01  0.1028E+02
     -6.350  0.4940E+01  0.1033E+02
     -6.340  0.4951E+01  0.1038E+02
     -6.330  0.4947E+01  0.1043E+02
     -6.320  0.4927E+01  0.1048E+02
     -6.310  0.4891E+01  0.1053E+02
     -6.300  0.4842E+01  0.1058E+02
     -6.290  0.4778E+01  0.1063E+02
     -6.280  0.4702E+01  0.1067E+02
     -6.270  0.4614E+01  0.1072E+02
     -6.260  0.4515E+01  0.1076E+02
     -6.250  0.4407E+01  0.1081E+02
     -6.240  0.4290E+01  0.1085E+02
     -6.230  0.4167E+01  0.1089E+02
     -6.220  0.4037E+01  0.1093E+02
     -6.210  0.3903E+01  0.1097E+02
     -6.200  0.3765E+01  0.1101E+02
     -6.190  0.3625E+01  0.1105E+02
     -6.180  0.3483E+01  0.1108E+02
     -6.170  0.3341E+01  0.1112E+02
     -6.160  0.3199E+01  0.1115E+02
     -6.150  0.3059E+01  0.1118E+02
     -6.140  0.2922E+01  0.1121E+02
     -6.130  0.2787E+01  0.1123E+02
     -6.120  0.2657E+01  0.1126E+02
     -6.110  0.2531E+01  0.1129E+02
     -6.100  0.2410E+01  0.1131E+02
     -6.090  0.2296E+01  0.1133E+02
     -6.080  0.2187E+01  0.1136E+02
     -6.070  0.2086E+01  0.1138E+02
     -6.060  0.1991E+01  0.1140E+02
     -6.050  0.1904E+01  0.1142E+02
     -6.040  0.1825E+01  0.1143E+02
     -6.030  0.1754E+01  0.1145E+02
     -6.020  0.1692E+01  0.1147E+02
     -6.010  0.1637E+01  0.1148E+02
     -6.000  0.1590E+01  0.1150E+02
     -5.990  0.1552E+01  0.1152E+02
     -5.980  0.1521E+01  0.1153E+02
     -5.970  0.1498E+01  0.1155E+02
     -5.960  0.1483E+01  0.1156E+02
     -5.950  0.1474E+01  0.1158E+02
     -5.940  0.1472E+01  0.1159E+02
     -5.930  0.1476E+01  0.1161E+02
     -5.920  0.1485E+01  0.1162E+02
     -5.910  0.1499E+01  0.1163E+02
     -5.900  0.1517E+01  0.1165E+02
     -5.890  0.1538E+01  0.1167E+02
     -5.880  0.1563E+01  0.1168E+02
     -5.870  0.1589E+01  0.1170E+02
     -5.860  0.1617E+01  0.1171E+02
     -5.850  0.1645E+01  0.1173E+02
     -5.840  0.1673E+01  0.1175E+02
     -5.830  0.1701E+01  0.1176E+02
     -5.820  0.1728E+01  0.1178E+02
     -5.810  0.1752E+01  0.1180E+02
     -5.800  0.1775E+01  0.1182E+02
     -5.790  0.1795E+01  0.1183E+02
     -5.780  0.1811E+01  0.1185E+02
     -5.770  0.1824E+01  0.1187E+02
     -5.760  0.1834E+01  0.1189E+02
     -5.750  0.1839E+01  0.1191E+02
     -5.740  0.1840E+01  0.1193E+02
     -5.730  0.1837E+01  0.1194E+02
     -5.720  0.1830E+01  0.1196E+02
     -5.710  0.1818E+01  0.1198E+02
     -5.700  0.1802E+01  0.1200E+02
     -5.690  0.1782E+01  0.1202E+02
     -5.680  0.1758E+01  0.1203E+02
     -5.670  0.1730E+01  0.1205E+02
     -5.660  0.1698E+01  0.1207E+02
     -5.650  0.1664E+01  0.1208E+02
     -5.640  0.1627E+01  0.1210E+02
     -5.630  0.1587E+01  0.1212E+02
     -5.620  0.1545E+01  0.1213E+02
     -5.610  0.1502E+01  0.1215E+02
     -5.600  0.1458E+01  0.1216E+02
     -5.590  0.1413E+01  0.1218E+02
     -5.580  0.1369E+01  0.1219E+02
     -5.570  0.1325E+01  0.1220E+02
     -5.560  0.1283E+01  0.1222E+02
     -5.550  0.1243E+01  0.1223E+02
     -5.540  0.1205E+01  0.1224E+02
     -5.530  0.1171E+01  0.1225E+02
     -5.520  0.1141E+01  0.1226E+02
     -5.510  0.1116E+01  0.1227E+02
     -5.500  0.1096E+01  0.1229E+02
     -5.490  0.1083E+01  0.1230E+02
     -5.480  0.1076E+01  0.1231E+02
     -5.470  0.1076E+01  0.1232E+02
     -5.460  0.1085E+01  0.1233E+02
     -5.450  0.1102E+01  0.1234E+02
     -5.440  0.1128E+01  0.1235E+02
     -5.430  0.1163E+01  0.1236E+02
     -5.420  0.1207E+01  0.1237E+02
     -5.410  0.1262E+01  0.1239E+02
     -5.400  0.1326E+01  0.1240E+02
     -5.390  0.1400E+01  0.1241E+02
     -5.380  0.1484E+01  0.1243E+02
     -5.370  0.1578E+01  0.1245E+02
     -5.360  0.1682E+01  0.1246E+02
     -5.350  0.1794E+01  0.1248E+02
     -5.340  0.1916E+01  0.1250E+02
     -5.330  0.2045E+01  0.1252E+02
     -5.320  0.2182E+01  0.1254E+02
     -5.310  0.2325E+01  0.1256E+02
     -5.300  0.2474E+01  0.1259E+02
     -5.290  0.2628E+01  0.1262E+02
     -5.280  0.2786E+01  0.1264E+02
     -5.270  0.2947E+01  0.1267E+02
     -5.260  0.3110E+01  0.1270E+02
     -5.250  0.3273E+01  0.1274E+02
     -5.240  0.3436E+01  0.1277E+02
     -5.230  0.3596E+01  0.1281E+02
     -5.220  0.3755E+01  0.1284E+02
     -5.210  0.3909E+01  0.1288E+02
     -5.200  0.4057E+01  0.1292E+02
     -5.190  0.4200E+01  0.1297E+02
     -5.180  0.4335E+01  0.1301E+02
     -5.170  0.4462E+01  0.1305E+02
     -5.160  0.4580E+01  0.1310E+02
     -5.150  0.4688E+01  0.1315E+02
     -5.140  0.4785E+01  0.1319E+02
     -5.130  0.4870E+01  0.1324E+02
     -5.120  0.4944E+01  0.1329E+02
     -5.110  0.5004E+01  0.1334E+02
     -5.100  0.5052E+01  0.1339E+02
     -5.090  0.5087E+01  0.1344E+02
     -5.080  0.5108E+01  0.1350E+02
     -5.070  0.5115E+01  0.1355E+02
     -5.060  0.5109E+01  0.1360E+02
     -5.050  0.5090E+01  0.1365E+02
     -5.040  0.5057E+01  0.1370E+02
     -5.030  0.5011E+01  0.1375E+02
     -5.020  0.4953E+01  0.1380E+02
     -5.010  0.4883E+01  0.1385E+02
     -5.000  0.4802E+01  0.1390E+02
     -4.990  0.4709E+01  0.1394E+02
     -4.980  0.4607E+01  0.1399E+02
     -4.970  0.4495E+01  0.1403E+02
     -4.960  0.4375E+01  0.1408E+02
     -4.950  0.4248E+01  0.1412E+02
     -4.940  0.4114E+01  0.1416E+02
     -4.930  0.3975E+01  0.1420E+02
     -4.920  0.3832E+01  0.1424E+02
     -4.910  0.3686E+01  0.1428E+02
     -4.900  0.3537E+01  0.1431E+02
     -4.890  0.3388E+01  0.1435E+02
     -4.880  0.3239E+01  0.1438E+02
     -4.870  0.3091E+01  0.1441E+02
     -4.860  0.2946E+01  0.1444E+02
     -4.850  0.2804E+01  0.1447E+02
     -4.840  0.2666E+01  0.1449E+02
     -4.830  0.2534E+01  0.1452E+02
     -4.820  0.2408E+01  0.1454E+02
     -4.810  0.2290E+01  0.1457E+02
     -4.800  0.2179E+01  0.1459E+02
     -4.790  0.2077E+01  0.1461E+02
     -4.780  0.1984E+01  0.1463E+02
     -4.770  0.1900E+01  0.1465E+02
     -4.760  0.1826E+01  0.1466E+02
     -4.750  0.1762E+01  0.1468E+02
     -4.740  0.1709E+01  0.1470E+02
     -4.730  0.1666E+01  0.1472E+02
     -4.720  0.1633E+01  0.1473E+02
     -4.710  0.1610E+01  0.1475E+02
     -4.700  0.1597E+01  0.1476E+02
     -4.690  0.1594E+01  0.1478E+02
     -4.680  0.1599E+01  0.1480E+02
     -4.670  0.1612E+01  0.1481E+02
     -4.660  0.1633E+01  0.1483E+02
     -4.650  0.1661E+01  0.1485E+02
     -4.640  0.1695E+01  0.1486E+02
     -4.630  0.1734E+01  0.1488E+02
     -4.620  0.1777E+01  0.1490E+02
     -4.610  0.1824E+01  0.1492E+02
     -4.600  0.1873E+01  0.1493E+02
     -4.590  0.1923E+01  0.1495E+02
     -4.580  0.1974E+01  0.1497E+02
     -4.570  0.2024E+01  0.1499E+02
     -4.560  0.2074E+01  0.1501E+02
     -4.550  0.2121E+01  0.1504E+02
     -4.540  0.2165E+01  0.1506E+02
     -4.530  0.2206E+01  0.1508E+02
     -4.520  0.2243E+01  0.1510E+02
     -4.510  0.2276E+01  0.1512E+02
     -4.500  0.2305E+01  0.1515E+02
     -4.490  0.2329E+01  0.1517E+02
     -4.480  0.2348E+01  0.1519E+02
     -4.470  0.2363E+01  0.1522E+02
     -4.460  0.2374E+01  0.1524E+02
     -4.450  0.2381E+01  0.1527E+02
     -4.440  0.2384E+01  0.1529E+02
     -4.430  0.2383E+01  0.1531E+02
     -4.420  0.2381E+01  0.1534E+02
     -4.410  0.2376E+01  0.1536E+02
     -4.400  0.2370E+01  0.1538E+02
     -4.390  0.2363E+01  0.1541E+02
     -4.380  0.2356E+01  0.1543E+02
     -4.370  0.2350E+01  0.1546E+02
     -4.360  0.2345E+01  0.1548E+02
     -4.350  0.2341E+01  0.1550E+02
     -4.340  0.2340E+01  0.1553E+02
     -4.330  0.2341E+01  0.1555E+02
     -4.320  0.2345E+01  0.1557E+02
     -4.310  0.2352E+01  0.1560E+02
     -4.300  0.2363E+01  0.1562E+02
     -4.290  0.2377E+01  0.1564E+02
     -4.280  0.2395E+01  0.1567E+02
     -4.270  0.2415E+01  0.1569E+02
     -4.260  0.2439E+01  0.1572E+02
     -4.250  0.2466E+01  0.1574E+02
     -4.240  0.2495E+01  0.1577E+02
     -4.230  0.2526E+01  0.1579E+02
     -4.220  0.2558E+01  0.1582E+02
     -4.210  0.2592E+01  0.1584E+02
     -4.200  0.2626E+01  0.1587E+02
     -4.190  0.2661E+01  0.1589E+02
     -4.180  0.2695E+01  0.1592E+02
     -4.170  0.2727E+01  0.1595E+02
     -4.160  0.2758E+01  0.1598E+02
     -4.150  0.2788E+01  0.1600E+02
     -4.140  0.2814E+01  0.1603E+02
     -4.130  0.2838E+01  0.1606E+02
     -4.120  0.2859E+01  0.1609E+02
     -4.110  0.2876E+01  0.1612E+02
     -4.100  0.2890E+01  0.1615E+02
     -4.090  0.2900E+01  0.1618E+02
     -4.080  0.2906E+01  0.1621E+02
     -4.070  0.2909E+01  0.1623E+02
     -4.060  0.2908E+01  0.1626E+02
     -4.050  0.2904E+01  0.1629E+02
     -4.040  0.2896E+01  0.1632E+02
     -4.030  0.2886E+01  0.1635E+02
     -4.020  0.2874E+01  0.1638E+02
     -4.010  0.2860E+01  0.1641E+02
     -4.000  0.2845E+01  0.1644E+02
     -3.990  0.2828E+01  0.1646E+02
     -3.980  0.2812E+01  0.1649E+02
     -3.970  0.2795E+01  0.1652E+02
     -3.960  0.2779E+01  0.1655E+02
     -3.950  0.2764E+01  0.1658E+02
     -3.940  0.2750E+01  0.1660E+02
     -3.930  0.2738E+01  0.1663E+02
     -3.920  0.2728E+01  0.1666E+02
     -3.910  0.2720E+01  0.1669E+02
     -3.900  0.2715E+01  0.1671E+02
     -3.890  0.2711E+01  0.1674E+02
     -3.880  0.2710E+01  0.1677E+02
     -3.870  0.2710E+01  0.1679E+02
     -3.860  0.2712E+01  0.1682E+02
     -3.850  0.2715E+01  0.1685E+02
     -3.840  0.2719E+01  0.1688E+02
     -3.830  0.2722E+01  0.1690E+02
     -3.820  0.2725E+01  0.1693E+02
     -3.810  0.2727E+01  0.1696E+02
     -3.800  0.2727E+01  0.1698E+02
     -3.790  0.2724E+01  0.1701E+02
     -3.780  0.2719E+01  0.1704E+02
     -3.770  0.2709E+01  0.1707E+02
     -3.760  0.2695E+01  0.1709E+02
     -3.750  0.2676E+01  0.1712E+02