    3    3    1    1
  0.7309871E+02  0.3190316E-09  0.3190316E-09  0.2487900E-08  0.5000000E-15
  1.000000000000000E-004
  CAR 
 unknown system                          
     18     10     14
 
  0.0000000E+00  0.0000000E+00  0.0000000E+00  0.1562500E-01
    1      -17.271642   1.000000
    2      -16.063274   1.000000
    3       -8.781403   1.000000
    4       -5.819619   1.000000
    5       -5.819362   1.000000
    6       -4.959624   1.000000
    7       -4.712215   1.000000
    8       -4.711750   1.000000
    9       -3.237439   1.000000
   10       -0.463251   0.000000
   11       -0.462468   0.000000
   12       -0.240565   0.000000
   13       -0.239885   0.000000
   14        2.160861   0.000000
 
  0.1250000E+00  0.2081668E-16  0.0000000E+00  0.9375000E-01
    1      -17.057591   1.000000
    2      -15.960829   1.000000
    3       -8.536779   1.000000
    4       -6.283873   1.000000
    5       -5.766815   1.000000
    6       -5.585492   1.000000
    7       -5.048319   1.000000
    8       -4.281066   1.000000
    9       -3.376258   1.000000
   10       -0.745882   0.000000
   11       -0.679220   0.000000
   12       -0.477848   0.000000
   13       -0.109049   0.000000
   14        2.530705   0.000000
 
  0.2500000E+00  0.4163336E-16  0.0000000E+00  0.9375000E-01
    1      -16.489022   1.000000
    2      -15.691891   1.000000
    3       -8.170821   1.000000
    4       -7.012074   1.000000
    5       -6.748554   1.000000
    6       -5.685184   1.000000
    7       -4.999534   1.000000
    8       -4.533404   1.000000
    9       -3.944746   1.000000
   10       -1.070180   0.000000
   11       -0.894978   0.000000
   12       -0.351819   0.000000
   13        0.506191   0.000000
   14        3.351646   0.000000
 
  0.3750000E+00  0.2775558E-16  0.0000000E+00  0.9375000E-01
    1      -15.814148   1.000000
    2      -15.383356   1.000000
    3       -8.610017   1.000000
    4       -7.617416   1.000000
    5       -7.143578   1.000000
    6       -6.183210   1.000000
    7       -4.942221   1.000000
    8       -4.409477   1.000000
    9       -4.138979   1.000000
   10       -1.077356   0.000000
   11       -0.797777   0.000000
   12        0.366854   0.000000
   13        0.898880   0.000000
   14        3.923025   0.000000
 
  0.5000000E+00  0.8326673E-16  0.0000000E+00  0.4687500E-01
    1      -15.485828   1.000000
    2      -15.239977   1.000000
    3       -8.942734   1.000000
    4       -7.983306   1.000000
    5       -7.268918   1.000000
    6       -6.364224   1.000000
    7       -5.080268   1.000000
    8       -4.182136   1.000000
    9       -3.857304   1.000000
   10       -1.055783   0.000000
   11       -0.541182   0.000000
   12        0.666992   0.000000
   13        1.014408   0.000000
   14        2.968901   0.000000
 
  0.1250000E+00  0.1250000E+00  0.0000000E+00  0.9375000E-01
    1      -16.664911   1.000000
    2      -15.773714   1.000000
    3       -8.189345   1.000000
    4       -6.849192   1.000000
    5       -6.329809   1.000000
    6       -5.862972   1.000000
    7       -5.246864   1.000000
    8       -4.146664   1.000000
    9       -3.748933   1.000000
   10       -1.145237   0.000000
   11       -0.767753   0.000000
   12       -0.755547   0.000000
   13        0.485125   0.000000
   14        3.117757   0.000000
 
  0.2500000E+00  0.1250000E+00  0.0000000E+00  0.1875000E+00
    1      -16.031509   1.000000
    2      -15.475040   1.000000
    3       -8.253151   1.000000
    4       -7.275591   1.000000
    5       -7.012204   1.000000
    6       -6.368061   1.000000
    7       -5.147463   1.000000
    8       -4.508828   1.000000
    9       -4.032570   1.000000
   10       -1.228699   0.000000
   11       -0.781995   0.000000
   12       -0.285100   0.000000
   13        0.991025   0.000000
   14        4.109500   0.000000
 
  0.3750000E+00  0.1250000E+00  0.0000000E+00  0.1875000E+00
    1      -15.501104   1.000000
    2      -15.231116   1.000000
    3       -8.655100   1.000000
    4       -8.039227   1.000000
    5       -7.141359   1.000000
    6       -6.385704   1.000000
    7       -5.132511   1.000000
    8       -4.990292   1.000000
    9       -3.705871   1.000000
   10       -1.036841   0.000000
   11       -0.526698   0.000000
   12        0.338617   0.000000
   13        1.024766   0.000000
   14        3.494363   0.000000
 
  0.2500000E+00  0.2500000E+00  0.0000000E+00  0.9375000E-01
    1      -15.516154   1.000000
    2      -15.222202   1.000000
    3       -8.294593   1.000000
    4       -8.089201   1.000000
    5       -6.814980   1.000000
    6       -6.434141   1.000000
    7       -6.114854   1.000000
    8       -4.857321   1.000000
    9       -3.735605   1.000000
   10       -1.087683   0.000000
   11       -0.476071   0.000000
   12       -0.159440   0.000000
   13        1.308903   0.000000
   14        4.324792   0.000000
 
  0.3750000E+00  0.2500000E+00  0.0000000E+00  0.9375000E-01
    1      -15.281157   1.000000
    2      -15.103171   1.000000
    3       -8.474002   1.000000
    4       -8.125171   1.000000
    5       -7.098571   1.000000
    6       -6.436577   1.000000
    7       -6.208236   1.000000
    8       -5.242950   1.000000
    9       -3.368254   1.000000
   10       -1.414079   0.000000
   11       -0.098433   0.000000
   12        0.073316   0.000000
   13        1.451918   0.000000
   14        3.737994   0.000000
