unknown system                          
   1.00000000000000     
     3.190316    0.000000    0.000000
    -1.595158    2.762894    0.000000
     0.000000    0.000000   24.879004
   Mo   S 
     1     2
Direct
  0.333333  0.666667  0.149514
  0.666667  0.333333  0.086614
  0.666666  0.333333  0.212413
 
   12   12   96
 0.22211E-02 0.11150E-01 0.52357     0.54070E-03 0.91708     0.14107E-01 0.45646E-02 0.26339E-02 0.88736E-02 0.38910E-03
 0.15571E-01 0.60228E-02 0.32819E-02 0.14833E-02 0.13933E-02 0.24411E-02 0.16721E-01 0.79448E-02 0.41074E-01 0.43040E-02
 0.13197     0.29240E-02 0.20691E-02 0.32258E-02 0.63817E-03 0.28164E-02 0.22474E-02 0.15902E-02 0.24161E-01 0.10548E-01
 0.10459E-01 0.72852E-02 0.25408E-01 0.11078E-01 0.50059E-01 0.92475E-02 0.10775E-02 0.14625E-03 0.10532E-02 0.34737E-02
 0.38968E-02 0.20327E-02 0.61510E-02 0.49799E-02 0.14094E-01 0.87462     0.26802E-01 0.13040E-02 0.20699E-01 0.69140E-02
 0.16827E-02 0.57091E-03 0.30021E-01 0.11475E-01 0.23456E-01 0.15866E-01 0.15208     0.15865E-01 0.36218E-01 0.35393E-01
 0.12086E-02 0.10530E-02 0.95087E-04 0.98495E-04 0.32289E-03 0.17044E-01 0.14503E-01 0.86719     0.17625E-01 0.42949E-02
 0.59309E-02 0.76127E-02 0.32076E-01 0.20254E-02 0.10157E-02 0.66464E-04 0.14359E-02 0.12359E-01 0.51633E-01 0.47741E-01
 0.28291E-01 0.50909E-02 0.22119E-01 0.18971E-01 0.85526E-02 0.26027     0.38860E-03 0.19820E-03 0.65806E-03 0.93711E-03
 0.11608     0.22268E-02 0.12443E-01 0.44914E-02 0.11392E-01 0.41595     0.86208E-02 0.59189     0.29731E-01 0.17827E-03
 0.15897     0.83722E-03 0.38162E-03 0.80556E-03 0.47036     0.16029E-02 0.80861     0.86791     0.93846E-02 0.56886E-03
 0.10602     0.26107E-01 0.27567E-02 0.88756E-04 0.26792E-03 0.77412E-04 0.57802E-02 0.69215E-02 0.96473     0.12719E-02
 0.14946E-02 0.81485E-01 0.60407E-02 0.33217E-03 0.29797E-02 0.98851E-03 0.25391E-03 0.24683E-03 0.39807E-02 0.23810E-03
 0.14978E-01 0.81919     0.28356E-02 0.17056E-02 0.10822E-02 0.12507E-02 0.32550E-02 0.11452E-02 0.10987E-01 0.35777E-03
 0.31569E-01 0.43889E-03 0.56655E-03 0.22454E-02 0.35489E-02 0.77632E-02 0.25371E-01 0.39500E-02 0.18383     0.77011    
 0.30380E-01 0.64888E-01 0.28154E-01 0.28636E-02 0.13315     0.63583E-02 0.48096E-02 0.32070E-02 0.56274E-02 0.79388E-01
 0.64257E-01 0.55586E-01 0.99017     0.36072E-01 0.72042     0.71259E-01 0.11807E-01 0.90380E-02 0.26378E-02 0.21257    
 0.61474E-02 0.10317E-01 0.82067E-01 0.34058     0.76291E-01 0.22582     0.11744     0.73078E-01 0.11539     0.64313    
 0.24441E-01 0.72849E-03 0.82674E-01 0.13013E-01 0.10990     0.21010E-01 0.18428     0.43581E-01 0.66722     0.42823    
 0.79976     0.11500E-01 0.96215     0.75443E-02 0.67954E-01 0.28660E-02 0.52628E-01 0.45861     0.11434     0.74632    
 0.47389     0.86026E-01 0.93218     0.10490     0.10551E-01 0.25327E-01 0.48893E-03 0.13696E-02 0.23294E-02 0.73497    
 0.82424E-01 0.42305     0.91012E-01 0.14996     0.51310E-01 0.22156     0.95374     0.11912E-01 0.63094E-01 0.30206E-03
 0.25936     0.30120E-01 0.10873     0.99657     0.84792     0.46579E-01 0.74845     0.10110     0.45604E-01 0.86458E-01
 0.19926E-02 0.36904E-02 0.13051E-02 0.38682E-02 0.26198     0.16677E-01 0.63721E-01 0.11348     0.76999E-01 0.51643    
 0.35616E-01 0.97522E-01 0.12142E-01 0.59070E-03 0.32439E-02 0.76450     0.16665E-02 0.18141E-01 0.24152     0.13530E-01
 0.30140     0.32207     0.99334     0.29383E-02 0.94977E-02 0.11086E-01 0.21856E-01 0.34723E-03 0.78407E-02 0.41831E-03
 0.86048E-01 0.62420     0.13491     0.87171E-02 0.50225E-02 0.19919E-01 0.47185E-02 0.13106E-02 0.65705E-02 0.34367E-01
 0.13169E-02 0.51937E-02 0.31681E-02 0.10375E-02 0.13509E-01 0.46502E-01 0.44830E-02 0.30919E-02 0.29623E-02 0.61175E-01
 0.11577E-01 0.80232E-02 0.99832     0.25781E-02 0.70314E-01 0.11933E-01 0.16161E-02 0.39502E-02 0.40455E-02 0.80056E-02
 0.26757E-01 0.18616E-01 0.22420     0.65207     0.14997     0.89497     0.85956E-01 0.14093E-01 0.44771E-01 0.74704E-02
 0.65688E-02 0.54468E-02 0.16608E-01 0.89739     0.19160     0.25455     0.81208     0.21785     0.65376     0.93101    
 0.47538E-01 0.21438E-01 0.85594E-02 0.17395E-01 0.14183E-01 0.45272E-01 0.25045     0.97474     0.41515     0.96538    
 0.47392     0.31986     0.28283     0.45078     0.99105     0.29107E-02 0.54451E-01 0.36648E-01 0.99992     0.15764    
 0.94468     0.40219     0.99803     0.76714     0.88452     0.68500E-01 0.39764     0.16069E-01 0.14106E-01 0.10160E-01
 0.12061     0.92474     0.47198     0.99966     0.92083     0.55389     0.94433     0.30764     0.64976E-01 0.99998    
 0.22169E-02 0.70548E-01 0.12011E-01 0.74653     0.33947     0.76208     0.56732     0.84295     0.36407     0.99937    
 0.58708     0.49224E-01 0.10547     0.13724E-02 0.67679E-01 0.77975E-01 0.28229     0.82815     0.95702     0.34667    
 0.96020     0.38252     0.17225     0.13151     0.82701E-02 0.15222     0.32085E-02 0.12633E-01 0.20874     0.87291E-01
 0.24974     0.93956     0.33722     0.56040     0.10677     0.92063E-01 0.18444E-01 0.20326E-02 0.32157E-02 0.15242E-01
 0.62776E-02 0.87759     0.25179     0.76793E-01 0.38579     0.38194     0.17834     0.10523E-01 0.11598E-01 0.86947E-02
 0.87486E-02 0.14520E-02 0.69653E-01 0.19787E-02 0.37444E-01 0.26081     0.16428     0.40214E-01 0.12957E-01 0.15379E-01
 0.74256E-02 0.44500E-02 0.14181E-01 0.23511     0.55118E-02 0.61386     0.58338E-02 0.36444E-02 0.21155E-01 0.44447E-01
 0.63718E-02 0.55732E-02 0.70443E-02 0.15612     0.35041E-01 0.38776E-01 0.29673     0.12974E-01 0.39851E-01 0.17541    
 0.39118E-02 0.59590E-02 0.61158E-02 0.11542E-01 0.37175E-01 0.56936E-01 0.30988     0.56934     0.39573     0.79367    
 0.19318     0.46125E-01 0.47801E-01 0.11243E-01 0.10467E-01 0.94720E-02 0.34044E-01 0.40559     0.38901     0.54590    
 0.77933     0.55334     0.71215     0.78422     0.12522     0.38266E-01 0.20150E-01 0.19578E-01 0.26973E-01 0.12623    
 0.47977     0.83064     0.70917     0.91729     0.72176     0.62283     0.49210     0.33777     0.31941     0.88107E-02
 0.40594E-01 0.78101E-01 0.72800     0.50261     0.92197     0.72336     0.90310     0.81415     0.80465     0.24696    
 0.39407     0.32126E-01 0.20064E-01 0.27093E-01 0.22825     0.77842     0.72474     0.89962     0.85787     0.76947    
 0.85767     0.55552     0.23942     0.30309     0.74144E-02 0.20503     0.41405E-01 0.62910     0.62894     0.81204    
 0.77380     0.94543     0.69478     0.86772     0.60084     0.12928     0.58772E-01 0.47383E-02 0.51878E-01 0.15255    
 0.48893     0.79185     0.85936     0.68852     0.85636     0.65617     0.38026     0.19735     0.22217E-01 0.27887E-01
 0.73080E-02 0.28417E-01 0.24547     0.27405     0.52696     0.90037     0.63584     0.66708     0.22499     0.12366    
 0.30402E-01 0.55798E-02 0.57522E-02 0.14978E-01 0.16858E-01 0.34028     0.33420     0.26176     0.53647     0.50345    
 0.15724     0.27324E-01 0.20333E-01 0.14089E-01 0.12045E-01 0.45395E-02 0.30192E-01 0.68603E-02 0.48022E-01 0.19073    
 0.22762     0.11719     0.26298E-01 0.23218E-01 0.14813E-01 0.12118E-01 0.27190E-01 0.82985E-01 0.15842E-01 0.71492E-01
 0.12781E-01 0.10110E-01 0.33848E-01 0.54361E-01 0.10303E-01 0.11017E-01 0.15644E-01 0.82623E-01 0.77624E-01 0.11474    
 0.26077     0.43455E-01 0.54242E-01 0.56060E-01 0.89009E-02 0.98589E-02 0.10631E-01 0.17734E-01 0.55743E-01 0.13333    
 0.43832     0.63917     0.60967     0.72322     0.35376     0.11519     0.65409E-01 0.17612E-01 0.16829E-01 0.15952E-01
 0.59122E-01 0.39778     0.57754     0.73659     0.83866     0.77089     0.79145     0.72786     0.24507     0.62394E-01
 0.39108E-01 0.25967E-01 0.46836E-01 0.25342     0.65273     0.85529     0.86450     0.92613     0.86512     0.79780    
 0.65748     0.38533     0.29082     0.19614E-01 0.49002E-01 0.14958     0.71114     0.75757     0.92731     0.90226    
 0.94050     0.90132     0.85044     0.48948     0.48742     0.62113E-01 0.29512E-01 0.61421E-01 0.38177     0.80592    
 0.86757     0.93944     0.93905     0.91183     0.90190     0.73219     0.47977     0.28319     0.18467E-01 0.90704E-01
 0.10889     0.67694     0.79467     0.90040     0.91295     0.94994     0.87206     0.86642     0.68432     0.24878    
 0.70762E-01 0.12256E-01 0.68675E-01 0.25839     0.64754     0.84537     0.90100     0.87193     0.89950     0.80666    
 0.57101     0.29348     0.48557E-01 0.30413E-01 0.15802E-01 0.55441E-01 0.32582     0.50109     0.72570     0.87754    
 0.80314     0.77131     0.38654     0.19285     0.52330E-01 0.13428E-01 0.12468E-01 0.22776E-01 0.37807E-01 0.29364    
 0.45595     0.50105     0.67446     0.62901     0.21263     0.60183E-01 0.34249E-01 0.23431E-01 0.20599E-01 0.11942E-01
 0.33882E-01 0.17592E-01 0.77148E-01 0.24048     0.32176     0.24303     0.46952E-01 0.35187E-01 0.25135E-01 0.25981E-01
 0.49990E-01 0.87526E-01 0.37207E-01 0.63992E-01 0.22932E-01 0.21319E-01 0.53793E-01 0.74521E-01 0.16677E-01 0.18653E-01
 0.28668E-01 0.10233     0.15434     0.23815     0.32346     0.11206     0.89207E-01 0.55947E-01 0.16126E-01 0.16200E-01
 0.16081E-01 0.25646E-01 0.86155E-01 0.24775     0.56628     0.72079     0.73160     0.76047     0.51246     0.22262    
 0.97115E-01 0.25632E-01 0.24873E-01 0.24108E-01 0.98007E-01 0.46449     0.69328     0.82223     0.87759     0.85539    
 0.84254     0.75788     0.37215     0.10089     0.68076E-01 0.33140E-01 0.77206E-01 0.38736     0.74080     0.88126    
 0.90951     0.93418     0.90839     0.86308     0.74305     0.46904     0.37427     0.35330E-01 0.67102E-01 0.25007    
 0.75495     0.84877     0.93378     0.93595     0.94728     0.92523     0.88155     0.64569     0.59925     0.11530    
 0.42454E-01 0.12226     0.53056     0.84561     0.90981     0.94675     0.95018     0.93869     0.92120     0.81659    
 0.64535     0.38209     0.37452E-01 0.10007     0.22119     0.74789     0.86217     0.92631     0.93888     0.94994    
 0.91737     0.88960     0.75879     0.39468     0.11481     0.25849E-01 0.11531     0.39386     0.74625     0.88161    
 0.92042     0.91713     0.91965     0.86826     0.69689     0.42181     0.10528     0.48380E-01 0.33828E-01 0.11269    
 0.44903     0.65567     0.81670     0.88970     0.86515     0.83199     0.53903     0.30638     0.97211E-01 0.30295E-01
 0.26940E-01 0.41256E-01 0.79529E-01 0.38376     0.57973     0.65426     0.75137     0.71500     0.30976     0.11796    
 0.56849E-01 0.38539E-01 0.39190E-01 0.28176E-01 0.47503E-01 0.36809E-01 0.13171     0.33968     0.42298     0.37675    
 0.78463E-01 0.52367E-01 0.38641E-01 0.48879E-01 0.94987E-01 0.14228     0.80333E-01 0.83416E-01 0.36432E-01 0.37658E-01
 0.85571E-01 0.11145     0.24779E-01 0.26714E-01 0.46815E-01 0.15569     0.27551     0.38969     0.43980     0.22687    
 0.15134     0.70218E-01 0.24057E-01 0.24178E-01 0.21278E-01 0.35644E-01 0.12800     0.36296     0.65894     0.77922    
 0.79926     0.80364     0.61540     0.33456     0.14393     0.35691E-01 0.34549E-01 0.34368E-01 0.14802     0.53366    
 0.75161     0.85450     0.88975     0.88079     0.86555     0.78664     0.46560     0.15288     0.10754     0.43513E-01
 0.11976     0.48525     0.78130     0.88300     0.90992     0.92360     0.90791     0.87596     0.78282     0.54175    
 0.48545     0.55357E-01 0.10059     0.34604     0.78985     0.86854     0.92018     0.92244     0.92927     0.91505    
 0.88623     0.71642     0.67302     0.19716     0.60639E-01 0.21604     0.62201     0.86739     0.90845     0.92898    
 0.92800     0.92472     0.91420     0.85203     0.73487     0.50227     0.66965E-01 0.13996     0.34684     0.79954    
 0.88325     0.91948     0.92455     0.93010     0.91508     0.89819     0.81204     0.51665     0.18962     0.47981E-01
 0.19383     0.50741     0.80802     0.89345     0.91427     0.91158     0.91458     0.88593     0.77074     0.53823    
 0.19212     0.79569E-01 0.65199E-01 0.19941     0.56114     0.73913     0.85196     0.88884     0.87658     0.85704    
 0.64366     0.42641     0.16524     0.60414E-01 0.50784E-01 0.72427E-01 0.14492     0.50433     0.66425     0.72695    
 0.78686     0.76342     0.40929     0.19518     0.93733E-01 0.64524E-01 0.71053E-01 0.57795E-01 0.73462E-01 0.66186E-01
 0.21162     0.44652     0.50326     0.47836     0.12045     0.78538E-01 0.60348E-01 0.85526E-01 0.16288     0.22495    
 0.14905     0.12648     0.55986E-01 0.60250E-01 0.13038     0.16235     0.34933E-01 0.37217E-01 0.73141E-01 0.22947    
 0.40359     0.52258     0.54803     0.35090     0.24198     0.97989E-01 0.33898E-01 0.33903E-01 0.28097E-01 0.48960E-01
 0.17212     0.44067     0.70358     0.80267     0.82663     0.81684     0.65693     0.42826     0.19744     0.48455E-01
 0.46738E-01 0.48353E-01 0.19658     0.58043     0.76597     0.84754     0.87044     0.86742     0.85723     0.78511    
 0.51517     0.20994     0.15698     0.55944E-01 0.17250     0.53210     0.78762     0.85016     0.86008     0.86035    
 0.85626     0.84781     0.79075     0.57230     0.55936     0.80800E-01 0.13879     0.42457     0.79065     0.84319    
 0.84717     0.80445     0.81279     0.84232     0.85520     0.73710     0.68967     0.30512     0.82074E-01 0.32629    
 0.65586     0.85952     0.85634     0.81266     0.76011     0.80878     0.86010     0.85045     0.77516     0.57209    
 0.11540     0.18566     0.46579     0.81123     0.86868     0.85646     0.80841     0.81189     0.85383     0.87809    
 0.83432     0.59281     0.28979     0.84552E-01 0.29384     0.58231     0.83520     0.87470     0.86091     0.84004    
 0.86358     0.86805     0.79851     0.62132     0.29072     0.13940     0.11852     0.30770     0.62289     0.77424    
 0.84886     0.85672     0.84643     0.84844     0.69302     0.51448     0.24854     0.11443     0.97594E-01 0.12746    
 0.23643     0.59068     0.68927     0.74900     0.78978     0.77451     0.47735     0.26891     0.14705     0.11112    
 0.12820     0.11186     0.11608     0.10883     0.31170     0.51185     0.54721     0.53884     0.16381     0.11231    
 0.93738E-01 0.13781     0.24614     0.32010     0.24273     0.18490     0.80087E-01 0.90903E-01 0.18231     0.21299    
 0.48402E-01 0.52081E-01 0.10635     0.30020     0.49728     0.61209     0.61605     0.45507     0.34326     0.12802    
 0.46423E-01 0.47127E-01 0.38501E-01 0.65536E-01 0.20712     0.48005     0.72444     0.81772     0.84387     0.81988    
 0.67932     0.50443     0.23360     0.62996E-01 0.62175E-01 0.64952E-01 0.23133     0.59732     0.76266     0.83194    
 0.84759     0.84916     0.84199     0.76617     0.53834     0.25352     0.20912     0.69521E-01 0.22173     0.54146    
 0.77775     0.80631     0.77985     0.75026     0.77392     0.80738     0.78260     0.56430     0.56753     0.11858    
 0.16205     0.49400     0.77275     0.80455     0.71374     0.52180     0.52943     0.70995     0.81101     0.74464    
 0.68882     0.40882     0.11109     0.40448     0.67708     0.84447     0.77392     0.52939     0.32236     0.52759    
 0.77548     0.84008     0.80478     0.59373     0.19287     0.22192     0.57562     0.81059     0.84967     0.74694    
 0.52738     0.52562     0.74681     0.85351     0.84848     0.65096     0.37968     0.13827     0.37451     0.64932    
 0.85204     0.85157     0.77657     0.70937     0.78226     0.84585     0.81248     0.68407     0.37501     0.21540    
 0.18064     0.40655     0.65827     0.80125     0.83771     0.81258     0.80296     0.83418     0.71619     0.57654    
 0.33211     0.18050     0.15720     0.19569     0.34092     0.62596     0.69079     0.75528     0.77767     0.76849    
 0.51325     0.32893     0.21128     0.17372     0.19773     0.17749     0.16786     0.17294     0.41202     0.52014    
 0.56099     0.56364     0.19786     0.14925     0.13746     0.20018     0.32854     0.40923     0.34164     0.23525    
 0.10972     0.13547     0.22434     0.24493     0.64880E-01 0.71087E-01 0.14202     0.35996     0.56300     0.67187    
 0.66485     0.54909     0.41915     0.14765     0.63040E-01 0.64711E-01 0.53714E-01 0.84501E-01 0.22793     0.48762    
 0.73096     0.82877     0.85469     0.81895     0.69758     0.54514     0.23960     0.79538E-01 0.81223E-01 0.81963E-01
 0.24554     0.58780     0.75929     0.83268     0.85246     0.85747     0.84250     0.74905     0.54622     0.26570    
 0.24259     0.87574E-01 0.24770     0.52786     0.76812     0.79716     0.76980     0.73421     0.76340     0.80047    
 0.77198     0.53948     0.53017     0.16507     0.17007     0.54011     0.75599     0.79825     0.68331     0.46648    
 0.47047     0.68197     0.79907     0.75586     0.69112     0.43795     0.14321     0.40542     0.69781     0.84520    
 0.76360     0.47023     0.24695     0.47108     0.76280     0.84374     0.82682     0.56944     0.24901     0.22990    
 0.61788     0.80756     0.85717     0.73314     0.47118     0.46487     0.73582     0.85519     0.85672     0.66926    
 0.38061     0.17700     0.37012     0.67888     0.86080     0.85459     0.76360     0.68398     0.77014     0.85138    
 0.81992     0.69569     0.38762     0.24542     0.21013     0.41530     0.65716     0.82456     0.84140     0.80037    
 0.79316     0.83803     0.72378     0.58904     0.35397     0.21092     0.19380     0.22867     0.37103     0.59785    
 0.69112     0.76407     0.76567     0.76262     0.52273     0.35566     0.24214     0.20387     0.22777     0.20648    
 0.19363     0.22533     0.44708     0.49093     0.55759     0.55715     0.21766     0.18019     0.16934     0.23024    
 0.34876     0.42437     0.36472     0.24014     0.13904     0.18626     0.23846     0.25332     0.83180E-01 0.92818E-01
 0.17099     0.38891     0.57786     0.67758     0.67297     0.59292     0.42585     0.15882     0.86636E-01 0.85102E-01
 0.77969E-01 0.10825     0.23151     0.44027     0.68237     0.79738     0.82430     0.77674     0.66449     0.50478    
 0.22698     0.10217     0.10553     0.10248     0.24167     0.54930     0.73237     0.82440     0.85938     0.86630    
 0.83422     0.71614     0.52151     0.25381     0.24159     0.11038     0.24455     0.48378     0.74458     0.80780    
 0.81349     0.79870     0.80904     0.81063     0.74378     0.49927     0.45713     0.18085     0.16166     0.51607    
 0.72154     0.80676     0.75752     0.66344     0.66247     0.75822     0.80506     0.74196     0.65307     0.34798    
 0.14300     0.31477     0.66709     0.83910     0.80916     0.66178     0.52952     0.66584     0.80653     0.83718    
 0.79929     0.46596     0.20790     0.19056     0.51732     0.76434     0.86516     0.80055     0.66609     0.65614    
 0.80471     0.85848     0.82492     0.58956     0.29865     0.17399     0.29377     0.60392     0.82799     0.85829    
 0.80726     0.76220     0.81242     0.85843     0.78213     0.60324     0.32984     0.24020     0.21697     0.34213    
 0.57194     0.80214     0.83389     0.80618     0.80121     0.83500     0.67468     0.49396     0.29344     0.21601    
 0.22228     0.23190     0.29912     0.47878     0.65135     0.74819     0.73807     0.73551     0.48184     0.30309    
 0.19867     0.18725     0.22867     0.21223     0.18280     0.19802     0.35906     0.42795     0.52996     0.51133    
 0.21968     0.18246     0.15225     0.18935     0.28854     0.35674     0.29441     0.18908     0.13749     0.19785    
 0.22660     0.24869     0.10572     0.11352     0.17169     0.33590     0.48503     0.58193     0.58722     0.50912    
 0.33540     0.15702     0.11377     0.10850     0.12542     0.14925     0.22123     0.32154     0.51818     0.65607    
 0.68888     0.62752     0.50933     0.37029     0.21173     0.14149     0.14496     0.13823     0.23668     0.48029    
 0.62591     0.73922     0.80530     0.81271     0.75329     0.61680     0.44615     0.24493     0.22197     0.13634    
 0.22669     0.39806     0.66864     0.77337     0.80272     0.80281     0.80204     0.77012     0.65934     0.42854    
 0.33998     0.14911     0.13604     0.39758     0.61489     0.75963     0.77552     0.75711     0.75065     0.77649    
 0.76201     0.64467     0.50171     0.21280     0.10972     0.19372     0.51495     0.76666     0.80012     0.74938    
 0.70373     0.75652     0.79755     0.75701     0.65249     0.32017     0.14878     0.14619     0.33989     0.61313    
 0.81201     0.80827     0.75672     0.74490     0.81337     0.79929     0.69098     0.44920     0.23397     0.15427    
 0.23417     0.46063     0.69079     0.79793     0.79938     0.78137     0.80238     0.80228     0.63078     0.45445    
 0.27725     0.21393     0.19897     0.28231     0.43772     0.66325     0.74817     0.76629     0.75682     0.76251    
 0.50961     0.33471     0.23466     0.19770     0.20870     0.20918     0.23306     0.32301     0.50198     0.64811    
 0.65539     0.63307     0.36766     0.19599     0.14633     0.16250     0.20593     0.19585     0.16206     0.14584    
 0.21888     0.31924     0.46256     0.42328     0.20742     0.15246     0.11003     0.13981     0.23148     0.29490    
 0.23044     0.14124     0.10661     0.15917     0.20731     0.24817     0.14391     0.13349     0.14174     0.22089    
 0.32868     0.43575     0.44787     0.34410     0.20707     0.13627     0.13822     0.14692     0.22097     0.23544    
 0.22458     0.21034     0.31447     0.41826     0.44669     0.39532     0.30442     0.24325     0.21974     0.21951    
 0.22379     0.20910     0.26683     0.41142     0.42437     0.50483     0.59288     0.59358     0.52521     0.43645    
 0.35888     0.27038     0.22425     0.18298     0.22597     0.30597     0.53856     0.63190     0.65356     0.66712    
 0.66340     0.61390     0.51008     0.34983     0.23299     0.13403     0.13144     0.27327     0.41689     0.59089    
 0.67260     0.68256     0.66891     0.66744     0.60583     0.45297     0.30132     0.15072     0.10368     0.13814    
 0.31627     0.54950     0.65137     0.66730     0.65611     0.67838     0.65679     0.52821     0.40946     0.20631    
 0.10578     0.10700     0.20916     0.38240     0.60102     0.67649     0.67892     0.66259     0.68447     0.57775    
 0.45202     0.28291     0.12039     0.69716E-01 0.12229     0.28876     0.44677     0.57582     0.66100     0.67252    
 0.66051     0.58323     0.39230     0.28439     0.13201     0.69587E-01 0.64427E-01 0.13393     0.27740     0.42213    
 0.50937     0.62258     0.59078     0.54515     0.30716     0.21151     0.12144     0.64136E-01 0.58261E-01 0.67456E-01
 0.11989     0.20678     0.30557     0.44751     0.51488     0.43759     0.25163     0.14101     0.10566     0.73229E-01
 0.66176E-01 0.64207E-01 0.73630E-01 0.10360     0.15376     0.21821     0.38380     0.33322     0.20851     0.14439    
 0.10236     0.10102     0.12112     0.13937     0.11760     0.10379     0.10224     0.14335     0.20838     0.28422    
 0.22231     0.16986     0.13296     0.16008     0.20678     0.27250     0.28413     0.21571     0.14721     0.13129    
 0.17837     0.22563     0.35689     0.37238     0.26576     0.18742     0.22300     0.23414     0.23179     0.22462    
 0.20786     0.21520     0.27817     0.34016     0.34460     0.31682     0.37581     0.39730     0.25857     0.26529    
 0.29713     0.28809     0.27704     0.29036     0.33273     0.35390     0.28003     0.26856     0.26405     0.27871    
 0.43492     0.39835     0.35087     0.36009     0.37221     0.37978     0.37102     0.32818     0.21146     0.17639    
 0.18600     0.24186     0.25383     0.36141     0.43094     0.41319     0.40154     0.41047     0.37566     0.29677    
 0.20663     0.16190     0.13837     0.15049     0.22604     0.29006     0.34943     0.40302     0.40524     0.40979    
 0.36762     0.27825     0.22907     0.13783     0.79433E-01 0.80188E-01 0.13547     0.21871     0.30284     0.36147    
 0.41178     0.39657     0.37187     0.28163     0.23657     0.13078     0.35641E-01 0.14861E-01 0.36896E-01 0.13184    
 0.23044     0.28433     0.36852     0.41664     0.36535     0.28720     0.22017     0.13040     0.25903E-01 0.39183E-02
 0.34846E-02 0.26281E-01 0.12879     0.23671     0.26163     0.40178     0.35396     0.29355     0.21626     0.13908    
 0.36169E-01 0.34890E-02 0.14618E-02 0.36369E-02 0.36006E-01 0.13704     0.21477     0.27881     0.39860     0.27340    
 0.22163     0.15359     0.79539E-01 0.15624E-01 0.35260E-02 0.36113E-02 0.15727E-01 0.77334E-01 0.16321     0.20080    
 0.35546     0.31291     0.25338     0.19865     0.13541     0.76334E-01 0.36841E-01 0.26998E-01 0.34640E-01 0.78985E-01
 0.13825     0.19149     0.25408     0.39032     0.34883     0.23571     0.18646     0.17058     0.13491     0.12634    
 0.13222     0.14127     0.15870     0.17814     0.25704     0.34224     0.44858     0.46576     0.30285     0.22474    
 0.21682     0.16066     0.14089     0.16039     0.19451     0.24428     0.34509     0.43131     0.42894     0.40347    
 0.51680     0.40508     0.19965     0.17421     0.15842     0.14944     0.17413     0.24367     0.36206     0.44153    
 0.34816     0.33539     0.30165     0.32925     0.40773     0.23550     0.16939     0.16577     0.18415     0.23760    
 0.31139     0.36054     0.24245     0.23561     0.26047     0.25627     0.19821     0.24187     0.23570     0.18987    
 0.19033     0.21605     0.23712     0.24489     0.19433     0.19867     0.18171     0.19199     0.21820     0.17204    
 0.16920     0.19449     0.18937     0.19217     0.18283     0.17475     0.16044     0.12012     0.79551E-01 0.78622E-01
 0.11539     0.16030     0.16048     0.15983     0.19390     0.18861     0.16654     0.14909     0.14383     0.75207E-01
 0.16267E-01 0.56647E-02 0.17415E-01 0.74371E-01 0.13928     0.15454     0.17880     0.22355     0.17739     0.15339    
 0.15707     0.74295E-01 0.69177E-02 0.15192E-03 0.11314E-03 0.69898E-02 0.74517E-01 0.16345     0.16580     0.25293    
 0.22446     0.18092     0.20799     0.11904     0.16821E-01 0.11649E-03 0.66426E-05 0.11825E-03 0.16873E-01 0.11835    
 0.20722     0.21741     0.36309     0.21580     0.23769     0.19532     0.78920E-01 0.58874E-02 0.11135E-03 0.14448E-03
 0.58829E-02 0.77311E-01 0.19642     0.24183     0.36023     0.36946     0.31588     0.26293     0.17761     0.77085E-01
 0.17419E-01 0.69322E-02 0.16063E-01 0.78987E-01 0.18456     0.25418     0.31399     0.49198     0.44727     0.29165    
 0.26435     0.20268     0.11548     0.73761E-01 0.76092E-01 0.12079     0.19684     0.23761     0.32846     0.41747    
 0.43304     0.43186     0.27850     0.23950     0.21619     0.16542     0.15618     0.17267     0.19405     0.23483    
 0.32966     0.41905     0.40903     0.40417     0.51541     0.33936     0.20827     0.20273     0.17834     0.16798    
 0.19063     0.25206     0.35218     0.42162     0.33397     0.31280     0.28043     0.37319     0.40396     0.23905    
 0.20163     0.20137     0.21349     0.26096     0.32021     0.35391     0.23462     0.22547     0.25061     0.22393    
 0.21085     0.28933     0.26533     0.21739     0.22549     0.24927     0.26276     0.24942     0.19482     0.18790    
 0.17035     0.19189     0.21438     0.17698     0.20253     0.23243     0.22057     0.22382     0.21371     0.19113    
 0.16975     0.12342     0.78770E-01 0.75718E-01 0.11750     0.17769     0.17817     0.18912     0.22558     0.22558    
 0.19582     0.17103     0.15813     0.83355E-01 0.18186E-01 0.67902E-02 0.19727E-01 0.80928E-01 0.15410     0.18019    
 0.20535     0.25886     0.20521     0.17593     0.17056     0.81721E-01 0.90979E-02 0.27924E-03 0.23761E-03 0.90844E-02
 0.83244E-01 0.16883     0.18886     0.26548     0.26125     0.19003     0.20693     0.12044     0.19071E-01 0.24829E-03
 0.14059E-04 0.24437E-03 0.19107E-01 0.12119     0.20813     0.22129     0.37195     0.22425     0.21657     0.19346    
 0.77056E-01 0.67561E-02 0.23938E-03 0.29988E-03 0.66751E-02 0.76980E-01 0.18260     0.24929     0.32100     0.39196    
 0.31946     0.23701     0.16797     0.77541E-01 0.19627E-01 0.86694E-02 0.18578E-01 0.77733E-01 0.17564     0.23428    
 0.31387     0.44874     0.43170     0.28621     0.25779     0.18407     0.11815     0.83486E-01 0.83887E-01 0.12178    
 0.18876     0.22475     0.31776     0.39422     0.31991     0.30456     0.22418     0.23143     0.23721     0.25357    
 0.28628     0.27167     0.22202     0.20861     0.25704     0.31068     0.30187     0.31178     0.37595     0.29088    
 0.29872     0.36574     0.36665     0.35314     0.33895     0.33109     0.32779     0.32175     0.25702     0.22809    
 0.22485     0.37967     0.44336     0.40575     0.45239     0.47807     0.45689     0.44080     0.40385     0.33348    
 0.21232     0.16130     0.17636     0.18896     0.30416     0.48378     0.50618     0.48813     0.50792     0.49737    
 0.44629     0.32232     0.22379     0.14939     0.12193     0.15924     0.23455     0.31124     0.45457     0.51585    
 0.50153     0.49889     0.46169     0.33817     0.26343     0.15636     0.84296E-01 0.80510E-01 0.14954     0.28325    
 0.36307     0.45564     0.50091     0.51123     0.45983     0.36422     0.28667     0.16530     0.50002E-01 0.25280E-01
 0.52670E-01 0.15931     0.28329     0.37860     0.44870     0.50347     0.45038     0.36891     0.27041     0.16191    
 0.45985E-01 0.10105E-01 0.10121E-01 0.45640E-01 0.16652     0.25707     0.34600     0.43691     0.45513     0.32916    
 0.23158     0.15155     0.51609E-01 0.10344E-01 0.59993E-02 0.99080E-02 0.52022E-01 0.15393     0.23312     0.30167    
 0.43601     0.30823     0.19221     0.15861     0.82418E-01 0.24520E-01 0.99226E-02 0.10958E-01 0.24214E-01 0.83295E-01
 0.14448     0.23209     0.29363     0.37000     0.26221     0.15953     0.12172     0.84610E-01 0.52922E-01 0.43225E-01
 0.51458E-01 0.83822E-01 0.12624     0.15959     0.25899     0.32226     0.31386     0.22436     0.17947     0.14250    
 0.15044     0.16866     0.16564     0.15171     0.15163     0.16182     0.23413     0.29369     0.18900     0.18796    