       N       E                     dE             d eps       ncg     rms          rms(c)
DAV:   1     0.998880426975E+02    0.99888E+02   -0.43642E+03   288   0.526E+02
DAV:   2    -0.115041421489E+02   -0.11139E+03   -0.10591E+03   466   0.149E+02
DAV:   3    -0.231584833536E+02   -0.11654E+02   -0.11534E+02   394   0.603E+01
DAV:   4    -0.233652137689E+02   -0.20673E+00   -0.20640E+00   342   0.959E+00
DAV:   5    -0.233705242310E+02   -0.53105E-02   -0.53091E-02   384   0.143E+00    0.691E+00
RMM:   6    -0.222126755818E+02    0.11578E+01   -0.53909E+00   292   0.116E+01    0.263E+00
RMM:   7    -0.218284347196E+02    0.38424E+00   -0.55514E-01   290   0.327E+00    0.153E+00
RMM:   8    -0.217682691113E+02    0.60166E-01   -0.23463E-01   304   0.244E+00    0.350E-01
RMM:   9    -0.217635814844E+02    0.46876E-02   -0.81611E-03   334   0.548E-01    0.933E-02
RMM:  10    -0.217628435572E+02    0.73793E-03   -0.16859E-03   330   0.211E-01    0.438E-02
RMM:  11    -0.217628253181E+02    0.18239E-04   -0.19426E-03   313   0.194E-01    0.577E-02
RMM:  12    -0.217627050937E+02    0.12022E-03   -0.61318E-04   304   0.132E-01    0.157E-02
RMM:  13    -0.217631587543E+02   -0.45366E-03   -0.14994E-04   294   0.639E-02    0.190E-02
RMM:  14    -0.217632269478E+02   -0.68194E-04   -0.27495E-05   318   0.267E-02    0.593E-03
RMM:  15    -0.217633993907E+02   -0.17244E-03   -0.14327E-05   289   0.158E-02    0.430E-03
RMM:  16    -0.217634599685E+02   -0.60578E-04   -0.33965E-06   236   0.818E-03    0.304E-03
RMM:  17    -0.217635052396E+02   -0.45271E-04   -0.26685E-06   206   0.778E-03    0.239E-03
RMM:  18    -0.217635079487E+02   -0.27090E-05   -0.22049E-07   161   0.286E-03    0.208E-03
RMM:  19    -0.217635126849E+02   -0.47362E-05   -0.46870E-07   184   0.338E-03    0.202E-03
RMM:  20    -0.217635130187E+02   -0.33379E-06   -0.70948E-08   129   0.171E-03
   1 F= -.22354519E+02 E0= -.22354519E+02  d E =-.670577E-10
