 vasp.5.4.4.18Apr17-6-g9f103f2a35 (build Jun 30 2017 11:15:00) complex          
  
 executed on    STALLO_VASP_5.4.4 date 2019.11.08  11:45:40
 running on    4 total cores
 distrk:  each k-point on    4 cores,    1 groups
 distr:  one band on NCORES_PER_BAND=   2 cores,    2 groups


--------------------------------------------------------------------------------------------------------


 INCAR:
 POTCAR:   PAW_PBE Mo 08Apr2002                   
 POTCAR:    PAW_PBE S 17Jan2003                   
 POTCAR:   PAW_PBE Mo 08Apr2002                   
   VRHFIN =Mo: 4p5s4d                                                           
   LEXCH  = PE                                                                  
   EATOM  =   217.5180 eV,   15.9871 Ry                                         
                                                                                
   TITEL  = PAW_PBE Mo 08Apr2002                                                
   LULTRA =        F    use ultrasoft PP ?                                      
   IUNSCR =        1    unscreen: 0-lin 1-nonlin 2-no                           
   RPACOR =    2.200    partial core radius                                     
   POMASS =   95.940; ZVAL   =    6.000    mass and valenz                      
   RCORE  =    2.750    outmost cutoff radius                                   
   RWIGS  =    2.750; RWIGS  =    1.455    wigner-seitz radius (au A)           
   ENMAX  =  224.584; ENMIN  =  168.438 eV                                      
   RCLOC  =    2.111    cutoff for local pot                                    
   LCOR   =        T    correct aug charges                                     
   LPAW   =        T    paw PP                                                  
   EAUG   =  345.278                                                            
   DEXC   =    -.088                                                            
   RMAX   =    3.077    core radius for proj-oper                               
   RAUG   =    1.300    factor for augmentation sphere                          
   RDEP   =    2.815    radius for radial grids                                 
   QCUT   =   -4.063; QGAM   =    8.126    optimization parameters              
                                                                                
   Description                                                                  
     l     E      TYP  RCUT    TYP  RCUT                                        
     2   .000     23  2.500                                                     
     2   .000     23  2.500                                                     
     0   .000     23  2.600                                                     
     0  1.000     23  2.600                                                     
     1   .400     23  2.750                                                     
     1  2.000     23  2.750                                                     
     3   .000      7   .000                                                     
  local pseudopotential read in
  partial core-charges read in
  atomic valenz-charges read in
  non local Contribution for L=           2  read in
    real space projection operators read in
  non local Contribution for L=           2  read in
    real space projection operators read in
  non local Contribution for L=           0  read in
    real space projection operators read in
  non local Contribution for L=           0  read in
    real space projection operators read in
  non local Contribution for L=           1  read in
    real space projection operators read in
  non local Contribution for L=           1  read in
    real space projection operators read in
    PAW grid and wavefunctions read in
 
   number of l-projection  operators is LMAX  =           6
   number of lm-projection operators is LMMAX =          18
 
 POTCAR:    PAW_PBE S 17Jan2003                   
   VRHFIN =S : s2p4                                                             
   LEXCH  = PE                                                                  
   EATOM  =   276.8230 eV,   20.3459 Ry                                         
                                                                                
   TITEL  = PAW_PBE S 17Jan2003                                                 
   LULTRA =        F    use ultrasoft PP ?                                      
   IUNSCR =        1    unscreen: 0-lin 1-nonlin 2-no                           
   RPACOR =    1.500    partial core radius                                     
   POMASS =   32.066; ZVAL   =    6.000    mass and valenz                      
   RCORE  =    1.900    outmost cutoff radius                                   
   RWIGS  =    2.200; RWIGS  =    1.164    wigner-seitz radius (au A)           
   ENMAX  =  280.000; ENMIN  =  194.016 eV                                      
   ICORE  =        2    local potential                                         
   LCOR   =        T    correct aug charges                                     
   LPAW   =        T    paw PP                                                  
   EAUG   =  335.092                                                            
   DEXC   =     .000                                                            
   RMAX   =    2.867    core radius for proj-oper                               
   RAUG   =    1.300    factor for augmentation sphere                          
   RDEP   =    1.954    radius for radial grids                                 
   QCUT   =   -4.360; QGAM   =    8.721    optimization parameters              
                                                                                
   Description                                                                  
     l     E      TYP  RCUT    TYP  RCUT                                        
     0   .000     23  1.900                                                     
     0   .000     23  1.900                                                     
     1   .000     23  1.900                                                     
     1   .000     23  1.900                                                     
     2   .000     23  1.900                                                     
  local pseudopotential read in
  partial core-charges read in
  atomic valenz-charges read in
  non local Contribution for L=           0  read in
    real space projection operators read in
  non local Contribution for L=           0  read in
    real space projection operators read in
  non local Contribution for L=           1  read in
    real space projection operators read in
  non local Contribution for L=           1  read in
    real space projection operators read in
    PAW grid and wavefunctions read in
 
   number of l-projection  operators is LMAX  =           4
   number of lm-projection operators is LMMAX =           8
 

 ----------------------------------------------------------------------------- 
|                                                                             |
|  ADVICE TO THIS USER RUNNING 'VASP/VAMP'   (HEAR YOUR MASTER'S VOICE ...):  |
|                                                                             |
|      You have a (more or less) 'small supercell' and for smaller cells      |
|      it is recommended  to use the reciprocal-space projection scheme!      |
|      The real space optimization is not  efficient for small cells and it   |
|      is also less accurate ...                                              |
|      Therefore set LREAL=.FALSE. in the  INCAR file                         |
|                                                                             |
 ----------------------------------------------------------------------------- 

 Optimization of the real space projectors (new method)

 maximal supplied QI-value         = 13.61
 optimisation between [QCUT,QGAM] = [  8.03, 16.19] = [ 18.05, 73.41] Ry 
 Optimized for a Real-space Cutoff    1.97 Angstroem

   l    n(q)    QCUT    max X(q) W(low)/X(q) W(high)/X(q)  e(spline) 
   2      9     8.028     3.671    0.48E-05    0.25E-04    0.70E-07
   2      9     8.028    25.193    0.26E-03    0.70E-03    0.27E-06
   0     10     8.028    26.379    0.19E-04    0.25E-05    0.73E-08
   0     10     8.028    49.709    0.28E-04    0.49E-04    0.74E-07
   1      9     8.028     7.852    0.15E-04    0.15E-05    0.29E-07
   1      9     8.028    10.693    0.92E-04    0.27E-04    0.86E-07
 Optimization of the real space projectors (new method)

 maximal supplied QI-value         = 19.84
 optimisation between [QCUT,QGAM] = [  7.94, 16.07] = [ 17.64, 72.34] Ry 
 Optimized for a Real-space Cutoff    1.55 Angstroem

   l    n(q)    QCUT    max X(q) W(low)/X(q) W(high)/X(q)  e(spline) 
   0      7     7.937     5.487    0.27E-04    0.20E-04    0.12E-07
   0      7     7.937    85.627    0.10E-03    0.36E-03    0.16E-06
   1      7     7.937     3.530    0.15E-04    0.55E-04    0.56E-07
   1      7     7.937    42.714    0.49E-03    0.85E-03    0.12E-06
 PAW_PBE Mo 08Apr2002                   :
 energy of atom  1       EATOM= -217.5180
 kinetic energy error for atom=    0.0235 (will be added to EATOM!!)
  PAW_PBE S 17Jan2003                   :
 energy of atom  2       EATOM= -276.8230
 kinetic energy error for atom=    0.0359 (will be added to EATOM!!)
 
 
 POSCAR: MoS2_mp-2815_computed                   
  positions in cartesian coordinates
  velocities in cartesian coordinates
  No initial velocities read in
 exchange correlation table for  LEXCH =        8
   RHO(1)=    0.500       N(1)  =     2000
   RHO(2)=  100.500       N(2)  =     4000
 


--------------------------------------------------------------------------------------------------------


 ion  position               nearest neighbor table
   1  0.333  0.667  0.150-   3 2.42   2 2.42   2 2.42   3 2.42   3 2.42   2 2.42
   2  0.667  0.333  0.087-   1 2.42   1 2.42   1 2.42
   3  0.667  0.333  0.212-   1 2.42   1 2.42   1 2.42
 
  LATTYP: Found a hexagonal cell.
 ALAT       =     3.1903157300
 C/A-ratio  =     7.7982890740
  
  Lattice vectors:
  
 A1 = (   3.1903157300,   0.0000000000,   0.0000000000)
 A2 = (  -1.5951578650,   2.7628944683,   0.0000000000)
 A3 = (   0.0000000000,   0.0000000000,  24.8790043000)


Analysis of symmetry for initial positions (statically):
=====================================================================
 Subroutine PRICEL returns:
 Original cell was already a primitive cell.
 

 Routine SETGRP: Setting up the symmetry group for a 
 hexagonal supercell.


 Subroutine GETGRP returns: Found 12 space group operations
 (whereof  6 operations were pure point group operations)
 out of a pool of 24 trial point group operations.


The static configuration has the point symmetry C_3v.
 The point group associated with its full space group is D_3h.


Analysis of symmetry for dynamics (positions and initial velocities):
=====================================================================
 Subroutine PRICEL returns:
 Original cell was already a primitive cell.
 

 Routine SETGRP: Setting up the symmetry group for a 
 hexagonal supercell.


 Subroutine GETGRP returns: Found 12 space group operations
 (whereof  6 operations were pure point group operations)
 out of a pool of 24 trial point group operations.


The dynamic configuration has the point symmetry C_3v.
 The point group associated with its full space group is D_3h.


 Subroutine INISYM returns: Found 12 space group operations
 (whereof  6 operations are pure point group operations),
 and found     1 'primitive' translations

 
 
 KPOINTS: k-density: 4.0                          

Automatic generation of k-mesh.
Space group operators:
 irot       det(A)        alpha          n_x          n_y          n_z        tau_x        tau_y        tau_z
    1     1.000000     0.000000     1.000000     0.000000     0.000000     0.000000     0.000000     0.000000
    2     1.000000   120.000000     0.000000     0.000000    -1.000000     0.000000     0.000000     0.000000
    3     1.000000   120.000000     0.000000     0.000000     1.000000     0.000000     0.000000     0.000000
    4    -1.000000   180.000000     1.000000    -0.000000     0.000000     0.000000     0.000000     0.000000
    5    -1.000000   180.000000     0.500000    -0.866025     0.000000     0.000000     0.000000     0.000000
    6    -1.000000   180.000000    -0.500000    -0.866025     0.000000     0.000000     0.000000     0.000000
    7    -1.000000    60.000000     0.000000     0.000000    -1.000000     0.000000     0.000000     0.299027
    8    -1.000000   180.000000     0.000000     0.000000     1.000000     0.000000     0.000000     0.299027
    9    -1.000000    60.000000     0.000000     0.000000     1.000000     0.000000     0.000001     0.299027
   10     1.000000   180.000000     0.866025    -0.500000     0.000000     0.000000     0.000000     0.299027
   11     1.000000   179.999999     0.000000     1.000000     0.000000     0.000000     0.000000     0.299027
   12     1.000000   180.000000     0.866025     0.500000     0.000000     0.000000     0.000001     0.299027
 
 Subroutine IBZKPT returns following result:
 ===========================================
 
 Found     10 irreducible k-points:
 
 Following reciprocal coordinates:
            Coordinates               Weight
  0.000000  0.000000  0.000000      1.000000
  0.125000  0.000000  0.000000      6.000000
  0.250000  0.000000  0.000000      6.000000
  0.375000  0.000000  0.000000      6.000000
  0.500000  0.000000  0.000000      3.000000
  0.125000  0.125000  0.000000      6.000000
  0.250000  0.125000  0.000000     12.000000
  0.375000  0.125000  0.000000     12.000000
  0.250000  0.250000  0.000000      6.000000
  0.375000  0.250000  0.000000      6.000000
 
 Following cartesian coordinates:
            Coordinates               Weight
  0.000000  0.000000  0.000000      1.000000
  0.039181  0.022621  0.000000      6.000000
  0.078362  0.045242  0.000000      6.000000
  0.117543  0.067864  0.000000      6.000000
  0.156724  0.090485  0.000000      3.000000
  0.039181  0.067864  0.000000      6.000000
  0.078362  0.090485  0.000000     12.000000
  0.117543  0.113106  0.000000     12.000000
  0.078362  0.135727  0.000000      6.000000
  0.117543  0.158348  0.000000      6.000000
 


--------------------------------------------------------------------------------------------------------




 Dimension of arrays:
   k-points           NKPTS =     10   k-points in BZ     NKDIM =     10   number of bands    NBANDS=     14
   number of dos      NEDOS =   2401   number of ions     NIONS =      3
   non local maximal  LDIM  =      6   non local SUM 2l+1 LMDIM =     18
   total plane-waves  NPLWV =  13824
   max r-space proj   IRMAX =   2054   max aug-charges    IRDMAX=   4246
   dimension x,y,z NGX =    12 NGY =   12 NGZ =   96
   dimension x,y,z NGXF=    24 NGYF=   24 NGZF=  192
   support grid    NGXF=    24 NGYF=   24 NGZF=  192
   ions per type =               1   2
   NGX,Y,Z   is equivalent  to a cutoff of   6.25,  6.25,  6.41 a.u.
   NGXF,Y,Z  is equivalent  to a cutoff of  12.51, 12.51, 12.83 a.u.

 SYSTEM =  unknown system                          
 POSCAR =  MoS2_mp-2815_computed                   

 Startparameter for this run:
   NWRITE =      2    write-flag & timer
   PREC   = normal    normal or accurate (medium, high low for compatibility)
   ISTART =      0    job   : 0-new  1-cont  2-samecut
   ICHARG =      2    charge: 1-file 2-atom 10-const
   ISPIN  =      1    spin polarized calculation?
   LNONCOLLINEAR =      F non collinear calculations
   LSORBIT =      F    spin-orbit coupling
   INIWAV =      1    electr: 0-lowe 1-rand  2-diag
   LASPH  =      F    aspherical Exc in radial PAW
   METAGGA=      F    non-selfconsistent MetaGGA calc.

 Electronic Relaxation 1
   ENCUT  =  250.0 eV  18.37 Ry    4.29 a.u.   4.11  4.11 32.07*2*pi/ulx,y,z
   ENINI  =  250.0     initial cutoff
   ENAUG  =  345.3 eV  augmentation charge cutoff
   NELM   =     60;   NELMIN=  4; NELMDL= -5     # of ELM steps 
   EDIFF  = 0.1E-05   stopping-criterion for ELM
   LREAL  =      T    real-space projection
   NLSPLINE    = F    spline interpolate recip. space projectors
   LCOMPAT=      F    compatible to vasp.4.4
   GGA_COMPAT  = T    GGA compatible to vasp.4.4-vasp.4.6
   LMAXPAW     = -100 max onsite density
   LMAXMIX     =    2 max onsite mixed and CHGCAR
   VOSKOWN=      0    Vosko Wilk Nusair interpolation
   ROPT   =   -0.00050  -0.00050
 Ionic relaxation
   EDIFFG = 0.1E-04   stopping-criterion for IOM
   NSW    =      0    number of steps for IOM
   NBLOCK =      1;   KBLOCK =      1    inner block; outer block 
   IBRION =     -1    ionic relax: 0-MD 1-quasi-New 2-CG
   NFREE  =      0    steps in history (QN), initial steepest desc. (CG)
   ISIF   =      2    stress and relaxation
   IWAVPR =     10    prediction:  0-non 1-charg 2-wave 3-comb
   ISYM   =      2    0-nonsym 1-usesym 2-fastsym
   LCORR  =      T    Harris-Foulkes like correction to forces

   POTIM  = 0.5000    time-step for ionic-motion
   TEIN   =    0.0    initial temperature
   TEBEG  =    0.0;   TEEND  =   0.0 temperature during run
   SMASS  =  -3.00    Nose mass-parameter (am)
   estimated Nose-frequenzy (Omega)   =  0.10E-29 period in steps =****** mass=  -0.233E-27a.u.
   SCALEE = 1.0000    scale energy and forces
   NPACO  =    256;   APACO  = 16.0  distance and # of slots for P.C.
   PSTRESS=    0.0 pullay stress

  Mass of Ions in am
   POMASS =  95.94 32.07
  Ionic Valenz
   ZVAL   =   6.00  6.00
  Atomic Wigner-Seitz radii
   RWIGS  =  -1.00 -1.00
  virtual crystal weights 
   VCA    =   1.00  1.00
   NELECT =      18.0000    total number of electrons
   NUPDOWN=      -1.0000    fix difference up-down

 DOS related values:
   EMIN   = -12.00;   EMAX   = 12.00  energy-range for DOS
   EFERMI =   0.00
   ISMEAR =     0;   SIGMA  =   0.20  broadening in eV -4-tet -1-fermi 0-gaus

 Electronic relaxation 2 (details)
   IALGO  =     68    algorithm
   LDIAG  =      T    sub-space diagonalisation (order eigenvalues)
   LSUBROT=      F    optimize rotation matrix (better conditioning)
   TURBO    =      0    0=normal 1=particle mesh
   IRESTART =      0    0=no restart 2=restart with 2 vectors
   NREBOOT  =      0    no. of reboots
   NMIN     =      0    reboot dimension
   EREF     =   0.00    reference energy to select bands
   IMIX   =      4    mixing-type and parameters
     AMIX     =   0.40;   BMIX     =  1.00
     AMIX_MAG =   1.60;   BMIX_MAG =  1.00
     AMIN     =   0.10
     WC   =   100.;   INIMIX=   1;  MIXPRE=   1;  MAXMIX= -45

 Intra band minimization:
   WEIMIN = 0.0000     energy-eigenvalue tresh-hold
   EBREAK =  0.18E-07  absolut break condition
   DEPER  =   0.30     relativ break condition  

   TIME   =   0.40     timestep for ELM

  volume/ion in A,a.u.               =      73.10       493.29
  Fermi-wavevector in a.u.,A,eV,Ry     =   0.711468  1.344479  6.887088  0.506187
  Thomas-Fermi vector in A             =   1.798587
 
 Write flags
   LWAVE        =      F    write WAVECAR
   LDOWNSAMPLE  =      F    k-point downsampling of WAVECAR
   LCHARG       =      T    write CHGCAR
   LVTOT        =      F    write LOCPOT, total local potential
   LVHAR        =      F    write LOCPOT, Hartree potential only
   LELF         =      T    write electronic localiz. function (ELF)
   LORBIT       =     11    0 simple, 1 ext, 2 COOP (PROOUT), +10 PAW based schemes


 Dipole corrections
   LMONO  =      F    monopole corrections only (constant potential shift)
   LDIPOL =      F    correct potential (dipole corrections)
   IDIPOL =      0    1-x, 2-y, 3-z, 4-all directions 
   EPSILON=  1.0000000 bulk dielectric constant

 Exchange correlation treatment:
   GGA     =    --    GGA type
   LEXCH   =     8    internal setting for exchange type
   VOSKOWN=      0    Vosko Wilk Nusair interpolation
   LHFCALC =     F    Hartree Fock is set to
   LHFONE  =     F    Hartree Fock one center treatment
   AEXX    =    0.0000 exact exchange contribution

 Linear response parameters
   LEPSILON=     F    determine dielectric tensor
   LRPA    =     F    only Hartree local field effects (RPA)
   LNABLA  =     F    use nabla operator in PAW spheres
   LVEL    =     F    velocity operator in full k-point grid
   LINTERFAST=   F  fast interpolation
   KINTER  =     0    interpolate to denser k-point grid
   CSHIFT  =0.1000    complex shift for real part using Kramers Kronig
   OMEGAMAX=  -1.0    maximum frequency
   DEG_THRESHOLD= 0.2000000E-02 threshold for treating states as degnerate
   RTIME   =   -0.100 relaxation time in fs
  (WPLASMAI=    0.000 imaginary part of plasma frequency in eV, 0.658/RTIME)
   DFIELD  = 0.0000000 0.0000000 0.0000000 field for delta impulse in time
 
 Orbital magnetization related:
   ORBITALMAG=     F  switch on orbital magnetization
   LCHIMAG   =     F  perturbation theory with respect to B field
   DQ        =  0.001000  dq finite difference perturbation B field
   LLRAUG    =     F  two centre corrections for induced B field



--------------------------------------------------------------------------------------------------------


 Static calculation
 charge density and potential will be updated during run
 non-spin polarized calculation
 RMM-DIIS sequential band-by-band and
  variant of blocked Davidson during initial phase
 perform sub-space diagonalisation
    before iterative eigenvector-optimisation
 modified Broyden-mixing scheme, WC =      100.0
 initial mixing is a Kerker type mixing with AMIX =  0.4000 and BMIX =      1.0000
 Hartree-type preconditioning will be used
 using additional bands            5
 real space projection scheme for non local part
 use partial core corrections
 calculate Harris-corrections to forces 
   (improved forces if not selfconsistent)
 use gradient corrections 
 use of overlap-Matrix (Vanderbilt PP)
 Gauss-broadening in eV      SIGMA  =   0.20


--------------------------------------------------------------------------------------------------------


  energy-cutoff  :      250.00
  volume of cell :      219.30
      direct lattice vectors                 reciprocal lattice vectors
     3.190315730  0.000000000  0.000000000     0.313448600  0.180969634  0.000000000
    -1.595157865  2.762894468  0.000000000     0.000000000  0.361939267  0.000000000
     0.000000000  0.000000000 24.879004300     0.000000000  0.000000000  0.040194535

  length of vectors
     3.190315730  3.190315730 24.879004300     0.361939267  0.361939267  0.040194535


 
 k-points in units of 2pi/SCALE and weight: k-density: 4.0                          
   0.00000000  0.00000000  0.00000000       0.016
   0.03918108  0.02262120  0.00000000       0.094
   0.07836215  0.04524241  0.00000000       0.094
   0.11754323  0.06786361  0.00000000       0.094
   0.15672430  0.09048482  0.00000000       0.047
   0.03918108  0.06786361  0.00000000       0.094
   0.07836215  0.09048482  0.00000000       0.188
   0.11754323  0.11310602  0.00000000       0.188
   0.07836215  0.13572723  0.00000000       0.094
   0.11754323  0.15834843  0.00000000       0.094
 
 k-points in reciprocal lattice and weights: k-density: 4.0                          
   0.00000000  0.00000000  0.00000000       0.016
   0.12500000  0.00000000  0.00000000       0.094
   0.25000000  0.00000000  0.00000000       0.094
   0.37500000  0.00000000  0.00000000       0.094
   0.50000000  0.00000000  0.00000000       0.047
   0.12500000  0.12500000  0.00000000       0.094
   0.25000000  0.12500000  0.00000000       0.188
   0.37500000  0.12500000  0.00000000       0.188
   0.25000000  0.25000000  0.00000000       0.094
   0.37500000  0.25000000  0.00000000       0.094
 
 position of ions in fractional coordinates (direct lattice) 
   0.33333300  0.66666700  0.14951366
   0.66666700  0.33333300  0.08661386
   0.66666600  0.33333300  0.21241346
 
 position of ions in cartesian coordinates  (Angst):
  -0.00000160  1.84193057  3.71975108
   1.59515946  0.92096390  2.15486668
   1.59515627  0.92096390  5.28463547
 


--------------------------------------------------------------------------------------------------------


 k-point  1 :   0.0000 0.0000 0.0000  plane waves:    1907
 k-point  2 :   0.1250 0.0000 0.0000  plane waves:    1929
 k-point  3 :   0.2500 0.0000 0.0000  plane waves:    1971
 k-point  4 :   0.3750 0.0000 0.0000  plane waves:    1989
 k-point  5 :   0.5000 0.0000 0.0000  plane waves:    1988
 k-point  6 :   0.1250 0.1250 0.0000  plane waves:    1950
 k-point  7 :   0.2500 0.1250 0.0000  plane waves:    1959
 k-point  8 :   0.3750 0.1250 0.0000  plane waves:    1971
 k-point  9 :   0.2500 0.2500 0.0000  plane waves:    1976
 k-point 10 :   0.3750 0.2500 0.0000  plane waves:    1980

 maximum and minimum number of plane-waves per node :      1004      951

 maximum number of plane-waves:      1989
 maximum index in each direction: 
   IXMAX=    4   IYMAX=    4   IZMAX=   32
   IXMIN=   -4   IYMIN=   -4   IZMIN=  -32


 real space projection operators:
  total allocation   :        390.80 KBytes
  max/ min on nodes  :        196.38        194.42


 parallel 3D FFT for wavefunctions:
    minimum data exchange during FFTs selected (reduces bandwidth)
 parallel 3D FFT for charge:
    minimum data exchange during FFTs selected (reduces bandwidth)


 total amount of memory used by VASP MPI-rank0    34490. kBytes
=======================================================================

   base      :      30000. kBytes
   nonlr-proj:        339. kBytes
   fftplans  :       1143. kBytes
   grid      :       1837. kBytes
   one-center:         31. kBytes
   wavefun   :       1140. kBytes
 
     INWAV:  cpu time    0.0010: real time    0.0003
 Broyden mixing: mesh for mixing (old mesh)
   NGX =  9   NGY =  9   NGZ = 65
  (NGX  = 24   NGY  = 24   NGZ  =192)
  gives a total of   5265 points

 initial charge density was supplied:
 charge density of overlapping atoms calculated
 number of electron      18.0000000 magnetization 
 keeping initial charge density in first step


--------------------------------------------------------------------------------------------------------


 Maximum index for non-local projection operator          955
 Maximum index for augmentation-charges          987 (set IRDMAX)


--------------------------------------------------------------------------------------------------------


 First call to EWALD:  gamma=   0.294
 Maximum number of real-space cells 5x 5x 1
 Maximum number of reciprocal cells 2x 2x10

    FEWALD:  cpu time    0.0020: real time    0.0015


--------------------------------------- Iteration      1(   1)  ---------------------------------------


    POTLOK:  cpu time    0.0180: real time    0.2174
    SETDIJ:  cpu time    0.0020: real time    0.0026
     EDDAV:  cpu time    0.0920: real time    0.0945
       DOS:  cpu time    0.0020: real time    0.0019
    --------------------------------------------
      LOOP:  cpu time    0.1140: real time    0.3164

 eigenvalue-minimisations  :   288
 total energy-change (2. order) : 0.9988804E+02  (-0.4364203E+03)
 number of electron      18.0000000 magnetization 
 augmentation part       18.0000000 magnetization 

 Free energy of the ion-electron system (eV)
  ---------------------------------------------------
  alpha Z        PSCENC =        13.51988903
  Ewald energy   TEWEN  =      3748.21135916
  -Hartree energ DENC   =     -4434.57816778
  -exchange      EXHF   =         0.00000000
  -V(xc)+E(xc)   XCENC  =       -36.31055499
  PAW double counting   =       406.88651198     -329.34073203
  entropy T*S    EENTRO =        -0.03574083
  eigenvalues    EBANDS =       -39.53309759
  atomic energy  EATOM  =       771.06857575
  Solvation  Ediel_sol  =         0.00000000
  ---------------------------------------------------
  free energy    TOTEN  =        99.88804270 eV

  energy without entropy =       99.92378353  energy(sigma->0) =       99.90591311


--------------------------------------------------------------------------------------------------------




--------------------------------------- Iteration      1(   2)  ---------------------------------------


     EDDAV:  cpu time    0.1320: real time    0.1338
       DOS:  cpu time    0.0020: real time    0.0017
    --------------------------------------------
      LOOP:  cpu time    0.1340: real time    0.1355

 eigenvalue-minimisations  :   466
 total energy-change (2. order) :-0.1113922E+03  (-0.1059135E+03)
 number of electron      18.0000000 magnetization 
 augmentation part       18.0000000 magnetization 

 Free energy of the ion-electron system (eV)
  ---------------------------------------------------
  alpha Z        PSCENC =        13.51988903
  Ewald energy   TEWEN  =      3748.21135916
  -Hartree energ DENC   =     -4434.57816778
  -exchange      EXHF   =         0.00000000
  -V(xc)+E(xc)   XCENC  =       -36.31055499
  PAW double counting   =       406.88651198     -329.34073203
  entropy T*S    EENTRO =        -0.00000000
  eigenvalues    EBANDS =      -150.96102328
  atomic energy  EATOM  =       771.06857575
  Solvation  Ediel_sol  =         0.00000000
  ---------------------------------------------------
  free energy    TOTEN  =       -11.50414215 eV

  energy without entropy =      -11.50414215  energy(sigma->0) =      -11.50414215


--------------------------------------------------------------------------------------------------------




--------------------------------------- Iteration      1(   3)  ---------------------------------------


     EDDAV:  cpu time    0.1140: real time    0.1145
       DOS:  cpu time    0.0020: real time    0.0017
    --------------------------------------------
      LOOP:  cpu time    0.1160: real time    0.1162

 eigenvalue-minimisations  :   394
 total energy-change (2. order) :-0.1165434E+02  (-0.1153390E+02)
 number of electron      18.0000000 magnetization 
 augmentation part       18.0000000 magnetization 

 Free energy of the ion-electron system (eV)
  ---------------------------------------------------
  alpha Z        PSCENC =        13.51988903
  Ewald energy   TEWEN  =      3748.21135916
  -Hartree energ DENC   =     -4434.57816778
  -exchange      EXHF   =         0.00000000
  -V(xc)+E(xc)   XCENC  =       -36.31055499
  PAW double counting   =       406.88651198     -329.34073203
  entropy T*S    EENTRO =        -0.00000000
  eigenvalues    EBANDS =      -162.61536448
  atomic energy  EATOM  =       771.06857575
  Solvation  Ediel_sol  =         0.00000000
  ---------------------------------------------------
  free energy    TOTEN  =       -23.15848335 eV

  energy without entropy =      -23.15848335  energy(sigma->0) =      -23.15848335


--------------------------------------------------------------------------------------------------------




--------------------------------------- Iteration      1(   4)  ---------------------------------------


     EDDAV:  cpu time    0.1010: real time    0.1014
       DOS:  cpu time    0.0010: real time    0.0017
    --------------------------------------------
      LOOP:  cpu time    0.1020: real time    0.1032

 eigenvalue-minimisations  :   342
 total energy-change (2. order) :-0.2067304E+00  (-0.2064032E+00)
 number of electron      18.0000000 magnetization 
 augmentation part       18.0000000 magnetization 

 Free energy of the ion-electron system (eV)
  ---------------------------------------------------
  alpha Z        PSCENC =        13.51988903
  Ewald energy   TEWEN  =      3748.21135916
  -Hartree energ DENC   =     -4434.57816778
  -exchange      EXHF   =         0.00000000
  -V(xc)+E(xc)   XCENC  =       -36.31055499
  PAW double counting   =       406.88651198     -329.34073203
  entropy T*S    EENTRO =        -0.00000000
  eigenvalues    EBANDS =      -162.82209490
  atomic energy  EATOM  =       771.06857575
  Solvation  Ediel_sol  =         0.00000000
  ---------------------------------------------------
  free energy    TOTEN  =       -23.36521377 eV

  energy without entropy =      -23.36521377  energy(sigma->0) =      -23.36521377


--------------------------------------------------------------------------------------------------------




--------------------------------------- Iteration      1(   5)  ---------------------------------------


     EDDAV:  cpu time    0.1110: real time    0.1107
       DOS:  cpu time    0.0020: real time    0.0017
    CHARGE:  cpu time    0.0060: real time    0.0069
    MIXING:  cpu time    0.0010: real time    0.0008
    --------------------------------------------
      LOOP:  cpu time    0.1200: real time    0.1201

 eigenvalue-minimisations  :   384
 total energy-change (2. order) :-0.5310462E-02  (-0.5309083E-02)
 number of electron      17.9999957 magnetization 
 augmentation part       -0.9516494 magnetization 

 Broyden mixing:
  rms(total) = 0.69125E+00    rms(broyden)= 0.69110E+00
  rms(prec ) = 0.75720E+00
  weight for this iteration     100.00

 Free energy of the ion-electron system (eV)
  ---------------------------------------------------
  alpha Z        PSCENC =        13.51988903
  Ewald energy   TEWEN  =      3748.21135916
  -Hartree energ DENC   =     -4434.57816778
  -exchange      EXHF   =         0.00000000
  -V(xc)+E(xc)   XCENC  =       -36.31055499
  PAW double counting   =       406.88651198     -329.34073203
  entropy T*S    EENTRO =        -0.00000000
  eigenvalues    EBANDS =      -162.82740536
  atomic energy  EATOM  =       771.06857575
  Solvation  Ediel_sol  =         0.00000000
  ---------------------------------------------------
  free energy    TOTEN  =       -23.37052423 eV

  energy without entropy =      -23.37052423  energy(sigma->0) =      -23.37052423


--------------------------------------------------------------------------------------------------------




--------------------------------------- Iteration      1(   6)  ---------------------------------------


    POTLOK:  cpu time    0.0140: real time    0.0136
    SETDIJ:  cpu time    0.0020: real time    0.0019
    EDDIAG:  cpu time    0.0170: real time    0.0169
  RMM-DIIS:  cpu time    0.0540: real time    0.0544
    ORTHCH:  cpu time    0.0020: real time    0.0021
       DOS:  cpu time    0.0010: real time    0.0017
    CHARGE:  cpu time    0.0070: real time    0.0068
    MIXING:  cpu time    0.0010: real time    0.0008
    --------------------------------------------
      LOOP:  cpu time    0.0980: real time    0.0983

 eigenvalue-minimisations  :   292
 total energy-change (2. order) : 0.1157849E+01  (-0.5390943E+00)
 number of electron      17.9999952 magnetization 
 augmentation part       -0.4080263 magnetization 

 Broyden mixing:
  rms(total) = 0.26313E+00    rms(broyden)= 0.26296E+00
  rms(prec ) = 0.31560E+00
  weight for this iteration     100.00

 eigenvalues of (default mixing * dielectric matrix)
  average eigenvalue GAMMA=   0.8351
  0.8351

 Free energy of the ion-electron system (eV)
  ---------------------------------------------------
  alpha Z        PSCENC =        13.51988903
  Ewald energy   TEWEN  =      3748.21135916
  -Hartree energ DENC   =     -4432.89105552
  -exchange      EXHF   =         0.00000000
  -V(xc)+E(xc)   XCENC  =       -35.41256354
  PAW double counting   =       426.19322741     -349.53823856
  entropy T*S    EENTRO =        -0.00000003
  eigenvalues    EBANDS =      -163.36386928
  atomic energy  EATOM  =       771.06857575
  Solvation  Ediel_sol  =         0.00000000
  ---------------------------------------------------
  free energy    TOTEN  =       -22.21267558 eV

  energy without entropy =      -22.21267555  energy(sigma->0) =      -22.21267556


--------------------------------------------------------------------------------------------------------




--------------------------------------- Iteration      1(   7)  ---------------------------------------


    POTLOK:  cpu time    0.0130: real time    0.0128
    SETDIJ:  cpu time    0.0020: real time    0.0019
    EDDIAG:  cpu time    0.0160: real time    0.0164
  RMM-DIIS:  cpu time    0.0530: real time    0.0533
    ORTHCH:  cpu time    0.0020: real time    0.0021
       DOS:  cpu time    0.0020: real time    0.0017
    CHARGE:  cpu time    0.0070: real time    0.0067
    MIXING:  cpu time    0.0000: real time    0.0006
    --------------------------------------------
      LOOP:  cpu time    0.0950: real time    0.0956

 eigenvalue-minimisations  :   290
 total energy-change (2. order) : 0.3842409E+00  (-0.5551434E-01)
 number of electron      17.9999954 magnetization 
 augmentation part       -0.6093196 magnetization 

 Broyden mixing:
  rms(total) = 0.15287E+00    rms(broyden)= 0.15285E+00
  rms(prec ) = 0.16259E+00
  weight for this iteration     100.00

 eigenvalues of (default mixing * dielectric matrix)
  average eigenvalue GAMMA=   1.3727
  0.6635  2.0819

 Free energy of the ion-electron system (eV)
  ---------------------------------------------------
  alpha Z        PSCENC =        13.51988903
  Ewald energy   TEWEN  =      3748.21135916
  -Hartree energ DENC   =     -4438.11180300
  -exchange      EXHF   =         0.00000000
  -V(xc)+E(xc)   XCENC  =       -35.55350203
  PAW double counting   =       444.95972447     -368.53427198
  entropy T*S    EENTRO =        -0.00000000
  eigenvalues    EBANDS =      -157.38840612
  atomic energy  EATOM  =       771.06857575
  Solvation  Ediel_sol  =         0.00000000
  ---------------------------------------------------
  free energy    TOTEN  =       -21.82843472 eV

  energy without entropy =      -21.82843472  energy(sigma->0) =      -21.82843472


--------------------------------------------------------------------------------------------------------




--------------------------------------- Iteration      1(   8)  ---------------------------------------


    POTLOK:  cpu time    0.0130: real time    0.0158
    SETDIJ:  cpu time    0.0020: real time    0.0019
    EDDIAG:  cpu time    0.0170: real time    0.0164
  RMM-DIIS:  cpu time    0.0560: real time    0.0565
    ORTHCH:  cpu time    0.0020: real time    0.0020
       DOS:  cpu time    0.0020: real time    0.0017
    CHARGE:  cpu time    0.0070: real time    0.0068
    MIXING:  cpu time    0.0000: real time    0.0011
    --------------------------------------------
      LOOP:  cpu time    0.0990: real time    0.1024

 eigenvalue-minimisations  :   304
 total energy-change (2. order) : 0.6016561E-01  (-0.2346275E-01)
 number of electron      17.9999953 magnetization 
 augmentation part       -0.5615133 magnetization 

 Broyden mixing:
  rms(total) = 0.34984E-01    rms(broyden)= 0.34958E-01
  rms(prec ) = 0.37691E-01
  weight for this iteration     100.00

 eigenvalues of (default mixing * dielectric matrix)
  average eigenvalue GAMMA=   1.4963
  1.9137  1.9137  0.6617

 Free energy of the ion-electron system (eV)
  ---------------------------------------------------
  alpha Z        PSCENC =        13.51988903
  Ewald energy   TEWEN  =      3748.21135916
  -Hartree energ DENC   =     -4441.95388368
  -exchange      EXHF   =         0.00000000
  -V(xc)+E(xc)   XCENC  =       -35.26989872
  PAW double counting   =       471.16198392     -395.25769209
  entropy T*S    EENTRO =        -0.00000000
  eigenvalues    EBANDS =      -153.24860248
  atomic energy  EATOM  =       771.06857575
  Solvation  Ediel_sol  =         0.00000000
  ---------------------------------------------------
  free energy    TOTEN  =       -21.76826911 eV

  energy without entropy =      -21.76826911  energy(sigma->0) =      -21.76826911


--------------------------------------------------------------------------------------------------------




--------------------------------------- Iteration      1(   9)  ---------------------------------------


    POTLOK:  cpu time    0.0120: real time    0.0126
    SETDIJ:  cpu time    0.0030: real time    0.0019
    EDDIAG:  cpu time    0.0160: real time    0.0164
  RMM-DIIS:  cpu time    0.0620: real time    0.0624
    ORTHCH:  cpu time    0.0020: real time    0.0021
       DOS:  cpu time    0.0020: real time    0.0017
    CHARGE:  cpu time    0.0070: real time    0.0067
    MIXING:  cpu time    0.0000: real time    0.0007
    --------------------------------------------
      LOOP:  cpu time    0.1040: real time    0.1045

 eigenvalue-minimisations  :   334
 total energy-change (2. order) : 0.4687627E-02  (-0.8161096E-03)
 number of electron      17.9999953 magnetization 
 augmentation part       -0.5579702 magnetization 

 Broyden mixing:
  rms(total) = 0.93328E-02    rms(broyden)= 0.93265E-02
  rms(prec ) = 0.11860E-01
  weight for this iteration     100.00

 eigenvalues of (default mixing * dielectric matrix)
  average eigenvalue GAMMA=   1.5054
  0.6632  1.0479  2.4453  1.8650

 Free energy of the ion-electron system (eV)
  ---------------------------------------------------
  alpha Z        PSCENC =        13.51988903
  Ewald energy   TEWEN  =      3748.21135916
  -Hartree energ DENC   =     -4443.18505984
  -exchange      EXHF   =         0.00000000
  -V(xc)+E(xc)   XCENC  =       -35.21774175
  PAW double counting   =       476.74616393     -400.91626972
  entropy T*S    EENTRO =        -0.00000000
  eigenvalues    EBANDS =      -151.99049804
  atomic energy  EATOM  =       771.06857575
  Solvation  Ediel_sol  =         0.00000000
  ---------------------------------------------------
  free energy    TOTEN  =       -21.76358148 eV

  energy without entropy =      -21.76358148  energy(sigma->0) =      -21.76358148


--------------------------------------------------------------------------------------------------------




--------------------------------------- Iteration      1(  10)  ---------------------------------------


    POTLOK:  cpu time    0.0130: real time    0.0126
    SETDIJ:  cpu time    0.0020: real time    0.0019
    EDDIAG:  cpu time    0.0160: real time    0.0164
  RMM-DIIS:  cpu time    0.0620: real time    0.0619
    ORTHCH:  cpu time    0.0020: real time    0.0020
       DOS:  cpu time    0.0020: real time    0.0017
    CHARGE:  cpu time    0.0070: real time    0.0068
    MIXING:  cpu time    0.0000: real time    0.0007
    --------------------------------------------
      LOOP:  cpu time    0.1040: real time    0.1041

 eigenvalue-minimisations  :   330
 total energy-change (2. order) : 0.7379272E-03  (-0.1685935E-03)
 number of electron      17.9999953 magnetization 
 augmentation part       -0.5614405 magnetization 

 Broyden mixing:
  rms(total) = 0.43820E-02    rms(broyden)= 0.43761E-02
  rms(prec ) = 0.63373E-02
  weight for this iteration     100.00

 eigenvalues of (default mixing * dielectric matrix)
  average eigenvalue GAMMA=   1.6756
  0.6637  1.0335  2.1574  2.2617  2.2617

 Free energy of the ion-electron system (eV)
  ---------------------------------------------------
  alpha Z        PSCENC =        13.51988903
  Ewald energy   TEWEN  =      3748.21135916
  -Hartree energ DENC   =     -4444.29008909
  -exchange      EXHF   =         0.00000000
  -V(xc)+E(xc)   XCENC  =       -35.19326998
  PAW double counting   =       479.31314200     -403.51586030
  entropy T*S    EENTRO =        -0.00000000
  eigenvalues    EBANDS =      -150.87659012
  atomic energy  EATOM  =       771.06857575
  Solvation  Ediel_sol  =         0.00000000
  ---------------------------------------------------
  free energy    TOTEN  =       -21.76284356 eV

  energy without entropy =      -21.76284356  energy(sigma->0) =      -21.76284356


--------------------------------------------------------------------------------------------------------




--------------------------------------- Iteration      1(  11)  ---------------------------------------


    POTLOK:  cpu time    0.0130: real time    0.0131
    SETDIJ:  cpu time    0.0020: real time    0.0019
    EDDIAG:  cpu time    0.0160: real time    0.0164
  RMM-DIIS:  cpu time    0.0600: real time    0.0593
    ORTHCH:  cpu time    0.0010: real time    0.0020
       DOS:  cpu time    0.0020: real time    0.0017
    CHARGE:  cpu time    0.0070: real time    0.0069
    MIXING:  cpu time    0.0010: real time    0.0008
    --------------------------------------------
      LOOP:  cpu time    0.1020: real time    0.1022

 eigenvalue-minimisations  :   313
 total energy-change (2. order) : 0.1823916E-04  (-0.1942568E-03)
 number of electron      17.9999953 magnetization 
 augmentation part       -0.5583565 magnetization 

 Broyden mixing:
  rms(total) = 0.57678E-02    rms(broyden)= 0.57633E-02
  rms(prec ) = 0.67006E-02
  weight for this iteration     100.00

 eigenvalues of (default mixing * dielectric matrix)
  average eigenvalue GAMMA=   1.6631
  2.8010  2.8010  0.6641  1.4010  1.4010  0.9104

 Free energy of the ion-electron system (eV)
  ---------------------------------------------------
  alpha Z        PSCENC =        13.51988903
  Ewald energy   TEWEN  =      3748.21135916
  -Hartree energ DENC   =     -4445.47386233
  -exchange      EXHF   =         0.00000000
  -V(xc)+E(xc)   XCENC  =       -35.18021550
  PAW double counting   =       478.65695924     -402.84887575
  entropy T*S    EENTRO =        -0.00000000
  eigenvalues    EBANDS =      -149.71665492
  atomic energy  EATOM  =       771.06857575
  Solvation  Ediel_sol  =         0.00000000
  ---------------------------------------------------
  free energy    TOTEN  =       -21.76282532 eV

  energy without entropy =      -21.76282532  energy(sigma->0) =      -21.76282532


--------------------------------------------------------------------------------------------------------




--------------------------------------- Iteration      1(  12)  ---------------------------------------


    POTLOK:  cpu time    0.0130: real time    0.0131
    SETDIJ:  cpu time    0.0020: real time    0.0019
    EDDIAG:  cpu time    0.0160: real time    0.0164
  RMM-DIIS:  cpu time    0.0580: real time    0.0577
    ORTHCH:  cpu time    0.0020: real time    0.0020
       DOS:  cpu time    0.0020: real time    0.0017
    CHARGE:  cpu time    0.0060: real time    0.0068
    MIXING:  cpu time    0.0010: real time    0.0008
    --------------------------------------------
      LOOP:  cpu time    0.1000: real time    0.1006

 eigenvalue-minimisations  :   304
 total energy-change (2. order) : 0.1202244E-03  (-0.6131817E-04)
 number of electron      17.9999953 magnetization 
 augmentation part       -0.5604974 magnetization 

 Broyden mixing:
  rms(total) = 0.15735E-02    rms(broyden)= 0.15606E-02
  rms(prec ) = 0.22871E-02
  weight for this iteration     100.00

 eigenvalues of (default mixing * dielectric matrix)
  average eigenvalue GAMMA=   1.9568
  3.8529  2.7714  2.7714  0.6641  0.9693  1.3341  1.3341

 Free energy of the ion-electron system (eV)
  ---------------------------------------------------
  alpha Z        PSCENC =        13.51988903
  Ewald energy   TEWEN  =      3748.21135916
  -Hartree energ DENC   =     -4446.09748518
  -exchange      EXHF   =         0.00000000
  -V(xc)+E(xc)   XCENC  =       -35.17611838
  PAW double counting   =       478.85122606     -403.04105517
  entropy T*S    EENTRO =        -0.00000000
  eigenvalues    EBANDS =      -149.09909636
  atomic energy  EATOM  =       771.06857575
  Solvation  Ediel_sol  =         0.00000000
  ---------------------------------------------------
  free energy    TOTEN  =       -21.76270509 eV

  energy without entropy =      -21.76270509  energy(sigma->0) =      -21.76270509


--------------------------------------------------------------------------------------------------------




--------------------------------------- Iteration      1(  13)  ---------------------------------------


    POTLOK:  cpu time    0.0130: real time    0.0132
    SETDIJ:  cpu time    0.0020: real time    0.0019
    EDDIAG:  cpu time    0.0170: real time    0.0164
  RMM-DIIS:  cpu time    0.0530: real time    0.0533
    ORTHCH:  cpu time    0.0010: real time    0.0020
       DOS:  cpu time    0.0020: real time    0.0017
    CHARGE:  cpu time    0.0070: real time    0.0068
    MIXING:  cpu time    0.0010: real time    0.0009
    --------------------------------------------
      LOOP:  cpu time    0.0960: real time    0.0964

 eigenvalue-minimisations  :   294
 total energy-change (2. order) :-0.4536606E-03  (-0.1499392E-04)
 number of electron      17.9999953 magnetization 
 augmentation part       -0.5593402 magnetization 

 Broyden mixing:
  rms(total) = 0.18968E-02    rms(broyden)= 0.18865E-02
  rms(prec ) = 0.21464E-02
  weight for this iteration     100.00

 eigenvalues of (default mixing * dielectric matrix)
  average eigenvalue GAMMA=   1.9015
  4.7506  2.7028  2.3541  1.4137  1.4137  0.6642  0.9566  0.9566

 Free energy of the ion-electron system (eV)
  ---------------------------------------------------
  alpha Z        PSCENC =        13.51988903
  Ewald energy   TEWEN  =      3748.21135916
  -Hartree energ DENC   =     -4446.80774011
  -exchange      EXHF   =         0.00000000
  -V(xc)+E(xc)   XCENC  =       -35.16988666
  PAW double counting   =       478.82570318     -403.02074549
  entropy T*S    EENTRO =        -0.00000000
  eigenvalues    EBANDS =      -148.39031361
  atomic energy  EATOM  =       771.06857575
  Solvation  Ediel_sol  =         0.00000000
  ---------------------------------------------------
  free energy    TOTEN  =       -21.76315875 eV

  energy without entropy =      -21.76315875  energy(sigma->0) =      -21.76315875


--------------------------------------------------------------------------------------------------------




--------------------------------------- Iteration      1(  14)  ---------------------------------------


    POTLOK:  cpu time    0.0130: real time    0.0133
    SETDIJ:  cpu time    0.0020: real time    0.0019
    EDDIAG:  cpu time    0.0170: real time    0.0165
  RMM-DIIS:  cpu time    0.0600: real time    0.0597
    ORTHCH:  cpu time    0.0010: real time    0.0021
       DOS:  cpu time    0.0020: real time    0.0017
    CHARGE:  cpu time    0.0070: real time    0.0068
    MIXING:  cpu time    0.0000: real time    0.0009
    --------------------------------------------
      LOOP:  cpu time    0.1020: real time    0.1029

 eigenvalue-minimisations  :   318
 total energy-change (2. order) :-0.6819355E-04  (-0.2749480E-05)
 number of electron      17.9999953 magnetization 
 augmentation part       -0.5604815 magnetization 

 Broyden mixing:
  rms(total) = 0.59283E-03    rms(broyden)= 0.55890E-03
  rms(prec ) = 0.77733E-03
  weight for this iteration     100.00

 eigenvalues of (default mixing * dielectric matrix)
  average eigenvalue GAMMA=   2.2021
  6.7545  3.0370  2.3613  2.3613  0.6642  1.5014  0.9745  0.9745  1.1904

 Free energy of the ion-electron system (eV)
  ---------------------------------------------------
  alpha Z        PSCENC =        13.51988903
  Ewald energy   TEWEN  =      3748.21135916
  -Hartree energ DENC   =     -4446.94191416
  -exchange      EXHF   =         0.00000000
  -V(xc)+E(xc)   XCENC  =       -35.17234485
  PAW double counting   =       478.61999443     -402.81015602
  entropy T*S    EENTRO =        -0.00000000
  eigenvalues    EBANDS =      -148.25863028
  atomic energy  EATOM  =       771.06857575
  Solvation  Ediel_sol  =         0.00000000
  ---------------------------------------------------
  free energy    TOTEN  =       -21.76322695 eV

  energy without entropy =      -21.76322695  energy(sigma->0) =      -21.76322695


--------------------------------------------------------------------------------------------------------




--------------------------------------- Iteration      1(  15)  ---------------------------------------


    POTLOK:  cpu time    0.0140: real time    0.0130
    SETDIJ:  cpu time    0.0020: real time    0.0019
    EDDIAG:  cpu time    0.0160: real time    0.0165
  RMM-DIIS:  cpu time    0.0530: real time    0.0529
    ORTHCH:  cpu time    0.0020: real time    0.0021
       DOS:  cpu time    0.0010: real time    0.0017
    CHARGE:  cpu time    0.0070: real time    0.0068
    MIXING:  cpu time    0.0010: real time    0.0010
    --------------------------------------------
      LOOP:  cpu time    0.0960: real time    0.0958

 eigenvalue-minimisations  :   289
 total energy-change (2. order) :-0.1724429E-03  (-0.1432673E-05)
 number of electron      17.9999953 magnetization 
 augmentation part       -0.5599665 magnetization 

 Broyden mixing:
  rms(total) = 0.43033E-03    rms(broyden)= 0.38259E-03
  rms(prec ) = 0.48311E-03
  weight for this iteration     100.00
  WARNING: grid for Broyden might be to small

 eigenvalues of (default mixing * dielectric matrix)
  average eigenvalue GAMMA=   2.1789
  6.6917  3.5465  2.6090  1.8017  1.8017  1.6270  0.6642  1.0459  1.0459  0.9552

 Free energy of the ion-electron system (eV)
  ---------------------------------------------------
  alpha Z        PSCENC =        13.51988903
  Ewald energy   TEWEN  =      3748.21135916
  -Hartree energ DENC   =     -4447.10277346
  -exchange      EXHF   =         0.00000000
  -V(xc)+E(xc)   XCENC  =       -35.17167849
  PAW double counting   =       478.66615290     -402.85729074
  entropy T*S    EENTRO =        -0.00000000
  eigenvalues    EBANDS =      -148.09763354
  atomic energy  EATOM  =       771.06857575
  Solvation  Ediel_sol  =         0.00000000
  ---------------------------------------------------
  free energy    TOTEN  =       -21.76339939 eV

  energy without entropy =      -21.76339939  energy(sigma->0) =      -21.76339939


--------------------------------------------------------------------------------------------------------




--------------------------------------- Iteration      1(  16)  ---------------------------------------


    POTLOK:  cpu time    0.0130: real time    0.0132
    SETDIJ:  cpu time    0.0030: real time    0.0019
    EDDIAG:  cpu time    0.0160: real time    0.0164
  RMM-DIIS:  cpu time    0.0470: real time    0.0467
    ORTHCH:  cpu time    0.0010: real time    0.0021
       DOS:  cpu time    0.0020: real time    0.0017
    CHARGE:  cpu time    0.0070: real time    0.0068
    MIXING:  cpu time    0.0010: real time    0.0011
    --------------------------------------------
      LOOP:  cpu time    0.0900: real time    0.0898

 eigenvalue-minimisations  :   236
 total energy-change (2. order) :-0.6057778E-04  (-0.3396549E-06)
 number of electron      17.9999953 magnetization 
 augmentation part       -0.5603422 magnetization 

 Broyden mixing:
  rms(total) = 0.30407E-03    rms(broyden)= 0.23164E-03
  rms(prec ) = 0.28050E-03
  weight for this iteration     100.00
  WARNING: grid for Broyden might be to small

 eigenvalues of (default mixing * dielectric matrix)
  average eigenvalue GAMMA=   2.4229
  7.8024  4.8801  2.9510  2.5701  2.1325  1.5018  0.6642  1.2190  0.9979  0.9979
  0.9356

 Free energy of the ion-electron system (eV)
  ---------------------------------------------------
  alpha Z        PSCENC =        13.51988903
  Ewald energy   TEWEN  =      3748.21135916
  -Hartree energ DENC   =     -4447.14886684
  -exchange      EXHF   =         0.00000000
  -V(xc)+E(xc)   XCENC  =       -35.17194597
  PAW double counting   =       478.71338263     -402.90499713
  entropy T*S    EENTRO =        -0.00000000
  eigenvalues    EBANDS =      -148.05085660
  atomic energy  EATOM  =       771.06857575
  Solvation  Ediel_sol  =         0.00000000
  ---------------------------------------------------
  free energy    TOTEN  =       -21.76345997 eV

  energy without entropy =      -21.76345997  energy(sigma->0) =      -21.76345997


--------------------------------------------------------------------------------------------------------




--------------------------------------- Iteration      1(  17)  ---------------------------------------


    POTLOK:  cpu time    0.0130: real time    0.0136
    SETDIJ:  cpu time    0.0020: real time    0.0019
    EDDIAG:  cpu time    0.0160: real time    0.0164
  RMM-DIIS:  cpu time    0.0420: real time    0.0413
    ORTHCH:  cpu time    0.0010: real time    0.0021
       DOS:  cpu time    0.0020: real time    0.0017
    CHARGE:  cpu time    0.0070: real time    0.0067
    MIXING:  cpu time    0.0010: real time    0.0011
    --------------------------------------------
      LOOP:  cpu time    0.0840: real time    0.0849

 eigenvalue-minimisations  :   206
 total energy-change (2. order) :-0.4527112E-04  (-0.2668527E-06)
 number of electron      17.9999953 magnetization 
 augmentation part       -0.5601921 magnetization 

 Broyden mixing:
  rms(total) = 0.23868E-03    rms(broyden)= 0.13492E-03
  rms(prec ) = 0.14825E-03
  weight for this iteration     100.00
  WARNING: grid for Broyden might be to small

 eigenvalues of (default mixing * dielectric matrix)
  average eigenvalue GAMMA=   2.3147
  8.0472  4.9339  2.9435  2.4940  2.1323  1.4855  1.3261  0.6642  1.0018  1.0018
  0.9386  0.8072

 Free energy of the ion-electron system (eV)
  ---------------------------------------------------
  alpha Z        PSCENC =        13.51988903
  Ewald energy   TEWEN  =      3748.21135916
  -Hartree energ DENC   =     -4447.16492717
  -exchange      EXHF   =         0.00000000
  -V(xc)+E(xc)   XCENC  =       -35.17195997
  PAW double counting   =       478.67234364     -402.86313080
  entropy T*S    EENTRO =        -0.00000000
  eigenvalues    EBANDS =      -148.03565488
  atomic energy  EATOM  =       771.06857575
  Solvation  Ediel_sol  =         0.00000000
  ---------------------------------------------------
  free energy    TOTEN  =       -21.76350524 eV

  energy without entropy =      -21.76350524  energy(sigma->0) =      -21.76350524


--------------------------------------------------------------------------------------------------------




--------------------------------------- Iteration      1(  18)  ---------------------------------------


    POTLOK:  cpu time    0.0130: real time    0.0129
    SETDIJ:  cpu time    0.0020: real time    0.0019
    EDDIAG:  cpu time    0.0160: real time    0.0163
  RMM-DIIS:  cpu time    0.0410: real time    0.0405
    ORTHCH:  cpu time    0.0020: real time    0.0020
       DOS:  cpu time    0.0010: real time    0.0017
    CHARGE:  cpu time    0.0070: real time    0.0067
    MIXING:  cpu time    0.0010: real time    0.0012
    --------------------------------------------
      LOOP:  cpu time    0.0830: real time    0.0833

 eigenvalue-minimisations  :   161
 total energy-change (2. order) :-0.2709040E-05  (-0.2204933E-07)
 number of electron      17.9999953 magnetization 
 augmentation part       -0.5601879 magnetization 

 Broyden mixing:
  rms(total) = 0.20818E-03    rms(broyden)= 0.67661E-04
  rms(prec ) = 0.75690E-04
  weight for this iteration     100.00
  WARNING: grid for Broyden might be to small

 eigenvalues of (default mixing * dielectric matrix)
  average eigenvalue GAMMA=   2.4135
  8.1921  5.7406  2.8308  2.8308  2.2004  2.2004  1.5914  0.6642  1.1105  1.1105
  1.0582  0.9441  0.9009

 Free energy of the ion-electron system (eV)
  ---------------------------------------------------
  alpha Z        PSCENC =        13.51988903
  Ewald energy   TEWEN  =      3748.21135916
  -Hartree energ DENC   =     -4447.16458130
  -exchange      EXHF   =         0.00000000
  -V(xc)+E(xc)   XCENC  =       -35.17193971
  PAW double counting   =       478.68053385     -402.87149767
  entropy T*S    EENTRO =        -0.00000000
  eigenvalues    EBANDS =      -148.03584706
  atomic energy  EATOM  =       771.06857575
  Solvation  Ediel_sol  =         0.00000000
  ---------------------------------------------------
  free energy    TOTEN  =       -21.76350795 eV

  energy without entropy =      -21.76350795  energy(sigma->0) =      -21.76350795


--------------------------------------------------------------------------------------------------------




--------------------------------------- Iteration      1(  19)  ---------------------------------------


    POTLOK:  cpu time    0.0130: real time    0.0155
    SETDIJ:  cpu time    0.0020: real time    0.0019
    EDDIAG:  cpu time    0.0160: real time    0.0164
  RMM-DIIS:  cpu time    0.0410: real time    0.0408
    ORTHCH:  cpu time    0.0020: real time    0.0021
       DOS:  cpu time    0.0020: real time    0.0017
    CHARGE:  cpu time    0.0060: real time    0.0067
    MIXING:  cpu time    0.0020: real time    0.0013
    --------------------------------------------
      LOOP:  cpu time    0.0840: real time    0.0864

 eigenvalue-minimisations  :   184
 total energy-change (2. order) :-0.4736203E-05  (-0.4687005E-07)
 number of electron      17.9999953 magnetization 
 augmentation part       -0.5602171 magnetization 

 Broyden mixing:
  rms(total) = 0.20240E-03    rms(broyden)= 0.46938E-04
  rms(prec ) = 0.51379E-04
  weight for this iteration     100.00
  WARNING: grid for Broyden might be to small

 eigenvalues of (default mixing * dielectric matrix)
  average eigenvalue GAMMA=   2.4116
  8.4404  5.7788  3.5142  2.7802  2.3473  1.8411  1.8411  1.4874  0.6642  1.1153
  1.1153  0.9630  0.9373  0.9373

 Free energy of the ion-electron system (eV)
  ---------------------------------------------------
  alpha Z        PSCENC =        13.51988903
  Ewald energy   TEWEN  =      3748.21135916
  -Hartree energ DENC   =     -4447.16279305
  -exchange      EXHF   =         0.00000000
  -V(xc)+E(xc)   XCENC  =       -35.17199544
  PAW double counting   =       478.68511680     -402.87621138
  entropy T*S    EENTRO =        -0.00000000
  eigenvalues    EBANDS =      -148.03745355
  atomic energy  EATOM  =       771.06857575
  Solvation  Ediel_sol  =         0.00000000
  ---------------------------------------------------
  free energy    TOTEN  =       -21.76351268 eV

  energy without entropy =      -21.76351268  energy(sigma->0) =      -21.76351268


--------------------------------------------------------------------------------------------------------




--------------------------------------- Iteration      1(  20)  ---------------------------------------


    POTLOK:  cpu time    0.0130: real time    0.0130
    SETDIJ:  cpu time    0.0020: real time    0.0019
    EDDIAG:  cpu time    0.0160: real time    0.0163
  RMM-DIIS:  cpu time    0.0370: real time    0.0365
    ORTHCH:  cpu time    0.0020: real time    0.0021
       DOS:  cpu time    0.0010: real time    0.0017
    --------------------------------------------
      LOOP:  cpu time    0.0710: real time    0.0716

 eigenvalue-minimisations  :   129
 total energy-change (2. order) :-0.3337926E-06  (-0.7094772E-08)
 number of electron      17.9999953 magnetization 
 augmentation part       -0.5602171 magnetization 

 Free energy of the ion-electron system (eV)
  ---------------------------------------------------
  alpha Z        PSCENC =        13.51988903
  Ewald energy   TEWEN  =      3748.21135916
  -Hartree energ DENC   =     -4447.16606100
  -exchange      EXHF   =         0.00000000
  -V(xc)+E(xc)   XCENC  =       -35.17195188
  PAW double counting   =       478.68302812     -402.87410241
  entropy T*S    EENTRO =        -0.00000000
  eigenvalues    EBANDS =      -148.03424979
  atomic energy  EATOM  =       771.06857575
  Solvation  Ediel_sol  =         0.00000000
  ---------------------------------------------------
  free energy    TOTEN  =       -21.76351302 eV

  energy without entropy =      -21.76351302  energy(sigma->0) =      -21.76351302


--------------------------------------------------------------------------------------------------------




 average (electrostatic) potential at core
  the test charge radii are     1.2296  0.9698
  (the norm of the test charge is              1.0000)
       1 -46.6894       2 -94.5417       3 -94.5419
 
 
 
 E-fermi :  -2.4100     XC(G=0):  -3.1374     alpha+bet : -2.8817


 k-point     1 :       0.0000    0.0000    0.0000
  band No.  band energies     occupation 
      1     -17.2716      2.00000
      2     -16.0633      2.00000
      3      -8.7814      2.00000
      4      -5.8196      2.00000
      5      -5.8194      2.00000
      6      -4.9596      2.00000
      7      -4.7122      2.00000
      8      -4.7117      2.00000
      9      -3.2374      2.00000
     10      -0.4633      0.00000
     11      -0.4625      0.00000
     12      -0.2406      0.00000
     13      -0.2399      0.00000
     14       2.1609      0.00000

 k-point     2 :       0.1250    0.0000    0.0000
  band No.  band energies     occupation 
      1     -17.0576      2.00000
      2     -15.9608      2.00000
      3      -8.5368      2.00000
      4      -6.2839      2.00000
      5      -5.7668      2.00000
      6      -5.5855      2.00000
      7      -5.0483      2.00000
      8      -4.2811      2.00000
      9      -3.3763      2.00000
     10      -0.7459      0.00000
     11      -0.6792      0.00000
     12      -0.4778      0.00000
     13      -0.1090      0.00000
     14       2.5307      0.00000

 k-point     3 :       0.2500    0.0000    0.0000
  band No.  band energies     occupation 
      1     -16.4890      2.00000
      2     -15.6919      2.00000
      3      -8.1708      2.00000
      4      -7.0121      2.00000
      5      -6.7486      2.00000
      6      -5.6852      2.00000
      7      -4.9995      2.00000
      8      -4.5334      2.00000
      9      -3.9447      2.00000
     10      -1.0702      0.00000
     11      -0.8950      0.00000
     12      -0.3518      0.00000
     13       0.5062      0.00000
     14       3.3516      0.00000

 k-point     4 :       0.3750    0.0000    0.0000
  band No.  band energies     occupation 
      1     -15.8141      2.00000
      2     -15.3834      2.00000
      3      -8.6100      2.00000
      4      -7.6174      2.00000
      5      -7.1436      2.00000
      6      -6.1832      2.00000
      7      -4.9422      2.00000
      8      -4.4095      2.00000
      9      -4.1390      2.00000
     10      -1.0774      0.00000
     11      -0.7978      0.00000
     12       0.3669      0.00000
     13       0.8989      0.00000
     14       3.9230      0.00000

 k-point     5 :       0.5000    0.0000    0.0000
  band No.  band energies     occupation 
      1     -15.4858      2.00000
      2     -15.2400      2.00000
      3      -8.9427      2.00000
      4      -7.9833      2.00000
      5      -7.2689      2.00000
      6      -6.3642      2.00000
      7      -5.0803      2.00000
      8      -4.1821      2.00000
      9      -3.8573      2.00000
     10      -1.0558      0.00000
     11      -0.5412      0.00000
     12       0.6670      0.00000
     13       1.0144      0.00000
     14       2.9689      0.00000

 k-point     6 :       0.1250    0.1250    0.0000
  band No.  band energies     occupation 
      1     -16.6649      2.00000
      2     -15.7737      2.00000
      3      -8.1893      2.00000
      4      -6.8492      2.00000
      5      -6.3298      2.00000
      6      -5.8630      2.00000
      7      -5.2469      2.00000
      8      -4.1467      2.00000
      9      -3.7489      2.00000
     10      -1.1452      0.00000
     11      -0.7678      0.00000
     12      -0.7555      0.00000
     13       0.4851      0.00000
     14       3.1178      0.00000

 k-point     7 :       0.2500    0.1250    0.0000
  band No.  band energies     occupation 
      1     -16.0315      2.00000
      2     -15.4750      2.00000
      3      -8.2532      2.00000
      4      -7.2756      2.00000
      5      -7.0122      2.00000
      6      -6.3681      2.00000
      7      -5.1475      2.00000
      8      -4.5088      2.00000
      9      -4.0326      2.00000
     10      -1.2287      0.00000
     11      -0.7820      0.00000
     12      -0.2851      0.00000
     13       0.9910      0.00000
     14       4.1095      0.00000

 k-point     8 :       0.3750    0.1250    0.0000
  band No.  band energies     occupation 
      1     -15.5011      2.00000
      2     -15.2311      2.00000
      3      -8.6551      2.00000
      4      -8.0392      2.00000
      5      -7.1414      2.00000
      6      -6.3857      2.00000
      7      -5.1325      2.00000
      8      -4.9903      2.00000
      9      -3.7059      2.00000
     10      -1.0368      0.00000
     11      -0.5267      0.00000
     12       0.3386      0.00000
     13       1.0248      0.00000
     14       3.4944      0.00000

 k-point     9 :       0.2500    0.2500    0.0000
  band No.  band energies     occupation 
      1     -15.5162      2.00000
      2     -15.2222      2.00000
      3      -8.2946      2.00000
      4      -8.0892      2.00000
      5      -6.8150      2.00000
      6      -6.4341      2.00000
      7      -6.1149      2.00000
      8      -4.8573      2.00000
      9      -3.7356      2.00000
     10      -1.0877      0.00000
     11      -0.4761      0.00000
     12      -0.1594      0.00000
     13       1.3089      0.00000
     14       4.3248      0.00000

 k-point    10 :       0.3750    0.2500    0.0000
  band No.  band energies     occupation 
      1     -15.2812      2.00000
      2     -15.1032      2.00000
      3      -8.4740      2.00000
      4      -8.1252      2.00000
      5      -7.0986      2.00000
      6      -6.4366      2.00000
      7      -6.2082      2.00000
      8      -5.2430      2.00000
      9      -3.3683      2.00000
     10      -1.4141      0.00000
     11      -0.0984      0.00000
     12       0.0733      0.00000
     13       1.4519      0.00000
     14       3.7380      0.00000


--------------------------------------------------------------------------------------------------------


 soft charge-density along one line, spin component           1
         0         1         2         3         4         5         6         7         8         9
 total charge-density along one line
 
 pseudopotential strength for first ion, spin component:           1
 -9.936  -0.000  -0.000   0.000  -0.000   0.097   0.000   0.000
 -0.000  -9.936  -0.000  -0.000  -0.000   0.000   0.097   0.000
 -0.000  -0.000  -9.915  -0.000   0.000   0.000   0.000   0.096
  0.000  -0.000  -0.000  -9.936   0.000  -0.000   0.000   0.000
 -0.000  -0.000   0.000   0.000  -9.936   0.000   0.000  -0.000
  0.097   0.000   0.000  -0.000   0.000   0.098  -0.000  -0.000
  0.000   0.097   0.000   0.000   0.000  -0.000   0.098  -0.000
  0.000   0.000   0.096   0.000  -0.000  -0.000  -0.000   0.098
 -0.000   0.000   0.000   0.097  -0.000   0.000   0.000  -0.000
  0.000   0.000  -0.000  -0.000   0.097  -0.000  -0.000   0.000
 -0.000  -0.000  -0.005  -0.000   0.000   0.000   0.000   0.000
  0.000   0.000   0.001   0.000  -0.000  -0.000  -0.000  -0.000
 -0.000  -0.000  -0.000  -0.000  -0.007   0.000  -0.000   0.000
 -0.000   0.000   0.000  -0.000  -0.000  -0.000  -0.000  -0.000
 -0.007  -0.000   0.000  -0.000  -0.000  -0.000  -0.000  -0.000
  0.000   0.000   0.000   0.000   0.004  -0.000   0.000  -0.000
  0.000  -0.000  -0.000   0.000   0.000  -0.000   0.000   0.000
  0.004   0.000  -0.000   0.000   0.000   0.000  -0.000   0.000
 total augmentation occupancy for first ion, spin component:           1
  0.970   0.000  -0.000   0.000  -0.000   0.662   0.000  -0.000  -0.000  -0.000  -0.000   0.000   0.000   0.000  -0.066  -0.000
  0.000   0.911   0.000   0.000  -0.000   0.000   0.897   0.000   0.000   0.000   0.000   0.000   0.000   0.000   0.000  -0.000
 -0.000   0.000   1.035  -0.000   0.000  -0.000  -0.000   0.567   0.000   0.000   0.111  -0.019  -0.000   0.000   0.000   0.000
 -0.000   0.000   0.000   0.911   0.000  -0.000   0.000   0.000   0.897   0.000   0.000   0.000   0.000  -0.000  -0.000   0.000
 -0.000  -0.000   0.000   0.000   0.970  -0.000   0.000   0.000   0.000   0.662   0.000  -0.000  -0.066   0.000  -0.000   0.007
  0.662   0.000  -0.000  -0.000  -0.000   0.769   0.000  -0.000   0.000  -0.000   0.000   0.000   0.000  -0.000  -0.143  -0.000
 -0.000   0.897  -0.000   0.000   0.000   0.000   1.205   0.000   0.000   0.000   0.000   0.000   0.000   0.000   0.000   0.000
 -0.000  -0.000   0.567  -0.000   0.000  -0.000   0.000   0.551  -0.000   0.000   0.066  -0.023  -0.000   0.000   0.000   0.000
  0.000   0.000   0.000   0.897   0.000  -0.000   0.000   0.000   1.205   0.000   0.000   0.000   0.000   0.000  -0.000   0.000
 -0.000  -0.000   0.000   0.000   0.662  -0.000  -0.000   0.000  -0.000   0.769  -0.000  -0.000  -0.143   0.000  -0.000   0.024
 -0.000  -0.000   0.111   0.000   0.000   0.000  -0.000   0.066   0.000  -0.000   1.210  -0.183   0.000   0.000   0.000   0.000
  0.000   0.000  -0.019   0.000  -0.000   0.000   0.000  -0.023   0.000  -0.000  -0.183   0.041   0.000   0.000   0.000   0.000
  0.000   0.000  -0.000   0.000  -0.066   0.000  -0.000  -0.000   0.000  -0.143  -0.000   0.000   0.217   0.000   0.000  -0.033
  0.000   0.000  -0.000  -0.000   0.000   0.000   0.000   0.000   0.000   0.000   0.000   0.000   0.000   0.265  -0.000  -0.000
 -0.066   0.000   0.000  -0.000  -0.000  -0.143   0.000   0.000   0.000  -0.000   0.000   0.000   0.000  -0.000   0.217  -0.000
 -0.000   0.000   0.000   0.000   0.007  -0.000  -0.000   0.000   0.000   0.024   0.000  -0.000  -0.033   0.000  -0.000   0.005
 -0.000  -0.000   0.000   0.000   0.000   0.000   0.000  -0.000  -0.000   0.000  -0.000   0.000   0.000  -0.039   0.000  -0.000
  0.007   0.000  -0.000   0.000   0.000   0.024   0.000  -0.000   0.000   0.000   0.000  -0.000  -0.000   0.000  -0.033   0.000


------------------------ aborting loop because EDIFF is reached ----------------------------------------


 


 total charge     
 
# of ion       s       p       d       tot
------------------------------------------
    1        0.414   0.593   4.443   5.450
    2        1.366   2.356   0.000   3.722
    3        1.366   2.356   0.000   3.722
--------------------------------------------------
tot          3.146   5.305   4.443  12.894
 
    CHARGE:  cpu time    0.0060: real time    0.0069
    FORLOC:  cpu time    0.0020: real time    0.0013
    FORNL :  cpu time    0.0280: real time    0.0279
    STRESS:  cpu time    0.0860: real time    0.0862
    FORCOR:  cpu time    0.0140: real time    0.0145
    FORHAR:  cpu time    0.0040: real time    0.0033
    MIXING:  cpu time    0.0010: real time    0.0013
    OFIELD:  cpu time    0.0000: real time    0.0000

  DFT-D2 method for vdW energy calculation
  -------------------------------------------------------------------

  Parameters of vdW forcefield:
         C6(Jnm^6/mol)     R0(A)
   -----------------------------
   Mo      24.670          1.639
   S        5.570          1.683

  IVDW =   1
  VDW_RADIUS =    50.000 A
  VDW_S6 =     0.750
  VDW_SR =     1.000
  VDW_D =    20.000
  LVDW_EWALD = F

  Number of pair interactions contributing to vdW energy:   13672
  Edisp (eV):   -0.59101
    FORVDW:  cpu time    0.0150: real time    0.0186

  FORCE on cell =-STRESS in cart. coord.  units (eV):
  Direction    XX          YY          ZZ          XY          YZ          ZX
  --------------------------------------------------------------------------------------
  Alpha Z    13.51989    13.51989    13.51989
  Ewald    4315.07765  4315.07809 -4881.94457     0.00019     0.00000     0.00012
  Hartree  4408.92641  4408.92642 -4370.68485     0.00002     0.00000    -0.00000
  E(xc)     -70.33561   -70.33558   -70.93988     0.00003    -0.00002    -0.00001
  Local   -9006.44648 -9006.44806  8964.18118    -0.00129    -0.00029    -0.00022
  n-local   127.31008   125.92446   131.85131    -0.26634     0.00001     0.00012
  augment   -25.66729   -25.66685   -26.76924     0.00039    -0.00001    -0.00001
  Kinetic   236.13533   238.93107   240.02800    -7.43029     0.00006     0.00008
  Fock        0.00000     0.00000     0.00000     0.00000     0.00000     0.00000
  vdW         0.16032     0.16032    -0.13465     0.00000     0.00000    -0.00000
  -------------------------------------------------------------------------------------
  Total      -0.61497    -0.61497    -0.89281    -0.00000     0.00000     0.00000
  in kB      -4.49300    -4.49300    -6.52284    -0.00000     0.00000     0.00000
  external pressure =       -5.17 kB  Pullay stress =        0.00 kB


 VOLUME and BASIS-vectors are now :
 -----------------------------------------------------------------------------
  energy-cutoff  :      250.00
  volume of cell :      219.30
      direct lattice vectors                 reciprocal lattice vectors
     3.190315730  0.000000000  0.000000000     0.313448600  0.180969634  0.000000000
    -1.595157865  2.762894468  0.000000000     0.000000000  0.361939267  0.000000000
     0.000000000  0.000000000 24.879004300     0.000000000  0.000000000  0.040194535

  length of vectors
     3.190315730  3.190315730 24.879004300     0.361939267  0.361939267  0.040194535


 FORCES acting on ions
    electron-ion (+dipol)            ewald-force                    non-local-force                 convergence-correction
 -----------------------------------------------------------------------------------------------
   -.923E-05 -.479E-06 -.785E-04   0.931E-04 -.108E-03 0.285E-06   0.139E-16 0.208E-16 -.108E-18   0.129E-08 -.198E-08 0.807E-06
   -.122E-02 -.121E-04 0.569E+03   -.864E-04 0.538E-04 -.573E+03   0.173E-16 0.173E-17 0.496E+01   -.397E-08 0.244E-08 -.557E-03
   0.112E-02 0.106E-02 -.569E+03   -.674E-05 0.538E-04 0.573E+03   0.208E-16 -.520E-17 -.496E+01   0.261E-08 0.307E-08 0.559E-03
 -----------------------------------------------------------------------------------------------
   -.109E-03 0.104E-02 -.562E-03   -.249E-13 0.738E-14 0.000E+00   0.520E-16 0.173E-16 0.000E+00   -.658E-10 0.352E-08 0.215E-05
 
 
 POSITION                                       TOTAL-FORCE (eV/Angst)
 -----------------------------------------------------------------------------------
     -0.00000      1.84193      3.71975        -0.000000     -0.000000     -0.000000
      1.59516      0.92096      2.15487         0.000000      0.000000      0.107071
      1.59516      0.92096      5.28464         0.000000      0.000000     -0.107071
 -----------------------------------------------------------------------------------
    total drift:                               -0.000109      0.001044     -0.000560


--------------------------------------------------------------------------------------------------------



  FREE ENERGIE OF THE ION-ELECTRON SYSTEM (eV)
  ---------------------------------------------------
  free  energy   TOTEN  =       -22.35451874 eV

  energy  without entropy=      -22.35451874  energy(sigma->0) =      -22.35451874
 


--------------------------------------------------------------------------------------------------------


    POTLOK:  cpu time    0.0160: real time    0.0152


--------------------------------------------------------------------------------------------------------


     LOOP+:  cpu time    2.2877: real time    2.5410
    4ORBIT:  cpu time    0.0000: real time    0.0000
 


 total charge     
 
# of ion       s       p       d       tot
------------------------------------------
    1        0.414   0.593   4.443   5.450
    2        1.366   2.356   0.000   3.722
    3        1.366   2.356   0.000   3.722
--------------------------------------------------
tot          3.146   5.305   4.443  12.894
 

 total amount of memory used by VASP MPI-rank0    34490. kBytes
=======================================================================

   base      :      30000. kBytes
   nonlr-proj:        339. kBytes
   fftplans  :       1143. kBytes
   grid      :       1837. kBytes
   one-center:         31. kBytes
   wavefun   :       1140. kBytes
 
  
  
 General timing and accounting informations for this job:
 ========================================================
  
                  Total CPU time used (sec):        3.343
                            User time (sec):        3.254
                          System time (sec):        0.090
                         Elapsed time (sec):        5.588
  
                   Maximum memory used (kb):       27140.
                   Average memory used (kb):           0.
  
                          Minor page faults:         6872
                          Major page faults:          163
                 Voluntary context switches:         2483
