perl: warning: Setting locale failed.
perl: warning: Please check that your locale settings:
	LANGUAGE = (unset),
	LC_ALL = (unset),
	LC_CTYPE = "UTF-8",
	LANG = "en_US.iso885915"
    are supported and installed on your system.
perl: warning: Falling back to the standard locale ("C").
Starting job 28532608 ("jobname") on c15-6 at Fri Nov 8 11:45:39 CET 2019
 running on    4 total cores
 distrk:  each k-point on    4 cores,    1 groups
 distr:  one band on    2 cores,    2 groups
 using from now: INCAR     
 vasp.5.4.4.18Apr17-6-g9f103f2a35 (build Jun 30 2017 11:15:00) complex          
  
 POSCAR found type information on POSCAR  Mo S 
 POSCAR found :  2 types and       3 ions
 scaLAPACK will be used

 ----------------------------------------------------------------------------- 
|                                                                             |
|  ADVICE TO THIS USER RUNNING 'VASP/VAMP'   (HEAR YOUR MASTER'S VOICE ...):  |
|                                                                             |
|      You have a (more or less) 'small supercell' and for smaller cells      |
|      it is recommended  to use the reciprocal-space projection scheme!      |
|      The real space optimization is not  efficient for small cells and it   |
|      is also less accurate ...                                              |
|      Therefore set LREAL=.FALSE. in the  INCAR file                         |
|                                                                             |
 ----------------------------------------------------------------------------- 

 LDA part: xc-table for Pade appr. of Perdew
 POSCAR, INCAR and KPOINTS ok, starting setup
 FFT: planning ...
 WAVECAR not read
 entering main loop
       N       E                     dE             d eps       ncg     rms          rms(c)
DAV:   1     0.998880426975E+02    0.99888E+02   -0.43642E+03   288   0.526E+02
DAV:   2    -0.115041421489E+02   -0.11139E+03   -0.10591E+03   466   0.149E+02
DAV:   3    -0.231584833536E+02   -0.11654E+02   -0.11534E+02   394   0.603E+01
DAV:   4    -0.233652137689E+02   -0.20673E+00   -0.20640E+00   342   0.959E+00
DAV:   5    -0.233705242310E+02   -0.53105E-02   -0.53091E-02   384   0.143E+00    0.691E+00
RMM:   6    -0.222126755818E+02    0.11578E+01   -0.53909E+00   292   0.116E+01    0.263E+00
RMM:   7    -0.218284347196E+02    0.38424E+00   -0.55514E-01   290   0.327E+00    0.153E+00
RMM:   8    -0.217682691113E+02    0.60166E-01   -0.23463E-01   304   0.244E+00    0.350E-01
RMM:   9    -0.217635814844E+02    0.46876E-02   -0.81611E-03   334   0.548E-01    0.933E-02
RMM:  10    -0.217628435572E+02    0.73793E-03   -0.16859E-03   330   0.211E-01    0.438E-02
RMM:  11    -0.217628253181E+02    0.18239E-04   -0.19426E-03   313   0.194E-01    0.577E-02
RMM:  12    -0.217627050937E+02    0.12022E-03   -0.61318E-04   304   0.132E-01    0.157E-02
RMM:  13    -0.217631587543E+02   -0.45366E-03   -0.14994E-04   294   0.639E-02    0.190E-02
RMM:  14    -0.217632269478E+02   -0.68194E-04   -0.27495E-05   318   0.267E-02    0.593E-03
RMM:  15    -0.217633993907E+02   -0.17244E-03   -0.14327E-05   289   0.158E-02    0.430E-03
RMM:  16    -0.217634599685E+02   -0.60578E-04   -0.33965E-06   236   0.818E-03    0.304E-03
RMM:  17    -0.217635052396E+02   -0.45271E-04   -0.26685E-06   206   0.778E-03    0.239E-03
RMM:  18    -0.217635079487E+02   -0.27090E-05   -0.22049E-07   161   0.286E-03    0.208E-03
RMM:  19    -0.217635126849E+02   -0.47362E-05   -0.46870E-07   184   0.338E-03    0.202E-03
RMM:  20    -0.217635130187E+02   -0.33379E-06   -0.70948E-08   129   0.171E-03
   1 F= -.22354519E+02 E0= -.22354519E+02  d E =-.670577E-10

Currently Loaded Modulefiles:
  1) Anaconda3/5.1.0       3) vesta/3.3.8           5) intel/2016.1
  2) gnuplot/5.0.4         4) imagemagick/6.7.9-0   6) vasp/5.4.1.Feb16

Job script resource usage:
       JobID  MaxVMSize     MaxRSS 
------------ ---------- ---------- 
28532608.ba+    216888K      2572K 

Job step resource usage:
       JobID    JobName  AllocCPUS  MaxVMSize     MaxRSS    Elapsed ExitCode 
------------ ---------- ---------- ---------- ---------- ---------- -------- 
28532608        jobname          4                         00:00:08      0:0 
28532608.0    pmi_proxy          1    279832K       534K   00:00:07      0:0 

Job 28532608 ("jobname") completed on c15-6 at Fri Nov 8 11:45:46 CET 2019
