<?xml version="1.0" encoding="ISO-8859-1"?>
<modeling>
 <generator>
  <i name="program" type="string">vasp </i>
  <i name="version" type="string">5.4.4.18Apr17-6-g9f103f2a35  </i>
  <i name="subversion" type="string">(build Jun 30 2017 11:15:00) complex            parallel </i>
  <i name="platform" type="string">STALLO_VASP_5.4.4 </i>
  <i name="date" type="string">2019 11 08 </i>
  <i name="time" type="string">11:45:40 </i>
 </generator>
 <incar>
  <i type="string" name="PREC">normal    ! low/normal/accurate</i>
  <i type="string" name="ALGO"> Fast      ! Algorithm for electronic re</i>
  <i type="int" name="ISPIN">     1</i>
  <i type="int" name="NELMIN">     4</i>
  <i name="EDIFF">      0.00000100</i>
  <i type="int" name="NSW">     0</i>
  <i name="ENCUT">    250.00000000</i>
  <i type="int" name="NEDOS">  2401</i>
  <i type="string" name="LREAL"> Auto      ! Projection in reciprocal sp</i>
  <i name="EMIN">    -12.00000000</i>
  <i name="EMAX">     12.00000000</i>
  <i type="int" name="ISMEAR">     0</i>
  <i name="SIGMA">      0.20000000</i>
  <i type="logical" name="LWAVE"> F  </i>
  <i type="int" name="LORBIT">    11</i>
  <i type="logical" name="LELF"> T  </i>
  <v type="int" name="KPOINT_BSE">    -1     0     0     0</v>
 </incar>
 <structure name="primitive_cell" >
  <crystal>
   <varray name="basis" >
    <v>       3.19031573       0.00000000       0.00000000 </v>
    <v>      -1.59515786       2.76289447       0.00000000 </v>
    <v>       0.00000000       0.00000000      24.87900430 </v>
   </varray>
   <i name="volume">    219.29612478 </i>
   <varray name="rec_basis" >
    <v>       0.31344860       0.18096963       0.00000000 </v>
    <v>       0.00000000       0.36193927       0.00000000 </v>
    <v>       0.00000000       0.00000000       0.04019453 </v>
   </varray>
  </crystal>
  <varray name="positions" >
   <v>       0.33333300      -0.33333300       0.14951366 </v>
   <v>      -0.33333400       0.33333300       0.21241346 </v>
   <v>      -0.33333300       0.33333300       0.08661386 </v>
  </varray>
 </structure>
 <varray name="primitive_index" >
  <v type="int" >        1 </v>
  <v type="int" >        3 </v>
  <v type="int" >        2 </v>
 </varray>
 <kpoints>
  <generation param="Gamma">
   <v type="int" name="divisions">       8        8        1 </v>
   <v name="usershift">      0.00000000       0.00000000       0.00000000 </v>
   <v name="genvec1">      0.12500000       0.00000000       0.00000000 </v>
   <v name="genvec2">      0.00000000       0.12500000       0.00000000 </v>
   <v name="genvec3">      0.00000000       0.00000000       1.00000000 </v>
   <v name="shift">      0.00000000       0.00000000       0.00000000 </v>
  </generation>
  <varray name="kpointlist" >
   <v>       0.00000000       0.00000000       0.00000000 </v>
   <v>       0.12500000       0.00000000       0.00000000 </v>
   <v>       0.25000000       0.00000000       0.00000000 </v>
   <v>       0.37500000       0.00000000       0.00000000 </v>
   <v>       0.50000000       0.00000000       0.00000000 </v>
   <v>       0.12500000       0.12500000       0.00000000 </v>
   <v>       0.25000000       0.12500000       0.00000000 </v>
   <v>       0.37500000       0.12500000       0.00000000 </v>
   <v>       0.25000000       0.25000000       0.00000000 </v>
   <v>       0.37500000       0.25000000       0.00000000 </v>
  </varray>
  <varray name="weights" >
   <v>       0.01562500 </v>
   <v>       0.09375000 </v>
   <v>       0.09375000 </v>
   <v>       0.09375000 </v>
   <v>       0.04687500 </v>
   <v>       0.09375000 </v>
   <v>       0.18750000 </v>
   <v>       0.18750000 </v>
   <v>       0.09375000 </v>
   <v>       0.09375000 </v>
  </varray>
 </kpoints>
 <parameters>
  <separator name="general" >
   <i type="string" name="SYSTEM">unknown system</i>
   <i type="logical" name="LCOMPAT"> F  </i>
  </separator>
  <separator name="electronic" >
   <i type="string" name="PREC">normal</i>
   <i name="ENMAX">    250.00000000</i>
   <i name="ENAUG">    345.27800000</i>
   <i name="EDIFF">      0.00000100</i>
   <i type="int" name="IALGO">    68</i>
   <i type="int" name="IWAVPR">    10</i>
   <i type="int" name="NBANDS">    14</i>
   <i name="NELECT">     18.00000000</i>
   <i type="int" name="TURBO">     0</i>
   <i type="int" name="IRESTART">     0</i>
   <i type="int" name="NREBOOT">     0</i>
   <i type="int" name="NMIN">     0</i>
   <i name="EREF">      0.00000000</i>
   <separator name="electronic smearing" >
    <i type="int" name="ISMEAR">     0</i>
    <i name="SIGMA">      0.20000000</i>
    <i name="KSPACING">      0.50000000</i>
    <i type="logical" name="KGAMMA"> T  </i>
   </separator>
   <separator name="electronic projectors" >
    <i type="logical" name="LREAL"> T  </i>
    <v name="ROPT">     -0.00050000     -0.00050000</v>
    <i type="int" name="LMAXPAW">  -100</i>
    <i type="int" name="LMAXMIX">     2</i>
    <i type="logical" name="NLSPLINE"> F  </i>
   </separator>
   <separator name="electronic startup" >
    <i type="int" name="ISTART">     0</i>
    <i type="int" name="ICHARG">     2</i>
    <i type="int" name="INIWAV">     1</i>
   </separator>
   <separator name="electronic spin" >
    <i type="int" name="ISPIN">     1</i>
    <i type="logical" name="LNONCOLLINEAR"> F  </i>
    <v name="MAGMOM">      1.00000000      1.00000000      1.00000000</v>
    <i name="NUPDOWN">     -1.00000000</i>
    <i type="logical" name="LSORBIT"> F  </i>
    <v name="SAXIS">      0.00000000      0.00000000      1.00000000</v>
    <i type="logical" name="LSPIRAL"> F  </i>
    <v name="QSPIRAL">      0.00000000      0.00000000      0.00000000</v>
    <i type="logical" name="LZEROZ"> F  </i>
   </separator>
   <separator name="electronic exchange-correlation" >
    <i type="logical" name="LASPH"> F  </i>
    <i type="logical" name="LMETAGGA"> F  </i>
   </separator>
   <separator name="electronic convergence" >
    <i type="int" name="NELM">    60</i>
    <i type="int" name="NELMDL">    -5</i>
    <i type="int" name="NELMIN">     4</i>
    <i name="ENINI">    250.00000000</i>
    <separator name="electronic convergence detail" >
     <i type="logical" name="LDIAG"> T  </i>
     <i type="logical" name="LSUBROT"> F  </i>
     <i name="WEIMIN">      0.00000000</i>
     <i name="EBREAK">      0.00000002</i>
     <i name="DEPER">      0.30000000</i>
     <i type="int" name="NRMM">     4</i>
     <i name="TIME">      0.40000000</i>
    </separator>
   </separator>
   <separator name="electronic mixer" >
    <i name="AMIX">      0.40000000</i>
    <i name="BMIX">      1.00000000</i>
    <i name="AMIN">      0.10000000</i>
    <i name="AMIX_MAG">      1.60000000</i>
    <i name="BMIX_MAG">      1.00000000</i>
    <separator name="electronic mixer details" >
     <i type="int" name="IMIX">     4</i>
     <i type="logical" name="MIXFIRST"> F  </i>
     <i type="int" name="MAXMIX">   -45</i>
     <i name="WC">    100.00000000</i>
     <i type="int" name="INIMIX">     1</i>
     <i type="int" name="MIXPRE">     1</i>
     <i type="int" name="MREMOVE">     5</i>
    </separator>
   </separator>
   <separator name="electronic dipolcorrection" >
    <i type="logical" name="LDIPOL"> F  </i>
    <i type="logical" name="LMONO"> F  </i>
    <i type="int" name="IDIPOL">     0</i>
    <i name="EPSILON">      1.00000000</i>
    <v name="DIPOL">   -100.00000000   -100.00000000   -100.00000000</v>
    <i name="EFIELD">      0.00000000</i>
   </separator>
  </separator>
  <separator name="grids" >
   <i type="int" name="NGX">    12</i>
   <i type="int" name="NGY">    12</i>
   <i type="int" name="NGZ">    96</i>
   <i type="int" name="NGXF">    24</i>
   <i type="int" name="NGYF">    24</i>
   <i type="int" name="NGZF">   192</i>
   <i type="logical" name="ADDGRID"> F  </i>
  </separator>
  <separator name="ionic" >
   <i type="int" name="NSW">     0</i>
   <i type="int" name="IBRION">    -1</i>
   <i type="int" name="MDALGO">     0</i>
   <i type="int" name="ISIF">     2</i>
   <i name="PSTRESS">      0.00000000</i>
   <i name="EDIFFG">      0.00001000</i>
   <i type="int" name="NFREE">     0</i>
   <i name="POTIM">      0.50000000</i>
   <i name="SMASS">     -3.00000000</i>
   <i name="SCALEE">      1.00000000</i>
  </separator>
  <separator name="ionic md" >
   <i name="TEBEG">      0.00010000</i>
   <i name="TEEND">      0.00010000</i>
   <i type="int" name="NBLOCK">     1</i>
   <i type="int" name="KBLOCK">     1</i>
   <i type="int" name="NPACO">   256</i>
   <i name="APACO">     16.00000000</i>
  </separator>
  <separator name="symmetry" >
   <i type="int" name="ISYM">     2</i>
   <i name="SYMPREC">      0.00001000</i>
  </separator>
  <separator name="dos" >
   <i type="int" name="LORBIT">    11</i>
   <v name="RWIGS">     -1.00000000     -1.00000000</v>
   <i type="int" name="NEDOS">  2401</i>
   <i name="EMIN">    -12.00000000</i>
   <i name="EMAX">     12.00000000</i>
   <i name="EFERMI">      0.00000000</i>
  </separator>
  <separator name="writing" >
   <i type="int" name="NWRITE">     2</i>
   <i type="logical" name="LWAVE"> F  </i>
   <i type="logical" name="LDOWNSAMPLE"> F  </i>
   <i type="logical" name="LCHARG"> T  </i>
   <i type="logical" name="LPARD"> F  </i>
   <i type="logical" name="LVTOT"> F  </i>
   <i type="logical" name="LVHAR"> F  </i>
   <i type="logical" name="LELF"> T  </i>
   <i type="logical" name="LOPTICS"> F  </i>
   <v name="STM">      0.00000000      0.00000000      0.00000000      0.00000000      0.00000000      0.00000000      0.00000000</v>
  </separator>
  <separator name="performance" >
   <i type="int" name="NPAR">     2</i>
   <i type="int" name="NSIM">     4</i>
   <i type="int" name="NBLK">    -1</i>
   <i type="logical" name="LPLANE"> T  </i>
   <i type="logical" name="LSCALAPACK"> T  </i>
   <i type="logical" name="LSCAAWARE"> F  </i>
   <i type="logical" name="LSCALU"> F  </i>
   <i type="logical" name="LASYNC"> F  </i>
   <i type="logical" name="LORBITALREAL"> F  </i>
  </separator>
  <separator name="miscellaneous" >
   <i type="int" name="IDIOT">     3</i>
   <i type="int" name="ISPECIAL">     0</i>
   <i type="logical" name="LMUSIC"> F  </i>
   <v name="POMASS">     95.94000000     32.06600000</v>
   <v name="DARWINR">      0.00000000      0.00000000</v>
   <v name="DARWINV">      1.00000000      1.00000000</v>
   <i type="logical" name="LCORR"> T  </i>
  </separator>
  <i type="logical" name="GGA_COMPAT"> T  </i>
  <i type="logical" name="LBERRY"> F  </i>
  <i type="int" name="ICORELEVEL">     0</i>
  <i type="logical" name="LDAU"> F  </i>
  <i type="int" name="I_CONSTRAINED_M">     0</i>
  <separator name="electronic exchange-correlation" >
   <i type="string" name="GGA">--</i>
   <i type="int" name="VOSKOWN">     0</i>
   <i type="logical" name="LHFCALC"> F  </i>
   <i type="string" name="PRECFOCK"></i>
   <i type="logical" name="LSYMGRAD"> F  </i>
   <i type="logical" name="LHFONE"> F  </i>
   <i type="logical" name="LRHFCALC"> F  </i>
   <i type="logical" name="LTHOMAS"> F  </i>
   <i type="logical" name="LMODELHF"> F  </i>
   <i name="ENCUT4O">     -1.00000000</i>
   <i type="int" name="EXXOEP">     0</i>
   <i type="int" name="FOURORBIT">     0</i>
   <i name="AEXX">      0.00000000</i>
   <i name="HFALPHA">      0.00000000</i>
   <i name="MCALPHA">      0.00000000</i>
   <i name="ALDAX">      1.00000000</i>
   <i name="AGGAX">      1.00000000</i>
   <i name="ALDAC">      1.00000000</i>
   <i name="AGGAC">      1.00000000</i>
   <i type="int" name="NKREDX">     1</i>
   <i type="int" name="NKREDY">     1</i>
   <i type="int" name="NKREDZ">     1</i>
   <i type="logical" name="SHIFTRED"> F  </i>
   <i type="logical" name="ODDONLY"> F  </i>
   <i type="logical" name="EVENONLY"> F  </i>
   <i type="int" name="LMAXFOCK">     0</i>
   <i type="int" name="NMAXFOCKAE">     0</i>
   <i type="logical" name="LFOCKAEDFT"> F  </i>
   <i name="HFSCREEN">      0.00000000</i>
   <i name="HFSCREENC">      0.00000000</i>
   <i type="int" name="NBANDSGWLOW">     0</i>
  </separator>
  <separator name="vdW DFT" >
   <i type="logical" name="LUSE_VDW"> F  </i>
   <i name="Zab_VDW">     -0.84910000</i>
   <i name="PARAM1">      0.12340000</i>
   <i name="PARAM2">      1.00000000</i>
   <i name="PARAM3">      0.00000000</i>
  </separator>
  <separator name="model GW" >
   <i type="int" name="MODEL_GW">     0</i>
   <i name="MODEL_EPS0">     43.85922496</i>
   <i name="MODEL_ALPHA">      1.00000000</i>
  </separator>
  <separator name="linear response parameters" >
   <i type="logical" name="LEPSILON"> F  </i>
   <i type="logical" name="LRPA"> F  </i>
   <i type="logical" name="LNABLA"> F  </i>
   <i type="logical" name="LVEL"> F  </i>
   <i type="int" name="KINTER">     0</i>
   <i name="CSHIFT">      0.10000000</i>
   <i name="OMEGAMAX">     -1.00000000</i>
   <i name="DEG_THRESHOLD">      0.00200000</i>
   <i name="RTIME">     -0.10000000</i>
   <i name="WPLASMAI">      0.00000000</i>
   <v name="DFIELD">      0.00000000      0.00000000      0.00000000</v>
   <v name="WPLASMA">      0.00000000      0.00000000      0.00000000      0.00000000      0.00000000      0.00000000      0.00000000      0.00000000      0.00000000</v>
  </separator>
  <separator name="orbital magnetization" >
   <i type="logical" name="NUCIND"> F  </i>
   <v name="MAGPOS">      0.00000000      0.00000000      0.00000000</v>
   <i type="logical" name="LNICSALL"> T  </i>
   <i type="logical" name="ORBITALMAG"> F  </i>
   <i type="logical" name="LMAGBLOCH"> F  </i>
   <i type="logical" name="LCHIMAG"> F  </i>
   <i type="logical" name="LGAUGE"> T  </i>
   <i type="int" name="MAGATOM">     0</i>
   <v name="MAGDIPOL">      0.00000000      0.00000000      0.00000000</v>
   <v name="AVECCONST">      0.00000000      0.00000000      0.00000000</v>
  </separator>
  <separator name="response functions" >
   <i type="logical" name="LADDER"> F  </i>
   <i type="logical" name="LRPAFORCE"> F  </i>
   <i type="logical" name="LFXC"> F  </i>
   <i type="logical" name="LHARTREE"> T  </i>
   <i type="int" name="IBSE">     0</i>
   <v type="int" name="KPOINT">    -1     0     0     0</v>
   <i type="logical" name="LTCTE"> F  </i>
   <i type="logical" name="LTETE"> F  </i>
   <i type="logical" name="LTRIPLET"> F  </i>
   <i type="logical" name="LFXCEPS"> F  </i>
   <i type="logical" name="LFXHEG"> F  </i>
   <i type="int" name="NATURALO">     2</i>
   <i type="logical" name="L2ORDER"> F  </i>
   <i type="logical" name="LMP2LT"> F  </i>
   <i type="logical" name="LUSEW"> F  </i>
   <i name="ENCUTGW">     -2.00000000</i>
   <i name="ENCUTGWSOFT">     -2.00000000</i>
   <i name="ENCUTLF">     -1.00000000</i>
   <i type="int" name="LMAXMP2">    -1</i>
   <i name="SCISSOR">      0.00000000</i>
   <i type="int" name="NOMEGA">     0</i>
   <i type="int" name="NOMEGAR">     0</i>
   <i type="int" name="NBANDSGW">    -1</i>
   <i type="int" name="NBANDSO">    -1</i>
   <i type="int" name="NBANDSV">    -1</i>
   <i type="int" name="NELM">     1</i>
   <i type="int" name="NELMHF">     1</i>
   <i type="int" name="DIM">     3</i>
   <i type="int" name="ANTIRES">     0</i>
   <i name="OMEGAMAX">    -30.00000000</i>
   <i name="OMEGAMIN">    -30.00000000</i>
   <i name="OMEGATL">   -200.00000000</i>
   <i type="int" name="OMEGAGRID">   140</i>
   <i name="CSHIFT">     -0.10000000</i>
   <i type="logical" name="SELFENERGY"> F  </i>
   <i type="logical" name="LSPECTRAL"> F  </i>
   <i type="logical" name="LSPECTRALGW"> F  </i>
   <i type="logical" name="LSINGLES"> F  </i>
   <i type="logical" name="LFERMIGW"> F  </i>
   <i type="logical" name="ODDONLYGW"> F  </i>
   <i type="logical" name="EVENONLYGW"> F  </i>
   <i type="int" name="NKREDLFX">     1</i>
   <i type="int" name="NKREDLFY">     1</i>
   <i type="int" name="NKREDLFZ">     1</i>
   <i type="int" name="MAXMEM">  2800</i>
   <i type="int" name="TELESCOPE">     0</i>
   <i type="int" name="TAUPAR">     1</i>
   <i type="int" name="OMEGAPAR">    -1</i>
   <i name="LAMBDA">      1.00000000</i>
  </separator>
  <separator name="External order field" >
   <i name="OFIELD_KAPPA">      0.00000000</i>
   <v name="OFIELD_K">      0.00000000      0.00000000      0.00000000</v>
   <i name="OFIELD_Q6_NEAR">      0.00000000</i>
   <i name="OFIELD_Q6_FAR">      0.00000000</i>
   <i name="OFIELD_A">      0.00000000</i>
  </separator>
 </parameters>
 <atominfo>
  <atoms>       3 </atoms>
  <types>       2 </types>
  <array name="atoms" >
   <dimension dim="1">ion</dimension>
   <field type="string">element</field>
   <field type="int">atomtype</field>
   <set>
    <rc><c>Mo</c><c>   1</c></rc>
    <rc><c>S </c><c>   2</c></rc>
    <rc><c>S </c><c>   2</c></rc>
   </set>
  </array>
  <array name="atomtypes" >
   <dimension dim="1">type</dimension>
   <field type="int">atomspertype</field>
   <field type="string">element</field>
   <field>mass</field>
   <field>valence</field>
   <field type="string">pseudopotential</field>
   <set>
    <rc><c>   1</c><c>Mo</c><c>     95.94000000</c><c>      6.00000000</c><c> PAW_PBE Mo 08Apr2002                   </c></rc>
    <rc><c>   2</c><c>S </c><c>     32.06600000</c><c>      6.00000000</c><c>  PAW_PBE S 17Jan2003                   </c></rc>
   </set>
  </array>
 </atominfo>
 <structure name="initialpos" >
  <crystal>
   <varray name="basis" >
    <v>       3.19031573       0.00000000       0.00000000 </v>
    <v>      -1.59515786       2.76289447       0.00000000 </v>
    <v>       0.00000000       0.00000000      24.87900430 </v>
   </varray>
   <i name="volume">    219.29612478 </i>
   <varray name="rec_basis" >
    <v>       0.31344860       0.18096963       0.00000000 </v>
    <v>       0.00000000       0.36193927       0.00000000 </v>
    <v>       0.00000000       0.00000000       0.04019453 </v>
   </varray>
  </crystal>
  <varray name="positions" >
   <v>       0.33333300       0.66666700       0.14951366 </v>
   <v>       0.66666700       0.33333300       0.08661386 </v>
   <v>       0.66666600       0.33333300       0.21241346 </v>
  </varray>
 </structure>
 <calculation>
  <scstep>
   <time name="dav">    0.09    0.09</time>
   <time name="total">    0.11    0.32</time>
   <energy>
    <i name="alphaZ">     13.51988903 </i>
    <i name="ewald">   3748.21135916 </i>
    <i name="hartreedc">  -4434.57816778 </i>
    <i name="XCdc">    -36.31055499 </i>
    <i name="pawpsdc">    406.88651198 </i>
    <i name="pawaedc">   -329.34073203 </i>
    <i name="eentropy">     -0.03574083 </i>
    <i name="bandstr">    -39.53309759 </i>
    <i name="atom">    771.06857575 </i>
    <i name="e_fr_energy">     99.88804270 </i>
    <i name="e_wo_entrp">     99.92378353 </i>
    <i name="e_0_energy">     99.90591311 </i>
   </energy>
  </scstep>
  <scstep>
   <time name="dav">    0.13    0.13</time>
   <time name="total">    0.13    0.14</time>
   <energy>
    <i name="e_fr_energy">    -11.50414215 </i>
    <i name="e_wo_entrp">    -11.50414215 </i>
    <i name="e_0_energy">    -11.50414215 </i>
   </energy>
  </scstep>
  <scstep>
   <time name="dav">    0.11    0.11</time>
   <time name="total">    0.12    0.12</time>
   <energy>
    <i name="e_fr_energy">    -23.15848335 </i>
    <i name="e_wo_entrp">    -23.15848335 </i>
    <i name="e_0_energy">    -23.15848335 </i>
   </energy>
  </scstep>
  <scstep>
   <time name="dav">    0.10    0.10</time>
   <time name="total">    0.10    0.10</time>
   <energy>
    <i name="e_fr_energy">    -23.36521377 </i>
    <i name="e_wo_entrp">    -23.36521377 </i>
    <i name="e_0_energy">    -23.36521377 </i>
   </energy>
  </scstep>
  <scstep>
   <time name="dav">    0.11    0.11</time>
   <time name="total">    0.12    0.12</time>
   <energy>
    <i name="e_fr_energy">    -23.37052423 </i>
    <i name="e_wo_entrp">    -23.37052423 </i>
    <i name="e_0_energy">    -23.37052423 </i>
   </energy>
  </scstep>
  <scstep>
   <time name="diag">    0.02    0.02</time>
   <time name="diis">    0.05    0.05</time>
   <time name="orth">    0.00    0.00</time>
   <time name="total">    0.10    0.10</time>
   <energy>
    <i name="e_fr_energy">    -22.21267558 </i>
    <i name="e_wo_entrp">    -22.21267555 </i>
    <i name="e_0_energy">    -22.21267556 </i>
   </energy>
  </scstep>
  <scstep>
   <time name="diag">    0.02    0.02</time>
   <time name="diis">    0.05    0.05</time>
   <time name="orth">    0.00    0.00</time>
   <time name="total">    0.09    0.10</time>
   <energy>
    <i name="e_fr_energy">    -21.82843472 </i>
    <i name="e_wo_entrp">    -21.82843472 </i>
    <i name="e_0_energy">    -21.82843472 </i>
   </energy>
  </scstep>
  <scstep>
   <time name="diag">    0.02    0.02</time>
   <time name="diis">    0.06    0.06</time>
   <time name="orth">    0.00    0.00</time>
   <time name="total">    0.10    0.10</time>
   <energy>
    <i name="e_fr_energy">    -21.76826911 </i>
    <i name="e_wo_entrp">    -21.76826911 </i>
    <i name="e_0_energy">    -21.76826911 </i>
   </energy>
  </scstep>
  <scstep>
   <time name="diag">    0.02    0.02</time>
   <time name="diis">    0.06    0.06</time>
   <time name="orth">    0.00    0.00</time>
   <time name="total">    0.10    0.10</time>
   <energy>
    <i name="e_fr_energy">    -21.76358148 </i>
    <i name="e_wo_entrp">    -21.76358148 </i>
    <i name="e_0_energy">    -21.76358148 </i>
   </energy>
  </scstep>
  <scstep>
   <time name="diag">    0.02    0.02</time>
   <time name="diis">    0.06    0.06</time>
   <time name="orth">    0.00    0.00</time>
   <time name="total">    0.10    0.10</time>
   <energy>
    <i name="e_fr_energy">    -21.76284356 </i>
    <i name="e_wo_entrp">    -21.76284356 </i>
    <i name="e_0_energy">    -21.76284356 </i>
   </energy>
  </scstep>
  <scstep>
   <time name="diag">    0.02    0.02</time>
   <time name="diis">    0.06    0.06</time>
   <time name="orth">    0.00    0.00</time>
   <time name="total">    0.10    0.10</time>
   <energy>
    <i name="e_fr_energy">    -21.76282532 </i>
    <i name="e_wo_entrp">    -21.76282532 </i>
    <i name="e_0_energy">    -21.76282532 </i>
   </energy>
  </scstep>
  <scstep>
   <time name="diag">    0.02    0.02</time>
   <time name="diis">    0.06    0.06</time>
   <time name="orth">    0.00    0.00</time>
   <time name="total">    0.10    0.10</time>
   <energy>
    <i name="e_fr_energy">    -21.76270509 </i>
    <i name="e_wo_entrp">    -21.76270509 </i>
    <i name="e_0_energy">    -21.76270509 </i>
   </energy>
  </scstep>
  <scstep>
   <time name="diag">    0.02    0.02</time>
   <time name="diis">    0.05    0.05</time>
   <time name="orth">    0.00    0.00</time>
   <time name="total">    0.10    0.10</time>
   <energy>
    <i name="e_fr_energy">    -21.76315875 </i>
    <i name="e_wo_entrp">    -21.76315875 </i>
    <i name="e_0_energy">    -21.76315875 </i>
   </energy>
  </scstep>
  <scstep>
   <time name="diag">    0.02    0.02</time>
   <time name="diis">    0.06    0.06</time>
   <time name="orth">    0.00    0.00</time>
   <time name="total">    0.10    0.10</time>
   <energy>
    <i name="e_fr_energy">    -21.76322695 </i>
    <i name="e_wo_entrp">    -21.76322695 </i>
    <i name="e_0_energy">    -21.76322695 </i>
   </energy>
  </scstep>
  <scstep>
   <time name="diag">    0.02    0.02</time>
   <time name="diis">    0.05    0.05</time>
   <time name="orth">    0.00    0.00</time>
   <time name="total">    0.10    0.10</time>
   <energy>
    <i name="e_fr_energy">    -21.76339939 </i>
    <i name="e_wo_entrp">    -21.76339939 </i>
    <i name="e_0_energy">    -21.76339939 </i>
   </energy>
  </scstep>
  <scstep>
   <time name="diag">    0.02    0.02</time>
   <time name="diis">    0.05    0.05</time>
   <time name="orth">    0.00    0.00</time>
   <time name="total">    0.09    0.09</time>
   <energy>
    <i name="e_fr_energy">    -21.76345997 </i>
    <i name="e_wo_entrp">    -21.76345997 </i>
    <i name="e_0_energy">    -21.76345997 </i>
   </energy>
  </scstep>
  <scstep>
   <time name="diag">    0.02    0.02</time>
   <time name="diis">    0.04    0.04</time>
   <time name="orth">    0.00    0.00</time>
   <time name="total">    0.08    0.08</time>
   <energy>
    <i name="e_fr_energy">    -21.76350524 </i>
    <i name="e_wo_entrp">    -21.76350524 </i>
    <i name="e_0_energy">    -21.76350524 </i>
   </energy>
  </scstep>
  <scstep>
   <time name="diag">    0.02    0.02</time>
   <time name="diis">    0.04    0.04</time>
   <time name="orth">    0.00    0.00</time>
   <time name="total">    0.08    0.08</time>
   <energy>
    <i name="e_fr_energy">    -21.76350795 </i>
    <i name="e_wo_entrp">    -21.76350795 </i>
    <i name="e_0_energy">    -21.76350795 </i>
   </energy>
  </scstep>
  <scstep>
   <time name="diag">    0.02    0.02</time>
   <time name="diis">    0.04    0.04</time>
   <time name="orth">    0.00    0.00</time>
   <time name="total">    0.08    0.09</time>
   <energy>
    <i name="e_fr_energy">    -21.76351268 </i>
    <i name="e_wo_entrp">    -21.76351268 </i>
    <i name="e_0_energy">    -21.76351268 </i>
   </energy>
  </scstep>
  <scstep>
   <time name="diag">    0.02    0.02</time>
   <time name="diis">    0.04    0.04</time>
   <time name="orth">    0.00    0.00</time>
   <time name="total">    0.07    0.07</time>
   <energy>
    <i name="alphaZ">     13.51988903 </i>
    <i name="ewald">   3748.21135916 </i>
    <i name="hartreedc">  -4447.16606100 </i>
    <i name="XCdc">    -35.17195188 </i>
    <i name="pawpsdc">    478.68302812 </i>
    <i name="pawaedc">   -402.87410241 </i>
    <i name="eentropy">     -0.00000000 </i>
    <i name="bandstr">   -148.03424979 </i>
    <i name="atom">    771.06857575 </i>
    <i name="e_fr_energy">    -21.76351302 </i>
    <i name="e_wo_entrp">    -21.76351302 </i>
    <i name="e_0_energy">    -21.76351302 </i>
   </energy>
  </scstep>
  <structure>
   <crystal>
    <varray name="basis" >
     <v>       3.19031573       0.00000000       0.00000000 </v>
     <v>      -1.59515786       2.76289447       0.00000000 </v>
     <v>       0.00000000       0.00000000      24.87900430 </v>
    </varray>
    <i name="volume">    219.29612478 </i>
    <varray name="rec_basis" >
     <v>       0.31344860       0.18096963       0.00000000 </v>
     <v>       0.00000000       0.36193927       0.00000000 </v>
     <v>       0.00000000       0.00000000       0.04019453 </v>
    </varray>
   </crystal>
   <varray name="positions" >
    <v>       0.33333300       0.66666700       0.14951366 </v>
    <v>       0.66666700       0.33333300       0.08661386 </v>
    <v>       0.66666600       0.33333300       0.21241346 </v>
   </varray>
  </structure>
  <varray name="forces" >
   <v>      -0.00000000      -0.00000000      -0.00000000 </v>
   <v>       0.00000000       0.00000000       0.10707123 </v>
   <v>       0.00000000       0.00000000      -0.10707123 </v>
  </varray>
  <varray name="stress" >
   <v>      -4.49299632      -0.00000000       0.00000000 </v>
   <v>      -0.00000000      -4.49299632       0.00000000 </v>
   <v>       0.00000000       0.00000000      -6.52284339 </v>
  </varray>
  <energy>
   <i name="e_fr_energy">    -22.35451874 </i>
   <i name="e_wo_entrp">    -22.35451874 </i>
   <i name="e_0_energy">     -0.00000000 </i>
  </energy>
  <time name="totalsc">    2.29    2.54</time>
  <eigenvalues>
   <array>
    <dimension dim="1">band</dimension>
    <dimension dim="2">kpoint</dimension>
    <dimension dim="3">spin</dimension>
    <field>eigene</field>
    <field>occ</field>
    <set>
     <set comment="spin 1">
      <set comment="kpoint 1">
       <r>  -17.2716    1.0000 </r>
       <r>  -16.0633    1.0000 </r>
       <r>   -8.7814    1.0000 </r>
       <r>   -5.8196    1.0000 </r>
       <r>   -5.8194    1.0000 </r>
       <r>   -4.9596    1.0000 </r>
       <r>   -4.7122    1.0000 </r>
       <r>   -4.7117    1.0000 </r>
       <r>   -3.2374    1.0000 </r>
       <r>   -0.4633    0.0000 </r>
       <r>   -0.4625    0.0000 </r>
       <r>   -0.2406    0.0000 </r>
       <r>   -0.2399    0.0000 </r>
       <r>    2.1609    0.0000 </r>
      </set>
      <set comment="kpoint 2">
       <r>  -17.0576    1.0000 </r>
       <r>  -15.9608    1.0000 </r>
       <r>   -8.5368    1.0000 </r>
       <r>   -6.2839    1.0000 </r>
       <r>   -5.7668    1.0000 </r>
       <r>   -5.5855    1.0000 </r>
       <r>   -5.0483    1.0000 </r>
       <r>   -4.2811    1.0000 </r>
       <r>   -3.3763    1.0000 </r>
       <r>   -0.7459    0.0000 </r>
       <r>   -0.6792    0.0000 </r>
       <r>   -0.4778    0.0000 </r>
       <r>   -0.1090    0.0000 </r>
       <r>    2.5307    0.0000 </r>
      </set>
      <set comment="kpoint 3">
       <r>  -16.4890    1.0000 </r>
       <r>  -15.6919    1.0000 </r>
       <r>   -8.1708    1.0000 </r>
       <r>   -7.0121    1.0000 </r>
       <r>   -6.7486    1.0000 </r>
       <r>   -5.6852    1.0000 </r>
       <r>   -4.9995    1.0000 </r>
       <r>   -4.5334    1.0000 </r>
       <r>   -3.9447    1.0000 </r>
       <r>   -1.0702    0.0000 </r>
       <r>   -0.8950    0.0000 </r>
       <r>   -0.3518    0.0000 </r>
       <r>    0.5062    0.0000 </r>
       <r>    3.3516    0.0000 </r>
      </set>
      <set comment="kpoint 4">
       <r>  -15.8141    1.0000 </r>
       <r>  -15.3834    1.0000 </r>
       <r>   -8.6100    1.0000 </r>
       <r>   -7.6174    1.0000 </r>
       <r>   -7.1436    1.0000 </r>
       <r>   -6.1832    1.0000 </r>
       <r>   -4.9422    1.0000 </r>
       <r>   -4.4095    1.0000 </r>
       <r>   -4.1390    1.0000 </r>
       <r>   -1.0774    0.0000 </r>
       <r>   -0.7978    0.0000 </r>
       <r>    0.3669    0.0000 </r>
       <r>    0.8989    0.0000 </r>
       <r>    3.9230    0.0000 </r>
      </set>
      <set comment="kpoint 5">
       <r>  -15.4858    1.0000 </r>
       <r>  -15.2400    1.0000 </r>
       <r>   -8.9427    1.0000 </r>
       <r>   -7.9833    1.0000 </r>
       <r>   -7.2689    1.0000 </r>
       <r>   -6.3642    1.0000 </r>
       <r>   -5.0803    1.0000 </r>
       <r>   -4.1821    1.0000 </r>
       <r>   -3.8573    1.0000 </r>
       <r>   -1.0558    0.0000 </r>
       <r>   -0.5412    0.0000 </r>
       <r>    0.6670    0.0000 </r>
       <r>    1.0144    0.0000 </r>
       <r>    2.9689    0.0000 </r>
      </set>
      <set comment="kpoint 6">
       <r>  -16.6649    1.0000 </r>
       <r>  -15.7737    1.0000 </r>
       <r>   -8.1893    1.0000 </r>
       <r>   -6.8492    1.0000 </r>
       <r>   -6.3298    1.0000 </r>
       <r>   -5.8630    1.0000 </r>
       <r>   -5.2469    1.0000 </r>
       <r>   -4.1467    1.0000 </r>
       <r>   -3.7489    1.0000 </r>
       <r>   -1.1452    0.0000 </r>
       <r>   -0.7678    0.0000 </r>
       <r>   -0.7555    0.0000 </r>
       <r>    0.4851    0.0000 </r>
       <r>    3.1178    0.0000 </r>
      </set>
      <set comment="kpoint 7">
       <r>  -16.0315    1.0000 </r>
       <r>  -15.4750    1.0000 </r>
       <r>   -8.2532    1.0000 </r>
       <r>   -7.2756    1.0000 </r>
       <r>   -7.0122    1.0000 </r>
       <r>   -6.3681    1.0000 </r>
       <r>   -5.1475    1.0000 </r>
       <r>   -4.5088    1.0000 </r>
       <r>   -4.0326    1.0000 </r>
       <r>   -1.2287    0.0000 </r>
       <r>   -0.7820    0.0000 </r>
       <r>   -0.2851    0.0000 </r>
       <r>    0.9910    0.0000 </r>
       <r>    4.1095    0.0000 </r>
      </set>
      <set comment="kpoint 8">
       <r>  -15.5011    1.0000 </r>
       <r>  -15.2311    1.0000 </r>
       <r>   -8.6551    1.0000 </r>
       <r>   -8.0392    1.0000 </r>
       <r>   -7.1414    1.0000 </r>
       <r>   -6.3857    1.0000 </r>
       <r>   -5.1325    1.0000 </r>
       <r>   -4.9903    1.0000 </r>
       <r>   -3.7059    1.0000 </r>
       <r>   -1.0368    0.0000 </r>
       <r>   -0.5267    0.0000 </r>
       <r>    0.3386    0.0000 </r>
       <r>    1.0248    0.0000 </r>
       <r>    3.4944    0.0000 </r>
      </set>
      <set comment="kpoint 9">
       <r>  -15.5162    1.0000 </r>
       <r>  -15.2222    1.0000 </r>
       <r>   -8.2946    1.0000 </r>
       <r>   -8.0892    1.0000 </r>
       <r>   -6.8150    1.0000 </r>
       <r>   -6.4341    1.0000 </r>
       <r>   -6.1149    1.0000 </r>
       <r>   -4.8573    1.0000 </r>
       <r>   -3.7356    1.0000 </r>
       <r>   -1.0877    0.0000 </r>
       <r>   -0.4761    0.0000 </r>
       <r>   -0.1594    0.0000 </r>
       <r>    1.3089    0.0000 </r>
       <r>    4.3248    0.0000 </r>
      </set>
      <set comment="kpoint 10">
       <r>  -15.2812    1.0000 </r>
       <r>  -15.1032    1.0000 </r>
       <r>   -8.4740    1.0000 </r>
       <r>   -8.1252    1.0000 </r>
       <r>   -7.0986    1.0000 </r>
       <r>   -6.4366    1.0000 </r>
       <r>   -6.2082    1.0000 </r>
       <r>   -5.2430    1.0000 </r>
       <r>   -3.3683    1.0000 </r>
       <r>   -1.4141    0.0000 </r>
       <r>   -0.0984    0.0000 </r>
       <r>    0.0733    0.0000 </r>
       <r>    1.4519    0.0000 </r>
       <r>    3.7380    0.0000 </r>
      </set>
     </set>
    </set>
   </array>
  </eigenvalues>
  <separator name="orbital magnetization" >
   <v name="MAGDIPOLOUT">      0.00000000      0.00000000      0.00000000</v>
  </separator>
  <dos>
   <i name="efermi">     -2.41000000 </i>
   <total>
    <array>
     <dimension dim="1">gridpoints</dimension>
     <dimension dim="2">spin</dimension>
     <field>energy</field>
     <field>total</field>
     <field>integrated</field>
     <set>
      <set comment="spin 1">
       <r>   -12.0000   400.0000     4.0000 </r>
       <r>   -11.9900     0.0000     4.0000 </r>
       <r>   -11.9800     0.0000     4.0000 </r>
       <r>   -11.9700     0.0000     4.0000 </r>
       <r>   -11.9600     0.0000     4.0000 </r>
       <r>   -11.9500     0.0000     4.0000 </r>
       <r>   -11.9400     0.0000     4.0000 </r>
       <r>   -11.9300     0.0000     4.0000 </r>
       <r>   -11.9200     0.0000     4.0000 </r>
       <r>   -11.9100     0.0000     4.0000 </r>
       <r>   -11.9000     0.0000     4.0000 </r>
       <r>   -11.8900     0.0000     4.0000 </r>
       <r>   -11.8800     0.0000     4.0000 </r>
       <r>   -11.8700     0.0000     4.0000 </r>
       <r>   -11.8600     0.0000     4.0000 </r>
       <r>   -11.8500     0.0000     4.0000 </r>
       <r>   -11.8400     0.0000     4.0000 </r>
       <r>   -11.8300     0.0000     4.0000 </r>
       <r>   -11.8200     0.0000     4.0000 </r>
       <r>   -11.8100     0.0000     4.0000 </r>
       <r>   -11.8000     0.0000     4.0000 </r>
       <r>   -11.7900     0.0000     4.0000 </r>
       <r>   -11.7800     0.0000     4.0000 </r>
       <r>   -11.7700     0.0000     4.0000 </r>
       <r>   -11.7600     0.0000     4.0000 </r>
       <r>   -11.7500     0.0000     4.0000 </r>
       <r>   -11.7400     0.0000     4.0000 </r>
       <r>   -11.7300     0.0000     4.0000 </r>
       <r>   -11.7200     0.0000     4.0000 </r>
       <r>   -11.7100     0.0000     4.0000 </r>
       <r>   -11.7000     0.0000     4.0000 </r>
       <r>   -11.6900     0.0000     4.0000 </r>
       <r>   -11.6800     0.0000     4.0000 </r>
       <r>   -11.6700     0.0000     4.0000 </r>
       <r>   -11.6600     0.0000     4.0000 </r>
       <r>   -11.6500     0.0000     4.0000 </r>
       <r>   -11.6400     0.0000     4.0000 </r>
       <r>   -11.6300     0.0000     4.0000 </r>
       <r>   -11.6200     0.0000     4.0000 </r>
       <r>   -11.6100     0.0000     4.0000 </r>
       <r>   -11.6000     0.0000     4.0000 </r>
       <r>   -11.5900     0.0000     4.0000 </r>
       <r>   -11.5800     0.0000     4.0000 </r>
       <r>   -11.5700     0.0000     4.0000 </r>
       <r>   -11.5600     0.0000     4.0000 </r>
       <r>   -11.5500     0.0000     4.0000 </r>
       <r>   -11.5400     0.0000     4.0000 </r>
       <r>   -11.5300     0.0000     4.0000 </r>
       <r>   -11.5200     0.0000     4.0000 </r>
       <r>   -11.5100     0.0000     4.0000 </r>
       <r>   -11.5000     0.0000     4.0000 </r>
       <r>   -11.4900     0.0000     4.0000 </r>
       <r>   -11.4800     0.0000     4.0000 </r>
       <r>   -11.4700     0.0000     4.0000 </r>
       <r>   -11.4600     0.0000     4.0000 </r>
       <r>   -11.4500     0.0000     4.0000 </r>
       <r>   -11.4400     0.0000     4.0000 </r>
       <r>   -11.4300     0.0000     4.0000 </r>
       <r>   -11.4200     0.0000     4.0000 </r>
       <r>   -11.4100     0.0000     4.0000 </r>
       <r>   -11.4000     0.0000     4.0000 </r>
       <r>   -11.3900     0.0000     4.0000 </r>
       <r>   -11.3800     0.0000     4.0000 </r>
       <r>   -11.3700     0.0000     4.0000 </r>
       <r>   -11.3600     0.0000     4.0000 </r>
       <r>   -11.3500     0.0000     4.0000 </r>
       <r>   -11.3400     0.0000     4.0000 </r>
       <r>   -11.3300     0.0000     4.0000 </r>
       <r>   -11.3200     0.0000     4.0000 </r>
       <r>   -11.3100     0.0000     4.0000 </r>
       <r>   -11.3000     0.0000     4.0000 </r>
       <r>   -11.2900     0.0000     4.0000 </r>
       <r>   -11.2800     0.0000     4.0000 </r>
       <r>   -11.2700     0.0000     4.0000 </r>
       <r>   -11.2600     0.0000     4.0000 </r>
       <r>   -11.2500     0.0000     4.0000 </r>
       <r>   -11.2400     0.0000     4.0000 </r>
       <r>   -11.2300     0.0000     4.0000 </r>
       <r>   -11.2200     0.0000     4.0000 </r>
       <r>   -11.2100     0.0000     4.0000 </r>
       <r>   -11.2000     0.0000     4.0000 </r>
       <r>   -11.1900     0.0000     4.0000 </r>
       <r>   -11.1800     0.0000     4.0000 </r>
       <r>   -11.1700     0.0000     4.0000 </r>
       <r>   -11.1600     0.0000     4.0000 </r>
       <r>   -11.1500     0.0000     4.0000 </r>
       <r>   -11.1400     0.0000     4.0000 </r>
       <r>   -11.1300     0.0000     4.0000 </r>
       <r>   -11.1200     0.0000     4.0000 </r>
       <r>   -11.1100     0.0000     4.0000 </r>
       <r>   -11.1000     0.0000     4.0000 </r>
       <r>   -11.0900     0.0000     4.0000 </r>
       <r>   -11.0800     0.0000     4.0000 </r>
       <r>   -11.0700     0.0000     4.0000 </r>
       <r>   -11.0600     0.0000     4.0000 </r>
       <r>   -11.0500     0.0000     4.0000 </r>
       <r>   -11.0400     0.0000     4.0000 </r>
       <r>   -11.0300     0.0000     4.0000 </r>
       <r>   -11.0200     0.0000     4.0000 </r>
       <r>   -11.0100     0.0000     4.0000 </r>
       <r>   -11.0000     0.0000     4.0000 </r>
       <r>   -10.9900     0.0000     4.0000 </r>
       <r>   -10.9800     0.0000     4.0000 </r>
       <r>   -10.9700     0.0000     4.0000 </r>
       <r>   -10.9600     0.0000     4.0000 </r>
       <r>   -10.9500     0.0000     4.0000 </r>
       <r>   -10.9400     0.0000     4.0000 </r>
       <r>   -10.9300     0.0000     4.0000 </r>
       <r>   -10.9200     0.0000     4.0000 </r>
       <r>   -10.9100     0.0000     4.0000 </r>
       <r>   -10.9000     0.0000     4.0000 </r>
       <r>   -10.8900     0.0000     4.0000 </r>
       <r>   -10.8800     0.0000     4.0000 </r>
       <r>   -10.8700     0.0000     4.0000 </r>
       <r>   -10.8600     0.0000     4.0000 </r>
       <r>   -10.8500     0.0000     4.0000 </r>
       <r>   -10.8400     0.0000     4.0000 </r>
       <r>   -10.8300     0.0000     4.0000 </r>
       <r>   -10.8200     0.0000     4.0000 </r>
       <r>   -10.8100     0.0000     4.0000 </r>
       <r>   -10.8000     0.0000     4.0000 </r>
       <r>   -10.7900     0.0000     4.0000 </r>
       <r>   -10.7800     0.0000     4.0000 </r>
       <r>   -10.7700     0.0000     4.0000 </r>
       <r>   -10.7600     0.0000     4.0000 </r>
       <r>   -10.7500     0.0000     4.0000 </r>
       <r>   -10.7400     0.0000     4.0000 </r>
       <r>   -10.7300     0.0000     4.0000 </r>
       <r>   -10.7200     0.0000     4.0000 </r>
       <r>   -10.7100     0.0000     4.0000 </r>
       <r>   -10.7000     0.0000     4.0000 </r>
       <r>   -10.6900     0.0000     4.0000 </r>
       <r>   -10.6800     0.0000     4.0000 </r>
       <r>   -10.6700     0.0000     4.0000 </r>
       <r>   -10.6600     0.0000     4.0000 </r>
       <r>   -10.6500     0.0000     4.0000 </r>
       <r>   -10.6400     0.0000     4.0000 </r>
       <r>   -10.6300     0.0000     4.0000 </r>
       <r>   -10.6200     0.0000     4.0000 </r>
       <r>   -10.6100     0.0000     4.0000 </r>
       <r>   -10.6000     0.0000     4.0000 </r>
       <r>   -10.5900     0.0000     4.0000 </r>
       <r>   -10.5800     0.0000     4.0000 </r>
       <r>   -10.5700     0.0000     4.0000 </r>
       <r>   -10.5600     0.0000     4.0000 </r>
       <r>   -10.5500     0.0000     4.0000 </r>
       <r>   -10.5400     0.0000     4.0000 </r>
       <r>   -10.5300     0.0000     4.0000 </r>
       <r>   -10.5200     0.0000     4.0000 </r>
       <r>   -10.5100     0.0000     4.0000 </r>
       <r>   -10.5000     0.0000     4.0000 </r>
       <r>   -10.4900     0.0000     4.0000 </r>
       <r>   -10.4800     0.0000     4.0000 </r>
       <r>   -10.4700     0.0000     4.0000 </r>
       <r>   -10.4600     0.0000     4.0000 </r>
       <r>   -10.4500     0.0000     4.0000 </r>
       <r>   -10.4400     0.0000     4.0000 </r>
       <r>   -10.4300     0.0000     4.0000 </r>
       <r>   -10.4200     0.0000     4.0000 </r>
       <r>   -10.4100     0.0000     4.0000 </r>
       <r>   -10.4000     0.0000     4.0000 </r>
       <r>   -10.3900     0.0000     4.0000 </r>
       <r>   -10.3800     0.0000     4.0000 </r>
       <r>   -10.3700     0.0000     4.0000 </r>
       <r>   -10.3600     0.0000     4.0000 </r>
       <r>   -10.3500     0.0000     4.0000 </r>
       <r>   -10.3400     0.0000     4.0000 </r>
       <r>   -10.3300     0.0000     4.0000 </r>
       <r>   -10.3200     0.0000     4.0000 </r>
       <r>   -10.3100     0.0000     4.0000 </r>
       <r>   -10.3000     0.0000     4.0000 </r>
       <r>   -10.2900     0.0000     4.0000 </r>
       <r>   -10.2800     0.0000     4.0000 </r>
       <r>   -10.2700     0.0000     4.0000 </r>
       <r>   -10.2600     0.0000     4.0000 </r>
       <r>   -10.2500     0.0000     4.0000 </r>
       <r>   -10.2400     0.0000     4.0000 </r>
       <r>   -10.2300     0.0000     4.0000 </r>
       <r>   -10.2200     0.0000     4.0000 </r>
       <r>   -10.2100     0.0000     4.0000 </r>
       <r>   -10.2000     0.0000     4.0000 </r>
       <r>   -10.1900     0.0000     4.0000 </r>
       <r>   -10.1800     0.0000     4.0000 </r>
       <r>   -10.1700     0.0000     4.0000 </r>
       <r>   -10.1600     0.0000     4.0000 </r>
       <r>   -10.1500     0.0000     4.0000 </r>
       <r>   -10.1400     0.0000     4.0000 </r>
       <r>   -10.1300     0.0000     4.0000 </r>
       <r>   -10.1200     0.0000     4.0000 </r>
       <r>   -10.1100     0.0000     4.0000 </r>
       <r>   -10.1000     0.0000     4.0000 </r>
       <r>   -10.0900     0.0000     4.0000 </r>
       <r>   -10.0800     0.0000     4.0000 </r>
       <r>   -10.0700     0.0000     4.0000 </r>
       <r>   -10.0600     0.0000     4.0000 </r>
       <r>   -10.0500     0.0000     4.0000 </r>
       <r>   -10.0400     0.0000     4.0000 </r>
       <r>   -10.0300     0.0000     4.0000 </r>
       <r>   -10.0200     0.0000     4.0000 </r>
       <r>   -10.0100     0.0000     4.0000 </r>
       <r>   -10.0000     0.0000     4.0000 </r>
       <r>    -9.9900     0.0000     4.0000 </r>
       <r>    -9.9800     0.0000     4.0000 </r>
       <r>    -9.9700     0.0000     4.0000 </r>
       <r>    -9.9600     0.0000     4.0000 </r>
       <r>    -9.9500     0.0000     4.0000 </r>
       <r>    -9.9400     0.0000     4.0000 </r>
       <r>    -9.9300     0.0000     4.0000 </r>
       <r>    -9.9200     0.0000     4.0000 </r>
       <r>    -9.9100     0.0000     4.0000 </r>
       <r>    -9.9000     0.0000     4.0000 </r>
       <r>    -9.8900     0.0000     4.0000 </r>
       <r>    -9.8800     0.0000     4.0000 </r>
       <r>    -9.8700     0.0000     4.0000 </r>
       <r>    -9.8600     0.0000     4.0000 </r>
       <r>    -9.8500     0.0000     4.0000 </r>
       <r>    -9.8400     0.0000     4.0000 </r>
       <r>    -9.8300     0.0000     4.0000 </r>
       <r>    -9.8200     0.0000     4.0000 </r>
       <r>    -9.8100     0.0000     4.0000 </r>
       <r>    -9.8000     0.0000     4.0000 </r>
       <r>    -9.7900     0.0000     4.0000 </r>
       <r>    -9.7800     0.0000     4.0000 </r>
       <r>    -9.7700     0.0000     4.0000 </r>
       <r>    -9.7600     0.0000     4.0000 </r>
       <r>    -9.7500     0.0000     4.0000 </r>
       <r>    -9.7400     0.0000     4.0000 </r>
       <r>    -9.7300     0.0000     4.0000 </r>
       <r>    -9.7200     0.0000     4.0000 </r>
       <r>    -9.7100     0.0000     4.0000 </r>
       <r>    -9.7000     0.0000     4.0000 </r>
       <r>    -9.6900     0.0000     4.0000 </r>
       <r>    -9.6800     0.0000     4.0000 </r>
       <r>    -9.6700     0.0000     4.0000 </r>
       <r>    -9.6600     0.0000     4.0000 </r>
       <r>    -9.6500     0.0000     4.0000 </r>
       <r>    -9.6400     0.0000     4.0000 </r>
       <r>    -9.6300     0.0000     4.0000 </r>
       <r>    -9.6200     0.0000     4.0000 </r>
       <r>    -9.6100     0.0000     4.0000 </r>
       <r>    -9.6000     0.0000     4.0000 </r>
       <r>    -9.5900     0.0000     4.0000 </r>
       <r>    -9.5800     0.0000     4.0000 </r>
       <r>    -9.5700     0.0000     4.0000 </r>
       <r>    -9.5600     0.0000     4.0000 </r>
       <r>    -9.5500     0.0000     4.0000 </r>
       <r>    -9.5400     0.0000     4.0000 </r>
       <r>    -9.5300     0.0000     4.0000 </r>
       <r>    -9.5200     0.0001     4.0000 </r>
       <r>    -9.5100     0.0001     4.0000 </r>
       <r>    -9.5000     0.0001     4.0000 </r>
       <r>    -9.4900     0.0001     4.0000 </r>
       <r>    -9.4800     0.0002     4.0000 </r>
       <r>    -9.4700     0.0002     4.0000 </r>
       <r>    -9.4600     0.0003     4.0000 </r>
       <r>    -9.4500     0.0004     4.0000 </r>
       <r>    -9.4400     0.0005     4.0000 </r>
       <r>    -9.4300     0.0006     4.0000 </r>
       <r>    -9.4200     0.0008     4.0000 </r>
       <r>    -9.4100     0.0010     4.0000 </r>
       <r>    -9.4000     0.0013     4.0001 </r>
       <r>    -9.3900     0.0016     4.0001 </r>
       <r>    -9.3800     0.0020     4.0001 </r>
       <r>    -9.3700     0.0025     4.0001 </r>
       <r>    -9.3600     0.0031     4.0001 </r>
       <r>    -9.3500     0.0038     4.0002 </r>
       <r>    -9.3400     0.0047     4.0002 </r>
       <r>    -9.3300     0.0057     4.0003 </r>
       <r>    -9.3200     0.0069     4.0004 </r>
       <r>    -9.3100     0.0084     4.0004 </r>
       <r>    -9.3000     0.0101     4.0005 </r>
       <r>    -9.2900     0.0121     4.0007 </r>
       <r>    -9.2800     0.0144     4.0008 </r>
       <r>    -9.2700     0.0170     4.0010 </r>
       <r>    -9.2600     0.0201     4.0012 </r>
       <r>    -9.2500     0.0236     4.0014 </r>
       <r>    -9.2400     0.0276     4.0017 </r>
       <r>    -9.2300     0.0321     4.0020 </r>
       <r>    -9.2200     0.0371     4.0024 </r>
       <r>    -9.2100     0.0428     4.0028 </r>
       <r>    -9.2000     0.0490     4.0033 </r>
       <r>    -9.1900     0.0560     4.0039 </r>
       <r>    -9.1800     0.0636     4.0045 </r>
       <r>    -9.1700     0.0719     4.0052 </r>
       <r>    -9.1600     0.0810     4.0060 </r>
       <r>    -9.1500     0.0909     4.0069 </r>
       <r>    -9.1400     0.1015     4.0080 </r>
       <r>    -9.1300     0.1128     4.0091 </r>
       <r>    -9.1200     0.1249     4.0103 </r>
       <r>    -9.1100     0.1378     4.0117 </r>
       <r>    -9.1000     0.1514     4.0132 </r>
       <r>    -9.0900     0.1658     4.0149 </r>
       <r>    -9.0800     0.1809     4.0167 </r>
       <r>    -9.0700     0.1967     4.0187 </r>
       <r>    -9.0600     0.2133     4.0208 </r>
       <r>    -9.0500     0.2305     4.0231 </r>
       <r>    -9.0400     0.2485     4.0256 </r>
       <r>    -9.0300     0.2672     4.0282 </r>
       <r>    -9.0200     0.2867     4.0311 </r>
       <r>    -9.0100     0.3070     4.0342 </r>
       <r>    -9.0000     0.3283     4.0375 </r>
       <r>    -8.9900     0.3505     4.0410 </r>
       <r>    -8.9800     0.3739     4.0447 </r>
       <r>    -8.9700     0.3985     4.0487 </r>
       <r>    -8.9600     0.4244     4.0529 </r>
       <r>    -8.9500     0.4520     4.0575 </r>
       <r>    -8.9400     0.4814     4.0623 </r>
       <r>    -8.9300     0.5127     4.0674 </r>
       <r>    -8.9200     0.5462     4.0729 </r>
       <r>    -8.9100     0.5821     4.0787 </r>
       <r>    -8.9000     0.6206     4.0849 </r>
       <r>    -8.8900     0.6620     4.0915 </r>
       <r>    -8.8800     0.7064     4.0986 </r>
       <r>    -8.8700     0.7540     4.1061 </r>
       <r>    -8.8600     0.8049     4.1142 </r>
       <r>    -8.8500     0.8593     4.1228 </r>
       <r>    -8.8400     0.9171     4.1319 </r>
       <r>    -8.8300     0.9785     4.1417 </r>
       <r>    -8.8200     1.0432     4.1521 </r>
       <r>    -8.8100     1.1113     4.1633 </r>
       <r>    -8.8000     1.1824     4.1751 </r>
       <r>    -8.7900     1.2564     4.1876 </r>
       <r>    -8.7800     1.3328     4.2010 </r>
       <r>    -8.7700     1.4113     4.2151 </r>
       <r>    -8.7600     1.4913     4.2300 </r>
       <r>    -8.7500     1.5724     4.2457 </r>
       <r>    -8.7400     1.6540     4.2623 </r>
       <r>    -8.7300     1.7354     4.2796 </r>
       <r>    -8.7200     1.8161     4.2978 </r>
       <r>    -8.7100     1.8952     4.3167 </r>
       <r>    -8.7000     1.9722     4.3365 </r>
       <r>    -8.6900     2.0463     4.3569 </r>
       <r>    -8.6800     2.1171     4.3781 </r>
       <r>    -8.6700     2.1837     4.3999 </r>
       <r>    -8.6600     2.2458     4.4224 </r>
       <r>    -8.6500     2.3029     4.4454 </r>
       <r>    -8.6400     2.3546     4.4690 </r>
       <r>    -8.6300     2.4005     4.4930 </r>
       <r>    -8.6200     2.4406     4.5174 </r>
       <r>    -8.6100     2.4747     4.5421 </r>
       <r>    -8.6000     2.5029     4.5671 </r>
       <r>    -8.5900     2.5253     4.5924 </r>
       <r>    -8.5800     2.5422     4.6178 </r>
       <r>    -8.5700     2.5539     4.6434 </r>
       <r>    -8.5600     2.5611     4.6690 </r>
       <r>    -8.5500     2.5642     4.6946 </r>
       <r>    -8.5400     2.5640     4.7202 </r>
       <r>    -8.5300     2.5611     4.7459 </r>
       <r>    -8.5200     2.5565     4.7714 </r>
       <r>    -8.5100     2.5509     4.7969 </r>
       <r>    -8.5000     2.5453     4.8224 </r>
       <r>    -8.4900     2.5405     4.8478 </r>
       <r>    -8.4800     2.5374     4.8732 </r>
       <r>    -8.4700     2.5369     4.8985 </r>
       <r>    -8.4600     2.5399     4.9239 </r>
       <r>    -8.4500     2.5469     4.9494 </r>
       <r>    -8.4400     2.5588     4.9750 </r>
       <r>    -8.4300     2.5761     5.0008 </r>
       <r>    -8.4200     2.5993     5.0267 </r>
       <r>    -8.4100     2.6287     5.0530 </r>
       <r>    -8.4000     2.6645     5.0797 </r>
       <r>    -8.3900     2.7068     5.1067 </r>
       <r>    -8.3800     2.7557     5.1343 </r>
       <r>    -8.3700     2.8108     5.1624 </r>
       <r>    -8.3600     2.8720     5.1911 </r>
       <r>    -8.3500     2.9387     5.2205 </r>
       <r>    -8.3400     3.0104     5.2506 </r>
       <r>    -8.3300     3.0865     5.2815 </r>
       <r>    -8.3200     3.1661     5.3131 </r>
       <r>    -8.3100     3.2484     5.3456 </r>
       <r>    -8.3000     3.3325     5.3790 </r>
       <r>    -8.2900     3.4173     5.4131 </r>
       <r>    -8.2800     3.5019     5.4481 </r>
       <r>    -8.2700     3.5852     5.4840 </r>
       <r>    -8.2600     3.6661     5.5207 </r>
       <r>    -8.2500     3.7435     5.5581 </r>
       <r>    -8.2400     3.8165     5.5963 </r>
       <r>    -8.2300     3.8841     5.6351 </r>
       <r>    -8.2200     3.9452     5.6746 </r>
       <r>    -8.2100     3.9991     5.7145 </r>
       <r>    -8.2000     4.0449     5.7550 </r>
       <r>    -8.1900     4.0819     5.7958 </r>
       <r>    -8.1800     4.1095     5.8369 </r>
       <r>    -8.1700     4.1272     5.8782 </r>
       <r>    -8.1600     4.1345     5.9195 </r>
       <r>    -8.1500     4.1311     5.9608 </r>
       <r>    -8.1400     4.1168     6.0020 </r>
       <r>    -8.1300     4.0915     6.0429 </r>
       <r>    -8.1200     4.0552     6.0835 </r>
       <r>    -8.1100     4.0080     6.1236 </r>
       <r>    -8.1000     3.9501     6.1631 </r>
       <r>    -8.0900     3.8819     6.2019 </r>
       <r>    -8.0800     3.8037     6.2399 </r>
       <r>    -8.0700     3.7161     6.2771 </r>
       <r>    -8.0600     3.6198     6.3133 </r>
       <r>    -8.0500     3.5153     6.3484 </r>
       <r>    -8.0400     3.4034     6.3825 </r>
       <r>    -8.0300     3.2850     6.4153 </r>
       <r>    -8.0200     3.1609     6.4469 </r>
       <r>    -8.0100     3.0320     6.4772 </r>
       <r>    -8.0000     2.8994     6.5062 </r>
       <r>    -7.9900     2.7639     6.5339 </r>
       <r>    -7.9800     2.6266     6.5601 </r>
       <r>    -7.9700     2.4885     6.5850 </r>
       <r>    -7.9600     2.3505     6.6085 </r>
       <r>    -7.9500     2.2136     6.6307 </r>
       <r>    -7.9400     2.0787     6.6514 </r>
       <r>    -7.9300     1.9467     6.6709 </r>
       <r>    -7.9200     1.8184     6.6891 </r>
       <r>    -7.9100     1.6946     6.7060 </r>
       <r>    -7.9000     1.5759     6.7218 </r>
       <r>    -7.8900     1.4629     6.7364 </r>
       <r>    -7.8800     1.3563     6.7500 </r>
       <r>    -7.8700     1.2563     6.7626 </r>
       <r>    -7.8600     1.1633     6.7742 </r>
       <r>    -7.8500     1.0776     6.7850 </r>
       <r>    -7.8400     0.9993     6.7950 </r>
       <r>    -7.8300     0.9284     6.8042 </r>
       <r>    -7.8200     0.8650     6.8129 </r>
       <r>    -7.8100     0.8089     6.8210 </r>
       <r>    -7.8000     0.7599     6.8286 </r>
       <r>    -7.7900     0.7177     6.8358 </r>
       <r>    -7.7800     0.6821     6.8426 </r>
       <r>    -7.7700     0.6525     6.8491 </r>
       <r>    -7.7600     0.6287     6.8554 </r>
       <r>    -7.7500     0.6101     6.8615 </r>
       <r>    -7.7400     0.5961     6.8674 </r>
       <r>    -7.7300     0.5864     6.8733 </r>
       <r>    -7.7200     0.5804     6.8791 </r>
       <r>    -7.7100     0.5775     6.8849 </r>
       <r>    -7.7000     0.5772     6.8907 </r>
       <r>    -7.6900     0.5792     6.8965 </r>
       <r>    -7.6800     0.5829     6.9023 </r>
       <r>    -7.6700     0.5879     6.9082 </r>
       <r>    -7.6600     0.5940     6.9141 </r>
       <r>    -7.6500     0.6008     6.9201 </r>
       <r>    -7.6400     0.6081     6.9262 </r>
       <r>    -7.6300     0.6158     6.9323 </r>
       <r>    -7.6200     0.6238     6.9386 </r>
       <r>    -7.6100     0.6321     6.9449 </r>
       <r>    -7.6000     0.6407     6.9513 </r>
       <r>    -7.5900     0.6499     6.9578 </r>
       <r>    -7.5800     0.6598     6.9644 </r>
       <r>    -7.5700     0.6707     6.9711 </r>
       <r>    -7.5600     0.6830     6.9779 </r>
       <r>    -7.5500     0.6970     6.9849 </r>
       <r>    -7.5400     0.7131     6.9920 </r>
       <r>    -7.5300     0.7318     6.9994 </r>
       <r>    -7.5200     0.7536     7.0069 </r>
       <r>    -7.5100     0.7790     7.0147 </r>
       <r>    -7.5000     0.8083     7.0228 </r>
       <r>    -7.4900     0.8421     7.0312 </r>
       <r>    -7.4800     0.8808     7.0400 </r>
       <r>    -7.4700     0.9248     7.0493 </r>
       <r>    -7.4600     0.9744     7.0590 </r>
       <r>    -7.4500     1.0298     7.0693 </r>
       <r>    -7.4400     1.0914     7.0802 </r>
       <r>    -7.4300     1.1592     7.0918 </r>
       <r>    -7.4200     1.2334     7.1041 </r>
       <r>    -7.4100     1.3137     7.1173 </r>
       <r>    -7.4000     1.4003     7.1313 </r>
       <r>    -7.3900     1.4929     7.1462 </r>
       <r>    -7.3800     1.5912     7.1621 </r>
       <r>    -7.3700     1.6949     7.1791 </r>
       <r>    -7.3600     1.8035     7.1971 </r>
       <r>    -7.3500     1.9166     7.2163 </r>
       <r>    -7.3400     2.0335     7.2366 </r>
       <r>    -7.3300     2.1538     7.2581 </r>
       <r>    -7.3200     2.2767     7.2809 </r>
       <r>    -7.3100     2.4015     7.3049 </r>
       <r>    -7.3000     2.5274     7.3302 </r>
       <r>    -7.2900     2.6537     7.3567 </r>
       <r>    -7.2800     2.7797     7.3845 </r>
       <r>    -7.2700     2.9044     7.4136 </r>
       <r>    -7.2600     3.0272     7.4438 </r>
       <r>    -7.2500     3.1472     7.4753 </r>
       <r>    -7.2400     3.2636     7.5080 </r>
       <r>    -7.2300     3.3757     7.5417 </r>
       <r>    -7.2200     3.4828     7.5765 </r>
       <r>    -7.2100     3.5841     7.6124 </r>
       <r>    -7.2000     3.6791     7.6492 </r>
       <r>    -7.1900     3.7670     7.6868 </r>
       <r>    -7.1800     3.8475     7.7253 </r>
       <r>    -7.1700     3.9199     7.7645 </r>
       <r>    -7.1600     3.9839     7.8043 </r>
       <r>    -7.1500     4.0391     7.8447 </r>
       <r>    -7.1400     4.0853     7.8856 </r>
       <r>    -7.1300     4.1222     7.9268 </r>
       <r>    -7.1200     4.1498     7.9683 </r>
       <r>    -7.1100     4.1680     8.0100 </r>
       <r>    -7.1000     4.1769     8.0518 </r>
       <r>    -7.0900     4.1766     8.0935 </r>
       <r>    -7.0800     4.1674     8.1352 </r>
       <r>    -7.0700     4.1496     8.1767 </r>
       <r>    -7.0600     4.1235     8.2179 </r>
       <r>    -7.0500     4.0896     8.2588 </r>
       <r>    -7.0400     4.0484     8.2993 </r>
       <r>    -7.0300     4.0006     8.3393 </r>
       <r>    -7.0200     3.9466     8.3788 </r>
       <r>    -7.0100     3.8871     8.4177 </r>
       <r>    -7.0000     3.8228     8.4559 </r>
       <r>    -6.9900     3.7543     8.4934 </r>
       <r>    -6.9800     3.6822     8.5302 </r>
       <r>    -6.9700     3.6073     8.5663 </r>
       <r>    -6.9600     3.5300     8.6016 </r>
       <r>    -6.9500     3.4510     8.6361 </r>
       <r>    -6.9400     3.3707     8.6698 </r>
       <r>    -6.9300     3.2897     8.7027 </r>
       <r>    -6.9200     3.2084     8.7348 </r>
       <r>    -6.9100     3.1270     8.7661 </r>
       <r>    -6.9000     3.0458     8.7965 </r>
       <r>    -6.8900     2.9652     8.8262 </r>
       <r>    -6.8800     2.8853     8.8551 </r>
       <r>    -6.8700     2.8062     8.8831 </r>
       <r>    -6.8600     2.7280     8.9104 </r>
       <r>    -6.8500     2.6508     8.9369 </r>
       <r>    -6.8400     2.5748     8.9626 </r>
       <r>    -6.8300     2.4999     8.9876 </r>
       <r>    -6.8200     2.4262     9.0119 </r>
       <r>    -6.8100     2.3540     9.0354 </r>
       <r>    -6.8000     2.2833     9.0583 </r>
       <r>    -6.7900     2.2143     9.0804 </r>
       <r>    -6.7800     2.1474     9.1019 </r>
       <r>    -6.7700     2.0829     9.1227 </r>
       <r>    -6.7600     2.0211     9.1429 </r>
       <r>    -6.7500     1.9625     9.1626 </r>
       <r>    -6.7400     1.9077     9.1816 </r>
       <r>    -6.7300     1.8574     9.2002 </r>
       <r>    -6.7200     1.8121     9.2183 </r>
       <r>    -6.7100     1.7726     9.2361 </r>
       <r>    -6.7000     1.7396     9.2535 </r>
       <r>    -6.6900     1.7141     9.2706 </r>
       <r>    -6.6800     1.6966     9.2876 </r>
       <r>    -6.6700     1.6881     9.3044 </r>
       <r>    -6.6600     1.6893     9.3213 </r>
       <r>    -6.6500     1.7008     9.3383 </r>
       <r>    -6.6400     1.7233     9.3556 </r>
       <r>    -6.6300     1.7573     9.3732 </r>
       <r>    -6.6200     1.8032     9.3912 </r>
       <r>    -6.6100     1.8612     9.4098 </r>
       <r>    -6.6000     1.9316     9.4291 </r>
       <r>    -6.5900     2.0142     9.4493 </r>
       <r>    -6.5800     2.1088     9.4703 </r>
       <r>    -6.5700     2.2150     9.4925 </r>
       <r>    -6.5600     2.3323     9.5158 </r>
       <r>    -6.5500     2.4597     9.5404 </r>
       <r>    -6.5400     2.5965     9.5664 </r>
       <r>    -6.5300     2.7413     9.5938 </r>
       <r>    -6.5200     2.8930     9.6227 </r>
       <r>    -6.5100     3.0500     9.6532 </r>
       <r>    -6.5000     3.2107     9.6853 </r>
       <r>    -6.4900     3.3736     9.7191 </r>
       <r>    -6.4800     3.5368     9.7544 </r>
       <r>    -6.4700     3.6985     9.7914 </r>
       <r>    -6.4600     3.8569     9.8300 </r>
       <r>    -6.4500     4.0102     9.8701 </r>
       <r>    -6.4400     4.1568     9.9117 </r>
       <r>    -6.4300     4.2948     9.9546 </r>
       <r>    -6.4200     4.4227     9.9988 </r>
       <r>    -6.4100     4.5392    10.0442 </r>
       <r>    -6.4000     4.6430    10.0906 </r>
       <r>    -6.3900     4.7329    10.1380 </r>
       <r>    -6.3800     4.8081    10.1861 </r>
       <r>    -6.3700     4.8679    10.2347 </r>
       <r>    -6.3600     4.9119    10.2839 </r>
       <r>    -6.3500     4.9397    10.3333 </r>
       <r>    -6.3400     4.9513    10.3828 </r>
       <r>    -6.3300     4.9469    10.4322 </r>
       <r>    -6.3200     4.9268    10.4815 </r>
       <r>    -6.3100     4.8915    10.5304 </r>
       <r>    -6.3000     4.8416    10.5788 </r>
       <r>    -6.2900     4.7781    10.6266 </r>
       <r>    -6.2800     4.7018    10.6736 </r>
       <r>    -6.2700     4.6138    10.7198 </r>
       <r>    -6.2600     4.5151    10.7649 </r>
       <r>    -6.2500     4.4069    10.8090 </r>
       <r>    -6.2400     4.2904    10.8519 </r>
       <r>    -6.2300     4.1668    10.8936 </r>
       <r>    -6.2200     4.0372    10.9339 </r>
       <r>    -6.2100     3.9029    10.9730 </r>
       <r>    -6.2000     3.7651    11.0106 </r>
       <r>    -6.1900     3.6247    11.0469 </r>
       <r>    -6.1800     3.4830    11.0817 </r>
       <r>    -6.1700     3.3409    11.1151 </r>
       <r>    -6.1600     3.1993    11.1471 </r>
       <r>    -6.1500     3.0594    11.1777 </r>
       <r>    -6.1400     2.9218    11.2069 </r>
       <r>    -6.1300     2.7873    11.2348 </r>
       <r>    -6.1200     2.6568    11.2613 </r>
       <r>    -6.1100     2.5310    11.2867 </r>
       <r>    -6.1000     2.4104    11.3108 </r>
       <r>    -6.0900     2.2956    11.3337 </r>
       <r>    -6.0800     2.1872    11.3556 </r>
       <r>    -6.0700     2.0856    11.3764 </r>
       <r>    -6.0600     1.9913    11.3964 </r>
       <r>    -6.0500     1.9044    11.4154 </r>
       <r>    -6.0400     1.8254    11.4337 </r>
       <r>    -6.0300     1.7544    11.4512 </r>
       <r>    -6.0200     1.6915    11.4681 </r>
       <r>    -6.0100     1.6368    11.4845 </r>
       <r>    -6.0000     1.5903    11.5004 </r>
       <r>    -5.9900     1.5519    11.5159 </r>
       <r>    -5.9800     1.5213    11.5311 </r>
       <r>    -5.9700     1.4984    11.5461 </r>
       <r>    -5.9600     1.4828    11.5609 </r>
       <r>    -5.9500     1.4742    11.5757 </r>
       <r>    -5.9400     1.4720    11.5904 </r>
       <r>    -5.9300     1.4757    11.6051 </r>
       <r>    -5.9200     1.4849    11.6200 </r>
       <r>    -5.9100     1.4988    11.6350 </r>
       <r>    -5.9000     1.5168    11.6502 </r>
       <r>    -5.8900     1.5383    11.6655 </r>
       <r>    -5.8800     1.5626    11.6812 </r>
       <r>    -5.8700     1.5889    11.6971 </r>
       <r>    -5.8600     1.6166    11.7132 </r>
       <r>    -5.8500     1.6450    11.7297 </r>
       <r>    -5.8400     1.6733    11.7464 </r>
       <r>    -5.8300     1.7011    11.7634 </r>
       <r>    -5.8200     1.7277    11.7807 </r>
       <r>    -5.8100     1.7524    11.7982 </r>
       <r>    -5.8000     1.7749    11.8160 </r>
       <r>    -5.7900     1.7946    11.8339 </r>
       <r>    -5.7800     1.8112    11.8520 </r>
       <r>    -5.7700     1.8243    11.8703 </r>
       <r>    -5.7600     1.8337    11.8886 </r>
       <r>    -5.7500     1.8390    11.9070 </r>
       <r>    -5.7400     1.8401    11.9254 </r>
       <r>    -5.7300     1.8370    11.9438 </r>
       <r>    -5.7200     1.8296    11.9621 </r>
       <r>    -5.7100     1.8178    11.9802 </r>
       <r>    -5.7000     1.8018    11.9983 </r>
       <r>    -5.6900     1.7817    12.0161 </r>
       <r>    -5.6800     1.7576    12.0336 </r>
       <r>    -5.6700     1.7297    12.0509 </r>
       <r>    -5.6600     1.6984    12.0679 </r>
       <r>    -5.6500     1.6639    12.0846 </r>
       <r>    -5.6400     1.6266    12.1008 </r>
       <r>    -5.6300     1.5868    12.1167 </r>
       <r>    -5.6200     1.5452    12.1322 </r>
       <r>    -5.6100     1.5020    12.1472 </r>
       <r>    -5.6000     1.4578    12.1618 </r>
       <r>    -5.5900     1.4132    12.1759 </r>
       <r>    -5.5800     1.3688    12.1896 </r>
       <r>    -5.5700     1.3251    12.2028 </r>
       <r>    -5.5600     1.2829    12.2157 </r>
       <r>    -5.5500     1.2427    12.2281 </r>
       <r>    -5.5400     1.2052    12.2401 </r>
       <r>    -5.5300     1.1712    12.2518 </r>
       <r>    -5.5200     1.1412    12.2633 </r>
       <r>    -5.5100     1.1160    12.2744 </r>
       <r>    -5.5000     1.0963    12.2854 </r>
       <r>    -5.4900     1.0828    12.2962 </r>
       <r>    -5.4800     1.0759    12.3070 </r>
       <r>    -5.4700     1.0765    12.3177 </r>
       <r>    -5.4600     1.0849    12.3286 </r>
       <r>    -5.4500     1.1018    12.3396 </r>
       <r>    -5.4400     1.1275    12.3509 </r>
       <r>    -5.4300     1.1626    12.3625 </r>
       <r>    -5.4200     1.2071    12.3746 </r>
       <r>    -5.4100     1.2615    12.3872 </r>
       <r>    -5.4000     1.3258    12.4004 </r>
       <r>    -5.3900     1.4001    12.4144 </r>
       <r>    -5.3800     1.4843    12.4293 </r>
       <r>    -5.3700     1.5783    12.4451 </r>
       <r>    -5.3600     1.6817    12.4619 </r>
       <r>    -5.3500     1.7943    12.4798 </r>
       <r>    -5.3400     1.9155    12.4990 </r>
       <r>    -5.3300     2.0449    12.5194 </r>
       <r>    -5.3200     2.1816    12.5412 </r>
       <r>    -5.3100     2.3250    12.5645 </r>
       <r>    -5.3000     2.4742    12.5892 </r>
       <r>    -5.2900     2.6283    12.6155 </r>
       <r>    -5.2800     2.7863    12.6434 </r>
       <r>    -5.2700     2.9472    12.6729 </r>
       <r>    -5.2600     3.1097    12.7040 </r>
       <r>    -5.2500     3.2729    12.7367 </r>
       <r>    -5.2400     3.4356    12.7710 </r>
       <r>    -5.2300     3.5965    12.8070 </r>
       <r>    -5.2200     3.7545    12.8446 </r>
       <r>    -5.2100     3.9085    12.8836 </r>
       <r>    -5.2000     4.0574    12.9242 </r>
       <r>    -5.1900     4.2000    12.9662 </r>
       <r>    -5.1800     4.3353    13.0096 </r>
       <r>    -5.1700     4.4623    13.0542 </r>
       <r>    -5.1600     4.5801    13.1000 </r>
       <r>    -5.1500     4.6878    13.1469 </r>
       <r>    -5.1400     4.7848    13.1947 </r>
       <r>    -5.1300     4.8702    13.2434 </r>
       <r>    -5.1200     4.9436    13.2929 </r>
       <r>    -5.1100     5.0044    13.3429 </r>
       <r>    -5.1000     5.0522    13.3934 </r>
       <r>    -5.0900     5.0867    13.4443 </r>
       <r>    -5.0800     5.1078    13.4954 </r>
       <r>    -5.0700     5.1153    13.5465 </r>
       <r>    -5.0600     5.1093    13.5976 </r>
       <r>    -5.0500     5.0898    13.6485 </r>
       <r>    -5.0400     5.0571    13.6991 </r>
       <r>    -5.0300     5.0115    13.7492 </r>
       <r>    -5.0200     4.9533    13.7987 </r>
       <r>    -5.0100     4.8832    13.8476 </r>
       <r>    -5.0000     4.8016    13.8956 </r>
       <r>    -4.9900     4.7092    13.9427 </r>
       <r>    -4.9800     4.6068    13.9887 </r>
       <r>    -4.9700     4.4952    14.0337 </r>
       <r>    -4.9600     4.3752    14.0774 </r>
       <r>    -4.9500     4.2479    14.1199 </r>
       <r>    -4.9400     4.1142    14.1611 </r>
       <r>    -4.9300     3.9752    14.2008 </r>
       <r>    -4.9200     3.8320    14.2391 </r>
       <r>    -4.9100     3.6856    14.2760 </r>
       <r>    -4.9000     3.5371    14.3114 </r>
       <r>    -4.8900     3.3878    14.3452 </r>
       <r>    -4.8800     3.2387    14.3776 </r>
       <r>    -4.8700     3.0909    14.4085 </r>
       <r>    -4.8600     2.9456    14.4380 </r>
       <r>    -4.8500     2.8037    14.4660 </r>
       <r>    -4.8400     2.6662    14.4927 </r>
       <r>    -4.8300     2.5342    14.5180 </r>
       <r>    -4.8200     2.4085    14.5421 </r>
       <r>    -4.8100     2.2899    14.5650 </r>
       <r>    -4.8000     2.1791    14.5868 </r>
       <r>    -4.7900     2.0769    14.6076 </r>
       <r>    -4.7800     1.9837    14.6274 </r>
       <r>    -4.7700     1.9000    14.6464 </r>
       <r>    -4.7600     1.8262    14.6647 </r>
       <r>    -4.7500     1.7625    14.6823 </r>
       <r>    -4.7400     1.7091    14.6994 </r>
       <r>    -4.7300     1.6660    14.7160 </r>
       <r>    -4.7200     1.6331    14.7324 </r>
       <r>    -4.7100     1.6103    14.7485 </r>
       <r>    -4.7000     1.5973    14.7645 </r>
       <r>    -4.6900     1.5936    14.7804 </r>
       <r>    -4.6800     1.5988    14.7964 </r>
       <r>    -4.6700     1.6122    14.8125 </r>
       <r>    -4.6600     1.6333    14.8288 </r>
       <r>    -4.6500     1.6611    14.8454 </r>
       <r>    -4.6400     1.6951    14.8624 </r>
       <r>    -4.6300     1.7341    14.8797 </r>
       <r>    -4.6200     1.7774    14.8975 </r>
       <r>    -4.6100     1.8240    14.9157 </r>
       <r>    -4.6000     1.8730    14.9345 </r>
       <r>    -4.5900     1.9233    14.9537 </r>
       <r>    -4.5800     1.9741    14.9735 </r>
       <r>    -4.5700     2.0245    14.9937 </r>
       <r>    -4.5600     2.0736    15.0144 </r>
       <r>    -4.5500     2.1207    15.0356 </r>
       <r>    -4.5400     2.1650    15.0573 </r>
       <r>    -4.5300     2.2061    15.0793 </r>
       <r>    -4.5200     2.2433    15.1018 </r>
       <r>    -4.5100     2.2764    15.1245 </r>
       <r>    -4.5000     2.3050    15.1476 </r>
       <r>    -4.4900     2.3291    15.1709 </r>
       <r>    -4.4800     2.3485    15.1944 </r>
       <r>    -4.4700     2.3634    15.2180 </r>
       <r>    -4.4600     2.3740    15.2417 </r>
       <r>    -4.4500     2.3806    15.2656 </r>
       <r>    -4.4400     2.3835    15.2894 </r>
       <r>    -4.4300     2.3834    15.3132 </r>
       <r>    -4.4200     2.3807    15.3370 </r>
       <r>    -4.4100     2.3759    15.3608 </r>
       <r>    -4.4000     2.3698    15.3845 </r>
       <r>    -4.3900     2.3630    15.4081 </r>
       <r>    -4.3800     2.3561    15.4317 </r>
       <r>    -4.3700     2.3498    15.4552 </r>
       <r>    -4.3600     2.3446    15.4786 </r>
       <r>    -4.3500     2.3410    15.5020 </r>
       <r>    -4.3400     2.3397    15.5254 </r>
       <r>    -4.3300     2.3409    15.5488 </r>
       <r>    -4.3200     2.3451    15.5723 </r>
       <r>    -4.3100     2.3524    15.5958 </r>
       <r>    -4.3000     2.3630    15.6194 </r>
       <r>    -4.2900     2.3771    15.6432 </r>
       <r>    -4.2800     2.3945    15.6672 </r>
       <r>    -4.2700     2.4152    15.6913 </r>
       <r>    -4.2600     2.4390    15.7157 </r>
       <r>    -4.2500     2.4656    15.7404 </r>
       <r>    -4.2400     2.4946    15.7653 </r>
       <r>    -4.2300     2.5257    15.7906 </r>
       <r>    -4.2200     2.5583    15.8161 </r>
       <r>    -4.2100     2.5921    15.8421 </r>
       <r>    -4.2000     2.6264    15.8683 </r>
       <r>    -4.1900     2.6607    15.8949 </r>
       <r>    -4.1800     2.6945    15.9219 </r>
       <r>    -4.1700     2.7273    15.9492 </r>
       <r>    -4.1600     2.7585    15.9767 </r>
       <r>    -4.1500     2.7876    16.0046 </r>
       <r>    -4.1400     2.8143    16.0328 </r>
       <r>    -4.1300     2.8382    16.0611 </r>
       <r>    -4.1200     2.8589    16.0897 </r>
       <r>    -4.1100     2.8761    16.1185 </r>
       <r>    -4.1000     2.8898    16.1474 </r>
       <r>    -4.0900     2.8998    16.1764 </r>
       <r>    -4.0800     2.9061    16.2054 </r>
       <r>    -4.0700     2.9087    16.2345 </r>
       <r>    -4.0600     2.9078    16.2636 </r>
       <r>    -4.0500     2.9036    16.2926 </r>
       <r>    -4.0400     2.8964    16.3216 </r>
       <r>    -4.0300     2.8864    16.3505 </r>
       <r>    -4.0200     2.8742    16.3792 </r>
       <r>    -4.0100     2.8601    16.4078 </r>
       <r>    -4.0000     2.8446    16.4363 </r>
       <r>    -3.9900     2.8283    16.4645 </r>
       <r>    -3.9800     2.8115    16.4927 </r>
       <r>    -3.9700     2.7949    16.5206 </r>
       <r>    -3.9600     2.7788    16.5484 </r>
       <r>    -3.9500     2.7637    16.5760 </r>
       <r>    -3.9400     2.7501    16.6035 </r>
       <r>    -3.9300     2.7381    16.6309 </r>
       <r>    -3.9200     2.7281    16.6582 </r>
       <r>    -3.9100     2.7202    16.6854 </r>
       <r>    -3.9000     2.7146    16.7125 </r>
       <r>    -3.8900     2.7111    16.7397 </r>
       <r>    -3.8800     2.7096    16.7668 </r>
       <r>    -3.8700     2.7100    16.7939 </r>
       <r>    -3.8600     2.7119    16.8210 </r>
       <r>    -3.8500     2.7149    16.8481 </r>
       <r>    -3.8400     2.7185    16.8753 </r>
       <r>    -3.8300     2.7222    16.9025 </r>
       <r>    -3.8200     2.7253    16.9298 </r>
       <r>    -3.8100     2.7271    16.9571 </r>
       <r>    -3.8000     2.7271    16.9843 </r>
       <r>    -3.7900     2.7244    17.0116 </r>
       <r>    -3.7800     2.7186    17.0388 </r>
       <r>    -3.7700     2.7090    17.0658 </r>
       <r>    -3.7600     2.6950    17.0928 </r>
       <r>    -3.7500     2.6762    17.1196 </r>
       <r>    -3.7400     2.6522    17.1461 </r>
       <r>    -3.7300     2.6228    17.1723 </r>
       <r>    -3.7200     2.5878    17.1982 </r>
       <r>    -3.7100     2.5472    17.2237 </r>
       <r>    -3.7000     2.5012    17.2487 </r>
       <r>    -3.6900     2.4500    17.2732 </r>
       <r>    -3.6800     2.3940    17.2971 </r>
       <r>    -3.6700     2.3338    17.3204 </r>
       <r>    -3.6600     2.2698    17.3431 </r>
       <r>    -3.6500     2.2029    17.3652 </r>
       <r>    -3.6400     2.1338    17.3865 </r>
       <r>    -3.6300     2.0633    17.4071 </r>
       <r>    -3.6200     1.9923    17.4271 </r>
       <r>    -3.6100     1.9217    17.4463 </r>
       <r>    -3.6000     1.8522    17.4648 </r>
       <r>    -3.5900     1.7847    17.4827 </r>
       <r>    -3.5800     1.7200    17.4999 </r>
       <r>    -3.5700     1.6586    17.5164 </r>
       <r>    -3.5600     1.6013    17.5325 </r>
       <r>    -3.5500     1.5483    17.5479 </r>
       <r>    -3.5400     1.5002    17.5629 </r>
       <r>    -3.5300     1.4571    17.5775 </r>
       <r>    -3.5200     1.4191    17.5917 </r>
       <r>    -3.5100     1.3862    17.6056 </r>
       <r>    -3.5000     1.3582    17.6191 </r>
       <r>    -3.4900     1.3348    17.6325 </r>
       <r>    -3.4800     1.3157    17.6457 </r>
       <r>    -3.4700     1.3003    17.6587 </r>
       <r>    -3.4600     1.2882    17.6715 </r>
       <r>    -3.4500     1.2787    17.6843 </r>
       <r>    -3.4400     1.2711    17.6970 </r>
       <r>    -3.4300     1.2649    17.7097 </r>
       <r>    -3.4200     1.2592    17.7223 </r>
       <r>    -3.4100     1.2535    17.7348 </r>
       <r>    -3.4000     1.2471    17.7473 </r>
       <r>    -3.3900     1.2394    17.7597 </r>
       <r>    -3.3800     1.2299    17.7720 </r>
       <r>    -3.3700     1.2181    17.7842 </r>
       <r>    -3.3600     1.2036    17.7962 </r>
       <r>    -3.3500     1.1862    17.8081 </r>
       <r>    -3.3400     1.1657    17.8197 </r>
       <r>    -3.3300     1.1419    17.8311 </r>
       <r>    -3.3200     1.1148    17.8423 </r>
       <r>    -3.3100     1.0845    17.8531 </r>
       <r>    -3.3000     1.0511    17.8636 </r>
       <r>    -3.2900     1.0149    17.8738 </r>
       <r>    -3.2800     0.9759    17.8835 </r>
       <r>    -3.2700     0.9347    17.8929 </r>
       <r>    -3.2600     0.8916    17.9018 </r>
       <r>    -3.2500     0.8469    17.9103 </r>
       <r>    -3.2400     0.8011    17.9183 </r>
       <r>    -3.2300     0.7545    17.9258 </r>
       <r>    -3.2200     0.7076    17.9329 </r>
       <r>    -3.2100     0.6608    17.9395 </r>
       <r>    -3.2000     0.6144    17.9457 </r>
       <r>    -3.1900     0.5689    17.9513 </r>
       <r>    -3.1800     0.5244    17.9566 </r>
       <r>    -3.1700     0.4814    17.9614 </r>
       <r>    -3.1600     0.4400    17.9658 </r>
       <r>    -3.1500     0.4004    17.9698 </r>
       <r>    -3.1400     0.3629    17.9734 </r>
       <r>    -3.1300     0.3275    17.9767 </r>
       <r>    -3.1200     0.2943    17.9797 </r>
       <r>    -3.1100     0.2634    17.9823 </r>
       <r>    -3.1000     0.2347    17.9846 </r>
       <r>    -3.0900     0.2083    17.9867 </r>
       <r>    -3.0800     0.1841    17.9886 </r>
       <r>    -3.0700     0.1621    17.9902 </r>
       <r>    -3.0600     0.1421    17.9916 </r>
       <r>    -3.0500     0.1240    17.9928 </r>
       <r>    -3.0400     0.1079    17.9939 </r>
       <r>    -3.0300     0.0934    17.9949 </r>
       <r>    -3.0200     0.0806    17.9957 </r>
       <r>    -3.0100     0.0693    17.9964 </r>
       <r>    -3.0000     0.0593    17.9969 </r>
       <r>    -2.9900     0.0505    17.9975 </r>
       <r>    -2.9800     0.0429    17.9979 </r>
       <r>    -2.9700     0.0363    17.9982 </r>
       <r>    -2.9600     0.0306    17.9986 </r>
       <r>    -2.9500     0.0257    17.9988 </r>
       <r>    -2.9400     0.0215    17.9990 </r>
       <r>    -2.9300     0.0179    17.9992 </r>
       <r>    -2.9200     0.0148    17.9994 </r>
       <r>    -2.9100     0.0123    17.9995 </r>
       <r>    -2.9000     0.0101    17.9996 </r>
       <r>    -2.8900     0.0083    17.9997 </r>
       <r>    -2.8800     0.0068    17.9997 </r>
       <r>    -2.8700     0.0055    17.9998 </r>
       <r>    -2.8600     0.0045    17.9998 </r>
       <r>    -2.8500     0.0036    17.9999 </r>
       <r>    -2.8400     0.0029    17.9999 </r>
       <r>    -2.8300     0.0023    17.9999 </r>
       <r>    -2.8200     0.0019    17.9999 </r>
       <r>    -2.8100     0.0015    17.9999 </r>
       <r>    -2.8000     0.0012    18.0000 </r>
       <r>    -2.7900     0.0009    18.0000 </r>
       <r>    -2.7800     0.0007    18.0000 </r>
       <r>    -2.7700     0.0006    18.0000 </r>
       <r>    -2.7600     0.0004    18.0000 </r>
       <r>    -2.7500     0.0003    18.0000 </r>
       <r>    -2.7400     0.0003    18.0000 </r>
       <r>    -2.7300     0.0002    18.0000 </r>
       <r>    -2.7200     0.0002    18.0000 </r>
       <r>    -2.7100     0.0001    18.0000 </r>
       <r>    -2.7000     0.0001    18.0000 </r>
       <r>    -2.6900     0.0001    18.0000 </r>
       <r>    -2.6800     0.0001    18.0000 </r>
       <r>    -2.6700     0.0000    18.0000 </r>
       <r>    -2.6600     0.0000    18.0000 </r>
       <r>    -2.6500     0.0000    18.0000 </r>
       <r>    -2.6400     0.0000    18.0000 </r>
       <r>    -2.6300     0.0000    18.0000 </r>
       <r>    -2.6200     0.0000    18.0000 </r>
       <r>    -2.6100     0.0000    18.0000 </r>
       <r>    -2.6000     0.0000    18.0000 </r>
       <r>    -2.5900     0.0000    18.0000 </r>
       <r>    -2.5800     0.0000    18.0000 </r>
       <r>    -2.5700     0.0000    18.0000 </r>
       <r>    -2.5600     0.0000    18.0000 </r>
       <r>    -2.5500     0.0000    18.0000 </r>
       <r>    -2.5400     0.0000    18.0000 </r>
       <r>    -2.5300     0.0000    18.0000 </r>
       <r>    -2.5200     0.0000    18.0000 </r>
[...]
        <r>  0.0072  0.0713  0.0134  0.0405  0.0000  0.0000  0.0000  0.0000  0.0000 </r>
        <r>  0.0072  0.0713  0.0134  0.0405  0.0000  0.0000  0.0000  0.0000  0.0000 </r>
       </set>
       <set comment="band 11">
        <r>  0.0059  0.0061  0.0000  0.0055  0.2852  0.0000  0.0990  0.0000  0.1013 </r>
        <r>  0.0007  0.0397  0.0049  0.0956  0.0000  0.0000  0.0000  0.0000  0.0000 </r>
        <r>  0.0007  0.0397  0.0049  0.0956  0.0000  0.0000  0.0000  0.0000  0.0000 </r>
       </set>
       <set comment="band 12">
        <r>  0.0000  0.0000  0.0002  0.0000  0.0000  0.2432  0.0000  0.3035  0.0000 </r>
        <r>  0.0257  0.0395  0.0134  0.0145  0.0000  0.0000  0.0000  0.0000  0.0000 </r>
        <r>  0.0257  0.0395  0.0134  0.0145  0.0000  0.0000  0.0000  0.0000  0.0000 </r>
       </set>
       <set comment="band 13">
        <r>  0.0000  0.0000  0.0027  0.0000  0.0000  0.2525  0.0000  0.1916  0.0000 </r>
        <r>  0.0025  0.0406  0.0086  0.1196  0.0000  0.0000  0.0000  0.0000  0.0000 </r>
        <r>  0.0025  0.0406  0.0086  0.1196  0.0000  0.0000  0.0000  0.0000  0.0000 </r>
       </set>
       <set comment="band 14">
        <r>  0.0076  0.0037  0.0000  0.0018  0.0014  0.0000  0.0207  0.0000  0.0034 </r>
        <r>  0.0068  0.0053  0.0042  0.0018  0.0000  0.0000  0.0000  0.0000  0.0000 </r>
        <r>  0.0071  0.0054  0.0054  0.0020  0.0000  0.0000  0.0000  0.0000  0.0000 </r>
       </set>
      </set>
      <set comment="kpoint 7">
       <set comment="band 1">
        <r>  0.0576  0.0184  0.0000  0.0166  0.0142  0.0000  0.0008  0.0000  0.0116 </r>
        <r>  0.3024  0.0013  0.0053  0.0010  0.0000  0.0000  0.0000  0.0000  0.0000 </r>
        <r>  0.3024  0.0013  0.0053  0.0010  0.0000  0.0000  0.0000  0.0000  0.0000 </r>
       </set>
       <set comment="band 2">
        <r>  0.0000  0.0000  0.0239  0.0000  0.0000  0.0400  0.0000  0.0372  0.0000 </r>
        <r>  0.3250  0.0007  0.0018  0.0006  0.0000  0.0000  0.0000  0.0000  0.0000 </r>
        <r>  0.3250  0.0007  0.0018  0.0006  0.0000  0.0000  0.0000  0.0000  0.0000 </r>
       </set>
       <set comment="band 3">
        <r>  0.0219  0.0058  0.0000  0.0251  0.1216  0.0000  0.0657  0.0000  0.1287 </r>
        <r>  0.0017  0.0523  0.0478  0.0482  0.0000  0.0000  0.0000  0.0000  0.0000 </r>
        <r>  0.0017  0.0523  0.0478  0.0482  0.0000  0.0000  0.0000  0.0000  0.0000 </r>
       </set>
       <set comment="band 4">
        <r>  0.0000  0.0000  0.0208  0.0000  0.0000  0.0062  0.0000  0.2845  0.0000 </r>
        <r>  0.0062  0.0662  0.0150  0.0979  0.0000  0.0000  0.0000  0.0000  0.0000 </r>
        <r>  0.0062  0.0662  0.0150  0.0979  0.0000  0.0000  0.0000  0.0000  0.0000 </r>
       </set>
       <set comment="band 5">
        <r>  0.1216  0.0191  0.0000  0.0235  0.0287  0.0000  0.0522  0.0000  0.0057 </r>
        <r>  0.0328  0.0238  0.1106  0.0311  0.0000  0.0000  0.0000  0.0000  0.0000 </r>
        <r>  0.0328  0.0238  0.1107  0.0311  0.0000  0.0000  0.0000  0.0000  0.0000 </r>
       </set>
       <set comment="band 6">
        <r>  0.0000  0.0000  0.0056  0.0000  0.0000  0.3933  0.0000  0.0047  0.0000 </r>
        <r>  0.0029  0.0869  0.0506  0.0342  0.0000  0.0000  0.0000  0.0000  0.0000 </r>
        <r>  0.0029  0.0869  0.0506  0.0342  0.0000  0.0000  0.0000  0.0000  0.0000 </r>
       </set>
       <set comment="band 7">
        <r>  0.0135  0.0434  0.0000  0.0225  0.0265  0.0000  0.1134  0.0000  0.1178 </r>
        <r>  0.0016  0.0793  0.0035  0.0967  0.0000  0.0000  0.0000  0.0000  0.0000 </r>
        <r>  0.0016  0.0793  0.0035  0.0967  0.0000  0.0000  0.0000  0.0000  0.0000 </r>
       </set>
       <set comment="band 8">
        <r>  0.0000  0.0000  0.0647  0.0000  0.0000  0.0064  0.0000  0.0673  0.0000 </r>
        <r>  0.0087  0.0384  0.1534  0.0652  0.0000  0.0000  0.0000  0.0000  0.0000 </r>
        <r>  0.0087  0.0384  0.1534  0.0651  0.0000  0.0000  0.0000  0.0000  0.0000 </r>
       </set>
       <set comment="band 9">
        <r>  0.0025  0.0077  0.0000  0.0016  0.2466  0.0000  0.2341  0.0000  0.1593 </r>
        <r>  0.0043  0.0375  0.0216  0.0220  0.0000  0.0000  0.0000  0.0000  0.0000 </r>
        <r>  0.0043  0.0375  0.0216  0.0220  0.0000  0.0000  0.0000  0.0000  0.0000 </r>
       </set>
       <set comment="band 10">
        <r>  0.0080  0.0088  0.0000  0.0051  0.1224  0.0000  0.0884  0.0000  0.3458 </r>
        <r>  0.0034  0.0445  0.0233  0.0137  0.0000  0.0000  0.0000  0.0000  0.0000 </r>
        <r>  0.0034  0.0445  0.0233  0.0137  0.0000  0.0000  0.0000  0.0000  0.0000 </r>
       </set>
       <set comment="band 11">
        <r>  0.0114  0.0028  0.0000  0.0006  0.3143  0.0000  0.3112  0.0000  0.0886 </r>
        <r>  0.0004  0.0205  0.0071  0.0399  0.0000  0.0000  0.0000  0.0000  0.0000 </r>
        <r>  0.0004  0.0205  0.0071  0.0399  0.0000  0.0000  0.0000  0.0000  0.0000 </r>
       </set>
       <set comment="band 12">
        <r>  0.0000  0.0000  0.0065  0.0000  0.0000  0.1057  0.0000  0.4327  0.0000 </r>
        <r>  0.0211  0.0366  0.0269  0.0058  0.0000  0.0000  0.0000  0.0000  0.0000 </r>
        <r>  0.0211  0.0366  0.0268  0.0058  0.0000  0.0000  0.0000  0.0000  0.0000 </r>
       </set>
       <set comment="band 13">
        <r>  0.0000  0.0000  0.0026  0.0000  0.0000  0.3984  0.0000  0.0885  0.0000 </r>
        <r>  0.0083  0.0430  0.0288  0.0702  0.0000  0.0000  0.0000  0.0000  0.0000 </r>
        <r>  0.0083  0.0430  0.0288  0.0702  0.0000  0.0000  0.0000  0.0000  0.0000 </r>
       </set>
       <set comment="band 14">
        <r>  0.0019  0.0107  0.0000  0.0157  0.0050  0.0000  0.0142  0.0000  0.0088 </r>
        <r>  0.0089  0.0053  0.0065  0.0012  0.0000  0.0000  0.0000  0.0000  0.0000 </r>
        <r>  0.0088  0.0052  0.0057  0.0012  0.0000  0.0000  0.0000  0.0000  0.0000 </r>
       </set>
      </set>
      <set comment="kpoint 8">
       <set comment="band 1">
        <r>  0.0208  0.0185  0.0000  0.0307  0.0314  0.0000  0.0003  0.0000  0.0158 </r>
        <r>  0.3194  0.0004  0.0059  0.0003  0.0000  0.0000  0.0000  0.0000  0.0000 </r>
        <r>  0.3195  0.0004  0.0059  0.0003  0.0000  0.0000  0.0000  0.0000  0.0000 </r>
       </set>
       <set comment="band 2">
        <r>  0.0000  0.0000  0.0071  0.0000  0.0000  0.0407  0.0000  0.0721  0.0000 </r>
        <r>  0.3311  0.0003  0.0027  0.0003  0.0000  0.0000  0.0000  0.0000  0.0000 </r>
        <r>  0.3310  0.0003  0.0027  0.0003  0.0000  0.0000  0.0000  0.0000  0.0000 </r>
       </set>
       <set comment="band 3">
        <r>  0.1026  0.0024  0.0000  0.0266  0.0645  0.0000  0.0342  0.0000  0.0433 </r>
        <r>  0.0043  0.0508  0.0087  0.1020  0.0000  0.0000  0.0000  0.0000  0.0000 </r>
        <r>  0.0043  0.0509  0.0087  0.1020  0.0000  0.0000  0.0000  0.0000  0.0000 </r>
       </set>
       <set comment="band 4">
        <r>  0.0000  0.0000  0.0350  0.0000  0.0000  0.0692  0.0000  0.1795  0.0000 </r>
        <r>  0.0071  0.0573  0.0054  0.1113  0.0000  0.0000  0.0000  0.0000  0.0000 </r>
        <r>  0.0071  0.0573  0.0054  0.1112  0.0000  0.0000  0.0000  0.0000  0.0000 </r>
       </set>
       <set comment="band 5">
        <r>  0.0162  0.0240  0.0000  0.0179  0.1402  0.0000  0.0904  0.0000  0.0527 </r>
        <r>  0.0206  0.0058  0.1295  0.0199  0.0000  0.0000  0.0000  0.0000  0.0000 </r>
        <r>  0.0206  0.0058  0.1295  0.0199  0.0000  0.0000  0.0000  0.0000  0.0000 </r>
       </set>
       <set comment="band 6">
        <r>  0.0000  0.0000  0.0256  0.0000  0.0000  0.3184  0.0000  0.0260  0.0000 </r>
        <r>  0.0020  0.1085  0.0279  0.0475  0.0000  0.0000  0.0000  0.0000  0.0000 </r>
        <r>  0.0020  0.1085  0.0279  0.0475  0.0000  0.0000  0.0000  0.0000  0.0000 </r>
       </set>
       <set comment="band 7">
        <r>  0.0233  0.0416  0.0000  0.0489  0.0014  0.0000  0.0710  0.0000  0.0230 </r>
        <r>  0.0063  0.1215  0.0320  0.0561  0.0000  0.0000  0.0000  0.0000  0.0000 </r>
        <r>  0.0063  0.1216  0.0321  0.0561  0.0000  0.0000  0.0000  0.0000  0.0000 </r>
       </set>
       <set comment="band 8">
        <r>  0.0000  0.0000  0.0363  0.0000  0.0000  0.0160  0.0000  0.1502  0.0000 </r>
        <r>  0.0118  0.0172  0.1758  0.0390  0.0000  0.0000  0.0000  0.0000  0.0000 </r>
        <r>  0.0118  0.0171  0.1757  0.0390  0.0000  0.0000  0.0000  0.0000  0.0000 </r>
       </set>
       <set comment="band 9">
        <r>  0.0034  0.0196  0.0000  0.0198  0.1840  0.0000  0.1603  0.0000  0.1971 </r>
        <r>  0.0008  0.0479  0.0257  0.0262  0.0000  0.0000  0.0000  0.0000  0.0000 </r>
        <r>  0.0008  0.0479  0.0257  0.0262  0.0000  0.0000  0.0000  0.0000  0.0000 </r>
       </set>
       <set comment="band 10">
        <r>  0.0051  0.0091  0.0000  0.0018  0.0648  0.0000  0.3342  0.0000  0.3775 </r>
        <r>  0.0002  0.0266  0.0149  0.0068  0.0000  0.0000  0.0000  0.0000  0.0000 </r>
        <r>  0.0002  0.0266  0.0149  0.0068  0.0000  0.0000  0.0000  0.0000  0.0000 </r>
       </set>
       <set comment="band 11">
        <r>  0.0154  0.0057  0.0000  0.0106  0.3790  0.0000  0.2183  0.0000  0.1807 </r>
        <r>  0.0021  0.0014  0.0171  0.0181  0.0000  0.0000  0.0000  0.0000  0.0000 </r>
        <r>  0.0021  0.0014  0.0171  0.0181  0.0000  0.0000  0.0000  0.0000  0.0000 </r>
       </set>
       <set comment="band 12">
        <r>  0.0000  0.0000  0.0063  0.0000  0.0000  0.1640  0.0000  0.3324  0.0000 </r>
        <r>  0.0091  0.0683  0.0151  0.0162  0.0000  0.0000  0.0000  0.0000  0.0000 </r>
        <r>  0.0091  0.0683  0.0151  0.0162  0.0000  0.0000  0.0000  0.0000  0.0000 </r>
       </set>
       <set comment="band 13">
        <r>  0.0000  0.0000  0.0004  0.0000  0.0000  0.3331  0.0000  0.1444  0.0000 </r>
        <r>  0.0189  0.0144  0.0666  0.0290  0.0000  0.0000  0.0000  0.0000  0.0000 </r>
        <r>  0.0190  0.0144  0.0666  0.0290  0.0000  0.0000  0.0000  0.0000  0.0000 </r>
       </set>
       <set comment="band 14">
        <r>  0.1877  0.0089  0.0000  0.0533  0.0404  0.0000  0.0061  0.0000  0.0387 </r>
        <r>  0.0001  0.0013  0.0115  0.0051  0.0000  0.0000  0.0000  0.0000  0.0000 </r>
        <r>  0.0001  0.0013  0.0115  0.0051  0.0000  0.0000  0.0000  0.0000  0.0000 </r>
       </set>
      </set>
      <set comment="kpoint 9">
       <set comment="band 1">
        <r>  0.0218  0.0321  0.0000  0.0178  0.0177  0.0000  0.0004  0.0000  0.0266 </r>
        <r>  0.3182  0.0009  0.0058  0.0003  0.0000  0.0000  0.0000  0.0000  0.0000 </r>
        <r>  0.3183  0.0009  0.0058  0.0003  0.0000  0.0000  0.0000  0.0000  0.0000 </r>
       </set>
       <set comment="band 2">
        <r>  0.0000  0.0000  0.0084  0.0000  0.0000  0.0705  0.0000  0.0375  0.0000 </r>
        <r>  0.3319  0.0005  0.0027  0.0002  0.0000  0.0000  0.0000  0.0000  0.0000 </r>
        <r>  0.3319  0.0005  0.0027  0.0002  0.0000  0.0000  0.0000  0.0000  0.0000 </r>
       </set>
       <set comment="band 3">
        <r>  0.0650  0.0098  0.0000  0.0293  0.0359  0.0000  0.0617  0.0000  0.1071 </r>
        <r>  0.0004  0.1066  0.0170  0.0360  0.0000  0.0000  0.0000  0.0000  0.0000 </r>
        <r>  0.0004  0.1067  0.0171  0.0360  0.0000  0.0000  0.0000  0.0000  0.0000 </r>
       </set>
       <set comment="band 4">
        <r>  0.0000  0.0000  0.0084  0.0000  0.0000  0.1284  0.0000  0.2207  0.0000 </r>
        <r>  0.0041  0.0958  0.0001  0.0665  0.0000  0.0000  0.0000  0.0000  0.0000 </r>
        <r>  0.0041  0.0958  0.0001  0.0665  0.0000  0.0000  0.0000  0.0000  0.0000 </r>
       </set>
       <set comment="band 5">
        <r>  0.0785  0.0205  0.0000  0.0103  0.0691  0.0000  0.0001  0.0000  0.0673 </r>
        <r>  0.0340  0.0203  0.1496  0.0150  0.0000  0.0000  0.0000  0.0000  0.0000 </r>
        <r>  0.0340  0.0203  0.1496  0.0150  0.0000  0.0000  0.0000  0.0000  0.0000 </r>
       </set>
       <set comment="band 6">
        <r>  0.0000  0.0000  0.0470  0.0000  0.0000  0.1650  0.0000  0.0582  0.0000 </r>
        <r>  0.0039  0.0671  0.0535  0.0781  0.0000  0.0000  0.0000  0.0000  0.0000 </r>
        <r>  0.0039  0.0671  0.0535  0.0781  0.0000  0.0000  0.0000  0.0000  0.0000 </r>
       </set>
       <set comment="band 7">
        <r>  0.0102  0.0636  0.0000  0.0362  0.0089  0.0000  0.1207  0.0000  0.0185 </r>
        <r>  0.0005  0.0419  0.0089  0.1234  0.0000  0.0000  0.0000  0.0000  0.0000 </r>
        <r>  0.0005  0.0419  0.0089  0.1233  0.0000  0.0000  0.0000  0.0000  0.0000 </r>
       </set>
       <set comment="band 8">
        <r>  0.0000  0.0000  0.0523  0.0000  0.0000  0.0593  0.0000  0.0754  0.0000 </r>
        <r>  0.0130  0.0383  0.1560  0.0459  0.0000  0.0000  0.0000  0.0000  0.0000 </r>
        <r>  0.0130  0.0383  0.1560  0.0459  0.0000  0.0000  0.0000  0.0000  0.0000 </r>
       </set>
       <set comment="band 9">
        <r>  0.0074  0.0001  0.0000  0.0000  0.2536  0.0000  0.1474  0.0000  0.2691 </r>
        <r>  0.0010  0.0277  0.0016  0.0449  0.0000  0.0000  0.0000  0.0000  0.0000 </r>
        <r>  0.0010  0.0277  0.0016  0.0449  0.0000  0.0000  0.0000  0.0000  0.0000 </r>
       </set>
       <set comment="band 10">
        <r>  0.0074  0.0139  0.0000  0.0052  0.0463  0.0000  0.5213  0.0000  0.1099 </r>
        <r>  0.0006  0.0275  0.0274  0.0128  0.0000  0.0000  0.0000  0.0000  0.0000 </r>
        <r>  0.0006  0.0275  0.0274  0.0128  0.0000  0.0000  0.0000  0.0000  0.0000 </r>
       </set>
       <set comment="band 11">
        <r>  0.0246  0.0117  0.0000  0.0045  0.4758  0.0000  0.0544  0.0000  0.2307 </r>
        <r>  0.0023  0.0029  0.0261  0.0081  0.0000  0.0000  0.0000  0.0000  0.0000 </r>
        <r>  0.0023  0.0029  0.0261  0.0081  0.0000  0.0000  0.0000  0.0000  0.0000 </r>
       </set>
       <set comment="band 12">
        <r>  0.0000  0.0000  0.0020  0.0000  0.0000  0.1394  0.0000  0.3940  0.0000 </r>
        <r>  0.0077  0.0257  0.0088  0.0394  0.0000  0.0000  0.0000  0.0000  0.0000 </r>
        <r>  0.0077  0.0257  0.0088  0.0394  0.0000  0.0000  0.0000  0.0000  0.0000 </r>
       </set>
       <set comment="band 13">
        <r>  0.0000  0.0000  0.0016  0.0000  0.0000  0.3945  0.0000  0.1490  0.0000 </r>
        <r>  0.0208  0.0094  0.0755  0.0248  0.0000  0.0000  0.0000  0.0000  0.0000 </r>
        <r>  0.0208  0.0094  0.0755  0.0248  0.0000  0.0000  0.0000  0.0000  0.0000 </r>
       </set>
       <set comment="band 14">
        <r>  0.1320  0.0177  0.0000  0.0491  0.0233  0.0000  0.0105  0.0000  0.0695 </r>
        <r>  0.0001  0.0023  0.0278  0.0034  0.0000  0.0000  0.0000  0.0000  0.0000 </r>
        <r>  0.0001  0.0023  0.0278  0.0034  0.0000  0.0000  0.0000  0.0000  0.0000 </r>
       </set>
      </set>
      <set comment="kpoint 10">
       <set comment="band 1">
        <r>  0.0037  0.0239  0.0000  0.0333  0.0320  0.0000  0.0001  0.0000  0.0232 </r>
        <r>  0.3267  0.0001  0.0062  0.0000  0.0000  0.0000  0.0000  0.0000  0.0000 </r>
        <r>  0.3269  0.0001  0.0062  0.0000  0.0000  0.0000  0.0000  0.0000  0.0000 </r>
       </set>
       <set comment="band 2">
        <r>  0.0000  0.0000  0.0012  0.0000  0.0000  0.0490  0.0000  0.0725  0.0000 </r>
        <r>  0.3361  0.0001  0.0031  0.0001  0.0000  0.0000  0.0000  0.0000  0.0000 </r>
        <r>  0.3360  0.0001  0.0031  0.0001  0.0000  0.0000  0.0000  0.0000  0.0000 </r>
       </set>
       <set comment="band 3">
        <r>  0.0000  0.0000  0.0052  0.0000  0.0000  0.1909  0.0000  0.1716  0.0000 </r>
        <r>  0.0014  0.0682  0.0002  0.0892  0.0000  0.0000  0.0000  0.0000  0.0000 </r>
        <r>  0.0014  0.0682  0.0002  0.0892  0.0000  0.0000  0.0000  0.0000  0.0000 </r>
       </set>
       <set comment="band 4">
        <r>  0.1158  0.0140  0.0000  0.0182  0.0234  0.0000  0.0697  0.0000  0.0120 </r>
        <r>  0.0010  0.0456  0.0008  0.1278  0.0000  0.0000  0.0000  0.0000  0.0000 </r>
        <r>  0.0010  0.0456  0.0008  0.1277  0.0000  0.0000  0.0000  0.0000  0.0000 </r>
       </set>
       <set comment="band 5">
        <r>  0.0098  0.0425  0.0000  0.0147  0.1350  0.0000  0.0570  0.0000  0.0583 </r>
        <r>  0.0128  0.0514  0.0919  0.0171  0.0000  0.0000  0.0000  0.0000  0.0000 </r>
        <r>  0.0128  0.0514  0.0919  0.0171  0.0000  0.0000  0.0000  0.0000  0.0000 </r>
       </set>
       <set comment="band 6">
        <r>  0.0254  0.0245  0.0000  0.0604  0.0231  0.0000  0.0166  0.0000  0.0499 </r>
        <r>  0.0173  0.0806  0.0842  0.0298  0.0000  0.0000  0.0000  0.0000  0.0000 </r>
        <r>  0.0173  0.0806  0.0842  0.0298  0.0000  0.0000  0.0000  0.0000  0.0000 </r>
       </set>
       <set comment="band 7">
        <r>  0.0000  0.0000  0.0880  0.0000  0.0000  0.0673  0.0000  0.0295  0.0000 </r>
        <r>  0.0021  0.1084  0.0206  0.0916  0.0000  0.0000  0.0000  0.0000  0.0000 </r>
        <r>  0.0021  0.1084  0.0205  0.0916  0.0000  0.0000  0.0000  0.0000  0.0000 </r>
       </set>
       <set comment="band 8">
        <r>  0.0000  0.0000  0.0202  0.0000  0.0000  0.0930  0.0000  0.1434  0.0000 </r>
        <r>  0.0174  0.0142  0.1843  0.0176  0.0000  0.0000  0.0000  0.0000  0.0000 </r>
        <r>  0.0174  0.0142  0.1843  0.0176  0.0000  0.0000  0.0000  0.0000  0.0000 </r>
       </set>
       <set comment="band 9">
        <r>  0.0039  0.0023  0.0000  0.0065  0.3005  0.0000  0.0598  0.0000  0.3201 </r>
        <r>  0.0000  0.0395  0.0037  0.0253  0.0000  0.0000  0.0000  0.0000  0.0000 </r>
        <r>  0.0000  0.0395  0.0037  0.0253  0.0000  0.0000  0.0000  0.0000  0.0000 </r>
       </set>
       <set comment="band 10">
        <r>  0.0367  0.0018  0.0000  0.0007  0.0402  0.0000  0.7004  0.0000  0.0491 </r>
        <r>  0.0000  0.0133  0.0025  0.0204  0.0000  0.0000  0.0000  0.0000  0.0000 </r>
        <r>  0.0000  0.0133  0.0025  0.0204  0.0000  0.0000  0.0000  0.0000  0.0000 </r>
       </set>
       <set comment="band 11">
        <r>  0.0000  0.0000  0.0013  0.0000  0.0000  0.3130  0.0000  0.1959  0.0000 </r>
        <r>  0.0008  0.0487  0.0001  0.0299  0.0000  0.0000  0.0000  0.0000  0.0000 </r>
        <r>  0.0008  0.0487  0.0001  0.0299  0.0000  0.0000  0.0000  0.0000  0.0000 </r>
       </set>
       <set comment="band 12">
        <r>  0.0025  0.0104  0.0000  0.0214  0.2945  0.0000  0.0103  0.0000  0.3826 </r>
        <r>  0.0037  0.0009  0.0672  0.0012  0.0000  0.0000  0.0000  0.0000  0.0000 </r>
        <r>  0.0037  0.0009  0.0672  0.0012  0.0000  0.0000  0.0000  0.0000  0.0000 </r>
       </set>
       <set comment="band 13">
        <r>  0.0000  0.0000  0.0003  0.0000  0.0000  0.2358  0.0000  0.3392  0.0000 </r>
        <r>  0.0266  0.0010  0.0995  0.0019  0.0000  0.0000  0.0000  0.0000  0.0000 </r>
        <r>  0.0266  0.0010  0.0995  0.0019  0.0000  0.0000  0.0000  0.0000  0.0000 </r>
       </set>
       <set comment="band 14">
        <r>  0.1174  0.0533  0.0000  0.0641  0.0537  0.0000  0.0084  0.0000  0.0326 </r>
        <r>  0.0003  0.0020  0.0027  0.0043  0.0000  0.0000  0.0000  0.0000  0.0000 </r>
        <r>  0.0003  0.0020  0.0027  0.0043  0.0000  0.0000  0.0000  0.0000  0.0000 </r>
       </set>
      </set>
     </set>
    </set>
   </array>
  </projected>
 </calculation>
 <structure name="finalpos" >
  <crystal>
   <varray name="basis" >
    <v>       3.19031573       0.00000000       0.00000000 </v>
    <v>      -1.59515786       2.76289447       0.00000000 </v>
    <v>       0.00000000       0.00000000      24.87900430 </v>
   </varray>
   <i name="volume">    219.29612478 </i>
   <varray name="rec_basis" >
    <v>       0.31344860       0.18096963       0.00000000 </v>
    <v>       0.00000000       0.36193927       0.00000000 </v>
    <v>       0.00000000       0.00000000       0.04019453 </v>
   </varray>
  </crystal>
  <varray name="positions" >
   <v>       0.33333300       0.66666700       0.14951366 </v>
   <v>       0.66666700       0.33333300       0.08661386 </v>
   <v>       0.66666600       0.33333300       0.21241346 </v>
  </varray>
 </structure>
</modeling>
