    3    3    1    1
  0.9045187E+02  0.3189857E-09  0.3189857E-09  0.3079398E-08  0.5000000E-15
  1.000000000000000E-004
  CAR 
 unknown system                          
     18     60     14
 
  0.0000000E+00  0.0000000E+00  0.0000000E+00  0.1666667E-01
    1      -17.804974   1.000000
    2      -16.576700   1.000000
    3       -9.324203   1.000000
    4       -6.378879   1.000000
    5       -6.378873   1.000000
    6       -5.467133   1.000000
    7       -5.258636   1.000000
    8       -5.258604   1.000000
    9       -3.747580   1.000000
   10       -0.981288   0.000000
   11       -0.981286   0.000000
   12       -0.746244   0.000000
   13       -0.746163   0.000000
   14        1.673784   0.000000
 
  0.2631579E-01  0.0000000E+00  0.0000000E+00  0.1666667E-01
    1      -17.795223   1.000000
    2      -16.572083   1.000000
    3       -9.312544   1.000000
    4       -6.402353   1.000000
    5       -6.368047   1.000000
    6       -5.573452   1.000000
    7       -5.275744   1.000000
    8       -5.166637   1.000000
    9       -3.752262   1.000000
   10       -0.998991   0.000000
   11       -0.962762   0.000000
   12       -0.778033   0.000000
   13       -0.758303   0.000000
   14        1.688942   0.000000
 
  0.5263158E-01  0.0000000E+00  0.0000000E+00  0.1666667E-01
    1      -17.766087   1.000000
    2      -16.558299   1.000000
    3       -9.278005   1.000000
    4       -6.470891   1.000000
    5       -6.335783   1.000000
    6       -5.751659   1.000000
    7       -5.325686   1.000000
    8       -5.032872   1.000000
    9       -3.767282   1.000000
   10       -1.046513   0.000000
   11       -0.908843   0.000000
   12       -0.866753   0.000000
   13       -0.793690   0.000000
   14        1.751489   0.000000
 
  0.7894737E-01  0.0000000E+00  0.0000000E+00  0.1666667E-01
    1      -17.717995   1.000000
    2      -16.535561   1.000000
    3       -9.221987   1.000000
    4       -6.579144   1.000000
    5       -6.282730   1.000000
    6       -5.944788   1.000000
    7       -5.404515   1.000000
    8       -4.918297   1.000000
    9       -3.795494   1.000000
   10       -1.108681   0.000000
   11       -0.994825   0.000000
   12       -0.849713   0.000000
   13       -0.824175   0.000000
   14        1.836232   0.000000
 
  0.1052632E+00  0.0000000E+00  0.0000000E+00  0.1666667E-01
    1      -17.651649   1.000000
    2      -16.504231   1.000000
    3       -9.147052   1.000000
    4       -6.719121   1.000000
    5       -6.209978   1.000000
    6       -6.144540   1.000000
    7       -5.506688   1.000000
    8       -4.836562   1.000000
    9       -3.841188   1.000000
   10       -1.165632   0.000000
   11       -1.141008   0.000000
   12       -0.922515   0.000000
   13       -0.715322   0.000000
   14        2.001355   0.000000
 
  0.1315789E+00  0.0000000E+00  0.0000000E+00  0.1666667E-01
    1      -17.568030   1.000000
    2      -16.464811   1.000000
    3       -9.057255   1.000000
    4       -6.881079   1.000000
    5       -6.348140   1.000000
    6       -6.119086   1.000000
    7       -5.626061   1.000000
    8       -4.794949   1.000000
    9       -3.909060   1.000000
   10       -1.284807   0.000000
   11       -1.198241   0.000000
   12       -1.007310   0.000000
   13       -0.589718   0.000000
   14        2.080405   0.000000
 
  0.1578947E+00  0.0000000E+00  0.0000000E+00  0.1666667E-01
    1      -17.468449   1.000000
    2      -16.417970   1.000000
    3       -8.958828   1.000000
    4       -7.054055   1.000000
    5       -6.554242   1.000000
    6       -6.012093   1.000000
    7       -5.756637   1.000000
    8       -4.795781   1.000000
    9       -4.002323   1.000000
   10       -1.409104   0.000000
   11       -1.192912   0.000000
   12       -1.099052   0.000000
   13       -0.454787   0.000000
   14        2.220496   0.000000
 
  0.1842105E+00  0.0000000E+00  0.0000000E+00  0.1666667E-01
    1      -17.354552   1.000000
    2      -16.364556   1.000000
    3       -8.861193   1.000000
    4       -7.225711   1.000000
    5       -6.761981   1.000000
    6       -5.893123   1.000000
    7       -5.891462   1.000000
    8       -4.835596   1.000000
    9       -4.120271   1.000000
   10       -1.502113   0.000000
   11       -1.192749   0.000000
   12       -1.144073   0.000000
   13       -0.317182   0.000000
   14        2.404810   0.000000
 
  0.2105263E+00  0.0000000E+00  0.0000000E+00  0.1666667E-01
    1      -17.228320   1.000000
    2      -16.305602   1.000000
    3       -8.778212   1.000000
    4       -7.381720   1.000000
    5       -6.970416   1.000000
    6       -6.030617   1.000000
    7       -5.760561   1.000000
    8       -4.905913   1.000000
    9       -4.256422   1.000000
   10       -1.558471   0.000000
   11       -1.283732   0.000000
   12       -1.053979   0.000000
   13       -0.182649   0.000000
   14        2.557108   0.000000
 
  0.2368421E+00  0.0000000E+00  0.0000000E+00  0.1666667E-01
    1      -17.092130   1.000000
    2      -16.242336   1.000000
    3       -8.728240   1.000000
    4       -7.506028   1.000000
    5       -7.178183   1.000000
    6       -6.165562   1.000000
    7       -5.622702   1.000000
    8       -4.995726   1.000000
    9       -4.398506   1.000000
   10       -1.578746   0.000000
   11       -1.367831   0.000000
   12       -0.930282   0.000000
   13       -0.055559   0.000000
   14        2.748792   0.000000
 
  0.2631579E+00  0.0000000E+00  0.0000000E+00  0.1666667E-01
    1      -16.948822   1.000000
    2      -16.176203   1.000000
    3       -8.728745   1.000000
    4       -7.586038   1.000000
    5       -7.383226   1.000000
    6       -6.294741   1.000000
    7       -5.482045   1.000000
    8       -5.094247   1.000000
    9       -4.530353   1.000000
   10       -1.567446   0.000000
   11       -1.441543   0.000000
   12       -0.783214   0.000000
   13        0.060792   0.000000
   14        2.952788   0.000000
 
  0.2894737E+00  0.0000000E+00  0.0000000E+00  0.1666667E-01
    1      -16.801669   1.000000
    2      -16.108841   1.000000
    3       -8.784233   1.000000
    4       -7.623670   1.000000
    5       -7.582685   1.000000
    6       -6.415616   1.000000
    7       -5.342962   1.000000
    8       -5.192657   1.000000
    9       -4.634914   1.000000
   10       -1.530832   0.000000
   11       -1.502153   0.000000
   12       -0.623554   0.000000
   13        0.164379   0.000000
   14        3.159644   0.000000
 
  0.3157895E+00  0.0000000E+00  0.0000000E+00  0.1666667E-01
    1      -16.654466   1.000000
    2      -16.042094   1.000000
    3       -8.881549   1.000000
    4       -7.773009   1.000000
    5       -7.637799   1.000000
    6       -6.526155   1.000000
    7       -5.284684   1.000000
    8       -5.209953   1.000000
    9       -4.698034   1.000000
   10       -1.547962   0.000000
   11       -1.475393   0.000000
   12       -0.461616   0.000000
   13        0.254130   0.000000
   14        3.360820   0.000000
 
  0.3421053E+00  0.0000000E+00  0.0000000E+00  0.1666667E-01
    1      -16.511542   1.000000
    2      -15.977981   1.000000
    3       -9.000598   1.000000
    4       -7.950104   1.000000
    5       -7.650179   1.000000
    6       -6.624725   1.000000
    7       -5.366444   1.000000
    8       -5.087350   1.000000
    9       -4.712483   1.000000
   10       -1.578529   0.000000
   11       -1.407167   0.000000
   12       -0.306745   0.000000
   13        0.329837   0.000000
   14        3.518812   0.000000
 
  0.3684211E+00  0.0000000E+00  0.0000000E+00  0.1666667E-01
    1      -16.377691   1.000000
    2      -15.918632   1.000000
    3       -9.124310   1.000000
    4       -8.109621   1.000000
    5       -7.672759   1.000000
    6       -6.710042   1.000000
    7       -5.435880   1.000000
    8       -4.978956   1.000000
    9       -4.680833   1.000000
   10       -1.594839   0.000000
   11       -1.331691   0.000000
   12       -0.166914   0.000000
   13        0.391802   0.000000
   14        3.442317   0.000000
 
  0.3947368E+00  0.0000000E+00  0.0000000E+00  0.1666667E-01
    1      -16.258035   1.000000
    2      -15.866213   1.000000
    3       -9.240404   1.000000
    4       -8.247262   1.000000
    5       -7.706186   1.000000
    6       -6.781090   1.000000
    7       -5.492193   1.000000
    8       -4.887744   1.000000
    9       -4.615240   1.000000
   10       -1.599393   0.000000
   11       -1.254395   0.000000
   12       -0.048273   0.000000
   13        0.440795   0.000000
   14        3.165281   0.000000
 
  0.4210526E+00  0.0000000E+00  0.0000000E+00  0.1666667E-01
    1      -16.157822   1.000000
    2      -15.822813   1.000000
    3       -9.339949   1.000000
    4       -8.359027   1.000000
    5       -7.744201   1.000000
    6       -6.837092   1.000000
    7       -5.535360   1.000000
    8       -4.815714   1.000000
    9       -4.534110   1.000000
   10       -1.595968   0.000000
   11       -1.181287   0.000000
   12        0.045218   0.000000
   13        0.477687   0.000000
   14        2.875546   0.000000
 
  0.4473684E+00  0.0000000E+00  0.0000000E+00  0.1666667E-01
    1      -16.081979   1.000000
    2      -15.790294   1.000000
    3       -9.416171   1.000000
    4       -8.441503   1.000000
    5       -7.778551   1.000000
    6       -6.877479   1.000000
    7       -5.565722   1.000000
    8       -4.763937   1.000000
    9       -4.457585   1.000000
   10       -1.589018   0.000000
   11       -1.119600   0.000000
   12        0.111807   0.000000
   13        0.503305   0.000000
   14        2.637779   0.000000
 
  0.4736842E+00  0.0000000E+00  0.0000000E+00  0.1666667E-01
    1      -16.034618   1.000000
    2      -15.770144   1.000000
    3       -9.464035   1.000000
    4       -8.492097   1.000000
    5       -7.802170   1.000000
    6       -6.901862   1.000000
    7       -5.583718   1.000000
    8       -4.732839   1.000000
    9       -4.403478   1.000000
   10       -1.582787   0.000000
   11       -1.077602   0.000000
   12        0.151375   0.000000
   13        0.518376   0.000000
   14        2.482284   0.000000
 
  0.5000000E+00  0.0000000E+00  0.0000000E+00  0.1666667E-01
    1      -16.018513   1.000000
    2      -15.763313   1.000000
    3       -9.480372   1.000000
    4       -8.509143   1.000000
    5       -7.810551   1.000000
    6       -6.910012   1.000000
    7       -5.589677   1.000000
    8       -4.722501   1.000000
    9       -4.383996   1.000000
   10       -1.580341   0.000000
   11       -1.062596   0.000000
   12        0.164465   0.000000
   13        0.523350   0.000000
   14        2.428125   0.000000
 
  0.5000000E+00  0.0000000E+00  0.0000000E+00  0.1666667E-01
    1      -16.018513   1.000000
    2      -15.763313   1.000000
    3       -9.480372   1.000000
    4       -8.509143   1.000000
    5       -7.810551   1.000000
    6       -6.910012   1.000000
    7       -5.589677   1.000000
    8       -4.722501   1.000000
    9       -4.383996   1.000000
   10       -1.580341   0.000000
   11       -1.062596   0.000000
   12        0.164465   0.000000
   13        0.523352   0.000000
   14        2.428136   0.000000
 
  0.4912263E+00  0.1754211E-01  0.0000000E+00  0.1666667E-01
    1      -16.017082   1.000000
    2      -15.762331   1.000000
    3       -9.475865   1.000000
    4       -8.512723   1.000000
    5       -7.809001   1.000000
    6       -6.910759   1.000000
    7       -5.588778   1.000000
    8       -4.756701   1.000000
    9       -4.365495   1.000000
   10       -1.578240   0.000000
   11       -1.061175   0.000000
   12        0.170114   0.000000
   13        0.509606   0.000000
   14        2.433849   0.000000
 
  0.4824526E+00  0.3508421E-01  0.0000000E+00  0.1666667E-01
    1      -16.012824   1.000000
    2      -15.759401   1.000000
    3       -9.462399   1.000000
    4       -8.523428   1.000000
    5       -7.804390   1.000000
    6       -6.912740   1.000000
    7       -5.586307   1.000000
    8       -4.843870   1.000000
    9       -4.324784   1.000000
   10       -1.572663   0.000000
   11       -1.056457   0.000000
   12        0.186329   0.000000
   13        0.470334   0.000000
   14        2.450743   0.000000
 
  0.4736789E+00  0.5262632E-01  0.0000000E+00  0.1666667E-01
    1      -16.005816   1.000000
    2      -15.754582   1.000000
    3       -9.440053   1.000000
    4       -8.541145   1.000000
    5       -7.796838   1.000000
    6       -6.915243   1.000000
    7       -5.582911   1.000000
    8       -4.963523   1.000000
    9       -4.280333   1.000000
   10       -1.565683   0.000000
   11       -1.047125   0.000000
   12        0.209609   0.000000
   13        0.412271   0.000000
   14        2.478029   0.000000
 
  0.4649053E+00  0.7016842E-01  0.0000000E+00  0.1666667E-01
    1      -15.996176   1.000000
    2      -15.747966   1.000000
    3       -9.408942   1.000000
    4       -8.565644   1.000000
    5       -7.786540   1.000000
    6       -6.917227   1.000000
    7       -5.579533   1.000000
    8       -5.105203   1.000000
    9       -4.239467   1.000000
   10       -1.560427   0.000000
   11       -1.031173   0.000000
   12        0.223364   0.000000
   13        0.356390   0.000000
   14        2.514552   0.000000
 
  0.4561316E+00  0.8771053E-01  0.0000000E+00  0.1666667E-01
    1      -15.984084   1.000000
    2      -15.739692   1.000000
    3       -9.369260   1.000000
    4       -8.596555   1.000000
    5       -7.773769   1.000000
    6       -6.917528   1.000000
    7       -5.577320   1.000000
    8       -5.263580   1.000000
    9       -4.203632   1.000000
   10       -1.560448   0.000000
   11       -1.006419   0.000000
   12        0.178717   0.000000
   13        0.356076   0.000000
   14        2.559080   0.000000
 
  0.4473579E+00  0.1052526E+00  0.0000000E+00  0.1666667E-01
    1      -15.969768   1.000000
    2      -15.729922   1.000000
    3       -9.321241   1.000000
    4       -8.633295   1.000000
    5       -7.758866   1.000000
    6       -6.914988   1.000000
    7       -5.577460   1.000000
    8       -5.435046   1.000000
    9       -4.172052   1.000000
   10       -1.568807   0.000000
   11       -0.971251   0.000000
   12        0.088269   0.000000
   13        0.402699   0.000000
   14        2.610418   0.000000
 
  0.4385842E+00  0.1227947E+00  0.0000000E+00  0.1666667E-01
    1      -15.953504   1.000000
    2      -15.718869   1.000000
    3       -9.265167   1.000000
    4       -8.675075   1.000000
    5       -7.742257   1.000000
    6       -6.908650   1.000000
    7       -5.616599   1.000000
    8       -5.581069   1.000000
    9       -4.143201   1.000000
   10       -1.587311   0.000000
   11       -0.925285   0.000000
   12       -0.013967   0.000000
   13        0.465297   0.000000
   14        2.667547   0.000000
 
  0.4298105E+00  0.1403368E+00  0.0000000E+00  0.1666667E-01
    1      -15.935616   1.000000
    2      -15.706771   1.000000
    3       -9.201395   1.000000
    4       -8.720887   1.000000
    5       -7.724429   1.000000
    6       -6.897818   1.000000
    7       -5.805428   1.000000
    8       -5.589097   1.000000
    9       -4.115363   1.000000
   10       -1.616322   0.000000
   11       -0.869455   0.000000
   12       -0.117445   0.000000
   13        0.535387   0.000000
   14        2.729684   0.000000
 
  0.4210368E+00  0.1578789E+00  0.0000000E+00  0.1666667E-01
    1      -15.916483   1.000000
    2      -15.693910   1.000000
    3       -9.130343   1.000000
    4       -8.769548   1.000000
    5       -7.705968   1.000000
    6       -6.882127   1.000000
    7       -5.998842   1.000000
    8       -5.602241   1.000000
    9       -4.086975   1.000000
   10       -1.655116   0.000000
   11       -0.805612   0.000000
   12       -0.217371   0.000000
   13        0.609293   0.000000
   14        2.796233   0.000000
 
  0.4122632E+00  0.1754211E+00  0.0000000E+00  0.1666667E-01
    1      -15.896514   1.000000
    2      -15.680583   1.000000
    3       -9.052465   1.000000
    4       -8.819724   1.000000
    5       -7.687559   1.000000
    6       -6.861513   1.000000
    7       -6.194134   1.000000
    8       -5.620882   1.000000
    9       -4.056762   1.000000
   10       -1.702333   0.000000
   11       -0.736013   0.000000
   12       -0.310697   0.000000
   13        0.684304   0.000000
   14        2.866748   0.000000
 
  0.4034895E+00  0.1929632E+00  0.0000000E+00  0.1666667E-01
    1      -15.876179   1.000000
    2      -15.667119   1.000000
    3       -8.968332   1.000000
    4       -8.870002   1.000000
    5       -7.670067   1.000000
    6       -6.836236   1.000000
    7       -6.388512   1.000000
    8       -5.645063   1.000000
    9       -4.023882   1.000000
   10       -1.756285   0.000000
   11       -0.663029   0.000000
   12       -0.395337   0.000000
   13        0.757989   0.000000
   14        2.940838   0.000000
 
  0.3947158E+00  0.2105053E+00  0.0000000E+00  0.1666667E-01
    1      -15.855986   1.000000
    2      -15.653873   1.000000
    3       -8.918958   1.000000
    4       -8.878623   1.000000
    5       -7.654692   1.000000
    6       -6.806859   1.000000
    7       -6.578873   1.000000
    8       -5.674406   1.000000
    9       -3.988015   1.000000
   10       -1.815043   0.000000
   11       -0.589031   0.000000
   12       -0.469885   0.000000
   13        0.828093   0.000000
   14        3.018064   0.000000
 
  0.3859421E+00  0.2280474E+00  0.0000000E+00  0.1666667E-01
    1      -15.836482   1.000000
    2      -15.641220   1.000000
    3       -8.965162   1.000000
    4       -8.784227   1.000000
    5       -7.643243   1.000000
    6       -6.774289   1.000000
    7       -6.761424   1.000000
    8       -5.708084   1.000000
    9       -3.949454   1.000000
   10       -1.876409   0.000000
   11       -0.533506   0.000000
   12       -0.516400   0.000000
   13        0.892550   0.000000
   14        3.097892   0.000000
 
  0.3771684E+00  0.2455895E+00  0.0000000E+00  0.1666667E-01
    1      -15.818256   1.000000
    2      -15.629530   1.000000
    3       -9.007268   1.000000
    4       -8.686320   1.000000
    5       -7.638760   1.000000
    6       -6.930949   1.000000
    7       -6.739764   1.000000
    8       -5.744737   1.000000
    9       -3.909216   1.000000
   10       -1.937831   0.000000
   11       -0.585838   0.000000
   12       -0.447576   0.000000
   13        0.949536   0.000000
   14        3.179442   0.000000
 
  0.3683947E+00  0.2631316E+00  0.0000000E+00  0.1666667E-01
    1      -15.801907   1.000000
    2      -15.619184   1.000000
    3       -9.044009   1.000000
    4       -8.586679   1.000000
    5       -7.646480   1.000000
    6       -7.079466   1.000000
    7       -6.705036   1.000000
    8       -5.782364   1.000000
    9       -3.869111   1.000000
   10       -1.996311   0.000000
   11       -0.626941   0.000000
   12       -0.385119   0.000000
   13        0.997551   0.000000
   14        3.261323   0.000000
 
  0.3596211E+00  0.2806737E+00  0.0000000E+00  0.1666667E-01
    1      -15.788075   1.000000
    2      -15.610564   1.000000
    3       -9.074224   1.000000
    4       -8.488356   1.000000
    5       -7.673780   1.000000
    6       -7.195710   1.000000
    7       -6.672444   1.000000
    8       -5.818234   1.000000
    9       -3.831787   1.000000
   10       -2.048368   0.000000
   11       -0.657248   0.000000
   12       -0.331745   0.000000
   13        1.035467   0.000000
   14        3.340826   0.000000
 
  0.3508474E+00  0.2982158E+00  0.0000000E+00  0.1666667E-01
    1      -15.777401   1.000000
    2      -15.604014   1.000000
    3       -9.096860   1.000000
    4       -8.397302   1.000000
    5       -7.723375   1.000000
    6       -7.270237   1.000000
    7       -6.644965   1.000000
    8       -5.848822   1.000000
    9       -3.800626   1.000000
   10       -2.090111   0.000000
   11       -0.677495   0.000000
   12       -0.290274   0.000000
   13        1.062591   0.000000
   14        3.412483   0.000000
 
  0.3420737E+00  0.3157579E+00  0.0000000E+00  0.1666667E-01
    1      -15.770537   1.000000
    2      -15.599870   1.000000
    3       -9.111010   1.000000
    4       -8.326122   1.000000
    5       -7.779121   1.000000
    6       -7.305924   1.000000
    7       -6.626119   1.000000
    8       -5.870021   1.000000
    9       -3.779416   1.000000
   10       -2.117565   0.000000
   11       -0.688708   0.000000
   12       -0.263525   0.000000
   13        1.078669   0.000000
   14        3.465571   0.000000
 
  0.3333000E+00  0.3333000E+00  0.0000000E+00  0.1666667E-01
    1      -15.768105   1.000000
    2      -15.598427   1.000000
    3       -9.115889   1.000000
    4       -8.297271   1.000000
    5       -7.805530   1.000000
    6       -7.315227   1.000000
    7       -6.619251   1.000000
    8       -5.877816   1.000000
    9       -3.771691   1.000000
   10       -2.127301   0.000000
   11       -0.692138   0.000000
   12       -0.254086   0.000000
   13        1.083941   0.000000
   14        3.492759   0.000000
 
  0.3333000E+00  0.3333000E+00  0.0000000E+00  0.1666667E-01
    1      -15.768105   1.000000
    2      -15.598427   1.000000
    3       -9.115889   1.000000
    4       -8.297271   1.000000
    5       -7.805530   1.000000
    6       -7.315227   1.000000
    7       -6.619251   1.000000
    8       -5.877816   1.000000
    9       -3.771691   1.000000
   10       -2.127301   0.000000
   11       -0.692138   0.000000
   12       -0.254086   0.000000
   13        1.083926   0.000000
   14        3.484903   0.000000
 
  0.3157579E+00  0.3157579E+00  0.0000000E+00  0.1666667E-01
    1      -15.778946   1.000000
    2      -15.604628   1.000000
    3       -9.095284   1.000000
    4       -8.393747   1.000000
    5       -7.706078   1.000000
    6       -7.290225   1.000000
    7       -6.647491   1.000000
    8       -5.844550   1.000000
    9       -3.804937   1.000000
   10       -2.087200   0.000000
   11       -0.681614   0.000000
   12       -0.294688   0.000000
   13        1.064794   0.000000
   14        3.448384   0.000000
 
  0.2982158E+00  0.2982158E+00  0.0000000E+00  0.1666667E-01
    1      -15.813895   1.000000
    2      -15.623961   1.000000
    3       -9.031678   1.000000
    4       -8.558544   1.000000
    5       -7.531575   1.000000
    6       -7.216394   1.000000
    7       -6.720431   1.000000
    8       -5.753428   1.000000
    9       -3.898303   1.000000
   10       -1.978083   0.000000
   11       -0.659598   0.000000
   12       -0.416128   0.000000
   13        1.014668   0.000000
   14        3.442651   0.000000
 
  0.2806737E+00  0.2806737E+00  0.0000000E+00  0.1666667E-01
    1      -15.875557   1.000000
    2      -15.656836   1.000000
    3       -8.923775   1.000000
    4       -8.700477   1.000000
    5       -7.409516   1.000000
    6       -7.061096   1.000000
    7       -6.812388   1.000000
    8       -5.626233   1.000000
    9       -4.028818   1.000000
   10       -1.832559   0.000000
   11       -0.641351   0.000000
   12       -0.603825   0.000000
   13        0.946498   0.000000
   14        3.517146   0.000000
 
  0.2631316E+00  0.2631316E+00  0.0000000E+00  0.1666667E-01
    1      -15.964597   1.000000
    2      -15.702719   1.000000
    3       -8.797289   1.000000
    4       -8.772295   1.000000
    5       -7.358911   1.000000
    6       -6.902242   1.000000
    7       -6.836158   1.000000
    8       -5.481492   1.000000
    9       -4.169990   1.000000
   10       -1.689936   0.000000
   11       -0.827817   0.000000
   12       -0.641740   0.000000
   13        0.873252   0.000000
   14        3.660649   0.000000
 
  0.2455895E+00  0.2455895E+00  0.0000000E+00  0.1666667E-01
    1      -16.079582   1.000000
    2      -15.760261   1.000000
    3       -8.844678   1.000000
    4       -8.579885   1.000000
    5       -7.349972   1.000000
    6       -6.976411   1.000000
    7       -6.588719   1.000000
    8       -5.331453   1.000000
    9       -4.301549   1.000000
   10       -1.589840   0.000000
   11       -1.045910   0.000000
   12       -0.671642   0.000000
   13        0.803296   0.000000
   14        3.841762   0.000000
 
  0.2280474E+00  0.2280474E+00  0.0000000E+00  0.1666667E-01
    1      -16.217164   1.000000
    2      -15.827512   1.000000
    3       -8.845683   1.000000
    4       -8.350936   1.000000
    5       -7.372315   1.000000
    6       -7.026058   1.000000
    7       -6.342102   1.000000
    8       -5.184659   1.000000
    9       -4.411434   1.000000
   10       -1.580211   0.000000
   11       -1.197003   0.000000
   12       -0.734094   0.000000
   13        0.736500   0.000000
   14        3.984501   0.000000
 
  0.2105053E+00  0.2105053E+00  0.0000000E+00  0.1666667E-01
    1      -16.372490   1.000000
    2      -15.902125   1.000000
    3       -8.808548   1.000000
    4       -8.091721   1.000000
    5       -7.420891   1.000000
    6       -7.044687   1.000000
    7       -6.110236   1.000000
    8       -5.047653   1.000000
    9       -4.494446   1.000000
   10       -1.668048   0.000000
   11       -1.251946   0.000000
   12       -0.823470   0.000000
   13        0.664498   0.000000
   14        3.916965   0.000000
 
  0.1929632E+00  0.1929632E+00  0.0000000E+00  0.1666667E-01
    1      -16.539908   1.000000
    2      -15.981592   1.000000
    3       -8.747450   1.000000
    4       -7.811240   1.000000
    5       -7.484385   1.000000
    6       -7.026341   1.000000
    7       -5.909535   1.000000
    8       -4.925731   1.000000
    9       -4.546726   1.000000
   10       -1.763400   0.000000
   11       -1.273833   0.000000
   12       -0.928653   0.000000
   13        0.575607   0.000000
   14        3.669796   0.000000
 
  0.1754211E+00  0.1754211E+00  0.0000000E+00  0.1666667E-01
    1      -16.713511   1.000000
    2      -16.063394   1.000000
    3       -8.684754   1.000000
    4       -7.540207   1.000000
    5       -7.523672   1.000000
    6       -6.962531   1.000000
    7       -5.764701   1.000000
    8       -4.823157   1.000000
    9       -4.556760   1.000000
   10       -1.809068   0.000000
   11       -1.295669   0.000000
   12       -1.037023   0.000000
   13        0.460726   0.000000
   14        3.384551   0.000000
 
  0.1578789E+00  0.1578789E+00  0.0000000E+00  0.1666667E-01
    1      -16.887577   1.000000
    2      -16.145120   1.000000
    3       -8.651291   1.000000
    4       -7.555207   1.000000
    5       -7.253639   1.000000
    6       -6.836839   1.000000
    7       -5.702565   1.000000
    8       -4.743280   1.000000
    9       -4.506609   1.000000
   10       -1.794798   0.000000
   11       -1.312695   0.000000
   12       -1.136830   0.000000
   13        0.316631   0.000000
   14        3.174879   0.000000
 
  0.1403368E+00  0.1403368E+00  0.0000000E+00  0.1666667E-01
    1      -17.056835   1.000000
    2      -16.224498   1.000000
    3       -8.673060   1.000000
    4       -7.500782   1.000000
    5       -7.028872   1.000000
    6       -6.632154   1.000000
    7       -5.727345   1.000000
    8       -4.688673   1.000000
    9       -4.395507   1.000000
   10       -1.731449   0.000000
   11       -1.309536   0.000000
   12       -1.217867   0.000000
   13        0.146242   0.000000
   14        2.852933   0.000000
 
  0.1227947E+00  0.1227947E+00  0.0000000E+00  0.1666667E-01
    1      -17.216633   1.000000
    2      -16.299469   1.000000
    3       -8.749598   1.000000
    4       -7.376042   1.000000
    5       -6.839183   1.000000
    6       -6.371602   1.000000
    7       -5.813165   1.000000
    8       -4.661391   1.000000
    9       -4.250040   1.000000
   10       -1.636551   0.000000
   11       -1.271604   0.000000
   12       -1.271474   0.000000
   13       -0.043136   0.000000
   14        2.598718   0.000000
 
  0.1052526E+00  0.1052526E+00  0.0000000E+00  0.1666667E-01
    1      -17.362911   1.000000
    2      -16.368196   1.000000
    3       -8.859022   1.000000
    4       -7.203554   1.000000
    5       -6.653240   1.000000
    6       -6.101292   1.000000
    7       -5.927943   1.000000
    8       -4.663267   1.000000
    9       -4.102559   1.000000
   10       -1.521269   0.000000
   11       -1.291526   0.000000
   12       -1.194801   0.000000
   13       -0.240895   0.000000
   14        2.384611   0.000000
 
  0.8771053E-01  0.8771053E-01  0.0000000E+00  0.1666667E-01
    1      -17.492266   1.000000
    2      -16.429070   1.000000
    3       -8.978598   1.000000
    4       -7.009262   1.000000
    5       -6.456663   1.000000
    6       -6.048249   1.000000
    7       -5.851150   1.000000
    8       -4.696156   1.000000
    9       -3.975570   1.000000
   10       -1.385253   0.000000
   11       -1.274580   0.000000
   12       -1.092078   0.000000
   13       -0.435451   0.000000
   14        2.187674   0.000000
 
  0.7016842E-01  0.7016842E-01  0.0000000E+00  0.1666667E-01
    1      -17.601876   1.000000
    2      -16.480732   1.000000
    3       -9.092200   1.000000
    4       -6.815140   1.000000
    5       -6.247507   1.000000
    6       -6.159357   1.000000
    7       -5.637833   1.000000
    8       -4.761701   1.000000
    9       -3.879309   1.000000
   10       -1.227726   0.000000
   11       -1.223203   0.000000
   12       -0.983417   0.000000
   13       -0.614708   0.000000
   14        2.022770   0.000000
 
  0.5262632E-01  0.5262632E-01  0.0000000E+00  0.1666667E-01
    1      -17.689440   1.000000
    2      -16.522068   1.000000
    3       -9.189256   1.000000
    4       -6.639956   1.000000
    5       -6.252316   1.000000
    6       -6.029291   1.000000
    7       -5.470260   1.000000
    8       -4.860659   1.000000
    9       -3.814038   1.000000
   10       -1.147878   0.000000