unknown system                          
   1.00000000000000     
     3.189857    0.000000    0.000000
    -1.594928    2.762497    0.000000
     0.000000    0.000000   30.793979
   Mo   S 
     1     2
Direct
  0.333333  0.666667  0.120462
  0.666667  0.333333  0.069840
  0.666666  0.333333  0.171084
 
   24   24  216
 0.48682E-02 0.50236E-02 0.55862E-02 0.68240E-02 0.91592E-02 0.13156E-01 0.19425E-01 0.28418E-01 0.40102E-01 0.53626E-01
 0.67016E-01 0.77207E-01 0.81068E-01 0.77215E-01 0.67027E-01 0.53633E-01 0.40104E-01 0.28416E-01 0.19421E-01 0.13152E-01
 0.91563E-02 0.68219E-02 0.55848E-02 0.50228E-02 0.50228E-02 0.50233E-02 0.56527E-02 0.71756E-02 0.10155E-01 0.15487E-01
 0.24288E-01 0.37523E-01 0.55460E-01 0.77193E-01 0.10022     0.12027     0.13223     0.13224     0.12029     0.10023    
 0.77200E-01 0.55457E-01 0.37515E-01 0.24280E-01 0.15481E-01 0.10151E-01 0.71730E-02 0.56513E-02 0.55848E-02 0.51216E-02
 0.55857E-02 0.71753E-02 0.10536E-01 0.16878E-01 0.27969E-01 0.45656E-01 0.70770E-01 0.10212     0.13621     0.16757    
 0.19002     0.19828     0.19005     0.16761     0.13623     0.10212     0.70758E-01 0.45640E-01 0.27956E-01 0.16870E-01
 0.10532E-01 0.71730E-02 0.68219E-02 0.54727E-02 0.54730E-02 0.68232E-02 0.10154E-01 0.16876E-01 0.29342E-01 0.50540E-01
 0.82466E-01 0.12365     0.16879     0.21077     0.24302     0.26067     0.26070     0.24307     0.21081     0.16880    
 0.12364     0.82443E-01 0.50519E-01 0.29329E-01 0.16870E-01 0.10151E-01 0.91563E-02 0.63071E-02 0.55037E-02 0.63076E-02
 0.91577E-02 0.15485E-01 0.27965E-01 0.50536E-01 0.86900E-01 0.13639     0.19165     0.24307     0.28374     0.30984    
 0.31893     0.30989     0.28381     0.24312     0.19166     0.13637     0.86876E-01 0.50519E-01 0.27956E-01 0.15481E-01
 0.13152E-01 0.78987E-02 0.58689E-02 0.58690E-02 0.78992E-02 0.13153E-01 0.24283E-01 0.45648E-01 0.82455E-01 0.13638    
 0.19992     0.26030     0.30907     0.34324     0.36117     0.36121     0.34332     0.30916     0.26035     0.19994    
 0.13637     0.82443E-01 0.45640E-01 0.24280E-01 0.19421E-01 0.10556E-01 0.67341E-02 0.56919E-02 0.67343E-02 0.10556E-01
 0.19421E-01 0.37516E-01 0.70755E-01 0.12362     0.19161     0.26027     0.31767     0.36031     0.38742     0.39696    
 0.38750     0.36043     0.31778     0.26035     0.19166     0.12364     0.70758E-01 0.37515E-01 0.28416E-01 0.14583E-01
 0.82524E-02 0.58868E-02 0.58869E-02 0.82526E-02 0.14583E-01 0.28414E-01 0.55450E-01 0.10209     0.16874     0.24301    
 0.30902     0.36028     0.39649     0.41607     0.41611     0.39660     0.36043     0.30916     0.24312     0.16880    
 0.10212     0.55457E-01 0.40104E-01 0.20148E-01 0.10556E-01 0.65194E-02 0.54387E-02 0.65196E-02 0.10556E-01 0.20147E-01
 0.40098E-01 0.77181E-01 0.13618     0.21072     0.28367     0.34317     0.38736     0.41603     0.42629     0.41611    
 0.38750     0.34332     0.28381     0.21081     0.13623     0.77200E-01 0.53633E-01 0.27038E-01 0.13653E-01 0.76158E-02
 0.53842E-02 0.53843E-02 0.76159E-02 0.13653E-01 0.27036E-01 0.53625E-01 0.10021     0.16755     0.24298     0.30977    
 0.36108     0.39685     0.41602     0.41607     0.39696     0.36121     0.30989     0.24307     0.16761     0.10023    
 0.67027E-01 0.34458E-01 0.17277E-01 0.91090E-02 0.56746E-02 0.47522E-02 0.56746E-02 0.91091E-02 0.17278E-01 0.34458E-01
 0.67025E-01 0.12028     0.19002     0.26064     0.31885     0.36108     0.38736     0.39649     0.38742     0.36117    
 0.31893     0.26070     0.19005     0.12029     0.77215E-01 0.40966E-01 0.20822E-01 0.10778E-01 0.62167E-02 0.45040E-02
 0.45040E-02 0.62169E-02 0.10779E-01 0.20825E-01 0.40975E-01 0.77230E-01 0.13226     0.19828     0.26064     0.30977    
 0.34317     0.36028     0.36031     0.34324     0.30984     0.26067     0.19828     0.13224     0.81068E-01 0.44821E-01
 0.23442E-01 0.12249E-01 0.68521E-02 0.45167E-02 0.38739E-02 0.45169E-02 0.68529E-02 0.12252E-01 0.23450E-01 0.44839E-01
 0.81095E-01 0.13226     0.19002     0.24298     0.28367     0.30902     0.31767     0.30907     0.28374     0.24302    
 0.19002     0.13223     0.77207E-01 0.44819E-01 0.24405E-01 0.13112E-01 0.73664E-02 0.46540E-02 0.35912E-02 0.35913E-02
 0.46546E-02 0.73683E-02 0.13117E-01 0.24416E-01 0.44839E-01 0.77230E-01 0.12028     0.16755     0.21072     0.24301    
 0.26027     0.26030     0.24307     0.21077     0.16757     0.12027     0.67016E-01 0.40962E-01 0.23440E-01 0.13111E-01
 0.75638E-02 0.47732E-02 0.35007E-02 0.31364E-02 0.35011E-02 0.47743E-02 0.75665E-02 0.13117E-01 0.23450E-01 0.40975E-01
 0.67025E-01 0.10021     0.13618     0.16874     0.19161     0.19992     0.19165     0.16879     0.13621     0.10022    
 0.53626E-01 0.34453E-01 0.20820E-01 0.12248E-01 0.73659E-02 0.47731E-02 0.34862E-02 0.29585E-02 0.29586E-02 0.34867E-02
 0.47743E-02 0.73683E-02 0.12252E-01 0.20825E-01 0.34458E-01 0.53625E-01 0.77181E-01 0.10209     0.12362     0.13638    
 0.13639     0.12365     0.10212     0.77193E-01 0.40102E-01 0.27036E-01 0.17276E-01 0.10777E-01 0.68513E-02 0.46535E-02
 0.35005E-02 0.29584E-02 0.28010E-02 0.29586E-02 0.35011E-02 0.46546E-02 0.68529E-02 0.10779E-01 0.17278E-01 0.27036E-01
 0.40098E-01 0.55450E-01 0.70755E-01 0.82455E-01 0.86900E-01 0.82466E-01 0.70770E-01 0.55460E-01 0.28418E-01 0.20148E-01
 0.13652E-01 0.91079E-02 0.62157E-02 0.45160E-02 0.35907E-02 0.31361E-02 0.29584E-02 0.29585E-02 0.31364E-02 0.35913E-02
 0.45169E-02 0.62169E-02 0.91091E-02 0.13653E-01 0.20147E-01 0.28414E-01 0.37516E-01 0.45648E-01 0.50536E-01 0.50540E-01
 0.45656E-01 0.37523E-01 0.19425E-01 0.14584E-01 0.10556E-01 0.76152E-02 0.56737E-02 0.45032E-02 0.38732E-02 0.35907E-02
 0.35005E-02 0.34862E-02 0.35007E-02 0.35912E-02 0.38739E-02 0.45040E-02 0.56746E-02 0.76159E-02 0.10556E-01 0.14583E-01
 0.19421E-01 0.24283E-01 0.27965E-01 0.29342E-01 0.27969E-01 0.24288E-01 0.13156E-01 0.10558E-01 0.82530E-02 0.65192E-02
 0.53836E-02 0.47513E-02 0.45032E-02 0.45160E-02 0.46535E-02 0.47731E-02 0.47732E-02 0.46540E-02 0.45167E-02 0.45040E-02
 0.47522E-02 0.53843E-02 0.65196E-02 0.82526E-02 0.10556E-01 0.13153E-01 0.15485E-01 0.16876E-01 0.16878E-01 0.15487E-01
 0.91592E-02 0.79004E-02 0.67348E-02 0.58870E-02 0.54384E-02 0.53836E-02 0.56737E-02 0.62157E-02 0.68513E-02 0.73659E-02
 0.75638E-02 0.73664E-02 0.68521E-02 0.62167E-02 0.56746E-02 0.53842E-02 0.54387E-02 0.58869E-02 0.67343E-02 0.78992E-02
 0.91577E-02 0.10154E-01 0.10536E-01 0.10155E-01 0.68240E-02 0.63085E-02 0.58697E-02 0.56923E-02 0.58870E-02 0.65192E-02
 0.76152E-02 0.91079E-02 0.10777E-01 0.12248E-01 0.13111E-01 0.13112E-01 0.12249E-01 0.10778E-01 0.91090E-02 0.76158E-02
 0.65194E-02 0.58868E-02 0.56919E-02 0.58690E-02 0.63076E-02 0.68232E-02 0.71753E-02 0.71756E-02 0.55862E-02 0.54738E-02
 0.55045E-02 0.58697E-02 0.67348E-02 0.82530E-02 0.10556E-01 0.13652E-01 0.17276E-01 0.20820E-01 0.23440E-01 0.24405E-01
 0.23442E-01 0.20822E-01 0.17277E-01 0.13653E-01 0.10556E-01 0.82524E-02 0.67341E-02 0.58689E-02 0.55037E-02 0.54730E-02
 0.55857E-02 0.56527E-02 0.50236E-02 0.51224E-02 0.54738E-02 0.63085E-02 0.79004E-02 0.10558E-01 0.14584E-01 0.20148E-01
 0.27036E-01 0.34453E-01 0.40962E-01 0.44819E-01 0.44821E-01 0.40966E-01 0.34458E-01 0.27038E-01 0.20148E-01 0.14583E-01
 0.10556E-01 0.78987E-02 0.63071E-02 0.54727E-02 0.51216E-02 0.50233E-02 0.54539E-02 0.57500E-02 0.67311E-02 0.86973E-02
 0.12229E-01 0.18283E-01 0.28101E-01 0.42624E-01 0.61547E-01 0.82803E-01 0.10284     0.11745     0.12285     0.11745    
 0.10285     0.82809E-01 0.61549E-01 0.42622E-01 0.28098E-01 0.18280E-01 0.12227E-01 0.86956E-02 0.67301E-02 0.57495E-02
 0.57495E-02 0.57498E-02 0.68346E-02 0.93530E-02 0.14083E-01 0.22370E-01 0.36145E-01 0.57263E-01 0.85860E-01 0.11921    
 0.15233     0.17936     0.19474     0.19475     0.17937     0.15234     0.11922     0.85858E-01 0.57255E-01 0.36138E-01
 0.22364E-01 0.14079E-01 0.93509E-02 0.68336E-02 0.67301E-02 0.59648E-02 0.67308E-02 0.93527E-02 0.14843E-01 0.25001E-01
 0.42469E-01 0.70176E-01 0.10914     0.15596     0.20360     0.24446     0.27219     0.28207     0.27221     0.24449    
 0.20361     0.15596     0.10913     0.70161E-01 0.42457E-01 0.24994E-01 0.14839E-01 0.93509E-02 0.86956E-02 0.65569E-02
 0.65571E-02 0.86966E-02 0.14082E-01 0.25000E-01 0.44900E-01 0.77862E-01 0.12617     0.18611     0.24790     0.30149    
 0.34038     0.36084     0.36085     0.34042     0.30152     0.24792     0.18610     0.12614     0.77842E-01 0.44888E-01
 0.24994E-01 0.14079E-01 0.12227E-01 0.78074E-02 0.66001E-02 0.78077E-02 0.12228E-01 0.22367E-01 0.42466E-01 0.77859E-01
 0.13245     0.20322     0.27794     0.34293     0.39104     0.42026     0.43006     0.42029     0.39109     0.34296    
 0.27795     0.20321     0.13242     0.77842E-01 0.42457E-01 0.22364E-01 0.18280E-01 0.10133E-01 0.71354E-02 0.71355E-02
 0.10134E-01 0.18281E-01 0.36141E-01 0.70169E-01 0.12616     0.20321     0.28859     0.36466     0.42174     0.45883    
 0.47708     0.47710     0.45888     0.42179     0.36470     0.28860     0.20321     0.12614     0.70161E-01 0.36138E-01
 0.28098E-01 0.14116E-01 0.84125E-02 0.69253E-02 0.84127E-02 0.14116E-01 0.28098E-01 0.57256E-01 0.10913     0.18609    
 0.27791     0.36464     0.43198     0.47772     0.50424     0.51298     0.50429     0.47779     0.43205     0.36470    
 0.27795     0.18610     0.10913     0.57255E-01 0.42622E-01 0.20394E-01 0.10694E-01 0.72747E-02 0.72747E-02 0.10694E-01
 0.20394E-01 0.42620E-01 0.85851E-01 0.15594     0.24787     0.34289     0.42170     0.47770     0.51314     0.53048    
 0.53050     0.51321     0.47779     0.42179     0.34296     0.24792     0.15596     0.85858E-01 0.61549E-01 0.29327E-01
 0.14230E-01 0.82476E-02 0.67179E-02 0.82477E-02 0.14230E-01 0.29326E-01 0.61544E-01 0.11920     0.20357     0.30145    
 0.39099     0.45878     0.50420     0.53046     0.53911     0.53050     0.50429     0.45888     0.39109     0.30152    
 0.20361     0.11922     0.82809E-01 0.40512E-01 0.19110E-01 0.99055E-02 0.66946E-02 0.66947E-02 0.99056E-02 0.19109E-01
 0.40510E-01 0.82802E-01 0.15232     0.24445     0.34035     0.42022     0.47702     0.51292     0.53046     0.53048    
 0.51298     0.47710     0.42029     0.34042     0.24449     0.15234     0.10285     0.52487E-01 0.25013E-01 0.12242E-01
 0.71643E-02 0.58592E-02 0.71643E-02 0.12242E-01 0.25013E-01 0.52488E-01 0.10285     0.17937     0.27219     0.36081    
 0.43001     0.47702     0.50420     0.51314     0.50424     0.47708     0.43006     0.36085     0.27221     0.17937    
 0.11745     0.62893E-01 0.31023E-01 0.15049E-01 0.80689E-02 0.55774E-02 0.55774E-02 0.80690E-02 0.15050E-01 0.31026E-01
 0.62901E-01 0.11747     0.19476     0.28207     0.36081     0.42022     0.45878     0.47770     0.47772     0.45883    
 0.42026     0.36084     0.28207     0.19475     0.12285     0.69062E-01 0.35681E-01 0.17760E-01 0.92358E-02 0.56976E-02
 0.47576E-02 0.56978E-02 0.92365E-02 0.17762E-01 0.35689E-01 0.69079E-01 0.12288     0.19476     0.27219     0.34035    
 0.39099     0.42170     0.43198     0.42174     0.39104     0.34038     0.27219     0.19474     0.11745     0.69060E-01
 0.37462E-01 0.19485E-01 0.10279E-01 0.60239E-02 0.44109E-02 0.44110E-02 0.60244E-02 0.10280E-01 0.19490E-01 0.37473E-01
 0.69079E-01 0.11747     0.17937     0.24445     0.30145     0.34289     0.36464     0.36466     0.34293     0.30149    
 0.24446     0.17936     0.10284     0.62889E-01 0.35680E-01 0.19485E-01 0.10706E-01 0.62952E-02 0.43147E-02 0.37565E-02
 0.43150E-02 0.62961E-02 0.10708E-01 0.19490E-01 0.35689E-01 0.62901E-01 0.10285     0.15232     0.20357     0.24787    
 0.27791     0.28859     0.27794     0.24790     0.20360     0.15233     0.82803E-01 0.52483E-01 0.31021E-01 0.17759E-01
 0.10278E-01 0.62951E-02 0.43049E-02 0.34857E-02 0.34858E-02 0.43053E-02 0.62961E-02 0.10280E-01 0.17762E-01 0.31026E-01
 0.52488E-01 0.82802E-01 0.11920     0.15594     0.18609     0.20321     0.20322     0.18611     0.15596     0.11921    
 0.61547E-01 0.40510E-01 0.25011E-01 0.15048E-01 0.92351E-02 0.60236E-02 0.43146E-02 0.34856E-02 0.32385E-02 0.34858E-02
 0.43150E-02 0.60244E-02 0.92365E-02 0.15050E-01 0.25013E-01 0.40510E-01 0.61544E-01 0.85851E-01 0.10913     0.12616    
 0.13245     0.12617     0.10914     0.85860E-01 0.42624E-01 0.29327E-01 0.19109E-01 0.12241E-01 0.80681E-02 0.56971E-02
 0.44105E-02 0.37563E-02 0.34856E-02 0.34857E-02 0.37565E-02 0.44110E-02 0.56978E-02 0.80690E-02 0.12242E-01 0.19109E-01
 0.29326E-01 0.42620E-01 0.57256E-01 0.70169E-01 0.77859E-01 0.77862E-01 0.70176E-01 0.57263E-01 0.28101E-01 0.20395E-01
 0.14230E-01 0.99050E-02 0.71636E-02 0.55767E-02 0.47571E-02 0.44105E-02 0.43146E-02 0.43049E-02 0.43147E-02 0.44109E-02
 0.47576E-02 0.55774E-02 0.71643E-02 0.99056E-02 0.14230E-01 0.20394E-01 0.28098E-01 0.36141E-01 0.42466E-01 0.44900E-01
 0.42469E-01 0.36145E-01 0.18283E-01 0.14117E-01 0.10694E-01 0.82475E-02 0.66942E-02 0.58586E-02 0.55767E-02 0.56971E-02
 0.60236E-02 0.62951E-02 0.62952E-02 0.60239E-02 0.56976E-02 0.55774E-02 0.58592E-02 0.66947E-02 0.82477E-02 0.10694E-01
 0.14116E-01 0.18281E-01 0.22367E-01 0.25000E-01 0.25001E-01 0.22370E-01 0.12229E-01 0.10135E-01 0.84131E-02 0.72748E-02
 0.67177E-02 0.66942E-02 0.71636E-02 0.80681E-02 0.92351E-02 0.10278E-01 0.10706E-01 0.10279E-01 0.92358E-02 0.80689E-02
 0.71643E-02 0.66946E-02 0.67179E-02 0.72747E-02 0.84127E-02 0.10134E-01 0.12228E-01 0.14082E-01 0.14843E-01 0.14083E-01
 0.86973E-02 0.78084E-02 0.71359E-02 0.69256E-02 0.72748E-02 0.82475E-02 0.99050E-02 0.12241E-01 0.15048E-01 0.17759E-01
 0.19485E-01 0.19485E-01 0.17760E-01 0.15049E-01 0.12242E-01 0.99055E-02 0.82476E-02 0.72747E-02 0.69253E-02 0.71355E-02
 0.78077E-02 0.86966E-02 0.93527E-02 0.93530E-02 0.67311E-02 0.65576E-02 0.66007E-02 0.71359E-02 0.84131E-02 0.10694E-01
 0.14230E-01 0.19109E-01 0.25011E-01 0.31021E-01 0.35680E-01 0.37462E-01 0.35681E-01 0.31023E-01 0.25013E-01 0.19110E-01
 0.14230E-01 0.10694E-01 0.84125E-02 0.71354E-02 0.66001E-02 0.65571E-02 0.67308E-02 0.68346E-02 0.57500E-02 0.59653E-02
 0.65576E-02 0.78084E-02 0.10135E-01 0.14117E-01 0.20395E-01 0.29327E-01 0.40510E-01 0.52483E-01 0.62889E-01 0.69060E-01
 0.69062E-01 0.62893E-01 0.52487E-01 0.40512E-01 0.29327E-01 0.20394E-01 0.14116E-01 0.10133E-01 0.78074E-02 0.65569E-02
 0.59648E-02 0.57498E-02 0.62233E-02 0.66875E-02 0.81791E-02 0.11050E-01 0.16074E-01 0.24682E-01 0.38984E-01 0.60898E-01
 0.90185E-01 0.12303     0.15324     0.17453     0.18223     0.17454     0.15324     0.12304     0.90186E-01 0.60896E-01
 0.38981E-01 0.24680E-01 0.16072E-01 0.11049E-01 0.81784E-02 0.66871E-02 0.66871E-02 0.66873E-02 0.82523E-02 0.11923E-01
 0.18866E-01 0.31129E-01 0.51801E-01 0.83966E-01 0.12761     0.17700     0.22306     0.25796     0.27665     0.27665    
 0.25798     0.22307     0.17701     0.12760     0.83959E-01 0.51794E-01 0.31124E-01 0.18863E-01 0.11921E-01 0.82516E-02
 0.81784E-02 0.71152E-02 0.81789E-02 0.11923E-01 0.20056E-01 0.35523E-01 0.62421E-01 0.10479     0.16280     0.22900    
 0.29124     0.34005     0.37066     0.38103     0.37067     0.34007     0.29126     0.22900     0.16279     0.10477    
 0.62410E-01 0.35516E-01 0.20053E-01 0.11921E-01 0.11049E-01 0.80883E-02 0.80885E-02 0.11050E-01 0.18865E-01 0.35522E-01
 0.66627E-01 0.11730     0.18777     0.26908     0.34620     0.40763     0.44900     0.46962     0.46963     0.44902    
 0.40765     0.34621     0.26907     0.18775     0.11728     0.66615E-01 0.35516E-01 0.18863E-01 0.16072E-01 0.98967E-02
 0.82729E-02 0.98970E-02 0.16073E-01 0.31127E-01 0.62418E-01 0.11730     0.19677     0.29061     0.38113     0.45414    
 0.50490     0.53425     0.54382     0.53427     0.50492     0.45416     0.38113     0.29060     0.19675     0.11728    
 0.62410E-01 0.31124E-01 0.24680E-01 0.13089E-01 0.90518E-02 0.90518E-02 0.13090E-01 0.24681E-01 0.51797E-01 0.10478    
 0.18776     0.29061     0.39301     0.47756     0.53771     0.57501     0.59270     0.59271     0.57503     0.53774    
 0.47758     0.39302     0.29060     0.18775     0.10477     0.51794E-01 0.38981E-01 0.18559E-01 0.10769E-01 0.88139E-02
 0.10769E-01 0.18559E-01 0.38982E-01 0.83960E-01 0.16279     0.26906     0.38111     0.47755     0.54847     0.59449    
 0.61992     0.62804     0.61995     0.59453     0.54851     0.47758     0.38113     0.26907     0.16279     0.83959E-01
 0.60896E-01 0.27461E-01 0.13850E-01 0.93083E-02 0.93084E-02 0.13850E-01 0.27461E-01 0.60895E-01 0.12760     0.22898    
 0.34618     0.45411     0.53769     0.59448     0.62862     0.64453     0.64455     0.62866     0.59453     0.53774    
 0.45416     0.34621     0.22900     0.12760     0.90186E-01 0.40709E-01 0.18772E-01 0.10638E-01 0.86315E-02 0.10638E-01
 0.18772E-01 0.40708E-01 0.90182E-01 0.17699     0.29122     0.40760     0.50487     0.57498     0.61990     0.64452    
 0.65234     0.64455     0.61995     0.57503     0.50492     0.40765     0.29126     0.17701     0.12304     0.58042E-01
 0.25884E-01 0.12940E-01 0.86536E-02 0.86536E-02 0.12940E-01 0.25884E-01 0.58041E-01 0.12303     0.22306     0.34004    
 0.44898     0.53423     0.59267     0.62801     0.64452     0.64453     0.62804     0.59271     0.53427     0.44902    
 0.34007     0.22307     0.15324     0.77278E-01 0.35031E-01 0.16334E-01 0.93451E-02 0.76097E-02 0.93452E-02 0.16334E-01
 0.35031E-01 0.77278E-01 0.15324     0.25797     0.37066     0.46961     0.54379     0.59267     0.61990     0.62862    
 0.61992     0.59270     0.54382     0.46963     0.37067     0.25798     0.17454     0.94412E-01 0.44985E-01 0.20686E-01
 0.10678E-01 0.72774E-02 0.72774E-02 0.10678E-01 0.20687E-01 0.44988E-01 0.94419E-01 0.17455     0.27666     0.38103    
 0.46961     0.53423     0.57498     0.59448     0.59449     0.57501     0.53425     0.46962     0.38103     0.27665    
 0.18223     0.10470     0.53148E-01 0.25192E-01 0.12455E-01 0.74573E-02 0.61743E-02 0.74574E-02 0.12456E-01 0.25194E-01
 0.53156E-01 0.10471     0.18225     0.27666     0.37066     0.44898     0.50487     0.53769     0.54847     0.53771    
 0.50490     0.44900     0.37066     0.27665     0.17453     0.10470     0.56374E-01 0.28227E-01 0.14112E-01 0.79007E-02
 0.56497E-02 0.56497E-02 0.79010E-02 0.14114E-01 0.28231E-01 0.56385E-01 0.10471     0.17455     0.25797     0.34004    
 0.40760     0.45411     0.47755     0.47756     0.45414     0.40763     0.34005     0.25796     0.15324     0.94408E-01
 0.53147E-01 0.28226E-01 0.14812E-01 0.82689E-02 0.54447E-02 0.46708E-02 0.54449E-02 0.82696E-02 0.14814E-01 0.28231E-01
 0.53156E-01 0.94419E-01 0.15324     0.22306     0.29122     0.34618     0.38111     0.39301     0.38113     0.34620    
 0.29124     0.22306     0.12303     0.77274E-01 0.44983E-01 0.25191E-01 0.14112E-01 0.82688E-02 0.53960E-02 0.42356E-02
 0.42357E-02 0.53963E-02 0.82696E-02 0.14114E-01 0.25194E-01 0.44988E-01 0.77278E-01 0.12303     0.17699     0.22898    
 0.26906     0.29061     0.29061     0.26908     0.22900     0.17700     0.90185E-01 0.58040E-01 0.35029E-01 0.20686E-01
 0.12455E-01 0.79004E-02 0.54446E-02 0.42356E-02 0.38719E-02 0.42357E-02 0.54449E-02 0.79010E-02 0.12456E-01 0.20687E-01
 0.35031E-01 0.58041E-01 0.90182E-01 0.12760     0.16279     0.18776     0.19677     0.18777     0.16280     0.12761    
 0.60898E-01 0.40709E-01 0.25884E-01 0.16334E-01 0.10677E-01 0.74568E-02 0.56494E-02 0.46707E-02 0.42356E-02 0.42356E-02
 0.46708E-02 0.56497E-02 0.74574E-02 0.10678E-01 0.16334E-01 0.25884E-01 0.40708E-01 0.60895E-01 0.83960E-01 0.10478    
 0.11730     0.11730     0.10479     0.83966E-01 0.38984E-01 0.27462E-01 0.18772E-01 0.12940E-01 0.93446E-02 0.72769E-02
 0.61739E-02 0.56494E-02 0.54446E-02 0.53960E-02 0.54447E-02 0.56497E-02 0.61743E-02 0.72774E-02 0.93452E-02 0.12940E-01
 0.18772E-01 0.27461E-01 0.38982E-01 0.51797E-01 0.62418E-01 0.66627E-01 0.62421E-01 0.51801E-01 0.24682E-01 0.18560E-01
 0.13850E-01 0.10638E-01 0.86532E-02 0.76092E-02 0.72769E-02 0.74568E-02 0.79004E-02 0.82688E-02 0.82689E-02 0.79007E-02
 0.74573E-02 0.72774E-02 0.76097E-02 0.86536E-02 0.10638E-01 0.13850E-01 0.18559E-01 0.24681E-01 0.31127E-01 0.35522E-01
 0.35523E-01 0.31129E-01 0.16074E-01 0.13090E-01 0.10770E-01 0.93084E-02 0.86314E-02 0.86532E-02 0.93446E-02 0.10677E-01
 0.12455E-01 0.14112E-01 0.14812E-01 0.14112E-01 0.12455E-01 0.10678E-01 0.93451E-02 0.86536E-02 0.86315E-02 0.93084E-02
 0.10769E-01 0.13090E-01 0.16073E-01 0.18865E-01 0.20056E-01 0.18866E-01 0.11050E-01 0.98975E-02 0.90522E-02 0.88142E-02
 0.93084E-02 0.10638E-01 0.12940E-01 0.16334E-01 0.20686E-01 0.25191E-01 0.28226E-01 0.28227E-01 0.25192E-01 0.20686E-01
 0.16334E-01 0.12940E-01 0.10638E-01 0.93083E-02 0.88139E-02 0.90518E-02 0.98970E-02 0.11050E-01 0.11923E-01 0.11923E-01
 0.81791E-02 0.80889E-02 0.82734E-02 0.90522E-02 0.10770E-01 0.13850E-01 0.18772E-01 0.25884E-01 0.35029E-01 0.44983E-01
 0.53147E-01 0.56374E-01 0.53148E-01 0.44985E-01 0.35031E-01 0.25884E-01 0.18772E-01 0.13850E-01 0.10769E-01 0.90518E-02
 0.82729E-02 0.80885E-02 0.81789E-02 0.82523E-02 0.66875E-02 0.71156E-02 0.80889E-02 0.98975E-02 0.13090E-01 0.18560E-01
 0.27462E-01 0.40709E-01 0.58040E-01 0.77274E-01 0.94408E-01 0.10470     0.10470     0.94412E-01 0.77278E-01 0.58042E-01
 0.40709E-01 0.27461E-01 0.18559E-01 0.13089E-01 0.98967E-02 0.80883E-02 0.71152E-02 0.66873E-02 0.73877E-02 0.79869E-02
 0.99451E-02 0.13818E-01 0.20800E-01 0.33086E-01 0.53939E-01 0.86431E-01 0.13026     0.17923     0.22342     0.25378    
 0.26453     0.25379     0.22343     0.17923     0.13026     0.86429E-01 0.53936E-01 0.33084E-01 0.20798E-01 0.13817E-01
 0.99445E-02 0.79866E-02 0.79866E-02 0.79868E-02 0.99478E-02 0.14744E-01 0.24337E-01 0.42134E-01 0.72936E-01 0.12084    
 0.18437     0.25346     0.31459     0.35846     0.38100     0.38100     0.35847     0.31460     0.25346     0.18437    
 0.12084     0.72929E-01 0.42130E-01 0.24335E-01 0.14743E-01 0.99472E-02 0.99445E-02 0.86263E-02 0.99449E-02 0.14744E-01
 0.25826E-01 0.48329E-01 0.88909E-01 0.15202     0.23384     0.32053     0.39610     0.45138     0.48418     0.49499    
 0.48419     0.45139     0.39611     0.32053     0.23383     0.15201     0.88899E-01 0.48324E-01 0.25824E-01 0.14743E-01
 0.13817E-01 0.10024E-01 0.10024E-01 0.13818E-01 0.24336E-01 0.48329E-01 0.95268E-01 0.17066     0.26777     0.36890    
 0.45646     0.52152     0.56310     0.58314     0.58315     0.56311     0.52153     0.45647     0.36890     0.26776    
 0.17064     0.95258E-01 0.48324E-01 0.24335E-01 0.20798E-01 0.12540E-01 0.10435E-01 0.12540E-01 0.20799E-01 0.42132E-01
 0.88906E-01 0.17065     0.27973     0.39366     0.49231     0.56659     0.61612     0.64399     0.65296     0.64400    
 0.61614     0.56660     0.49231     0.39365     0.27971     0.17064     0.88899E-01 0.42130E-01 0.33084E-01 0.16944E-01
 0.11555E-01 0.11555E-01 0.16944E-01 0.33084E-01 0.72932E-01 0.15202     0.26776     0.39365     0.50407     0.58828    
 0.64599     0.68103     0.69744     0.69745     0.68105     0.64601     0.58829     0.50408     0.39365     0.26776    
 0.15201     0.72929E-01 0.53936E-01 0.24566E-01 0.13887E-01 0.11278E-01 0.13887E-01 0.24567E-01 0.53937E-01 0.12084    
 0.23383     0.36889     0.49230     0.58828     0.65558     0.69837     0.72167     0.72904     0.72168     0.69839    
 0.65560     0.58829     0.49231     0.36890     0.23383     0.12084     0.86429E-01 0.37269E-01 0.18107E-01 0.11952E-01
 0.11952E-01 0.18107E-01 0.37269E-01 0.86428E-01 0.18437     0.32052     0.45645     0.56657     0.64598     0.69836    
 0.72932     0.74356     0.74356     0.72933     0.69839     0.64601     0.56660     0.45647     0.32053     0.18437    
 0.13026     0.56784E-01 0.25062E-01 0.13803E-01 0.11098E-01 0.13803E-01 0.25062E-01 0.56784E-01 0.13026     0.25345    
 0.39609     0.52151     0.61611     0.68102     0.72166     0.74355     0.75044     0.74356     0.72168     0.68105    
 0.61614     0.52153     0.39611     0.25346     0.17923     0.83158E-01 0.35511E-01 0.17110E-01 0.11235E-01 0.11235E-01
 0.17110E-01 0.35511E-01 0.83157E-01 0.17923     0.31459     0.45137     0.56309     0.64398     0.69743     0.72902    
 0.74355     0.74356     0.72904     0.69745     0.64400     0.56311     0.45139     0.31460     0.22343     0.11314    
 0.49460E-01 0.22107E-01 0.12322E-01 0.99533E-02 0.12322E-01 0.22107E-01 0.49460E-01 0.11314     0.22343     0.35847    
 0.48418     0.58313     0.65295     0.69743     0.72166     0.72932     0.72167     0.69744     0.65296     0.58315    
 0.48419     0.35847     0.25379     0.14013     0.65105E-01 0.28622E-01 0.14286E-01 0.95970E-02 0.95970E-02 0.14286E-01
 0.28622E-01 0.65107E-01 0.14013     0.25380     0.38101     0.49499     0.58313     0.64398     0.68102     0.69836    
 0.69837     0.68103     0.64399     0.58314     0.49499     0.38100     0.26453     0.15630     0.78169E-01 0.35435E-01
 0.16810E-01 0.98567E-02 0.81197E-02 0.98568E-02 0.16810E-01 0.35437E-01 0.78176E-01 0.15631     0.26455     0.38101    
 0.48418     0.56309     0.61611     0.64598     0.65558     0.64599     0.61612     0.56310     0.48418     0.38100    
 0.25378     0.15629     0.83362E-01 0.40047E-01 0.19102E-01 0.10390E-01 0.73612E-02 0.73613E-02 0.10390E-01 0.19103E-01
 0.40051E-01 0.83372E-01 0.15631     0.25380     0.35847     0.45137     0.52151     0.56657     0.58828     0.58828    
 0.56659     0.52152     0.45138     0.35846     0.22342     0.14012     0.78168E-01 0.40046E-01 0.20057E-01 0.10806E-01
 0.70075E-02 0.59947E-02 0.70076E-02 0.10807E-01 0.20059E-01 0.40051E-01 0.78176E-01 0.14013     0.22343     0.31459    
 0.39609     0.45645     0.49230     0.50407     0.49231     0.45646     0.39610     0.31459     0.17923     0.11314    
 0.65103E-01 0.35434E-01 0.19102E-01 0.10806E-01 0.69039E-02 0.53799E-02 0.53799E-02 0.69041E-02 0.10807E-01 0.19103E-01
 0.35437E-01 0.65107E-01 0.11314     0.17923     0.25345     0.32052     0.36889     0.39365     0.39366     0.36890    
 0.32053     0.25346     0.13026     0.83156E-01 0.49459E-01 0.28621E-01 0.16809E-01 0.10390E-01 0.70074E-02 0.53798E-02
 0.48971E-02 0.53799E-02 0.70076E-02 0.10390E-01 0.16810E-01 0.28622E-01 0.49460E-01 0.83157E-01 0.13026     0.18437    
 0.23383     0.26776     0.27973     0.26777     0.23384     0.18437     0.86431E-01 0.56784E-01 0.35510E-01 0.22107E-01
 0.14285E-01 0.98563E-02 0.73610E-02 0.59946E-02 0.53798E-02 0.53799E-02 0.59947E-02 0.73613E-02 0.98568E-02 0.14286E-01
 0.22107E-01 0.35511E-01 0.56784E-01 0.86428E-01 0.12084     0.15202     0.17065     0.17066     0.15202     0.12084    
 0.53939E-01 0.37269E-01 0.25062E-01 0.17110E-01 0.12322E-01 0.95965E-02 0.81194E-02 0.73610E-02 0.70074E-02 0.69039E-02
 0.70075E-02 0.73612E-02 0.81197E-02 0.95970E-02 0.12322E-01 0.17110E-01 0.25062E-01 0.37269E-01 0.53937E-01 0.72932E-01
 0.88906E-01 0.95268E-01 0.88909E-01 0.72936E-01 0.33086E-01 0.24567E-01 0.18107E-01 0.13803E-01 0.11235E-01 0.99529E-02
 0.95965E-02 0.98563E-02 0.10390E-01 0.10806E-01 0.10806E-01 0.10390E-01 0.98567E-02 0.95970E-02 0.99533E-02 0.11235E-01
 0.13803E-01 0.18107E-01 0.24567E-01 0.33084E-01 0.42132E-01 0.48329E-01 0.48329E-01 0.42134E-01 0.20800E-01 0.16944E-01
 0.13887E-01 0.11952E-01 0.11098E-01 0.11235E-01 0.12322E-01 0.14285E-01 0.16809E-01 0.19102E-01 0.20057E-01 0.19102E-01
 0.16810E-01 0.14286E-01 0.12322E-01 0.11235E-01 0.11098E-01 0.11952E-01 0.13887E-01 0.16944E-01 0.20799E-01 0.24336E-01
 0.25826E-01 0.24337E-01 0.13818E-01 0.12540E-01 0.11556E-01 0.11278E-01 0.11952E-01 0.13803E-01 0.17110E-01 0.22107E-01
 0.28621E-01 0.35434E-01 0.40046E-01 0.40047E-01 0.35435E-01 0.28622E-01 0.22107E-01 0.17110E-01 0.13803E-01 0.11952E-01
 0.11278E-01 0.11555E-01 0.12540E-01 0.13818E-01 0.14744E-01 0.14744E-01 0.99451E-02 0.10024E-01 0.10435E-01 0.11556E-01
 0.13887E-01 0.18107E-01 0.25062E-01 0.35510E-01 0.49459E-01 0.65103E-01 0.78168E-01 0.83362E-01 0.78169E-01 0.65105E-01
 0.49460E-01 0.35511E-01 0.25062E-01 0.18107E-01 0.13887E-01 0.11555E-01 0.10435E-01 0.10024E-01 0.99449E-02 0.99478E-02
 0.79869E-02 0.86266E-02 0.10024E-01 0.12540E-01 0.16944E-01 0.24567E-01 0.37269E-01 0.56784E-01 0.83156E-01 0.11314    
 0.14012     0.15629     0.15630     0.14013     0.11314     0.83158E-01 0.56784E-01 0.37268E-01 0.24566E-01 0.16944E-01
 0.12540E-01 0.10024E-01 0.86263E-02 0.79868E-02 0.88772E-02 0.95816E-02 0.11993E-01 0.17122E-01 0.27027E-01 0.45183E-01
 0.76223E-01 0.12371     0.18584     0.25304     0.31177     0.35098     0.36464     0.35098     0.31178     0.25305    
 0.18585     0.12371     0.76221E-01 0.45181E-01 0.27026E-01 0.17122E-01 0.11992E-01 0.95814E-02 0.95814E-02 0.95815E-02
 0.11977E-01 0.18160E-01 0.31445E-01 0.57515E-01 0.10323     0.17204     0.25801     0.34588     0.41985     0.47095    
 0.49659     0.49659     0.47095     0.41985     0.34589     0.25801     0.17203     0.10322     0.57512E-01 0.31443E-01
 0.18159E-01 0.11976E-01 0.11992E-01 0.10350E-01 0.11993E-01 0.18160E-01 0.33225E-01 0.65640E-01 0.12531     0.21459    
 0.32111     0.42408     0.50755     0.56567     0.59913     0.61000     0.59914     0.56568     0.50755     0.42408    
 0.32110     0.21458     0.12530     0.65635E-01 0.33223E-01 0.18159E-01 0.17122E-01 0.12144E-01 0.12145E-01 0.17122E-01
 0.31444E-01 0.65639E-01 0.13393     0.23943     0.36286     0.47752     0.56793     0.63114     0.67009     0.68851    
 0.68852     0.67010     0.63115     0.56794     0.47751     0.36285     0.23942     0.13392     0.65635E-01 0.31443E-01
 0.27026E-01 0.15597E-01 0.12751E-01 0.15597E-01 0.27026E-01 0.57514E-01 0.12531     0.23943     0.37729     0.50399    
 0.60217     0.67086     0.71482     0.73903     0.74675     0.73904     0.71483     0.67087     0.60217     0.50399    
 0.37728     0.23942     0.12530     0.57512E-01 0.45181E-01 0.21919E-01 0.14343E-01 0.14343E-01 0.21919E-01 0.45182E-01
 0.10322     0.21459     0.36286     0.50399     0.61318     0.68940     0.73913     0.76865     0.78234     0.78234    
 0.76866     0.73914     0.68941     0.61318     0.50399     0.36285     0.21458     0.10322     0.76221E-01 0.33134E-01