 vasp.5.4.4.18Apr17-6-g9f103f2a35 (build Jun 30 2017 11:15:00) complex          
  
 executed on    STALLO_VASP_5.4.4 date 2019.11.08  16:52:15
 running on    4 total cores
 distrk:  each k-point on    4 cores,    1 groups
 distr:  one band on NCORES_PER_BAND=   2 cores,    2 groups


--------------------------------------------------------------------------------------------------------


 INCAR:
 POTCAR:   PAW_PBE Mo 08Apr2002                   
 POTCAR:    PAW_PBE S 17Jan2003                   
 POTCAR:   PAW_PBE Mo 08Apr2002                   
   VRHFIN =Mo: 4p5s4d                                                           
   LEXCH  = PE                                                                  
   EATOM  =   217.5180 eV,   15.9871 Ry                                         
                                                                                
   TITEL  = PAW_PBE Mo 08Apr2002                                                
   LULTRA =        F    use ultrasoft PP ?                                      
   IUNSCR =        1    unscreen: 0-lin 1-nonlin 2-no                           
   RPACOR =    2.200    partial core radius                                     
   POMASS =   95.940; ZVAL   =    6.000    mass and valenz                      
   RCORE  =    2.750    outmost cutoff radius                                   
   RWIGS  =    2.750; RWIGS  =    1.455    wigner-seitz radius (au A)           
   ENMAX  =  224.584; ENMIN  =  168.438 eV                                      
   RCLOC  =    2.111    cutoff for local pot                                    
   LCOR   =        T    correct aug charges                                     
   LPAW   =        T    paw PP                                                  
   EAUG   =  345.278                                                            
   DEXC   =    -.088                                                            
   RMAX   =    3.077    core radius for proj-oper                               
   RAUG   =    1.300    factor for augmentation sphere                          
   RDEP   =    2.815    radius for radial grids                                 
   QCUT   =   -4.063; QGAM   =    8.126    optimization parameters              
                                                                                
   Description                                                                  
     l     E      TYP  RCUT    TYP  RCUT                                        
     2   .000     23  2.500                                                     
     2   .000     23  2.500                                                     
     0   .000     23  2.600                                                     
     0  1.000     23  2.600                                                     
     1   .400     23  2.750                                                     
     1  2.000     23  2.750                                                     
     3   .000      7   .000                                                     
  local pseudopotential read in
  partial core-charges read in
  atomic valenz-charges read in
  non local Contribution for L=           2  read in
    real space projection operators read in
  non local Contribution for L=           2  read in
    real space projection operators read in
  non local Contribution for L=           0  read in
    real space projection operators read in
  non local Contribution for L=           0  read in
    real space projection operators read in
  non local Contribution for L=           1  read in
    real space projection operators read in
  non local Contribution for L=           1  read in
    real space projection operators read in
    PAW grid and wavefunctions read in
 
   number of l-projection  operators is LMAX  =           6
   number of lm-projection operators is LMMAX =          18
 
 POTCAR:    PAW_PBE S 17Jan2003                   
   VRHFIN =S : s2p4                                                             
   LEXCH  = PE                                                                  
   EATOM  =   276.8230 eV,   20.3459 Ry                                         
                                                                                
   TITEL  = PAW_PBE S 17Jan2003                                                 
   LULTRA =        F    use ultrasoft PP ?                                      
   IUNSCR =        1    unscreen: 0-lin 1-nonlin 2-no                           
   RPACOR =    1.500    partial core radius                                     
   POMASS =   32.066; ZVAL   =    6.000    mass and valenz                      
   RCORE  =    1.900    outmost cutoff radius                                   
   RWIGS  =    2.200; RWIGS  =    1.164    wigner-seitz radius (au A)           
   ENMAX  =  280.000; ENMIN  =  194.016 eV                                      
   ICORE  =        2    local potential                                         
   LCOR   =        T    correct aug charges                                     
   LPAW   =        T    paw PP                                                  
   EAUG   =  335.092                                                            
   DEXC   =     .000                                                            
   RMAX   =    2.867    core radius for proj-oper                               
   RAUG   =    1.300    factor for augmentation sphere                          
   RDEP   =    1.954    radius for radial grids                                 
   QCUT   =   -4.360; QGAM   =    8.721    optimization parameters              
                                                                                
   Description                                                                  
     l     E      TYP  RCUT    TYP  RCUT                                        
     0   .000     23  1.900                                                     
     0   .000     23  1.900                                                     
     1   .000     23  1.900                                                     
     1   .000     23  1.900                                                     
     2   .000     23  1.900                                                     
  local pseudopotential read in
  partial core-charges read in
  atomic valenz-charges read in
  non local Contribution for L=           0  read in
    real space projection operators read in
  non local Contribution for L=           0  read in
    real space projection operators read in
  non local Contribution for L=           1  read in
    real space projection operators read in
  non local Contribution for L=           1  read in
    real space projection operators read in
    PAW grid and wavefunctions read in
 
   number of l-projection  operators is LMAX  =           4
   number of lm-projection operators is LMMAX =           8
 
 PAW_PBE Mo 08Apr2002                   :
 energy of atom  1       EATOM= -217.5180
 kinetic energy error for atom=    0.0023 (will be added to EATOM!!)
  PAW_PBE S 17Jan2003                   :
 energy of atom  2       EATOM= -276.8230
 kinetic energy error for atom=    0.0033 (will be added to EATOM!!)
 
 
 POSCAR: MoS2_mp-2815_computed                   
  positions in direct lattice
  velocities in cartesian coordinates
 exchange correlation table for  LEXCH =        8
   RHO(1)=    0.500       N(1)  =     2000
   RHO(2)=  100.500       N(2)  =     4000
 


--------------------------------------------------------------------------------------------------------


 ion  position               nearest neighbor table
   1  0.333  0.667  0.120-   3 2.41   2 2.41   2 2.41   3 2.41   3 2.41   2 2.41
   2  0.667  0.333  0.070-   1 2.41   1 2.41   1 2.41
   3  0.667  0.333  0.171-   1 2.41   1 2.41   1 2.41
 
  LATTYP: Found a hexagonal cell.
 ALAT       =     3.1898568304
 C/A-ratio  =     9.6537181778
  
  Lattice vectors:
  
 A1 = (   3.1898568304,   0.0000000000,   0.0000000000)
 A2 = (  -1.5949284152,   2.7624970496,   0.0000000000)
 A3 = (   0.0000000000,   0.0000000000,  30.7939788683)


Analysis of symmetry for initial positions (statically):
=====================================================================
 Subroutine PRICEL returns:
 Original cell was already a primitive cell.
 

 Routine SETGRP: Setting up the symmetry group for a 
 hexagonal supercell.


 Subroutine GETGRP returns: Found 12 space group operations
 (whereof  6 operations were pure point group operations)
 out of a pool of 24 trial point group operations.


The static configuration has the point symmetry C_3v.
 The point group associated with its full space group is D_3h.


Analysis of symmetry for dynamics (positions and initial velocities):
=====================================================================
 Subroutine PRICEL returns:
 Original cell was already a primitive cell.
 

 Routine SETGRP: Setting up the symmetry group for a 
 hexagonal supercell.


 Subroutine GETGRP returns: Found 12 space group operations
 (whereof  6 operations were pure point group operations)
 out of a pool of 24 trial point group operations.


The dynamic configuration has the point symmetry C_3v.
 The point group associated with its full space group is D_3h.


 Subroutine INISYM returns: Found 12 space group operations
 (whereof  6 operations are pure point group operations),
 and found     1 'primitive' translations

 
 
 KPOINTS: HEX (hexagonal) G-M-K-G-A-L-H-A L-M K-H 
  interpolating k-points between supplied coordinates
  k-points in reciprocal lattice
Space group operators:
 irot       det(A)        alpha          n_x          n_y          n_z        tau_x        tau_y        tau_z
    1     1.000000     0.000000     1.000000     0.000000     0.000000     0.000000     0.000000     0.000000
    2     1.000000   120.000000     0.000000     0.000000    -1.000000     0.000000     0.000000     0.000000
    3     1.000000   120.000000     0.000000     0.000000     1.000000     0.000000     0.000000     0.000000
    4    -1.000000   180.000000     1.000000    -0.000000     0.000000     0.000000     0.000000     0.000000
    5    -1.000000   180.000000     0.500000    -0.866025     0.000000     0.000000     0.000000     0.000000
    6    -1.000000   180.000000    -0.500000    -0.866025     0.000000     0.000000     0.000000     0.000000
    7    -1.000000    60.000000     0.000000     0.000000    -1.000000     0.000000     0.000000     0.240924
    8    -1.000000   180.000000     0.000000     0.000000     1.000000     0.000000     0.000000     0.240924
    9    -1.000000    60.000000     0.000000     0.000000     1.000000     0.000000     0.000001     0.240924
   10     1.000000   180.000000     0.866025    -0.500000     0.000000     0.000000     0.000000     0.240924
   11     1.000000   180.000000     0.000000     1.000000     0.000000     0.000000     0.000000     0.240924
   12     1.000000   180.000000     0.866025     0.500000     0.000000     0.000000     0.000001     0.240924


--------------------------------------------------------------------------------------------------------




 Dimension of arrays:
   k-points           NKPTS =     60   k-points in BZ     NKDIM =     60   number of bands    NBANDS=     14
   number of dos      NEDOS =   2401   number of ions     NIONS =      3
   non local maximal  LDIM  =      6   non local SUM 2l+1 LMDIM =     18
   total plane-waves  NPLWV = 124416
   max r-space proj   IRMAX =      1   max aug-charges    IRDMAX=  29634
   dimension x,y,z NGX =    24 NGY =   24 NGZ =  216
   dimension x,y,z NGXF=    48 NGYF=   48 NGZF=  432
   support grid    NGXF=    48 NGYF=   48 NGZF=  432
   ions per type =               1   2
   NGX,Y,Z   is equivalent  to a cutoff of  12.51, 12.51, 11.66 a.u.
   NGXF,Y,Z  is equivalent  to a cutoff of  25.02, 25.02, 23.32 a.u.

 SYSTEM =  unknown system                          
 POSCAR =  MoS2_mp-2815_computed                   

 Startparameter for this run:
   NWRITE =      2    write-flag & timer
   PREC   = accura    normal or accurate (medium, high low for compatibility)
   ISTART =      0    job   : 0-new  1-cont  2-samecut
   ICHARG =     11    charge: 1-file 2-atom 10-const
   ISPIN  =      1    spin polarized calculation?
   LNONCOLLINEAR =      F non collinear calculations
   LSORBIT =      F    spin-orbit coupling
   INIWAV =      1    electr: 0-lowe 1-rand  2-diag
   LASPH  =      F    aspherical Exc in radial PAW
   METAGGA=      F    non-selfconsistent MetaGGA calc.

 Electronic Relaxation 1
   ENCUT  =  450.0 eV  33.07 Ry    5.75 a.u.   5.52  5.52 53.26*2*pi/ulx,y,z
   ENINI  =  450.0     initial cutoff
   ENAUG  =  345.3 eV  augmentation charge cutoff
   NELM   =     60;   NELMIN=  4; NELMDL=  0     # of ELM steps 
   EDIFF  = 0.1E-05   stopping-criterion for ELM
   LREAL  =      F    real-space projection
   NLSPLINE    = F    spline interpolate recip. space projectors
   LCOMPAT=      F    compatible to vasp.4.4
   GGA_COMPAT  = T    GGA compatible to vasp.4.4-vasp.4.6
   LMAXPAW     = -100 max onsite density
   LMAXMIX     =    2 max onsite mixed and CHGCAR
   VOSKOWN=      0    Vosko Wilk Nusair interpolation
   ROPT   =    0.00000   0.00000
 Ionic relaxation
   EDIFFG = 0.1E-04   stopping-criterion for IOM
   NSW    =      0    number of steps for IOM
   NBLOCK =      1;   KBLOCK =      1    inner block; outer block 
   IBRION =     -1    ionic relax: 0-MD 1-quasi-New 2-CG
   NFREE  =      0    steps in history (QN), initial steepest desc. (CG)
   ISIF   =      2    stress and relaxation
   IWAVPR =     10    prediction:  0-non 1-charg 2-wave 3-comb
   ISYM   =      2    0-nonsym 1-usesym 2-fastsym
   LCORR  =      T    Harris-Foulkes like correction to forces

   POTIM  = 0.5000    time-step for ionic-motion
   TEIN   =    0.0    initial temperature
   TEBEG  =    0.0;   TEEND  =   0.0 temperature during run
   SMASS  =  -3.00    Nose mass-parameter (am)
   estimated Nose-frequenzy (Omega)   =  0.10E-29 period in steps =****** mass=  -0.233E-27a.u.
   SCALEE = 1.0000    scale energy and forces
   NPACO  =    256;   APACO  = 16.0  distance and # of slots for P.C.
   PSTRESS=    0.0 pullay stress

  Mass of Ions in am
   POMASS =  95.94 32.07
  Ionic Valenz
   ZVAL   =   6.00  6.00
  Atomic Wigner-Seitz radii
   RWIGS  =  -1.00 -1.00
  virtual crystal weights 
   VCA    =   1.00  1.00
   NELECT =      18.0000    total number of electrons
   NUPDOWN=      -1.0000    fix difference up-down

 DOS related values:
   EMIN   = -12.00;   EMAX   = 12.00  energy-range for DOS
   EFERMI =   0.00
   ISMEAR =     0;   SIGMA  =   0.20  broadening in eV -4-tet -1-fermi 0-gaus

 Electronic relaxation 2 (details)
   IALGO  =     68    algorithm
   LDIAG  =      T    sub-space diagonalisation (order eigenvalues)
   LSUBROT=      F    optimize rotation matrix (better conditioning)
   TURBO    =      0    0=normal 1=particle mesh
   IRESTART =      0    0=no restart 2=restart with 2 vectors
   NREBOOT  =      0    no. of reboots
   NMIN     =      0    reboot dimension
   EREF     =   0.00    reference energy to select bands
   IMIX   =      4    mixing-type and parameters
     AMIX     =   0.40;   BMIX     =  1.00
     AMIX_MAG =   1.60;   BMIX_MAG =  1.00
     AMIN     =   0.10
     WC   =   100.;   INIMIX=   1;  MIXPRE=   1;  MAXMIX= -45

 Intra band minimization:
   WEIMIN = 0.0000     energy-eigenvalue tresh-hold
   EBREAK =  0.18E-07  absolut break condition
   DEPER  =   0.30     relativ break condition  

   TIME   =   0.40     timestep for ELM

  volume/ion in A,a.u.               =      90.45       610.40
  Fermi-wavevector in a.u.,A,eV,Ry     =   0.662704  1.252328  5.975355  0.439176
  Thomas-Fermi vector in A             =   1.735856
 
 Write flags
   LWAVE        =      F    write WAVECAR
   LDOWNSAMPLE  =      F    k-point downsampling of WAVECAR
   LCHARG       =      T    write CHGCAR
   LVTOT        =      F    write LOCPOT, total local potential
   LVHAR        =      F    write LOCPOT, Hartree potential only
   LELF         =      T    write electronic localiz. function (ELF)
   LORBIT       =     11    0 simple, 1 ext, 2 COOP (PROOUT), +10 PAW based schemes


 Dipole corrections
   LMONO  =      F    monopole corrections only (constant potential shift)
   LDIPOL =      F    correct potential (dipole corrections)
   IDIPOL =      0    1-x, 2-y, 3-z, 4-all directions 
   EPSILON=  1.0000000 bulk dielectric constant

 Exchange correlation treatment:
   GGA     =    --    GGA type
   LEXCH   =     8    internal setting for exchange type
   VOSKOWN=      0    Vosko Wilk Nusair interpolation
   LHFCALC =     F    Hartree Fock is set to
   LHFONE  =     F    Hartree Fock one center treatment
   AEXX    =    0.0000 exact exchange contribution

 Linear response parameters
   LEPSILON=     F    determine dielectric tensor
   LRPA    =     F    only Hartree local field effects (RPA)
   LNABLA  =     F    use nabla operator in PAW spheres
   LVEL    =     F    velocity operator in full k-point grid
   LINTERFAST=   F  fast interpolation
   KINTER  =     0    interpolate to denser k-point grid
   CSHIFT  =0.1000    complex shift for real part using Kramers Kronig
   OMEGAMAX=  -1.0    maximum frequency
   DEG_THRESHOLD= 0.2000000E-02 threshold for treating states as degnerate
   RTIME   =   -0.100 relaxation time in fs
  (WPLASMAI=    0.000 imaginary part of plasma frequency in eV, 0.658/RTIME)
   DFIELD  = 0.0000000 0.0000000 0.0000000 field for delta impulse in time
 
 Orbital magnetization related:
   ORBITALMAG=     F  switch on orbital magnetization
   LCHIMAG   =     F  perturbation theory with respect to B field
   DQ        =  0.001000  dq finite difference perturbation B field
   LLRAUG    =     F  two centre corrections for induced B field



--------------------------------------------------------------------------------------------------------


 Static calculation
 charge density and potential remain constant during run
 non-spin polarized calculation
 RMM-DIIS sequential band-by-band and
  variant of blocked Davidson during initial phase
 perform sub-space diagonalisation
    before iterative eigenvector-optimisation
 no mixing
 using additional bands            5
 reciprocal scheme for non local part
 use partial core corrections
 calculate Harris-corrections to forces 
   (improved forces if not selfconsistent)
 use gradient corrections 
 WARNING: stress and forces are not correct
  (second derivative of E(xc) not defined)
 use of overlap-Matrix (Vanderbilt PP)
 Gauss-broadening in eV      SIGMA  =   0.20


--------------------------------------------------------------------------------------------------------


  energy-cutoff  :      450.00
  volume of cell :      271.36
      direct lattice vectors                 reciprocal lattice vectors
     3.189856830  0.000000000  0.000000000     0.313493694  0.180995668  0.000000000
    -1.594928415  2.762497050  0.000000000     0.000000000  0.361991337  0.000000000
     0.000000000  0.000000000 30.793978868     0.000000000  0.000000000  0.032473881

  length of vectors
     3.189856830  3.189856830 30.793978868     0.361991337  0.361991337  0.032473881


 
 k-points in units of 2pi/SCALE and weight: HEX (hexagonal) G-M-K-G-A-L-H-A L-M K-H 
   0.00000000  0.00000000  0.00000000       0.017
   0.00824983  0.00476304  0.00000000       0.017
   0.01649967  0.00952609  0.00000000       0.017
   0.02474950  0.01428913  0.00000000       0.017
   0.03299934  0.01905218  0.00000000       0.017
   0.04124917  0.02381522  0.00000000       0.017
   0.04949900  0.02857826  0.00000000       0.017
   0.05774884  0.03334131  0.00000000       0.017
   0.06599867  0.03810435  0.00000000       0.017
   0.07424851  0.04286740  0.00000000       0.017
   0.08249834  0.04763044  0.00000000       0.017
   0.09074817  0.05239348  0.00000000       0.017
   0.09899801  0.05715653  0.00000000       0.017
   0.10724784  0.06191957  0.00000000       0.017
   0.11549768  0.06668261  0.00000000       0.017
   0.12374751  0.07144566  0.00000000       0.017
   0.13199734  0.07620870  0.00000000       0.017
   0.14024718  0.08097175  0.00000000       0.017
   0.14849701  0.08573479  0.00000000       0.017
   0.15674685  0.09049783  0.00000000       0.017
   0.15674685  0.09049783  0.00000000       0.017
   0.15399635  0.09525993  0.00000000       0.017
   0.15124586  0.10002202  0.00000000       0.017
   0.14849536  0.10478411  0.00000000       0.017
   0.14574487  0.10954620  0.00000000       0.017
   0.14299437  0.11430829  0.00000000       0.017
   0.14024388  0.11907038  0.00000000       0.017
   0.13749338  0.12383247  0.00000000       0.017
   0.13474289  0.12859456  0.00000000       0.017
   0.13199239  0.13335666  0.00000000       0.017
   0.12924190  0.13811875  0.00000000       0.017
   0.12649141  0.14288084  0.00000000       0.017
   0.12374091  0.14764293  0.00000000       0.017
   0.12099042  0.15240502  0.00000000       0.017
   0.11823992  0.15716711  0.00000000       0.017
   0.11548943  0.16192920  0.00000000       0.017
   0.11273893  0.16669129  0.00000000       0.017
   0.10998844  0.17145339  0.00000000       0.017
   0.10723794  0.17621548  0.00000000       0.017
   0.10448745  0.18097757  0.00000000       0.017
   0.10448745  0.18097757  0.00000000       0.017
   0.09898811  0.17145243  0.00000000       0.017
   0.09348877  0.16192730  0.00000000       0.017
   0.08798943  0.15240216  0.00000000       0.017
   0.08249009  0.14287703  0.00000000       0.017
   0.07699075  0.13335189  0.00000000       0.017
   0.07149141  0.12382676  0.00000000       0.017
   0.06599207  0.11430162  0.00000000       0.017
   0.06049273  0.10477649  0.00000000       0.017
   0.05499339  0.09525135  0.00000000       0.017
   0.04949405  0.08572622  0.00000000       0.017
   0.04399471  0.07620108  0.00000000       0.017
   0.03849538  0.06667595  0.00000000       0.017
   0.03299604  0.05715081  0.00000000       0.017
   0.02749670  0.04762568  0.00000000       0.017
   0.02199736  0.03810054  0.00000000       0.017
   0.01649802  0.02857541  0.00000000       0.017
   0.01099868  0.01905027  0.00000000       0.017
   0.00549934  0.00952514  0.00000000       0.017
   0.00000000  0.00000000  0.00000000       0.017
 
 k-points in reciprocal lattice and weights: HEX (hexagonal) G-M-K-G-A-L-H-A L-M K-H 
   0.00000000  0.00000000  0.00000000       0.017
   0.02631579  0.00000000  0.00000000       0.017
   0.05263158  0.00000000  0.00000000       0.017
   0.07894737  0.00000000  0.00000000       0.017
   0.10526316  0.00000000  0.00000000       0.017
   0.13157895  0.00000000  0.00000000       0.017
   0.15789474  0.00000000  0.00000000       0.017
   0.18421053  0.00000000  0.00000000       0.017
   0.21052632  0.00000000  0.00000000       0.017
   0.23684211  0.00000000  0.00000000       0.017
   0.26315789  0.00000000  0.00000000       0.017
   0.28947368  0.00000000  0.00000000       0.017
   0.31578947  0.00000000  0.00000000       0.017
   0.34210526  0.00000000  0.00000000       0.017
   0.36842105  0.00000000  0.00000000       0.017
   0.39473684  0.00000000  0.00000000       0.017
   0.42105263  0.00000000  0.00000000       0.017
   0.44736842  0.00000000  0.00000000       0.017
   0.47368421  0.00000000  0.00000000       0.017
   0.50000000  0.00000000  0.00000000       0.017
   0.50000000  0.00000000  0.00000000       0.017
   0.49122632  0.01754211  0.00000000       0.017
   0.48245263  0.03508421  0.00000000       0.017
   0.47367895  0.05262632  0.00000000       0.017
   0.46490526  0.07016842  0.00000000       0.017
   0.45613158  0.08771053  0.00000000       0.017
   0.44735789  0.10525263  0.00000000       0.017
   0.43858421  0.12279474  0.00000000       0.017
   0.42981053  0.14033684  0.00000000       0.017
   0.42103684  0.15787895  0.00000000       0.017
   0.41226316  0.17542105  0.00000000       0.017
   0.40348947  0.19296316  0.00000000       0.017
   0.39471579  0.21050526  0.00000000       0.017
   0.38594211  0.22804737  0.00000000       0.017
   0.37716842  0.24558947  0.00000000       0.017
   0.36839474  0.26313158  0.00000000       0.017
   0.35962105  0.28067368  0.00000000       0.017
   0.35084737  0.29821579  0.00000000       0.017
   0.34207368  0.31575789  0.00000000       0.017
   0.33330000  0.33330000  0.00000000       0.017
   0.33330000  0.33330000  0.00000000       0.017
   0.31575789  0.31575789  0.00000000       0.017
   0.29821579  0.29821579  0.00000000       0.017
   0.28067368  0.28067368  0.00000000       0.017
   0.26313158  0.26313158  0.00000000       0.017
   0.24558947  0.24558947  0.00000000       0.017
   0.22804737  0.22804737  0.00000000       0.017
   0.21050526  0.21050526  0.00000000       0.017
   0.19296316  0.19296316  0.00000000       0.017
   0.17542105  0.17542105  0.00000000       0.017
   0.15787895  0.15787895  0.00000000       0.017
   0.14033684  0.14033684  0.00000000       0.017
   0.12279474  0.12279474  0.00000000       0.017
   0.10525263  0.10525263  0.00000000       0.017
   0.08771053  0.08771053  0.00000000       0.017
   0.07016842  0.07016842  0.00000000       0.017
   0.05262632  0.05262632  0.00000000       0.017
   0.03508421  0.03508421  0.00000000       0.017
   0.01754211  0.01754211  0.00000000       0.017
   0.00000000  0.00000000  0.00000000       0.017
 
 position of ions in fractional coordinates (direct lattice) 
   0.33333300  0.66666700  0.12046214
   0.66666700  0.33333300  0.06984045
   0.66666600  0.33333300  0.17108384
 
 position of ions in cartesian coordinates  (Angst):
  -0.00000160  1.84166562  3.70950873
   1.59493001  0.92083143  2.15066543
   1.59492682  0.92083143  5.26835203
 


--------------------------------------------------------------------------------------------------------


 k-point  1 :   0.0000 0.0000 0.0000  plane waves:    5987
 k-point  2 :   0.0263 0.0000 0.0000  plane waves:    5993
 k-point  3 :   0.0526 0.0000 0.0000  plane waves:    5975
 k-point  4 :   0.0789 0.0000 0.0000  plane waves:    5965
 k-point  5 :   0.1053 0.0000 0.0000  plane waves:    5969
 k-point  6 :   0.1316 0.0000 0.0000  plane waves:    5971
 k-point  7 :   0.1579 0.0000 0.0000  plane waves:    5957
 k-point  8 :   0.1842 0.0000 0.0000  plane waves:    5939
 k-point  9 :   0.2105 0.0000 0.0000  plane waves:    5913
 k-point 10 :   0.2368 0.0000 0.0000  plane waves:    5892
 k-point 11 :   0.2632 0.0000 0.0000  plane waves:    5898
 k-point 12 :   0.2895 0.0000 0.0000  plane waves:    5892
 k-point 13 :   0.3158 0.0000 0.0000  plane waves:    5874
 k-point 14 :   0.3421 0.0000 0.0000  plane waves:    5874
 k-point 15 :   0.3684 0.0000 0.0000  plane waves:    5872
 k-point 16 :   0.3947 0.0000 0.0000  plane waves:    5866
 k-point 17 :   0.4211 0.0000 0.0000  plane waves:    5848
 k-point 18 :   0.4474 0.0000 0.0000  plane waves:    5820
 k-point 19 :   0.4737 0.0000 0.0000  plane waves:    5806
 k-point 20 :   0.5000 0.0000 0.0000  plane waves:    5812
 k-point 21 :   0.5000 0.0000 0.0000  plane waves:    5812
 k-point 22 :   0.4912 0.0175 0.0000  plane waves:    5802
 k-point 23 :   0.4825 0.0351 0.0000  plane waves:    5804
 k-point 24 :   0.4737 0.0526 0.0000  plane waves:    5822
 k-point 25 :   0.4649 0.0702 0.0000  plane waves:    5818
 k-point 26 :   0.4561 0.0877 0.0000  plane waves:    5830
 k-point 27 :   0.4474 0.1053 0.0000  plane waves:    5826
 k-point 28 :   0.4386 0.1228 0.0000  plane waves:    5826
 k-point 29 :   0.4298 0.1403 0.0000  plane waves:    5816
 k-point 30 :   0.4210 0.1579 0.0000  plane waves:    5836
 k-point 31 :   0.4123 0.1754 0.0000  plane waves:    5844
 k-point 32 :   0.4035 0.1930 0.0000  plane waves:    5848
 k-point 33 :   0.3947 0.2105 0.0000  plane waves:    5846
 k-point 34 :   0.3859 0.2280 0.0000  plane waves:    5848
 k-point 35 :   0.3772 0.2456 0.0000  plane waves:    5862
 k-point 36 :   0.3684 0.2631 0.0000  plane waves:    5862
 k-point 37 :   0.3596 0.2807 0.0000  plane waves:    5874
 k-point 38 :   0.3508 0.2982 0.0000  plane waves:    5876
 k-point 39 :   0.3421 0.3158 0.0000  plane waves:    5890
 k-point 40 :   0.3333 0.3333 0.0000  plane waves:    5880
 k-point 41 :   0.3333 0.3333 0.0000  plane waves:    5880
 k-point 42 :   0.3158 0.3158 0.0000  plane waves:    5882
 k-point 43 :   0.2982 0.2982 0.0000  plane waves:    5872
 k-point 44 :   0.2807 0.2807 0.0000  plane waves:    5870
 k-point 45 :   0.2631 0.2631 0.0000  plane waves:    5870
 k-point 46 :   0.2456 0.2456 0.0000  plane waves:    5862
 k-point 47 :   0.2280 0.2280 0.0000  plane waves:    5899
 k-point 48 :   0.2105 0.2105 0.0000  plane waves:    5887
 k-point 49 :   0.1930 0.1930 0.0000  plane waves:    5885
 k-point 50 :   0.1754 0.1754 0.0000  plane waves:    5879
 k-point 51 :   0.1579 0.1579 0.0000  plane waves:    5893
 k-point 52 :   0.1403 0.1403 0.0000  plane waves:    5909
 k-point 53 :   0.1228 0.1228 0.0000  plane waves:    5923
 k-point 54 :   0.1053 0.1053 0.0000  plane waves:    5939
 k-point 55 :   0.0877 0.0877 0.0000  plane waves:    5955
 k-point 56 :   0.0702 0.0702 0.0000  plane waves:    5967
 k-point 57 :   0.0526 0.0526 0.0000  plane waves:    5977
 k-point 58 :   0.0351 0.0351 0.0000  plane waves:    5987
 k-point 59 :   0.0175 0.0175 0.0000  plane waves:    5997
 k-point 60 :   0.0000 0.0000 0.0000  plane waves:    5987

 maximum and minimum number of plane-waves per node :      2999     2898

 maximum number of plane-waves:      5997
 maximum index in each direction: 
   IXMAX=    5   IYMAX=    5   IZMAX=   53
   IXMIN=   -6   IYMIN=   -5   IZMIN=  -53


 parallel 3D FFT for wavefunctions:
    minimum data exchange during FFTs selected (reduces bandwidth)
 parallel 3D FFT for charge:
    minimum data exchange during FFTs selected (reduces bandwidth)


 total amount of memory used by VASP MPI-rank0   128982. kBytes
=======================================================================

   base      :      30000. kBytes
   nonl-proj :      51949. kBytes
   fftplans  :      10208. kBytes
   grid      :      16473. kBytes
   one-center:         31. kBytes
   wavefun   :      20321. kBytes
 
     INWAV:  cpu time    0.0010: real time    0.0000
 initial charge density was supplied:
 number of electron      18.0000005 magnetization 
 keeping initial charge density in first step


--------------------------------------------------------------------------------------------------------


 Maximum index for augmentation-charges         7169 (set IRDMAX)


--------------------------------------------------------------------------------------------------------


 First call to EWALD:  gamma=   0.274
 Maximum number of real-space cells 6x 6x 1
 Maximum number of reciprocal cells 2x 2x11

    FEWALD:  cpu time    0.0010: real time    0.0015


--------------------------------------- Iteration      1(   1)  ---------------------------------------


    POTLOK:  cpu time    0.1550: real time    0.3963
    SETDIJ:  cpu time    0.0050: real time    0.0050
     EDDAV:  cpu time    3.2405: real time    3.2434
       DOS:  cpu time    0.0100: real time    0.0104
    --------------------------------------------
      LOOP:  cpu time    3.4105: real time    3.6551

 eigenvalue-minimisations  :  1680
 total energy-change (2. order) : 0.1305948E+03  (-0.5142399E+03)
 number of electron      18.0000005 magnetization 
 augmentation part       18.0000005 magnetization 

 Free energy of the ion-electron system (eV)
  ---------------------------------------------------
  alpha Z        PSCENC =        10.92610231
  Ewald energy   TEWEN  =      5354.53473861
  -Hartree energ DENC   =     -6041.41337492
  -exchange      EXHF   =         0.00000000
  -V(xc)+E(xc)   XCENC  =       -35.17112764
  PAW double counting   =       473.39069734     -397.59830514
  entropy T*S    EENTRO =        -0.03640884
  eigenvalues    EBANDS =        -5.19259064
  atomic energy  EATOM  =       771.15511399
  Solvation  Ediel_sol  =         0.00000000
  ---------------------------------------------------
  free energy    TOTEN  =       130.59484507 eV

  energy without entropy =      130.63125391  energy(sigma->0) =      130.61304949


--------------------------------------------------------------------------------------------------------




--------------------------------------- Iteration      1(   2)  ---------------------------------------


     EDDAV:  cpu time    4.9322: real time    4.9357
       DOS:  cpu time    0.0100: real time    0.0099
    --------------------------------------------
      LOOP:  cpu time    4.9422: real time    4.9456

 eigenvalue-minimisations  :  2942
 total energy-change (2. order) :-0.1358364E+03  (-0.1251226E+03)
 number of electron      18.0000005 magnetization 
 augmentation part       18.0000005 magnetization 

 Free energy of the ion-electron system (eV)
  ---------------------------------------------------
  alpha Z        PSCENC =        10.92610231
  Ewald energy   TEWEN  =      5354.53473861
  -Hartree energ DENC   =     -6041.41337492
  -exchange      EXHF   =         0.00000000
  -V(xc)+E(xc)   XCENC  =       -35.17112764
  PAW double counting   =       473.39069734     -397.59830514
  entropy T*S    EENTRO =        -0.00001950
  eigenvalues    EBANDS =      -141.06540828
  atomic energy  EATOM  =       771.15511399
  Solvation  Ediel_sol  =         0.00000000
  ---------------------------------------------------
  free energy    TOTEN  =        -5.24158323 eV

  energy without entropy =       -5.24156373  energy(sigma->0) =       -5.24157348


--------------------------------------------------------------------------------------------------------




--------------------------------------- Iteration      1(   3)  ---------------------------------------


     EDDAV:  cpu time    4.0584: real time    4.0608
       DOS:  cpu time    0.0100: real time    0.0100
    --------------------------------------------
      LOOP:  cpu time    4.0684: real time    4.0708

 eigenvalue-minimisations  :  2292
 total energy-change (2. order) :-0.1591372E+02  (-0.1573352E+02)
 number of electron      18.0000005 magnetization 
 augmentation part       18.0000005 magnetization 

 Free energy of the ion-electron system (eV)
  ---------------------------------------------------
  alpha Z        PSCENC =        10.92610231
  Ewald energy   TEWEN  =      5354.53473861
  -Hartree energ DENC   =     -6041.41337492
  -exchange      EXHF   =         0.00000000
  -V(xc)+E(xc)   XCENC  =       -35.17112764
  PAW double counting   =       473.39069734     -397.59830514
  entropy T*S    EENTRO =        -0.00000000
  eigenvalues    EBANDS =      -156.97914976
  atomic energy  EATOM  =       771.15511399
  Solvation  Ediel_sol  =         0.00000000
  ---------------------------------------------------
  free energy    TOTEN  =       -21.15530521 eV

  energy without entropy =      -21.15530520  energy(sigma->0) =      -21.15530521


--------------------------------------------------------------------------------------------------------




--------------------------------------- Iteration      1(   4)  ---------------------------------------


     EDDAV:  cpu time    3.8294: real time    3.8315
       DOS:  cpu time    0.0110: real time    0.0099
    --------------------------------------------
      LOOP:  cpu time    3.8404: real time    3.8414

 eigenvalue-minimisations  :  2106
 total energy-change (2. order) :-0.3173710E+00  (-0.3144165E+00)
 number of electron      18.0000005 magnetization 
 augmentation part       18.0000005 magnetization 

 Free energy of the ion-electron system (eV)
  ---------------------------------------------------
  alpha Z        PSCENC =        10.92610231
  Ewald energy   TEWEN  =      5354.53473861
  -Hartree energ DENC   =     -6041.41337492
  -exchange      EXHF   =         0.00000000
  -V(xc)+E(xc)   XCENC  =       -35.17112764
  PAW double counting   =       473.39069734     -397.59830514
  entropy T*S    EENTRO =        -0.00000000
  eigenvalues    EBANDS =      -157.29652080
  atomic energy  EATOM  =       771.15511399
  Solvation  Ediel_sol  =         0.00000000
  ---------------------------------------------------
  free energy    TOTEN  =       -21.47267625 eV

  energy without entropy =      -21.47267624  energy(sigma->0) =      -21.47267624


--------------------------------------------------------------------------------------------------------




--------------------------------------- Iteration      1(   5)  ---------------------------------------


     EDDAV:  cpu time    3.9644: real time    3.9657
       DOS:  cpu time    0.0100: real time    0.0099
    --------------------------------------------
      LOOP:  cpu time    3.9744: real time    3.9756

 eigenvalue-minimisations  :  2190
 total energy-change (2. order) :-0.8343560E-02  (-0.8334458E-02)
 number of electron      18.0000005 magnetization 
 augmentation part       18.0000005 magnetization 

 Free energy of the ion-electron system (eV)
  ---------------------------------------------------
  alpha Z        PSCENC =        10.92610231
  Ewald energy   TEWEN  =      5354.53473861
  -Hartree energ DENC   =     -6041.41337492
  -exchange      EXHF   =         0.00000000
  -V(xc)+E(xc)   XCENC  =       -35.17112764
  PAW double counting   =       473.39069734     -397.59830514
  entropy T*S    EENTRO =        -0.00000000
  eigenvalues    EBANDS =      -157.30486436
  atomic energy  EATOM  =       771.15511399
  Solvation  Ediel_sol  =         0.00000000
  ---------------------------------------------------
  free energy    TOTEN  =       -21.48101981 eV

  energy without entropy =      -21.48101980  energy(sigma->0) =      -21.48101981


--------------------------------------------------------------------------------------------------------




--------------------------------------- Iteration      1(   6)  ---------------------------------------


    EDDIAG:  cpu time    0.6999: real time    0.7025
  RMM-DIIS:  cpu time    2.9665: real time    2.9662
    ORTHCH:  cpu time    0.0300: real time    0.0301
       DOS:  cpu time    0.0100: real time    0.0099
    --------------------------------------------
      LOOP:  cpu time    3.7064: real time    3.7087

 eigenvalue-minimisations  :  1728
 total energy-change (2. order) :-0.2621289E-03  (-0.2621289E-03)
 number of electron      18.0000005 magnetization 
 augmentation part       18.0000005 magnetization 

 Free energy of the ion-electron system (eV)
  ---------------------------------------------------
  alpha Z        PSCENC =        10.92610231
  Ewald energy   TEWEN  =      5354.53473861
  -Hartree energ DENC   =     -6041.41337492
  -exchange      EXHF   =         0.00000000
  -V(xc)+E(xc)   XCENC  =       -35.17112764
  PAW double counting   =       473.39069734     -397.59830514
  entropy T*S    EENTRO =        -0.00000000
  eigenvalues    EBANDS =      -157.30512649
  atomic energy  EATOM  =       771.15511399
  Solvation  Ediel_sol  =         0.00000000
  ---------------------------------------------------
  free energy    TOTEN  =       -21.48128193 eV

  energy without entropy =      -21.48128193  energy(sigma->0) =      -21.48128193


--------------------------------------------------------------------------------------------------------




--------------------------------------- Iteration      1(   7)  ---------------------------------------


    EDDIAG:  cpu time    0.6889: real time    0.6909
  RMM-DIIS:  cpu time    4.0824: real time    4.0843
    ORTHCH:  cpu time    0.0300: real time    0.0301
       DOS:  cpu time    0.0100: real time    0.0099
    --------------------------------------------
      LOOP:  cpu time    4.8113: real time    4.8152

 eigenvalue-minimisations  :  2404
 total energy-change (2. order) :-0.2925688E-04  (-0.2933213E-04)
 number of electron      18.0000005 magnetization 
 augmentation part       18.0000005 magnetization 

 Free energy of the ion-electron system (eV)
  ---------------------------------------------------
  alpha Z        PSCENC =        10.92610231
  Ewald energy   TEWEN  =      5354.53473861
  -Hartree energ DENC   =     -6041.41337492
  -exchange      EXHF   =         0.00000000
  -V(xc)+E(xc)   XCENC  =       -35.17112764
  PAW double counting   =       473.39069734     -397.59830514
  entropy T*S    EENTRO =        -0.00000000
  eigenvalues    EBANDS =      -157.30515575
  atomic energy  EATOM  =       771.15511399
  Solvation  Ediel_sol  =         0.00000000
  ---------------------------------------------------
  free energy    TOTEN  =       -21.48131119 eV

  energy without entropy =      -21.48131119  energy(sigma->0) =      -21.48131119


--------------------------------------------------------------------------------------------------------




--------------------------------------- Iteration      1(   8)  ---------------------------------------


    EDDIAG:  cpu time    0.6929: real time    0.6948
  RMM-DIIS:  cpu time    2.4966: real time    2.4951
    ORTHCH:  cpu time    0.0290: real time    0.0300
       DOS:  cpu time    0.0110: real time    0.0099
    --------------------------------------------
      LOOP:  cpu time    3.2295: real time    3.2299

 eigenvalue-minimisations  :  1296
 total energy-change (2. order) : 0.3267751E-06  (-0.6448493E-07)
 number of electron      18.0000005 magnetization 
 augmentation part       18.0000005 magnetization 

 Free energy of the ion-electron system (eV)
  ---------------------------------------------------
  alpha Z        PSCENC =        10.92610231
  Ewald energy   TEWEN  =      5354.53473861
  -Hartree energ DENC   =     -6041.41337492
  -exchange      EXHF   =         0.00000000
  -V(xc)+E(xc)   XCENC  =       -35.17112764
  PAW double counting   =       473.39069734     -397.59830514
  entropy T*S    EENTRO =        -0.00000000
  eigenvalues    EBANDS =      -157.30515542
  atomic energy  EATOM  =       771.15511399
  Solvation  Ediel_sol  =         0.00000000
  ---------------------------------------------------
  free energy    TOTEN  =       -21.48131086 eV

  energy without entropy =      -21.48131086  energy(sigma->0) =      -21.48131086


--------------------------------------------------------------------------------------------------------




 average (electrostatic) potential at core
  the test charge radii are     1.2296  0.9698
  (the norm of the test charge is              1.0000)
       1 -47.1875       2 -95.0369       3 -95.0352
 
 
 
 E-fermi :  -2.9300     XC(G=0):  -2.4770     alpha+bet : -2.3288


 k-point     1 :       0.0000    0.0000    0.0000
  band No.  band energies     occupation 
      1     -17.8050      2.00000
      2     -16.5767      2.00000
      3      -9.3242      2.00000
      4      -6.3789      2.00000
      5      -6.3789      2.00000
      6      -5.4671      2.00000
      7      -5.2586      2.00000
      8      -5.2586      2.00000
      9      -3.7476      2.00000
     10      -0.9813      0.00000
     11      -0.9813      0.00000
     12      -0.7462      0.00000
     13      -0.7462      0.00000
     14       1.6738      0.00000

 k-point     2 :       0.0263    0.0000    0.0000
  band No.  band energies     occupation 
      1     -17.7952      2.00000
      2     -16.5721      2.00000
      3      -9.3125      2.00000
      4      -6.4024      2.00000
      5      -6.3680      2.00000
      6      -5.5735      2.00000
      7      -5.2757      2.00000
      8      -5.1666      2.00000
      9      -3.7523      2.00000
     10      -0.9990      0.00000
     11      -0.9628      0.00000
     12      -0.7780      0.00000
     13      -0.7583      0.00000
     14       1.6889      0.00000

 k-point     3 :       0.0526    0.0000    0.0000
  band No.  band energies     occupation 
      1     -17.7661      2.00000
      2     -16.5583      2.00000
      3      -9.2780      2.00000
      4      -6.4709      2.00000
      5      -6.3358      2.00000
      6      -5.7517      2.00000
      7      -5.3257      2.00000
      8      -5.0329      2.00000
      9      -3.7673      2.00000
     10      -1.0465      0.00000
     11      -0.9088      0.00000
     12      -0.8668      0.00000
     13      -0.7937      0.00000
     14       1.7515      0.00000

 k-point     4 :       0.0789    0.0000    0.0000
  band No.  band energies     occupation 
      1     -17.7180      2.00000
      2     -16.5356      2.00000
      3      -9.2220      2.00000
      4      -6.5791      2.00000
      5      -6.2827      2.00000
      6      -5.9448      2.00000
      7      -5.4045      2.00000
      8      -4.9183      2.00000
      9      -3.7955      2.00000
     10      -1.1087      0.00000
     11      -0.9948      0.00000
     12      -0.8497      0.00000
     13      -0.8242      0.00000
     14       1.8362      0.00000

 k-point     5 :       0.1053    0.0000    0.0000
  band No.  band energies     occupation 
      1     -17.6516      2.00000
      2     -16.5042      2.00000
      3      -9.1471      2.00000
      4      -6.7191      2.00000
      5      -6.2100      2.00000
      6      -6.1445      2.00000
      7      -5.5067      2.00000
      8      -4.8366      2.00000
      9      -3.8412      2.00000
     10      -1.1656      0.00000
     11      -1.1410      0.00000
     12      -0.9225      0.00000
     13      -0.7153      0.00000
     14       2.0014      0.00000

 k-point     6 :       0.1316    0.0000    0.0000
  band No.  band energies     occupation 
      1     -17.5680      2.00000
      2     -16.4648      2.00000
      3      -9.0573      2.00000
      4      -6.8811      2.00000
      5      -6.3481      2.00000
      6      -6.1191      2.00000
      7      -5.6261      2.00000
      8      -4.7949      2.00000
      9      -3.9091      2.00000
     10      -1.2848      0.00000
     11      -1.1982      0.00000
     12      -1.0073      0.00000
     13      -0.5897      0.00000
     14       2.0804      0.00000

 k-point     7 :       0.1579    0.0000    0.0000
  band No.  band energies     occupation 
      1     -17.4684      2.00000
      2     -16.4180      2.00000
      3      -8.9588      2.00000
      4      -7.0541      2.00000
      5      -6.5542      2.00000
      6      -6.0121      2.00000
      7      -5.7566      2.00000
      8      -4.7958      2.00000
      9      -4.0023      2.00000
     10      -1.4091      0.00000
     11      -1.1929      0.00000
     12      -1.0991      0.00000
     13      -0.4548      0.00000
     14       2.2205      0.00000

 k-point     8 :       0.1842    0.0000    0.0000
  band No.  band energies     occupation 
      1     -17.3546      2.00000
      2     -16.3646      2.00000
      3      -8.8612      2.00000
      4      -7.2257      2.00000
      5      -6.7620      2.00000
      6      -5.8931      2.00000
      7      -5.8915      2.00000
      8      -4.8356      2.00000
      9      -4.1203      2.00000
     10      -1.5021      0.00000
     11      -1.1927      0.00000
     12      -1.1441      0.00000
     13      -0.3172      0.00000
     14       2.4048      0.00000

 k-point     9 :       0.2105    0.0000    0.0000
  band No.  band energies     occupation 
      1     -17.2283      2.00000
      2     -16.3056      2.00000
      3      -8.7782      2.00000
      4      -7.3817      2.00000
      5      -6.9704      2.00000
      6      -6.0306      2.00000
      7      -5.7606      2.00000
      8      -4.9059      2.00000
      9      -4.2564      2.00000
     10      -1.5585      0.00000
     11      -1.2837      0.00000
     12      -1.0540      0.00000
     13      -0.1826      0.00000
     14       2.5571      0.00000

 k-point    10 :       0.2368    0.0000    0.0000
  band No.  band energies     occupation 
      1     -17.0921      2.00000
      2     -16.2423      2.00000
      3      -8.7282      2.00000
      4      -7.5060      2.00000
      5      -7.1782      2.00000
      6      -6.1656      2.00000
      7      -5.6227      2.00000
      8      -4.9957      2.00000
      9      -4.3985      2.00000
     10      -1.5787      0.00000
     11      -1.3678      0.00000
     12      -0.9303      0.00000
     13      -0.0556      0.00000
     14       2.7488      0.00000

 k-point    11 :       0.2632    0.0000    0.0000
  band No.  band energies     occupation 
      1     -16.9488      2.00000
      2     -16.1762      2.00000
      3      -8.7287      2.00000
      4      -7.5860      2.00000
      5      -7.3832      2.00000
      6      -6.2947      2.00000
      7      -5.4820      2.00000
      8      -5.0942      2.00000
      9      -4.5304      2.00000
     10      -1.5674      0.00000
     11      -1.4415      0.00000
     12      -0.7832      0.00000
     13       0.0608      0.00000
     14       2.9528      0.00000

 k-point    12 :       0.2895    0.0000    0.0000
  band No.  band energies     occupation 
      1     -16.8017      2.00000
      2     -16.1088      2.00000
      3      -8.7842      2.00000
      4      -7.6237      2.00000
      5      -7.5827      2.00000
      6      -6.4156      2.00000
      7      -5.3430      2.00000
      8      -5.1927      2.00000
      9      -4.6349      2.00000
     10      -1.5308      0.00000
     11      -1.5022      0.00000
     12      -0.6236      0.00000
     13       0.1644      0.00000
     14       3.1596      0.00000

 k-point    13 :       0.3158    0.0000    0.0000
  band No.  band energies     occupation 
      1     -16.6545      2.00000
      2     -16.0421      2.00000
      3      -8.8815      2.00000
      4      -7.7730      2.00000
      5      -7.6378      2.00000
      6      -6.5262      2.00000
      7      -5.2847      2.00000
      8      -5.2100      2.00000
      9      -4.6980      2.00000
     10      -1.5480      0.00000
     11      -1.4754      0.00000
     12      -0.4616      0.00000
     13       0.2541      0.00000
     14       3.3608      0.00000

 k-point    14 :       0.3421    0.0000    0.0000
  band No.  band energies     occupation 
      1     -16.5115      2.00000
      2     -15.9780      2.00000
      3      -9.0006      2.00000
      4      -7.9501      2.00000
      5      -7.6502      2.00000
      6      -6.6247      2.00000
      7      -5.3664      2.00000
      8      -5.0874      2.00000
      9      -4.7125      2.00000
     10      -1.5785      0.00000
     11      -1.4072      0.00000
     12      -0.3067      0.00000
     13       0.3298      0.00000
     14       3.5188      0.00000

 k-point    15 :       0.3684    0.0000    0.0000
  band No.  band energies     occupation 
      1     -16.3777      2.00000
      2     -15.9186      2.00000
      3      -9.1243      2.00000
      4      -8.1096      2.00000
      5      -7.6728      2.00000
      6      -6.7100      2.00000
      7      -5.4359      2.00000
      8      -4.9790      2.00000
      9      -4.6808      2.00000
     10      -1.5948      0.00000
     11      -1.3317      0.00000
     12      -0.1669      0.00000
     13       0.3918      0.00000
     14       3.4423      0.00000

 k-point    16 :       0.3947    0.0000    0.0000
  band No.  band energies     occupation 
      1     -16.2580      2.00000
      2     -15.8662      2.00000
      3      -9.2404      2.00000
      4      -8.2473      2.00000
      5      -7.7062      2.00000
      6      -6.7811      2.00000
      7      -5.4922      2.00000
      8      -4.8877      2.00000
      9      -4.6152      2.00000
     10      -1.5994      0.00000
     11      -1.2544      0.00000
     12      -0.0483      0.00000
     13       0.4408      0.00000
     14       3.1653      0.00000

 k-point    17 :       0.4211    0.0000    0.0000
  band No.  band energies     occupation 
      1     -16.1578      2.00000
      2     -15.8228      2.00000
      3      -9.3399      2.00000
      4      -8.3590      2.00000
      5      -7.7442      2.00000
      6      -6.8371      2.00000
      7      -5.5354      2.00000
      8      -4.8157      2.00000
      9      -4.5341      2.00000
     10      -1.5960      0.00000
     11      -1.1813      0.00000
     12       0.0452      0.00000
     13       0.4777      0.00000
     14       2.8755      0.00000

 k-point    18 :       0.4474    0.0000    0.0000
  band No.  band energies     occupation 
      1     -16.0820      2.00000
      2     -15.7903      2.00000
      3      -9.4162      2.00000
      4      -8.4415      2.00000
      5      -7.7786      2.00000
      6      -6.8775      2.00000
      7      -5.5657      2.00000
      8      -4.7639      2.00000
      9      -4.4576      2.00000
     10      -1.5890      0.00000
     11      -1.1196      0.00000
     12       0.1118      0.00000
     13       0.5033      0.00000
     14       2.6378      0.00000

 k-point    19 :       0.4737    0.0000    0.0000
  band No.  band energies     occupation 
      1     -16.0346      2.00000
      2     -15.7701      2.00000
      3      -9.4640      2.00000
      4      -8.4921      2.00000
      5      -7.8022      2.00000
      6      -6.9019      2.00000
      7      -5.5837      2.00000
      8      -4.7328      2.00000
      9      -4.4035      2.00000
     10      -1.5828      0.00000
     11      -1.0776      0.00000
     12       0.1514      0.00000
     13       0.5184      0.00000
     14       2.4823      0.00000

 k-point    20 :       0.5000    0.0000    0.0000
  band No.  band energies     occupation 
      1     -16.0185      2.00000
      2     -15.7633      2.00000
      3      -9.4804      2.00000
      4      -8.5091      2.00000
      5      -7.8106      2.00000
      6      -6.9100      2.00000
      7      -5.5897      2.00000
      8      -4.7225      2.00000
      9      -4.3840      2.00000
     10      -1.5803      0.00000
     11      -1.0626      0.00000
     12       0.1645      0.00000
     13       0.5234      0.00000
     14       2.4281      0.00000

 k-point    21 :       0.5000    0.0000    0.0000
  band No.  band energies     occupation 
      1     -16.0185      2.00000
      2     -15.7633      2.00000
      3      -9.4804      2.00000
      4      -8.5091      2.00000
      5      -7.8106      2.00000
      6      -6.9100      2.00000
      7      -5.5897      2.00000
      8      -4.7225      2.00000
      9      -4.3840      2.00000
     10      -1.5803      0.00000
     11      -1.0626      0.00000
     12       0.1645      0.00000
     13       0.5234      0.00000
     14       2.4281      0.00000

 k-point    22 :       0.4912    0.0175    0.0000
  band No.  band energies     occupation 
      1     -16.0171      2.00000
      2     -15.7623      2.00000
      3      -9.4759      2.00000
      4      -8.5127      2.00000
      5      -7.8090      2.00000
      6      -6.9108      2.00000
      7      -5.5888      2.00000
      8      -4.7567      2.00000
      9      -4.3655      2.00000
     10      -1.5782      0.00000
     11      -1.0612      0.00000
     12       0.1701      0.00000
     13       0.5096      0.00000
     14       2.4338      0.00000

 k-point    23 :       0.4825    0.0351    0.0000
  band No.  band energies     occupation 
      1     -16.0128      2.00000
      2     -15.7594      2.00000
      3      -9.4624      2.00000
      4      -8.5234      2.00000
      5      -7.8044      2.00000
      6      -6.9127      2.00000
      7      -5.5863      2.00000
      8      -4.8439      2.00000
      9      -4.3248      2.00000
     10      -1.5727      0.00000
     11      -1.0565      0.00000
     12       0.1863      0.00000
     13       0.4703      0.00000
     14       2.4507      0.00000

 k-point    24 :       0.4737    0.0526    0.0000
  band No.  band energies     occupation 
      1     -16.0058      2.00000
      2     -15.7546      2.00000
      3      -9.4401      2.00000
      4      -8.5411      2.00000
      5      -7.7968      2.00000
      6      -6.9152      2.00000
      7      -5.5829      2.00000
      8      -4.9635      2.00000
      9      -4.2803      2.00000
     10      -1.5657      0.00000
     11      -1.0471      0.00000
     12       0.2096      0.00000
     13       0.4123      0.00000
     14       2.4780      0.00000

 k-point    25 :       0.4649    0.0702    0.0000
  band No.  band energies     occupation 
      1     -15.9962      2.00000
      2     -15.7480      2.00000
      3      -9.4089      2.00000
      4      -8.5656      2.00000
      5      -7.7865      2.00000
      6      -6.9172      2.00000
      7      -5.5795      2.00000
      8      -5.1052      2.00000
      9      -4.2395      2.00000
     10      -1.5604      0.00000
     11      -1.0312      0.00000
     12       0.2234      0.00000
     13       0.3564      0.00000
     14       2.5146      0.00000

 k-point    26 :       0.4561    0.0877    0.0000
  band No.  band energies     occupation 
      1     -15.9841      2.00000
      2     -15.7397      2.00000
      3      -9.3693      2.00000
      4      -8.5966      2.00000
      5      -7.7738      2.00000
      6      -6.9175      2.00000
      7      -5.5773      2.00000
      8      -5.2636      2.00000
      9      -4.2036      2.00000
     10      -1.5604      0.00000
     11      -1.0064      0.00000
     12       0.1787      0.00000
     13       0.3561      0.00000
     14       2.5591      0.00000

 k-point    27 :       0.4474    0.1053    0.0000
  band No.  band energies     occupation 
      1     -15.9698      2.00000
      2     -15.7299      2.00000
      3      -9.3212      2.00000
      4      -8.6333      2.00000
      5      -7.7589      2.00000
      6      -6.9150      2.00000
      7      -5.5775      2.00000
      8      -5.4350      2.00000
      9      -4.1721      2.00000
     10      -1.5688      0.00000
     11      -0.9713      0.00000
     12       0.0883      0.00000
     13       0.4027      0.00000
     14       2.6104      0.00000

 k-point    28 :       0.4386    0.1228    0.0000
  band No.  band energies     occupation 
      1     -15.9535      2.00000
      2     -15.7189      2.00000
      3      -9.2652      2.00000
      4      -8.6751      2.00000
      5      -7.7423      2.00000
      6      -6.9087      2.00000
      7      -5.6166      2.00000
      8      -5.5811      2.00000
      9      -4.1432      2.00000
     10      -1.5873      0.00000
     11      -0.9253      0.00000
     12      -0.0140      0.00000
     13       0.4653      0.00000
     14       2.6675      0.00000

 k-point    29 :       0.4298    0.1403    0.0000
  band No.  band energies     occupation 
      1     -15.9356      2.00000
      2     -15.7068      2.00000
      3      -9.2014      2.00000
      4      -8.7209      2.00000
      5      -7.7244      2.00000
      6      -6.8978      2.00000
      7      -5.8054      2.00000
      8      -5.5891      2.00000
      9      -4.1154      2.00000
     10      -1.6163      0.00000
     11      -0.8695      0.00000
     12      -0.1174      0.00000
     13       0.5354      0.00000
     14       2.7297      0.00000

 k-point    30 :       0.4210    0.1579    0.0000
  band No.  band energies     occupation 
      1     -15.9165      2.00000
      2     -15.6939      2.00000
      3      -9.1303      2.00000
      4      -8.7695      2.00000
      5      -7.7060      2.00000
      6      -6.8821      2.00000
      7      -5.9988      2.00000
      8      -5.6022      2.00000
      9      -4.0870      2.00000
     10      -1.6551      0.00000
     11      -0.8056      0.00000
     12      -0.2174      0.00000
     13       0.6093      0.00000
     14       2.7962      0.00000

 k-point    31 :       0.4123    0.1754    0.0000
  band No.  band energies     occupation 
      1     -15.8965      2.00000
      2     -15.6806      2.00000
      3      -9.0525      2.00000
      4      -8.8197      2.00000
      5      -7.6876      2.00000
      6      -6.8615      2.00000
      7      -6.1941      2.00000
      8      -5.6209      2.00000
      9      -4.0568      2.00000
     10      -1.7023      0.00000
     11      -0.7360      0.00000
     12      -0.3107      0.00000
     13       0.6843      0.00000
     14       2.8667      0.00000

 k-point    32 :       0.4035    0.1930    0.0000
  band No.  band energies     occupation 
      1     -15.8762      2.00000
      2     -15.6671      2.00000
      3      -8.9683      2.00000
      4      -8.8700      2.00000
      5      -7.6701      2.00000
      6      -6.8362      2.00000
      7      -6.3885      2.00000
      8      -5.6451      2.00000
      9      -4.0239      2.00000
     10      -1.7563      0.00000
     11      -0.6630      0.00000
     12      -0.3953      0.00000
     13       0.7580      0.00000
     14       2.9408      0.00000

 k-point    33 :       0.3947    0.2105    0.0000
  band No.  band energies     occupation 
      1     -15.8560      2.00000
      2     -15.6539      2.00000
      3      -8.9190      2.00000
      4      -8.8786      2.00000
      5      -7.6547      2.00000
      6      -6.8069      2.00000
      7      -6.5789      2.00000
      8      -5.6744      2.00000
      9      -3.9880      2.00000
     10      -1.8150      0.00000
     11      -0.5890      0.00000
     12      -0.4699      0.00000
     13       0.8281      0.00000
     14       3.0181      0.00000

 k-point    34 :       0.3859    0.2280    0.0000
  band No.  band energies     occupation 
      1     -15.8365      2.00000
      2     -15.6412      2.00000
      3      -8.9652      2.00000
      4      -8.7842      2.00000
      5      -7.6432      2.00000
      6      -6.7743      2.00000
      7      -6.7614      2.00000
      8      -5.7081      2.00000
      9      -3.9495      2.00000
     10      -1.8764      0.00000
     11      -0.5335      0.00000
     12      -0.5164      0.00000
     13       0.8925      0.00000
     14       3.0979      0.00000

 k-point    35 :       0.3772    0.2456    0.0000
  band No.  band energies     occupation 
      1     -15.8183      2.00000
      2     -15.6295      2.00000
      3      -9.0073      2.00000
      4      -8.6863      2.00000
      5      -7.6388      2.00000
      6      -6.9309      2.00000
      7      -6.7398      2.00000
      8      -5.7447      2.00000
      9      -3.9092      2.00000
     10      -1.9378      0.00000
     11      -0.5858      0.00000
     12      -0.4476      0.00000
     13       0.9495      0.00000
     14       3.1794      0.00000

 k-point    36 :       0.3684    0.2631    0.0000
  band No.  band energies     occupation 
      1     -15.8019      2.00000
      2     -15.6192      2.00000
      3      -9.0440      2.00000
      4      -8.5867      2.00000
      5      -7.6465      2.00000
      6      -7.0795      2.00000
      7      -6.7050      2.00000
      8      -5.7824      2.00000
      9      -3.8691      2.00000
     10      -1.9963      0.00000
     11      -0.6269      0.00000
     12      -0.3851      0.00000
     13       0.9976      0.00000
     14       3.2613      0.00000

 k-point    37 :       0.3596    0.2807    0.0000
  band No.  band energies     occupation 
      1     -15.7881      2.00000
      2     -15.6106      2.00000
      3      -9.0742      2.00000
      4      -8.4884      2.00000
      5      -7.6738      2.00000
      6      -7.1957      2.00000
      7      -6.6724      2.00000
      8      -5.8182      2.00000
      9      -3.8318      2.00000
     10      -2.0484      0.00000
     11      -0.6572      0.00000
     12      -0.3317      0.00000
     13       1.0355      0.00000
     14       3.3408      0.00000

 k-point    38 :       0.3508    0.2982    0.0000
  band No.  band energies     occupation 
      1     -15.7774      2.00000
      2     -15.6040      2.00000
      3      -9.0969      2.00000
      4      -8.3973      2.00000
      5      -7.7234      2.00000
      6      -7.2702      2.00000
      7      -6.6450      2.00000
      8      -5.8488      2.00000
      9      -3.8006      2.00000
     10      -2.0901      0.00000
     11      -0.6775      0.00000
     12      -0.2903      0.00000
     13       1.0626      0.00000
     14       3.4125      0.00000

 k-point    39 :       0.3421    0.3158    0.0000
  band No.  band energies     occupation 
      1     -15.7705      2.00000
      2     -15.5999      2.00000
      3      -9.1110      2.00000
      4      -8.3261      2.00000
      5      -7.7791      2.00000
      6      -7.3059      2.00000
      7      -6.6261      2.00000
      8      -5.8700      2.00000
      9      -3.7794      2.00000
     10      -2.1176      0.00000
     11      -0.6887      0.00000
     12      -0.2635      0.00000
     13       1.0787      0.00000
     14       3.4656      0.00000

 k-point    40 :       0.3333    0.3333    0.0000
  band No.  band energies     occupation 
      1     -15.7681      2.00000
      2     -15.5984      2.00000
      3      -9.1159      2.00000
      4      -8.2973      2.00000
      5      -7.8055      2.00000
      6      -7.3152      2.00000
      7      -6.6193      2.00000
      8      -5.8778      2.00000
      9      -3.7717      2.00000
     10      -2.1273      0.00000
     11      -0.6921      0.00000
     12      -0.2541      0.00000
     13       1.0839      0.00000
     14       3.4928      0.00000

 k-point    41 :       0.3333    0.3333    0.0000
  band No.  band energies     occupation 
      1     -15.7681      2.00000
      2     -15.5984      2.00000
      3      -9.1159      2.00000
      4      -8.2973      2.00000
      5      -7.8055      2.00000
      6      -7.3152      2.00000
      7      -6.6193      2.00000
      8      -5.8778      2.00000
      9      -3.7717      2.00000
     10      -2.1273      0.00000
     11      -0.6921      0.00000
     12      -0.2541      0.00000
     13       1.0839      0.00000
     14       3.4849      0.00000

 k-point    42 :       0.3158    0.3158    0.0000
  band No.  band energies     occupation 
      1     -15.7789      2.00000
      2     -15.6046      2.00000
      3      -9.0953      2.00000
      4      -8.3937      2.00000
      5      -7.7061      2.00000
      6      -7.2902      2.00000
      7      -6.6475      2.00000
      8      -5.8446      2.00000
      9      -3.8049      2.00000
     10      -2.0872      0.00000
     11      -0.6816      0.00000
     12      -0.2947      0.00000
     13       1.0648      0.00000
     14       3.4484      0.00000

 k-point    43 :       0.2982    0.2982    0.0000
  band No.  band energies     occupation 
      1     -15.8139      2.00000
      2     -15.6240      2.00000
      3      -9.0317      2.00000
      4      -8.5585      2.00000
      5      -7.5316      2.00000
      6      -7.2164      2.00000
      7      -6.7204      2.00000
      8      -5.7534      2.00000
      9      -3.8983      2.00000
     10      -1.9781      0.00000
     11      -0.6596      0.00000
     12      -0.4161      0.00000
     13       1.0147      0.00000
     14       3.4427      0.00000

 k-point    44 :       0.2807    0.2807    0.0000
  band No.  band energies     occupation 
      1     -15.8756      2.00000
      2     -15.6568      2.00000
      3      -8.9238      2.00000
      4      -8.7005      2.00000
      5      -7.4095      2.00000
      6      -7.0611      2.00000
      7      -6.8124      2.00000
      8      -5.6262      2.00000
      9      -4.0288      2.00000
     10      -1.8326      0.00000
     11      -0.6414      0.00000
     12      -0.6038      0.00000
     13       0.9465      0.00000
     14       3.5171      0.00000

 k-point    45 :       0.2631    0.2631    0.0000
  band No.  band energies     occupation 
      1     -15.9646      2.00000
      2     -15.7027      2.00000
      3      -8.7973      2.00000
      4      -8.7723      2.00000
      5      -7.3589      2.00000
      6      -6.9022      2.00000
      7      -6.8362      2.00000
      8      -5.4815      2.00000
      9      -4.1700      2.00000
     10      -1.6899      0.00000
     11      -0.8278      0.00000
     12      -0.6417      0.00000
     13       0.8733      0.00000
     14       3.6606      0.00000

 k-point    46 :       0.2456    0.2456    0.0000
  band No.  band energies     occupation 
      1     -16.0796      2.00000
      2     -15.7603      2.00000
      3      -8.8447      2.00000
      4      -8.5799      2.00000
      5      -7.3500      2.00000
      6      -6.9764      2.00000
      7      -6.5887      2.00000
      8      -5.3315      2.00000
      9      -4.3015      2.00000
     10      -1.5898      0.00000
     11      -1.0459      0.00000
     12      -0.6716      0.00000
     13       0.8033      0.00000
     14       3.8418      0.00000

 k-point    47 :       0.2280    0.2280    0.0000
  band No.  band energies     occupation 
      1     -16.2172      2.00000
      2     -15.8275      2.00000
      3      -8.8457      2.00000
      4      -8.3509      2.00000
      5      -7.3723      2.00000
      6      -7.0261      2.00000
      7      -6.3421      2.00000
      8      -5.1847      2.00000
      9      -4.4114      2.00000
     10      -1.5802      0.00000
     11      -1.1970      0.00000
     12      -0.7341      0.00000
     13       0.7365      0.00000
     14       3.9845      0.00000

 k-point    48 :       0.2105    0.2105    0.0000
  band No.  band energies     occupation 
      1     -16.3725      2.00000
      2     -15.9021      2.00000
      3      -8.8085      2.00000
      4      -8.0917      2.00000
      5      -7.4209      2.00000
      6      -7.0447      2.00000
      7      -6.1102      2.00000
      8      -5.0477      2.00000
      9      -4.4944      2.00000
     10      -1.6680      0.00000
     11      -1.2519      0.00000
     12      -0.8235      0.00000
     13       0.6645      0.00000
     14       3.9170      0.00000

 k-point    49 :       0.1930    0.1930    0.0000
  band No.  band energies     occupation 
      1     -16.5399      2.00000
      2     -15.9816      2.00000
      3      -8.7474      2.00000
      4      -7.8112      2.00000
      5      -7.4844      2.00000
      6      -7.0263      2.00000
      7      -5.9095      2.00000
      8      -4.9257      2.00000
      9      -4.5467      2.00000
     10      -1.7634      0.00000
     11      -1.2738      0.00000
     12      -0.9287      0.00000
     13       0.5756      0.00000
     14       3.6698      0.00000

 k-point    50 :       0.1754    0.1754    0.0000
  band No.  band energies     occupation 
      1     -16.7135      2.00000
      2     -16.0634      2.00000
      3      -8.6848      2.00000
      4      -7.5402      2.00000
      5      -7.5237      2.00000
      6      -6.9625      2.00000
      7      -5.7647      2.00000
      8      -4.8232      2.00000
      9      -4.5568      2.00000
     10      -1.8091      0.00000
     11      -1.2957      0.00000
     12      -1.0370      0.00000
     13       0.4607      0.00000
     14       3.3846      0.00000

 k-point    51 :       0.1579    0.1579    0.0000
  band No.  band energies     occupation 
      1     -16.8876      2.00000
      2     -16.1451      2.00000
      3      -8.6513      2.00000
      4      -7.5552      2.00000
      5      -7.2536      2.00000
      6      -6.8368      2.00000
      7      -5.7026      2.00000
      8      -4.7433      2.00000
      9      -4.5066      2.00000
     10      -1.7948      0.00000
     11      -1.3127      0.00000
     12      -1.1368      0.00000
     13       0.3166      0.00000
     14       3.1749      0.00000

 k-point    52 :       0.1403    0.1403    0.0000
  band No.  band energies     occupation 
      1     -17.0568      2.00000
      2     -16.2245      2.00000
      3      -8.6731      2.00000
      4      -7.5008      2.00000
      5      -7.0289      2.00000
      6      -6.6322      2.00000
      7      -5.7273      2.00000
      8      -4.6887      2.00000
      9      -4.3955      2.00000
     10      -1.7314      0.00000
     11      -1.3095      0.00000
     12      -1.2179      0.00000
     13       0.1462      0.00000
     14       2.8529      0.00000

 k-point    53 :       0.1228    0.1228    0.0000
  band No.  band energies     occupation 
      1     -17.2166      2.00000
      2     -16.2995      2.00000
      3      -8.7496      2.00000
      4      -7.3760      2.00000
      5      -6.8392      2.00000
      6      -6.3716      2.00000
      7      -5.8132      2.00000
      8      -4.6614      2.00000
      9      -4.2500      2.00000
     10      -1.6366      0.00000
     11      -1.2716      0.00000
     12      -1.2715      0.00000
     13      -0.0431      0.00000
     14       2.5987      0.00000

 k-point    54 :       0.1053    0.1053    0.0000
  band No.  band energies     occupation 
      1     -17.3629      2.00000
      2     -16.3682      2.00000
      3      -8.8590      2.00000
      4      -7.2036      2.00000
      5      -6.6532      2.00000
      6      -6.1013      2.00000
      7      -5.9279      2.00000
      8      -4.6633      2.00000
      9      -4.1026      2.00000
     10      -1.5213      0.00000
     11      -1.2915      0.00000
     12      -1.1948      0.00000
     13      -0.2409      0.00000
     14       2.3846      0.00000

 k-point    55 :       0.0877    0.0877    0.0000
  band No.  band energies     occupation 
      1     -17.4923      2.00000
      2     -16.4291      2.00000
      3      -8.9786      2.00000
      4      -7.0093      2.00000
      5      -6.4567      2.00000
      6      -6.0482      2.00000
      7      -5.8512      2.00000
      8      -4.6962      2.00000
      9      -3.9756      2.00000
     10      -1.3853      0.00000
     11      -1.2746      0.00000
     12      -1.0921      0.00000
     13      -0.4355      0.00000
     14       2.1877      0.00000

 k-point    56 :       0.0702    0.0702    0.0000
  band No.  band energies     occupation 
      1     -17.6019      2.00000
      2     -16.4807      2.00000
      3      -9.0922      2.00000
      4      -6.8151      2.00000
      5      -6.2475      2.00000
      6      -6.1594      2.00000
      7      -5.6378      2.00000
      8      -4.7617      2.00000
      9      -3.8793      2.00000
     10      -1.2277      0.00000
     11      -1.2232      0.00000
     12      -0.9834      0.00000
     13      -0.6147      0.00000
     14       2.0228      0.00000

 k-point    57 :       0.0526    0.0526    0.0000
  band No.  band energies     occupation 
      1     -17.6894      2.00000
      2     -16.5221      2.00000
      3      -9.1893      2.00000
      4      -6.6400      2.00000
      5      -6.2523      2.00000
      6      -6.0293      2.00000
      7      -5.4703      2.00000
      8      -4.8607      2.00000
      9      -3.8140      2.00000
     10      -1.1479      0.00000
     11      -1.0590      0.00000
     12      -0.8857      0.00000
     13      -0.7674      0.00000
     14       1.8915      0.00000

 k-point    58 :       0.0351    0.0351    0.0000
  band No.  band energies     occupation 
      1     -17.7532      2.00000
      2     -16.5522      2.00000
      3      -9.2629      2.00000
      4      -6.5003      2.00000
      5      -6.3217      2.00000
      6      -5.8089      2.00000
      7      -5.3517      2.00000
      8      -4.9914      2.00000
      9      -3.7744      2.00000
     10      -1.0672      0.00000
     11      -0.9023      0.00000
     12      -0.8837      0.00000
     13      -0.8099      0.00000
     14       1.7701      0.00000

 k-point    59 :       0.0175    0.0175    0.0000
  band No.  band energies     occupation 
      1     -17.7920      2.00000
      2     -16.5705      2.00000
      3      -9.3087      2.00000
      4      -6.4101      2.00000
      5      -6.3645      2.00000
      6      -5.5991      2.00000
      7      -5.2817      2.00000
      8      -5.1455      2.00000
      9      -3.7539      2.00000
     10      -1.0047      0.00000
     11      -0.9565      0.00000
     12      -0.7883      0.00000
     13      -0.7624      0.00000
     14       1.7028      0.00000

 k-point    60 :       0.0000    0.0000    0.0000
  band No.  band energies     occupation 
      1     -17.8050      2.00000
      2     -16.5767      2.00000
      3      -9.3242      2.00000
      4      -6.3789      2.00000
      5      -6.3789      2.00000
      6      -5.4671      2.00000
      7      -5.2586      2.00000
      8      -5.2586      2.00000
      9      -3.7476      2.00000
     10      -0.9813      0.00000
     11      -0.9813      0.00000
     12      -0.7462      0.00000
     13      -0.7462      0.00000
     14       1.6665      0.00000


--------------------------------------------------------------------------------------------------------


 soft charge-density along one line, spin component           1
         0         1         2         3         4         5         6         7         8         9
 total charge-density along one line
 
 pseudopotential strength for first ion, spin component:           1
-10.071  -0.000  -0.000   0.000  -0.000   0.111   0.000   0.000
 -0.000 -10.064  -0.000  -0.000   0.000   0.000   0.110   0.000
 -0.000  -0.000 -10.057  -0.000  -0.000   0.000   0.000   0.110
  0.000  -0.000  -0.000 -10.064  -0.000  -0.000   0.000   0.000
 -0.000   0.000  -0.000  -0.000 -10.071   0.000  -0.000   0.000
  0.111   0.000   0.000  -0.000   0.000   0.097  -0.000   0.000
  0.000   0.110   0.000   0.000  -0.000  -0.000   0.097  -0.000
  0.000   0.000   0.110   0.000   0.000   0.000  -0.000   0.097
 -0.000   0.000   0.000   0.110   0.000   0.000  -0.000  -0.000
  0.000  -0.000   0.000   0.000   0.111  -0.000   0.000  -0.000
  0.000   0.000  -0.005   0.000  -0.000  -0.000  -0.000   0.000
 -0.000  -0.000   0.001  -0.000   0.000   0.000   0.000  -0.000
 -0.000  -0.000  -0.000  -0.000  -0.004   0.000   0.000   0.000
 -0.000   0.000  -0.000  -0.000  -0.000  -0.000  -0.000   0.000
 -0.004  -0.000   0.000  -0.000  -0.000  -0.000  -0.000  -0.000
  0.000   0.000   0.000   0.000   0.002  -0.000  -0.000  -0.000
  0.000  -0.000   0.000   0.000   0.000  -0.000   0.000  -0.000
  0.002   0.000  -0.000   0.000   0.000  -0.000  -0.000   0.000
 total augmentation occupancy for first ion, spin component:           1
  1.000   0.000   0.000   0.000   0.000   0.000   0.000   0.000   0.000   0.000   0.000   0.000   0.000   0.000   0.000   0.000
  0.000   1.000   0.000   0.000   0.000   0.000   0.000   0.000   0.000   0.000   0.000   0.000   0.000   0.000   0.000   0.000
  0.000   0.000   1.000   0.000   0.000   0.000   0.000   0.000   0.000   0.000   0.000   0.000   0.000   0.000   0.000   0.000
  0.000   0.000   0.000   1.000   0.000   0.000   0.000   0.000   0.000   0.000   0.000   0.000   0.000   0.000   0.000   0.000
  0.000   0.000   0.000   0.000   1.000   0.000   0.000   0.000   0.000   0.000   0.000   0.000   0.000   0.000   0.000   0.000
  0.000   0.000   0.000   0.000   0.000   0.000   0.000   0.000   0.000   0.000   0.000   0.000   0.000   0.000   0.000   0.000
  0.000   0.000   0.000   0.000   0.000   0.000   0.000   0.000   0.000   0.000   0.000   0.000   0.000   0.000   0.000   0.000
  0.000   0.000   0.000   0.000   0.000   0.000   0.000   0.000   0.000   0.000   0.000   0.000   0.000   0.000   0.000   0.000
  0.000   0.000   0.000   0.000   0.000   0.000   0.000   0.000   0.000   0.000   0.000   0.000   0.000   0.000   0.000   0.000
  0.000   0.000   0.000   0.000   0.000   0.000   0.000   0.000   0.000   0.000   0.000   0.000   0.000   0.000   0.000   0.000
  0.000   0.000   0.000   0.000   0.000   0.000   0.000   0.000   0.000   0.000   1.000   0.000   0.000   0.000   0.000   0.000
  0.000   0.000   0.000   0.000   0.000   0.000   0.000   0.000   0.000   0.000   0.000   0.000   0.000   0.000   0.000   0.000
  0.000   0.000   0.000   0.000   0.000   0.000   0.000   0.000   0.000   0.000   0.000   0.000   0.000   0.000   0.000   0.000
  0.000   0.000   0.000   0.000   0.000   0.000   0.000   0.000   0.000   0.000   0.000   0.000   0.000   0.000   0.000   0.000
  0.000   0.000   0.000   0.000   0.000   0.000   0.000   0.000   0.000   0.000   0.000   0.000   0.000   0.000   0.000   0.000
  0.000   0.000   0.000   0.000   0.000   0.000   0.000   0.000   0.000   0.000   0.000   0.000   0.000   0.000   0.000   0.000
  0.000   0.000   0.000   0.000   0.000   0.000   0.000   0.000   0.000   0.000   0.000   0.000   0.000   0.000   0.000   0.000
  0.000   0.000   0.000   0.000   0.000   0.000   0.000   0.000   0.000   0.000   0.000   0.000   0.000   0.000   0.000   0.000


------------------------ aborting loop because EDIFF is reached ----------------------------------------


 


 total charge     
 
# of ion       s       p       d       tot
------------------------------------------
    1        0.409   0.581   4.519   5.510
    2        1.356   2.302   0.000   3.658
    3        1.356   2.302   0.000   3.657
--------------------------------------------------
tot          3.121   5.184   4.519  12.825
 
    CHARGE:  cpu time    0.2620: real time    0.2619
    FORLOC:  cpu time    0.0110: real time    0.0115
    FORNL :  cpu time    0.2340: real time    0.2340
    STRESS:  cpu time    1.2798: real time    1.2801
    FORCOR:  cpu time    0.1620: real time    0.1619
    FORHAR:  cpu time    0.0390: real time    0.0387
    OFIELD:  cpu time    0.0000: real time    0.0007

  FORCE on cell =-STRESS in cart. coord.  units (eV):
  Direction    XX          YY          ZZ          XY          YZ          ZX
  --------------------------------------------------------------------------------------
  Alpha Z    10.92610    10.92610    10.92610
  Ewald    5921.93836  5921.93880 -6489.34278     0.00019     0.00000     0.00013
  Hartree  6005.67068  6005.67069 -5967.31891     0.00002    -0.00000    -0.00000
  E(xc)     -70.30105   -70.30106   -70.89018    -0.00000     0.00000    -0.00000
  Local  -12204.07048-12204.07076 12171.92447    -0.00016    -0.00000    -0.00006
  n-local   123.35202   122.97737   129.53946    -0.06086    -0.00004    -0.00021
  augment   -24.72761   -24.72760   -26.23919     0.00001     0.00000    -0.00000
  Kinetic   234.72405   239.23576   242.33863    -6.23672     0.00011     0.00012
  Fock        0.00000     0.00000     0.00000     0.00000     0.00000     0.00000
  -------------------------------------------------------------------------------------
  Total      -0.41931    -0.41931     0.93760    -0.00000     0.00000    -0.00000
  in kB      -2.47577    -2.47577     5.53589    -0.00000     0.00000    -0.00000
  external pressure =        0.19 kB  Pullay stress =        0.00 kB


 VOLUME and BASIS-vectors are now :
 -----------------------------------------------------------------------------
  energy-cutoff  :      450.00
  volume of cell :      271.36
      direct lattice vectors                 reciprocal lattice vectors
     3.189856830  0.000000000  0.000000000     0.313493694  0.180995668  0.000000000
    -1.594928415  2.762497050  0.000000000     0.000000000  0.361991337  0.000000000
     0.000000000  0.000000000 30.793978868     0.000000000  0.000000000  0.032473881

  length of vectors
     3.189856830  3.189856830 30.793978868     0.361991337  0.361991337  0.032473881


 FORCES acting on ions
    electron-ion (+dipol)            ewald-force                    non-local-force                 convergence-correction
 -----------------------------------------------------------------------------------------------
   -.473E-05 -.453E-05 0.116E-05   0.942E-04 -.109E-03 0.348E-06   0.555E-16 0.000E+00 0.163E-18   -.244E-05 0.155E-05 0.365E-02
   -.846E-03 0.490E-03 0.599E+03   -.873E-04 0.544E-04 -.601E+03   -.208E-16 0.208E-16 0.380E+01   -.238E-05 0.109E-05 -.197E+01
   0.858E-03 0.490E-03 -.599E+03   -.692E-05 0.544E-04 0.601E+03   -.139E-16 0.243E-16 -.380E+01   0.203E-05 0.109E-05 0.198E+01
 -----------------------------------------------------------------------------------------------
   0.766E-05 0.975E-03 0.390E-04   0.592E-14 -.327E-14 0.000E+00   0.208E-16 0.451E-16 0.444E-15   -.279E-05 0.372E-05 0.974E-02
 
 
 POSITION                                       TOTAL-FORCE (eV/Angst)
 -----------------------------------------------------------------------------------
     -0.00000      1.84167      3.70951        -0.000000      0.000000      0.000000
      1.59493      0.92083      2.15067        -0.000000     -0.000000     -0.141942
      1.59493      0.92083      5.26835         0.000000      0.000000      0.141942
 -----------------------------------------------------------------------------------
    total drift:                                0.000005      0.000979      0.009783


--------------------------------------------------------------------------------------------------------



  FREE ENERGIE OF THE ION-ELECTRON SYSTEM (eV)
  ---------------------------------------------------
  free  energy   TOTEN  =       -21.48131086 eV

  energy  without entropy=      -21.48131086  energy(sigma->0) =      -21.48131086
 


--------------------------------------------------------------------------------------------------------


    POTLOK:  cpu time    0.1520: real time    0.1510


--------------------------------------------------------------------------------------------------------


     LOOP+:  cpu time   35.1357: real time   35.5243
    4ORBIT:  cpu time    0.0000: real time    0.0000
 


 total charge     
 
# of ion       s       p       d       tot
------------------------------------------
    1        0.409   0.581   4.519   5.510
    2        1.356   2.302   0.000   3.658
    3        1.356   2.302   0.000   3.657
--------------------------------------------------
tot          3.121   5.184   4.519  12.825
 

 total amount of memory used by VASP MPI-rank0   128982. kBytes
=======================================================================

   base      :      30000. kBytes
   nonl-proj :      51949. kBytes
   fftplans  :      10208. kBytes
   grid      :      16473. kBytes
   one-center:         31. kBytes
   wavefun   :      20321. kBytes
 
  
  
 General timing and accounting informations for this job:
 ========================================================
  
                  Total CPU time used (sec):       39.320
                            User time (sec):       38.381
                          System time (sec):        0.939
                         Elapsed time (sec):       41.017
  
                   Maximum memory used (kb):      124600.
                   Average memory used (kb):           0.
  
                          Minor page faults:        37328
                          Major page faults:          186
                 Voluntary context switches:         5010
