perl: warning: Setting locale failed.
perl: warning: Please check that your locale settings:
	LANGUAGE = (unset),
	LC_ALL = (unset),
	LC_CTYPE = "UTF-8",
	LANG = "en_US.iso885915"
    are supported and installed on your system.
perl: warning: Falling back to the standard locale ("C").
Starting job 28536506 ("jobname") on c15-30 at Fri Nov 8 16:52:13 CET 2019
 running on    4 total cores
 distrk:  each k-point on    4 cores,    1 groups
 distr:  one band on    2 cores,    2 groups
 using from now: INCAR     
 vasp.5.4.4.18Apr17-6-g9f103f2a35 (build Jun 30 2017 11:15:00) complex          
  
 POSCAR found type information on POSCAR  Mo S 
 POSCAR found :  2 types and       3 ions
 scaLAPACK will be used
 LDA part: xc-table for Pade appr. of Perdew
 WARNING: stress and forces are not correct
 POSCAR, INCAR and KPOINTS ok, starting setup
 FFT: planning ...
 WAVECAR not read
 charge-density read from file: unknown                                 
 WARNING: random wavefunctions but no delay for mixing, default for NELMDL
 entering main loop
       N       E                     dE             d eps       ncg     rms          rms(c)
DAV:   1     0.130594845074E+03    0.13059E+03   -0.51424E+03  1680   0.782E+02
DAV:   2    -0.524158322814E+01   -0.13584E+03   -0.12512E+03  2942   0.156E+02
DAV:   3    -0.211553052062E+02   -0.15914E+02   -0.15734E+02  2292   0.710E+01
DAV:   4    -0.214726762454E+02   -0.31737E+00   -0.31442E+00  2106   0.124E+01
DAV:   5    -0.214810198057E+02   -0.83436E-02   -0.83345E-02  2190   0.189E+00
RMM:   6    -0.214812819346E+02   -0.26213E-03   -0.26213E-03  1728   0.355E-01
RMM:   7    -0.214813111915E+02   -0.29257E-04   -0.29332E-04  2404   0.960E-02
RMM:   8    -0.214813108647E+02    0.32678E-06   -0.64485E-07  1296   0.419E-03
   1 F= -.21481311E+02 E0= -.21481311E+02  d E =-.119781E-08

Currently Loaded Modulefiles:
  1) Anaconda3/5.1.0       3) vesta/3.3.8           5) intel/2016.1
  2) gnuplot/5.0.4         4) imagemagick/6.7.9-0   6) vasp/5.4.1.Feb16

Job script resource usage:
       JobID  MaxVMSize     MaxRSS 
------------ ---------- ---------- 
28536506.ba+    499280K      6117K 

Job step resource usage:
       JobID    JobName  AllocCPUS  MaxVMSize     MaxRSS    Elapsed ExitCode 
------------ ---------- ---------- ---------- ---------- ---------- -------- 
28536506        jobname          4                         00:00:44      0:0 
28536506.0    pmi_proxy          1   1651872K    422021K   00:00:42      0:0 

Job 28536506 ("jobname") completed on c15-30 at Fri Nov 8 16:52:55 CET 2019
