<?xml version="1.0" encoding="ISO-8859-1"?>
<modeling>
 <generator>
  <i name="program" type="string">vasp </i>
  <i name="version" type="string">5.4.4.18Apr17-6-g9f103f2a35  </i>
  <i name="subversion" type="string">(build Jun 30 2017 11:15:00) complex            parallel </i>
  <i name="platform" type="string">STALLO_VASP_5.4.4 </i>
  <i name="date" type="string">2019 11 08 </i>
  <i name="time" type="string">16:52:15 </i>
 </generator>
 <incar>
  <i type="string" name="PREC">accurate  ! low/normal/accurate</i>
  <i type="string" name="ALGO"> Fast      ! Algorithm for electronic re</i>
  <i type="int" name="ISPIN">     1</i>
  <i type="int" name="ICHARG">    11</i>
  <i type="int" name="NELMIN">     4</i>
  <i name="EDIFF">      0.00000100</i>
  <i type="int" name="NSW">     0</i>
  <i name="ENCUT">    450.00000000</i>
  <i type="int" name="NEDOS">  2401</i>
  <i type="logical" name="LREAL"> F  </i>
  <i name="EMIN">    -12.00000000</i>
  <i name="EMAX">     12.00000000</i>
  <i type="int" name="ISMEAR">     0</i>
  <i name="SIGMA">      0.20000000</i>
  <i type="logical" name="LWAVE"> F  </i>
  <i type="int" name="LORBIT">    11</i>
  <i type="logical" name="LELF"> T  </i>
  <v type="int" name="KPOINT_BSE">    -1     0     0     0</v>
 </incar>
 <structure name="primitive_cell" >
  <crystal>
   <varray name="basis" >
    <v>       3.18985683       0.00000000       0.00000000 </v>
    <v>      -1.59492842       2.76249705       0.00000000 </v>
    <v>       0.00000000       0.00000000      30.79397887 </v>
   </varray>
   <i name="volume">    271.35562051 </i>
   <varray name="rec_basis" >
    <v>       0.31349369       0.18099567       0.00000000 </v>
    <v>       0.00000000       0.36199134       0.00000000 </v>
    <v>       0.00000000       0.00000000       0.03247388 </v>
   </varray>
  </crystal>
  <varray name="positions" >
   <v>       0.33333300      -0.33333300       0.12046214 </v>
   <v>      -0.33333400       0.33333300       0.17108384 </v>
   <v>      -0.33333300       0.33333300       0.06984045 </v>
  </varray>
 </structure>
 <varray name="primitive_index" >
  <v type="int" >        1 </v>
  <v type="int" >        3 </v>
  <v type="int" >        2 </v>
 </varray>
 <kpoints>
  <generation param="listgenerated">
   <i name="divisions" type="int">      20 </i>
   <v>       0.00000000       0.00000000       0.00000000 </v>
   <v>       0.50000000       0.00000000       0.00000000 </v>
   <v>       0.33330000       0.33330000       0.00000000 </v>
   <v>       0.00000000       0.00000000       0.00000000 </v>
  </generation>
  <varray name="kpointlist" >
   <v>       0.00000000       0.00000000       0.00000000 </v>
   <v>       0.02631579       0.00000000       0.00000000 </v>
   <v>       0.05263158       0.00000000       0.00000000 </v>
   <v>       0.07894737       0.00000000       0.00000000 </v>
   <v>       0.10526316       0.00000000       0.00000000 </v>
   <v>       0.13157895       0.00000000       0.00000000 </v>
   <v>       0.15789474       0.00000000       0.00000000 </v>
   <v>       0.18421053       0.00000000       0.00000000 </v>
   <v>       0.21052632       0.00000000       0.00000000 </v>
   <v>       0.23684211       0.00000000       0.00000000 </v>
   <v>       0.26315789       0.00000000       0.00000000 </v>
   <v>       0.28947368       0.00000000       0.00000000 </v>
   <v>       0.31578947       0.00000000       0.00000000 </v>
   <v>       0.34210526       0.00000000       0.00000000 </v>
   <v>       0.36842105       0.00000000       0.00000000 </v>
   <v>       0.39473684       0.00000000       0.00000000 </v>
   <v>       0.42105263       0.00000000       0.00000000 </v>
   <v>       0.44736842       0.00000000       0.00000000 </v>
   <v>       0.47368421       0.00000000       0.00000000 </v>
   <v>       0.50000000       0.00000000       0.00000000 </v>
   <v>       0.50000000       0.00000000       0.00000000 </v>
   <v>       0.49122632       0.01754211       0.00000000 </v>
   <v>       0.48245263       0.03508421       0.00000000 </v>
   <v>       0.47367895       0.05262632       0.00000000 </v>
   <v>       0.46490526       0.07016842       0.00000000 </v>
   <v>       0.45613158       0.08771053       0.00000000 </v>
   <v>       0.44735789       0.10525263       0.00000000 </v>
   <v>       0.43858421       0.12279474       0.00000000 </v>
   <v>       0.42981053       0.14033684       0.00000000 </v>
   <v>       0.42103684       0.15787895       0.00000000 </v>
   <v>       0.41226316       0.17542105       0.00000000 </v>
   <v>       0.40348947       0.19296316       0.00000000 </v>
   <v>       0.39471579       0.21050526       0.00000000 </v>
   <v>       0.38594211       0.22804737       0.00000000 </v>
   <v>       0.37716842       0.24558947       0.00000000 </v>
   <v>       0.36839474       0.26313158       0.00000000 </v>
   <v>       0.35962105       0.28067368       0.00000000 </v>
   <v>       0.35084737       0.29821579       0.00000000 </v>
   <v>       0.34207368       0.31575789       0.00000000 </v>
   <v>       0.33330000       0.33330000       0.00000000 </v>
   <v>       0.33330000       0.33330000       0.00000000 </v>
   <v>       0.31575789       0.31575789       0.00000000 </v>
   <v>       0.29821579       0.29821579       0.00000000 </v>
   <v>       0.28067368       0.28067368       0.00000000 </v>
   <v>       0.26313158       0.26313158       0.00000000 </v>
   <v>       0.24558947       0.24558947       0.00000000 </v>
   <v>       0.22804737       0.22804737       0.00000000 </v>
   <v>       0.21050526       0.21050526       0.00000000 </v>
   <v>       0.19296316       0.19296316       0.00000000 </v>
   <v>       0.17542105       0.17542105       0.00000000 </v>
   <v>       0.15787895       0.15787895       0.00000000 </v>
   <v>       0.14033684       0.14033684       0.00000000 </v>
   <v>       0.12279474       0.12279474       0.00000000 </v>
   <v>       0.10525263       0.10525263       0.00000000 </v>
   <v>       0.08771053       0.08771053       0.00000000 </v>
   <v>       0.07016842       0.07016842       0.00000000 </v>
   <v>       0.05262632       0.05262632       0.00000000 </v>
   <v>       0.03508421       0.03508421       0.00000000 </v>
   <v>       0.01754211       0.01754211       0.00000000 </v>
   <v>       0.00000000       0.00000000       0.00000000 </v>
  </varray>
  <varray name="weights" >
   <v>       0.01666667 </v>
   <v>       0.01666667 </v>
   <v>       0.01666667 </v>
   <v>       0.01666667 </v>
   <v>       0.01666667 </v>
   <v>       0.01666667 </v>
   <v>       0.01666667 </v>
   <v>       0.01666667 </v>
   <v>       0.01666667 </v>
   <v>       0.01666667 </v>
   <v>       0.01666667 </v>
   <v>       0.01666667 </v>
   <v>       0.01666667 </v>
   <v>       0.01666667 </v>
   <v>       0.01666667 </v>
   <v>       0.01666667 </v>
   <v>       0.01666667 </v>
   <v>       0.01666667 </v>
   <v>       0.01666667 </v>
   <v>       0.01666667 </v>
   <v>       0.01666667 </v>
   <v>       0.01666667 </v>
   <v>       0.01666667 </v>
   <v>       0.01666667 </v>
   <v>       0.01666667 </v>
   <v>       0.01666667 </v>
   <v>       0.01666667 </v>
   <v>       0.01666667 </v>
   <v>       0.01666667 </v>
   <v>       0.01666667 </v>
   <v>       0.01666667 </v>
   <v>       0.01666667 </v>
   <v>       0.01666667 </v>
   <v>       0.01666667 </v>
   <v>       0.01666667 </v>
   <v>       0.01666667 </v>
   <v>       0.01666667 </v>
   <v>       0.01666667 </v>
   <v>       0.01666667 </v>
   <v>       0.01666667 </v>
   <v>       0.01666667 </v>
   <v>       0.01666667 </v>
   <v>       0.01666667 </v>
   <v>       0.01666667 </v>
   <v>       0.01666667 </v>
   <v>       0.01666667 </v>
   <v>       0.01666667 </v>
   <v>       0.01666667 </v>
   <v>       0.01666667 </v>
   <v>       0.01666667 </v>
   <v>       0.01666667 </v>
   <v>       0.01666667 </v>
   <v>       0.01666667 </v>
   <v>       0.01666667 </v>
   <v>       0.01666667 </v>
   <v>       0.01666667 </v>
   <v>       0.01666667 </v>
   <v>       0.01666667 </v>
   <v>       0.01666667 </v>
   <v>       0.01666667 </v>
  </varray>
 </kpoints>
 <parameters>
  <separator name="general" >
   <i type="string" name="SYSTEM">unknown system</i>
   <i type="logical" name="LCOMPAT"> F  </i>
  </separator>
  <separator name="electronic" >
   <i type="string" name="PREC">accura</i>
   <i name="ENMAX">    450.00000000</i>
   <i name="ENAUG">    345.27800000</i>
   <i name="EDIFF">      0.00000100</i>
   <i type="int" name="IALGO">    68</i>
   <i type="int" name="IWAVPR">    10</i>
   <i type="int" name="NBANDS">    14</i>
   <i name="NELECT">     18.00000000</i>
   <i type="int" name="TURBO">     0</i>
   <i type="int" name="IRESTART">     0</i>
   <i type="int" name="NREBOOT">     0</i>
   <i type="int" name="NMIN">     0</i>
   <i name="EREF">      0.00000000</i>
   <separator name="electronic smearing" >
    <i type="int" name="ISMEAR">     0</i>
    <i name="SIGMA">      0.20000000</i>
    <i name="KSPACING">      0.50000000</i>
    <i type="logical" name="KGAMMA"> T  </i>
   </separator>
   <separator name="electronic projectors" >
    <i type="logical" name="LREAL"> F  </i>
    <v name="ROPT">      0.00000000      0.00000000</v>
    <i type="int" name="LMAXPAW">  -100</i>
    <i type="int" name="LMAXMIX">     2</i>
    <i type="logical" name="NLSPLINE"> F  </i>
   </separator>
   <separator name="electronic startup" >
    <i type="int" name="ISTART">     0</i>
    <i type="int" name="ICHARG">    11</i>
    <i type="int" name="INIWAV">     1</i>
   </separator>
   <separator name="electronic spin" >
    <i type="int" name="ISPIN">     1</i>
    <i type="logical" name="LNONCOLLINEAR"> F  </i>
    <v name="MAGMOM">      1.00000000      1.00000000      1.00000000</v>
    <i name="NUPDOWN">     -1.00000000</i>
    <i type="logical" name="LSORBIT"> F  </i>
    <v name="SAXIS">      0.00000000      0.00000000      1.00000000</v>
    <i type="logical" name="LSPIRAL"> F  </i>
    <v name="QSPIRAL">      0.00000000      0.00000000      0.00000000</v>
    <i type="logical" name="LZEROZ"> F  </i>
   </separator>
   <separator name="electronic exchange-correlation" >
    <i type="logical" name="LASPH"> F  </i>
    <i type="logical" name="LMETAGGA"> F  </i>
   </separator>
   <separator name="electronic convergence" >
    <i type="int" name="NELM">    60</i>
    <i type="int" name="NELMDL">     0</i>
    <i type="int" name="NELMIN">     4</i>
    <i name="ENINI">    450.00000000</i>
    <separator name="electronic convergence detail" >
     <i type="logical" name="LDIAG"> T  </i>
     <i type="logical" name="LSUBROT"> F  </i>
     <i name="WEIMIN">      0.00000000</i>
     <i name="EBREAK">      0.00000002</i>
     <i name="DEPER">      0.30000000</i>
     <i type="int" name="NRMM">     4</i>
     <i name="TIME">      0.40000000</i>
    </separator>
   </separator>
   <separator name="electronic mixer" >
    <i name="AMIX">      0.40000000</i>
    <i name="BMIX">      1.00000000</i>
    <i name="AMIN">      0.10000000</i>
    <i name="AMIX_MAG">      1.60000000</i>
    <i name="BMIX_MAG">      1.00000000</i>
    <separator name="electronic mixer details" >
     <i type="int" name="IMIX">     4</i>
     <i type="logical" name="MIXFIRST"> F  </i>
     <i type="int" name="MAXMIX">   -45</i>
     <i name="WC">    100.00000000</i>
     <i type="int" name="INIMIX">     1</i>
     <i type="int" name="MIXPRE">     1</i>
     <i type="int" name="MREMOVE">     5</i>
    </separator>
   </separator>
   <separator name="electronic dipolcorrection" >
    <i type="logical" name="LDIPOL"> F  </i>
    <i type="logical" name="LMONO"> F  </i>
    <i type="int" name="IDIPOL">     0</i>
    <i name="EPSILON">      1.00000000</i>
    <v name="DIPOL">   -100.00000000   -100.00000000   -100.00000000</v>
    <i name="EFIELD">      0.00000000</i>
   </separator>
  </separator>
  <separator name="grids" >
   <i type="int" name="NGX">    24</i>
   <i type="int" name="NGY">    24</i>
   <i type="int" name="NGZ">   216</i>
   <i type="int" name="NGXF">    48</i>
   <i type="int" name="NGYF">    48</i>
   <i type="int" name="NGZF">   432</i>
   <i type="logical" name="ADDGRID"> F  </i>
  </separator>
  <separator name="ionic" >
   <i type="int" name="NSW">     0</i>
   <i type="int" name="IBRION">    -1</i>
   <i type="int" name="MDALGO">     0</i>
   <i type="int" name="ISIF">     2</i>
   <i name="PSTRESS">      0.00000000</i>
   <i name="EDIFFG">      0.00001000</i>
   <i type="int" name="NFREE">     0</i>
   <i name="POTIM">      0.50000000</i>
   <i name="SMASS">     -3.00000000</i>
   <i name="SCALEE">      1.00000000</i>
  </separator>
  <separator name="ionic md" >
   <i name="TEBEG">      0.00010000</i>
   <i name="TEEND">      0.00010000</i>
   <i type="int" name="NBLOCK">     1</i>
   <i type="int" name="KBLOCK">     1</i>
   <i type="int" name="NPACO">   256</i>
   <i name="APACO">     16.00000000</i>
  </separator>
  <separator name="symmetry" >
   <i type="int" name="ISYM">     2</i>
   <i name="SYMPREC">      0.00001000</i>
  </separator>
  <separator name="dos" >
   <i type="int" name="LORBIT">    11</i>
   <v name="RWIGS">     -1.00000000     -1.00000000</v>
   <i type="int" name="NEDOS">  2401</i>
   <i name="EMIN">    -12.00000000</i>
   <i name="EMAX">     12.00000000</i>
   <i name="EFERMI">      0.00000000</i>
  </separator>
  <separator name="writing" >
   <i type="int" name="NWRITE">     2</i>
   <i type="logical" name="LWAVE"> F  </i>
   <i type="logical" name="LDOWNSAMPLE"> F  </i>
   <i type="logical" name="LCHARG"> T  </i>
   <i type="logical" name="LPARD"> F  </i>
   <i type="logical" name="LVTOT"> F  </i>
   <i type="logical" name="LVHAR"> F  </i>
   <i type="logical" name="LELF"> T  </i>
   <i type="logical" name="LOPTICS"> F  </i>
   <v name="STM">      0.00000000      0.00000000      0.00000000      0.00000000      0.00000000      0.00000000      0.00000000</v>
  </separator>
  <separator name="performance" >
   <i type="int" name="NPAR">     2</i>
   <i type="int" name="NSIM">     4</i>
   <i type="int" name="NBLK">    -1</i>
   <i type="logical" name="LPLANE"> T  </i>
   <i type="logical" name="LSCALAPACK"> T  </i>
   <i type="logical" name="LSCAAWARE"> F  </i>
   <i type="logical" name="LSCALU"> F  </i>
   <i type="logical" name="LASYNC"> F  </i>
   <i type="logical" name="LORBITALREAL"> F  </i>
  </separator>
  <separator name="miscellaneous" >
   <i type="int" name="IDIOT">     3</i>
   <i type="int" name="ISPECIAL">     0</i>
   <i type="logical" name="LMUSIC"> F  </i>
   <v name="POMASS">     95.94000000     32.06600000</v>
   <v name="DARWINR">      0.00000000      0.00000000</v>
   <v name="DARWINV">      1.00000000      1.00000000</v>
   <i type="logical" name="LCORR"> T  </i>
  </separator>
  <i type="logical" name="GGA_COMPAT"> T  </i>
  <i type="logical" name="LBERRY"> F  </i>
  <i type="int" name="ICORELEVEL">     0</i>
  <i type="logical" name="LDAU"> F  </i>
  <i type="int" name="I_CONSTRAINED_M">     0</i>
  <separator name="electronic exchange-correlation" >
   <i type="string" name="GGA">--</i>
   <i type="int" name="VOSKOWN">     0</i>
   <i type="logical" name="LHFCALC"> F  </i>
   <i type="string" name="PRECFOCK"></i>
   <i type="logical" name="LSYMGRAD"> F  </i>
   <i type="logical" name="LHFONE"> F  </i>
   <i type="logical" name="LRHFCALC"> F  </i>
   <i type="logical" name="LTHOMAS"> F  </i>
   <i type="logical" name="LMODELHF"> F  </i>
   <i name="ENCUT4O">     -1.00000000</i>
   <i type="int" name="EXXOEP">     0</i>
   <i type="int" name="FOURORBIT">     0</i>
   <i name="AEXX">      0.00000000</i>
   <i name="HFALPHA">      0.00000000</i>
   <i name="MCALPHA">      0.00000000</i>
   <i name="ALDAX">      1.00000000</i>
   <i name="AGGAX">      1.00000000</i>
   <i name="ALDAC">      1.00000000</i>
   <i name="AGGAC">      1.00000000</i>
   <i type="int" name="NKREDX">     1</i>
   <i type="int" name="NKREDY">     1</i>
   <i type="int" name="NKREDZ">     1</i>
   <i type="logical" name="SHIFTRED"> F  </i>
   <i type="logical" name="ODDONLY"> F  </i>
   <i type="logical" name="EVENONLY"> F  </i>
   <i type="int" name="LMAXFOCK">     0</i>
   <i type="int" name="NMAXFOCKAE">     0</i>
   <i type="logical" name="LFOCKAEDFT"> F  </i>
   <i name="HFSCREEN">      0.00000000</i>
   <i name="HFSCREENC">      0.00000000</i>
   <i type="int" name="NBANDSGWLOW">     0</i>
  </separator>
  <separator name="vdW DFT" >
   <i type="logical" name="LUSE_VDW"> F  </i>
   <i name="Zab_VDW">     -0.84910000</i>
   <i name="PARAM1">      0.12340000</i>
   <i name="PARAM2">      1.00000000</i>
   <i name="PARAM3">      0.00000000</i>
  </separator>
  <separator name="model GW" >
   <i type="int" name="MODEL_GW">     0</i>
   <i name="MODEL_EPS0">     54.27112410</i>
   <i name="MODEL_ALPHA">      1.00000000</i>
  </separator>
  <separator name="linear response parameters" >
   <i type="logical" name="LEPSILON"> F  </i>
   <i type="logical" name="LRPA"> F  </i>
   <i type="logical" name="LNABLA"> F  </i>
   <i type="logical" name="LVEL"> F  </i>
   <i type="int" name="KINTER">     0</i>
   <i name="CSHIFT">      0.10000000</i>
   <i name="OMEGAMAX">     -1.00000000</i>
   <i name="DEG_THRESHOLD">      0.00200000</i>
   <i name="RTIME">     -0.10000000</i>
   <i name="WPLASMAI">      0.00000000</i>
   <v name="DFIELD">      0.00000000      0.00000000      0.00000000</v>
   <v name="WPLASMA">      0.00000000      0.00000000      0.00000000      0.00000000      0.00000000      0.00000000      0.00000000      0.00000000      0.00000000</v>
  </separator>
  <separator name="orbital magnetization" >
   <i type="logical" name="NUCIND"> F  </i>
   <v name="MAGPOS">      0.00000000      0.00000000      0.00000000</v>
   <i type="logical" name="LNICSALL"> T  </i>
   <i type="logical" name="ORBITALMAG"> F  </i>
   <i type="logical" name="LMAGBLOCH"> F  </i>
   <i type="logical" name="LCHIMAG"> F  </i>
   <i type="logical" name="LGAUGE"> T  </i>
   <i type="int" name="MAGATOM">     0</i>
   <v name="MAGDIPOL">      0.00000000      0.00000000      0.00000000</v>
   <v name="AVECCONST">      0.00000000      0.00000000      0.00000000</v>
  </separator>
  <separator name="response functions" >
   <i type="logical" name="LADDER"> F  </i>
   <i type="logical" name="LRPAFORCE"> F  </i>
   <i type="logical" name="LFXC"> F  </i>
   <i type="logical" name="LHARTREE"> T  </i>
   <i type="int" name="IBSE">     0</i>
   <v type="int" name="KPOINT">    -1     0     0     0</v>
   <i type="logical" name="LTCTE"> F  </i>
   <i type="logical" name="LTETE"> F  </i>
   <i type="logical" name="LTRIPLET"> F  </i>
   <i type="logical" name="LFXCEPS"> F  </i>
   <i type="logical" name="LFXHEG"> F  </i>
   <i type="int" name="NATURALO">     2</i>
   <i type="logical" name="L2ORDER"> F  </i>
   <i type="logical" name="LMP2LT"> F  </i>
   <i type="logical" name="LUSEW"> F  </i>
   <i name="ENCUTGW">     -2.00000000</i>
   <i name="ENCUTGWSOFT">     -2.00000000</i>
   <i name="ENCUTLF">     -1.00000000</i>
   <i type="int" name="LMAXMP2">    -1</i>
   <i name="SCISSOR">      0.00000000</i>
   <i type="int" name="NOMEGA">     0</i>
   <i type="int" name="NOMEGAR">     0</i>
   <i type="int" name="NBANDSGW">    -1</i>
   <i type="int" name="NBANDSO">    -1</i>
   <i type="int" name="NBANDSV">    -1</i>
   <i type="int" name="NELM">     1</i>
   <i type="int" name="NELMHF">     1</i>
   <i type="int" name="DIM">     3</i>
   <i type="int" name="ANTIRES">     0</i>
   <i name="OMEGAMAX">    -30.00000000</i>
   <i name="OMEGAMIN">    -30.00000000</i>
   <i name="OMEGATL">   -200.00000000</i>
   <i type="int" name="OMEGAGRID">   140</i>
   <i name="CSHIFT">     -0.10000000</i>
   <i type="logical" name="SELFENERGY"> F  </i>
   <i type="logical" name="LSPECTRAL"> F  </i>
   <i type="logical" name="LSPECTRALGW"> F  </i>
   <i type="logical" name="LSINGLES"> F  </i>
   <i type="logical" name="LFERMIGW"> F  </i>
   <i type="logical" name="ODDONLYGW"> F  </i>
   <i type="logical" name="EVENONLYGW"> F  </i>
   <i type="int" name="NKREDLFX">     1</i>
   <i type="int" name="NKREDLFY">     1</i>
   <i type="int" name="NKREDLFZ">     1</i>
   <i type="int" name="MAXMEM">  2800</i>
   <i type="int" name="TELESCOPE">     0</i>
   <i type="int" name="TAUPAR">     1</i>
   <i type="int" name="OMEGAPAR">    -1</i>
   <i name="LAMBDA">      1.00000000</i>
  </separator>
  <separator name="External order field" >
   <i name="OFIELD_KAPPA">      0.00000000</i>
   <v name="OFIELD_K">      0.00000000      0.00000000      0.00000000</v>
   <i name="OFIELD_Q6_NEAR">      0.00000000</i>
   <i name="OFIELD_Q6_FAR">      0.00000000</i>
   <i name="OFIELD_A">      0.00000000</i>
  </separator>
 </parameters>
 <atominfo>
  <atoms>       3 </atoms>
  <types>       2 </types>
  <array name="atoms" >
   <dimension dim="1">ion</dimension>
   <field type="string">element</field>
   <field type="int">atomtype</field>
   <set>
    <rc><c>Mo</c><c>   1</c></rc>
    <rc><c>S </c><c>   2</c></rc>
    <rc><c>S </c><c>   2</c></rc>
   </set>
  </array>
  <array name="atomtypes" >
   <dimension dim="1">type</dimension>
   <field type="int">atomspertype</field>
   <field type="string">element</field>
   <field>mass</field>
   <field>valence</field>
   <field type="string">pseudopotential</field>
   <set>
    <rc><c>   1</c><c>Mo</c><c>     95.94000000</c><c>      6.00000000</c><c> PAW_PBE Mo 08Apr2002                   </c></rc>
    <rc><c>   2</c><c>S </c><c>     32.06600000</c><c>      6.00000000</c><c>  PAW_PBE S 17Jan2003                   </c></rc>
   </set>
  </array>
 </atominfo>
 <structure name="initialpos" >
  <crystal>
   <varray name="basis" >
    <v>       3.18985683       0.00000000       0.00000000 </v>
    <v>      -1.59492842       2.76249705       0.00000000 </v>
    <v>       0.00000000       0.00000000      30.79397887 </v>
   </varray>
   <i name="volume">    271.35562051 </i>
   <varray name="rec_basis" >
    <v>       0.31349369       0.18099567       0.00000000 </v>
    <v>       0.00000000       0.36199134       0.00000000 </v>
    <v>       0.00000000       0.00000000       0.03247388 </v>
   </varray>
  </crystal>
  <varray name="positions" >
   <v>       0.33333300       0.66666700       0.12046214 </v>
   <v>       0.66666700       0.33333300       0.06984045 </v>
   <v>       0.66666600       0.33333300       0.17108384 </v>
  </varray>
 </structure>
 <calculation>
  <scstep>
   <time name="dav">    3.24    3.24</time>
   <time name="total">    3.41    3.66</time>
   <energy>
    <i name="alphaZ">     10.92610231 </i>
    <i name="ewald">   5354.53473861 </i>
    <i name="hartreedc">  -6041.41337492 </i>
    <i name="XCdc">    -35.17112764 </i>
    <i name="pawpsdc">    473.39069734 </i>
    <i name="pawaedc">   -397.59830514 </i>
    <i name="eentropy">     -0.03640884 </i>
    <i name="bandstr">     -5.19259064 </i>
    <i name="atom">    771.15511399 </i>
    <i name="e_fr_energy">    130.59484507 </i>
    <i name="e_wo_entrp">    130.63125391 </i>
    <i name="e_0_energy">    130.61304949 </i>
   </energy>
  </scstep>
  <scstep>
   <time name="dav">    4.93    4.94</time>
   <time name="total">    4.94    4.95</time>
   <energy>
    <i name="e_fr_energy">     -5.24158323 </i>
    <i name="e_wo_entrp">     -5.24156373 </i>
    <i name="e_0_energy">     -5.24157348 </i>
   </energy>
  </scstep>
  <scstep>
   <time name="dav">    4.06    4.06</time>
   <time name="total">    4.07    4.07</time>
   <energy>
    <i name="e_fr_energy">    -21.15530521 </i>
    <i name="e_wo_entrp">    -21.15530520 </i>
    <i name="e_0_energy">    -21.15530521 </i>
   </energy>
  </scstep>
  <scstep>
   <time name="dav">    3.83    3.83</time>
   <time name="total">    3.84    3.84</time>
   <energy>
    <i name="e_fr_energy">    -21.47267625 </i>
    <i name="e_wo_entrp">    -21.47267624 </i>
    <i name="e_0_energy">    -21.47267624 </i>
   </energy>
  </scstep>
  <scstep>
   <time name="dav">    3.96    3.97</time>
   <time name="total">    3.97    3.98</time>
   <energy>
    <i name="e_fr_energy">    -21.48101981 </i>
    <i name="e_wo_entrp">    -21.48101980 </i>
    <i name="e_0_energy">    -21.48101981 </i>
   </energy>
  </scstep>
  <scstep>
   <time name="diag">    0.70    0.70</time>
   <time name="diis">    2.97    2.97</time>
   <time name="orth">    0.03    0.03</time>
   <time name="total">    3.71    3.71</time>
   <energy>
    <i name="e_fr_energy">    -21.48128193 </i>
    <i name="e_wo_entrp">    -21.48128193 </i>
    <i name="e_0_energy">    -21.48128193 </i>
   </energy>
  </scstep>
  <scstep>
   <time name="diag">    0.69    0.69</time>
   <time name="diis">    4.08    4.08</time>
   <time name="orth">    0.03    0.03</time>
   <time name="total">    4.81    4.82</time>
   <energy>
    <i name="e_fr_energy">    -21.48131119 </i>
    <i name="e_wo_entrp">    -21.48131119 </i>
    <i name="e_0_energy">    -21.48131119 </i>
   </energy>
  </scstep>
  <scstep>
   <time name="diag">    0.69    0.69</time>
   <time name="diis">    2.50    2.50</time>
   <time name="orth">    0.03    0.03</time>
   <time name="total">    3.23    3.23</time>
   <energy>
    <i name="alphaZ">     10.92610231 </i>
    <i name="ewald">   5354.53473861 </i>
    <i name="hartreedc">  -6041.41337492 </i>
    <i name="XCdc">    -35.17112764 </i>
    <i name="pawpsdc">    473.39069734 </i>
    <i name="pawaedc">   -397.59830514 </i>
    <i name="eentropy">     -0.00000000 </i>
    <i name="bandstr">   -157.30515542 </i>
    <i name="atom">    771.15511399 </i>
    <i name="e_fr_energy">    -21.48131086 </i>
    <i name="e_wo_entrp">    -21.48131086 </i>
    <i name="e_0_energy">    -21.48131086 </i>
   </energy>
  </scstep>
  <structure>
   <crystal>
    <varray name="basis" >
     <v>       3.18985683       0.00000000       0.00000000 </v>
     <v>      -1.59492842       2.76249705       0.00000000 </v>
     <v>       0.00000000       0.00000000      30.79397887 </v>
    </varray>
    <i name="volume">    271.35562051 </i>
    <varray name="rec_basis" >
     <v>       0.31349369       0.18099567       0.00000000 </v>
     <v>       0.00000000       0.36199134       0.00000000 </v>
     <v>       0.00000000       0.00000000       0.03247388 </v>
    </varray>
   </crystal>
   <varray name="positions" >
    <v>       0.33333300       0.66666700       0.12046214 </v>
    <v>       0.66666700       0.33333300       0.06984045 </v>
    <v>       0.66666600       0.33333300       0.17108384 </v>
   </varray>
  </structure>
  <varray name="forces" >
   <v>      -0.00000000       0.00000000       0.00000000 </v>
   <v>      -0.00000000      -0.00000000      -0.14194198 </v>
   <v>       0.00000000       0.00000000       0.14194198 </v>
  </varray>
  <varray name="stress" >
   <v>      -2.47576908      -0.00000000      -0.00000000 </v>
   <v>      -0.00000000      -2.47576908       0.00000000 </v>
   <v>      -0.00000000       0.00000000       5.53589481 </v>
  </varray>
  <energy>
   <i name="e_fr_energy">    -21.48131086 </i>
   <i name="e_wo_entrp">    -21.48131086 </i>
   <i name="e_0_energy">     -0.00000000 </i>
  </energy>
  <time name="totalsc">   35.14   35.52</time>
  <eigenvalues>
   <array>
    <dimension dim="1">band</dimension>
    <dimension dim="2">kpoint</dimension>
    <dimension dim="3">spin</dimension>
    <field>eigene</field>
    <field>occ</field>
    <set>
     <set comment="spin 1">
      <set comment="kpoint 1">
       <r>  -17.8050    1.0000 </r>
       <r>  -16.5767    1.0000 </r>
       <r>   -9.3242    1.0000 </r>
       <r>   -6.3789    1.0000 </r>
       <r>   -6.3789    1.0000 </r>
       <r>   -5.4671    1.0000 </r>
       <r>   -5.2586    1.0000 </r>
       <r>   -5.2586    1.0000 </r>
       <r>   -3.7476    1.0000 </r>
       <r>   -0.9813    0.0000 </r>
       <r>   -0.9813    0.0000 </r>
       <r>   -0.7462    0.0000 </r>
       <r>   -0.7462    0.0000 </r>
       <r>    1.6738    0.0000 </r>
      </set>
      <set comment="kpoint 2">
       <r>  -17.7952    1.0000 </r>
       <r>  -16.5721    1.0000 </r>
       <r>   -9.3125    1.0000 </r>
       <r>   -6.4024    1.0000 </r>
       <r>   -6.3680    1.0000 </r>
       <r>   -5.5735    1.0000 </r>
       <r>   -5.2757    1.0000 </r>
       <r>   -5.1666    1.0000 </r>
       <r>   -3.7523    1.0000 </r>
       <r>   -0.9990    0.0000 </r>
       <r>   -0.9628    0.0000 </r>
       <r>   -0.7780    0.0000 </r>
       <r>   -0.7583    0.0000 </r>
       <r>    1.6889    0.0000 </r>
      </set>
      <set comment="kpoint 3">
       <r>  -17.7661    1.0000 </r>
       <r>  -16.5583    1.0000 </r>
       <r>   -9.2780    1.0000 </r>
       <r>   -6.4709    1.0000 </r>
       <r>   -6.3358    1.0000 </r>
       <r>   -5.7517    1.0000 </r>
       <r>   -5.3257    1.0000 </r>
       <r>   -5.0329    1.0000 </r>
       <r>   -3.7673    1.0000 </r>
       <r>   -1.0465    0.0000 </r>
       <r>   -0.9088    0.0000 </r>
       <r>   -0.8668    0.0000 </r>
       <r>   -0.7937    0.0000 </r>
       <r>    1.7515    0.0000 </r>
      </set>
      <set comment="kpoint 4">
       <r>  -17.7180    1.0000 </r>
       <r>  -16.5356    1.0000 </r>
       <r>   -9.2220    1.0000 </r>
       <r>   -6.5791    1.0000 </r>
       <r>   -6.2827    1.0000 </r>
       <r>   -5.9448    1.0000 </r>
       <r>   -5.4045    1.0000 </r>
       <r>   -4.9183    1.0000 </r>
       <r>   -3.7955    1.0000 </r>
       <r>   -1.1087    0.0000 </r>
       <r>   -0.9948    0.0000 </r>
       <r>   -0.8497    0.0000 </r>
       <r>   -0.8242    0.0000 </r>
       <r>    1.8362    0.0000 </r>
      </set>
      <set comment="kpoint 5">
       <r>  -17.6516    1.0000 </r>
       <r>  -16.5042    1.0000 </r>
       <r>   -9.1471    1.0000 </r>
       <r>   -6.7191    1.0000 </r>
       <r>   -6.2100    1.0000 </r>
       <r>   -6.1445    1.0000 </r>
       <r>   -5.5067    1.0000 </r>
       <r>   -4.8366    1.0000 </r>
       <r>   -3.8412    1.0000 </r>
       <r>   -1.1656    0.0000 </r>
       <r>   -1.1410    0.0000 </r>
       <r>   -0.9225    0.0000 </r>
       <r>   -0.7153    0.0000 </r>
       <r>    2.0014    0.0000 </r>
      </set>
      <set comment="kpoint 6">
       <r>  -17.5680    1.0000 </r>
       <r>  -16.4648    1.0000 </r>
       <r>   -9.0573    1.0000 </r>
       <r>   -6.8811    1.0000 </r>
       <r>   -6.3481    1.0000 </r>
       <r>   -6.1191    1.0000 </r>
       <r>   -5.6261    1.0000 </r>
       <r>   -4.7949    1.0000 </r>
       <r>   -3.9091    1.0000 </r>
       <r>   -1.2848    0.0000 </r>
       <r>   -1.1982    0.0000 </r>
       <r>   -1.0073    0.0000 </r>
       <r>   -0.5897    0.0000 </r>
       <r>    2.0804    0.0000 </r>
      </set>
      <set comment="kpoint 7">
       <r>  -17.4684    1.0000 </r>
       <r>  -16.4180    1.0000 </r>
       <r>   -8.9588    1.0000 </r>
       <r>   -7.0541    1.0000 </r>
       <r>   -6.5542    1.0000 </r>
       <r>   -6.0121    1.0000 </r>
       <r>   -5.7566    1.0000 </r>
       <r>   -4.7958    1.0000 </r>
       <r>   -4.0023    1.0000 </r>
       <r>   -1.4091    0.0000 </r>
       <r>   -1.1929    0.0000 </r>
       <r>   -1.0991    0.0000 </r>
       <r>   -0.4548    0.0000 </r>
       <r>    2.2205    0.0000 </r>
      </set>
      <set comment="kpoint 8">
       <r>  -17.3546    1.0000 </r>
       <r>  -16.3646    1.0000 </r>
       <r>   -8.8612    1.0000 </r>
       <r>   -7.2257    1.0000 </r>
       <r>   -6.7620    1.0000 </r>
       <r>   -5.8931    1.0000 </r>
       <r>   -5.8915    1.0000 </r>
       <r>   -4.8356    1.0000 </r>
       <r>   -4.1203    1.0000 </r>
       <r>   -1.5021    0.0000 </r>
       <r>   -1.1927    0.0000 </r>
       <r>   -1.1441    0.0000 </r>
       <r>   -0.3172    0.0000 </r>
       <r>    2.4048    0.0000 </r>
      </set>
      <set comment="kpoint 9">
       <r>  -17.2283    1.0000 </r>
       <r>  -16.3056    1.0000 </r>
       <r>   -8.7782    1.0000 </r>
       <r>   -7.3817    1.0000 </r>
       <r>   -6.9704    1.0000 </r>
       <r>   -6.0306    1.0000 </r>
       <r>   -5.7606    1.0000 </r>
       <r>   -4.9059    1.0000 </r>
       <r>   -4.2564    1.0000 </r>
       <r>   -1.5585    0.0000 </r>
       <r>   -1.2837    0.0000 </r>
       <r>   -1.0540    0.0000 </r>
       <r>   -0.1826    0.0000 </r>
       <r>    2.5571    0.0000 </r>
      </set>
      <set comment="kpoint 10">
       <r>  -17.0921    1.0000 </r>
       <r>  -16.2423    1.0000 </r>
       <r>   -8.7282    1.0000 </r>
       <r>   -7.5060    1.0000 </r>
       <r>   -7.1782    1.0000 </r>
       <r>   -6.1656    1.0000 </r>
       <r>   -5.6227    1.0000 </r>
       <r>   -4.9957    1.0000 </r>
       <r>   -4.3985    1.0000 </r>
       <r>   -1.5787    0.0000 </r>
       <r>   -1.3678    0.0000 </r>
       <r>   -0.9303    0.0000 </r>
       <r>   -0.0556    0.0000 </r>
       <r>    2.7488    0.0000 </r>
      </set>
      <set comment="kpoint 11">
       <r>  -16.9488    1.0000 </r>
       <r>  -16.1762    1.0000 </r>
       <r>   -8.7287    1.0000 </r>
       <r>   -7.5860    1.0000 </r>
       <r>   -7.3832    1.0000 </r>
       <r>   -6.2947    1.0000 </r>
       <r>   -5.4820    1.0000 </r>
       <r>   -5.0942    1.0000 </r>
       <r>   -4.5304    1.0000 </r>
       <r>   -1.5674    0.0000 </r>
       <r>   -1.4415    0.0000 </r>
       <r>   -0.7832    0.0000 </r>
       <r>    0.0608    0.0000 </r>
       <r>    2.9528    0.0000 </r>
      </set>
      <set comment="kpoint 12">
       <r>  -16.8017    1.0000 </r>
       <r>  -16.1088    1.0000 </r>
       <r>   -8.7842    1.0000 </r>
       <r>   -7.6237    1.0000 </r>
       <r>   -7.5827    1.0000 </r>
       <r>   -6.4156    1.0000 </r>
       <r>   -5.3430    1.0000 </r>
       <r>   -5.1927    1.0000 </r>
       <r>   -4.6349    1.0000 </r>
       <r>   -1.5308    0.0000 </r>
       <r>   -1.5022    0.0000 </r>
       <r>   -0.6236    0.0000 </r>
       <r>    0.1644    0.0000 </r>
       <r>    3.1596    0.0000 </r>
      </set>
      <set comment="kpoint 13">
       <r>  -16.6545    1.0000 </r>
       <r>  -16.0421    1.0000 </r>
       <r>   -8.8815    1.0000 </r>
       <r>   -7.7730    1.0000 </r>
       <r>   -7.6378    1.0000 </r>
       <r>   -6.5262    1.0000 </r>
       <r>   -5.2847    1.0000 </r>
       <r>   -5.2100    1.0000 </r>
       <r>   -4.6980    1.0000 </r>
       <r>   -1.5480    0.0000 </r>
       <r>   -1.4754    0.0000 </r>
       <r>   -0.4616    0.0000 </r>
       <r>    0.2541    0.0000 </r>
       <r>    3.3608    0.0000 </r>
      </set>
      <set comment="kpoint 14">
       <r>  -16.5115    1.0000 </r>
       <r>  -15.9780    1.0000 </r>
       <r>   -9.0006    1.0000 </r>
       <r>   -7.9501    1.0000 </r>
       <r>   -7.6502    1.0000 </r>
       <r>   -6.6247    1.0000 </r>
       <r>   -5.3664    1.0000 </r>
       <r>   -5.0874    1.0000 </r>
       <r>   -4.7125    1.0000 </r>
       <r>   -1.5785    0.0000 </r>
       <r>   -1.4072    0.0000 </r>
       <r>   -0.3067    0.0000 </r>
       <r>    0.3298    0.0000 </r>
       <r>    3.5188    0.0000 </r>
      </set>
      <set comment="kpoint 15">
       <r>  -16.3777    1.0000 </r>
       <r>  -15.9186    1.0000 </r>
       <r>   -9.1243    1.0000 </r>
       <r>   -8.1096    1.0000 </r>
       <r>   -7.6728    1.0000 </r>
       <r>   -6.7100    1.0000 </r>
       <r>   -5.4359    1.0000 </r>
       <r>   -4.9790    1.0000 </r>
       <r>   -4.6808    1.0000 </r>
       <r>   -1.5948    0.0000 </r>
       <r>   -1.3317    0.0000 </r>
       <r>   -0.1669    0.0000 </r>
       <r>    0.3918    0.0000 </r>
       <r>    3.4423    0.0000 </r>
      </set>
      <set comment="kpoint 16">
       <r>  -16.2580    1.0000 </r>
       <r>  -15.8662    1.0000 </r>
       <r>   -9.2404    1.0000 </r>
       <r>   -8.2473    1.0000 </r>
       <r>   -7.7062    1.0000 </r>
       <r>   -6.7811    1.0000 </r>
       <r>   -5.4922    1.0000 </r>
       <r>   -4.8877    1.0000 </r>
       <r>   -4.6152    1.0000 </r>
       <r>   -1.5994    0.0000 </r>
       <r>   -1.2544    0.0000 </r>
       <r>   -0.0483    0.0000 </r>
       <r>    0.4408    0.0000 </r>
       <r>    3.1653    0.0000 </r>
      </set>
      <set comment="kpoint 17">
       <r>  -16.1578    1.0000 </r>
       <r>  -15.8228    1.0000 </r>
       <r>   -9.3399    1.0000 </r>
       <r>   -8.3590    1.0000 </r>
       <r>   -7.7442    1.0000 </r>
       <r>   -6.8371    1.0000 </r>
       <r>   -5.5354    1.0000 </r>
       <r>   -4.8157    1.0000 </r>
       <r>   -4.5341    1.0000 </r>
       <r>   -1.5960    0.0000 </r>
       <r>   -1.1813    0.0000 </r>
       <r>    0.0452    0.0000 </r>
       <r>    0.4777    0.0000 </r>
       <r>    2.8755    0.0000 </r>
      </set>
      <set comment="kpoint 18">
       <r>  -16.0820    1.0000 </r>
       <r>  -15.7903    1.0000 </r>
       <r>   -9.4162    1.0000 </r>
       <r>   -8.4415    1.0000 </r>
       <r>   -7.7786    1.0000 </r>
       <r>   -6.8775    1.0000 </r>
       <r>   -5.5657    1.0000 </r>
       <r>   -4.7639    1.0000 </r>
       <r>   -4.4576    1.0000 </r>
       <r>   -1.5890    0.0000 </r>
       <r>   -1.1196    0.0000 </r>
       <r>    0.1118    0.0000 </r>
       <r>    0.5033    0.0000 </r>
       <r>    2.6378    0.0000 </r>
      </set>
      <set comment="kpoint 19">
       <r>  -16.0346    1.0000 </r>
       <r>  -15.7701    1.0000 </r>
       <r>   -9.4640    1.0000 </r>
       <r>   -8.4921    1.0000 </r>
       <r>   -7.8022    1.0000 </r>
       <r>   -6.9019    1.0000 </r>
       <r>   -5.5837    1.0000 </r>
       <r>   -4.7328    1.0000 </r>
       <r>   -4.4035    1.0000 </r>
       <r>   -1.5828    0.0000 </r>
       <r>   -1.0776    0.0000 </r>
       <r>    0.1514    0.0000 </r>
       <r>    0.5184    0.0000 </r>
       <r>    2.4823    0.0000 </r>
      </set>
      <set comment="kpoint 20">
       <r>  -16.0185    1.0000 </r>
       <r>  -15.7633    1.0000 </r>
       <r>   -9.4804    1.0000 </r>
       <r>   -8.5091    1.0000 </r>
       <r>   -7.8106    1.0000 </r>
       <r>   -6.9100    1.0000 </r>
       <r>   -5.5897    1.0000 </r>
       <r>   -4.7225    1.0000 </r>
       <r>   -4.3840    1.0000 </r>
       <r>   -1.5803    0.0000 </r>
       <r>   -1.0626    0.0000 </r>
       <r>    0.1645    0.0000 </r>
       <r>    0.5234    0.0000 </r>
       <r>    2.4281    0.0000 </r>
      </set>
      <set comment="kpoint 21">
       <r>  -16.0185    1.0000 </r>
       <r>  -15.7633    1.0000 </r>
       <r>   -9.4804    1.0000 </r>
       <r>   -8.5091    1.0000 </r>
       <r>   -7.8106    1.0000 </r>
       <r>   -6.9100    1.0000 </r>
       <r>   -5.5897    1.0000 </r>
       <r>   -4.7225    1.0000 </r>
       <r>   -4.3840    1.0000 </r>
       <r>   -1.5803    0.0000 </r>
       <r>   -1.0626    0.0000 </r>
       <r>    0.1645    0.0000 </r>
       <r>    0.5234    0.0000 </r>
       <r>    2.4281    0.0000 </r>
      </set>
      <set comment="kpoint 22">
       <r>  -16.0171    1.0000 </r>
       <r>  -15.7623    1.0000 </r>
       <r>   -9.4759    1.0000 </r>
       <r>   -8.5127    1.0000 </r>
       <r>   -7.8090    1.0000 </r>
       <r>   -6.9108    1.0000 </r>
       <r>   -5.5888    1.0000 </r>
       <r>   -4.7567    1.0000 </r>
       <r>   -4.3655    1.0000 </r>
       <r>   -1.5782    0.0000 </r>
       <r>   -1.0612    0.0000 </r>
       <r>    0.1701    0.0000 </r>
       <r>    0.5096    0.0000 </r>
       <r>    2.4338    0.0000 </r>
      </set>
      <set comment="kpoint 23">
       <r>  -16.0128    1.0000 </r>
       <r>  -15.7594    1.0000 </r>
       <r>   -9.4624    1.0000 </r>
       <r>   -8.5234    1.0000 </r>
       <r>   -7.8044    1.0000 </r>
       <r>   -6.9127    1.0000 </r>
       <r>   -5.5863    1.0000 </r>
       <r>   -4.8439    1.0000 </r>
       <r>   -4.3248    1.0000 </r>
       <r>   -1.5727    0.0000 </r>
       <r>   -1.0565    0.0000 </r>
       <r>    0.1863    0.0000 </r>
       <r>    0.4703    0.0000 </r>
       <r>    2.4507    0.0000 </r>
      </set>
      <set comment="kpoint 24">
       <r>  -16.0058    1.0000 </r>
       <r>  -15.7546    1.0000 </r>
       <r>   -9.4401    1.0000 </r>
       <r>   -8.5411    1.0000 </r>
       <r>   -7.7968    1.0000 </r>
       <r>   -6.9152    1.0000 </r>
       <r>   -5.5829    1.0000 </r>
       <r>   -4.9635    1.0000 </r>
       <r>   -4.2803    1.0000 </r>
       <r>   -1.5657    0.0000 </r>
       <r>   -1.0471    0.0000 </r>
       <r>    0.2096    0.0000 </r>
       <r>    0.4123    0.0000 </r>
       <r>    2.4780    0.0000 </r>
      </set>
      <set comment="kpoint 25">
       <r>  -15.9962    1.0000 </r>
       <r>  -15.7480    1.0000 </r>
       <r>   -9.4089    1.0000 </r>
       <r>   -8.5656    1.0000 </r>
       <r>   -7.7865    1.0000 </r>
       <r>   -6.9172    1.0000 </r>
       <r>   -5.5795    1.0000 </r>
       <r>   -5.1052    1.0000 </r>
       <r>   -4.2395    1.0000 </r>
       <r>   -1.5604    0.0000 </r>
       <r>   -1.0312    0.0000 </r>
       <r>    0.2234    0.0000 </r>
       <r>    0.3564    0.0000 </r>
       <r>    2.5146    0.0000 </r>
      </set>
      <set comment="kpoint 26">
       <r>  -15.9841    1.0000 </r>
       <r>  -15.7397    1.0000 </r>
       <r>   -9.3693    1.0000 </r>
       <r>   -8.5966    1.0000 </r>
       <r>   -7.7738    1.0000 </r>
       <r>   -6.9175    1.0000 </r>
       <r>   -5.5773    1.0000 </r>
       <r>   -5.2636    1.0000 </r>
       <r>   -4.2036    1.0000 </r>
       <r>   -1.5604    0.0000 </r>
       <r>   -1.0064    0.0000 </r>
       <r>    0.1787    0.0000 </r>
       <r>    0.3561    0.0000 </r>
       <r>    2.5591    0.0000 </r>
      </set>
      <set comment="kpoint 27">
       <r>  -15.9698    1.0000 </r>
       <r>  -15.7299    1.0000 </r>
       <r>   -9.3212    1.0000 </r>
       <r>   -8.6333    1.0000 </r>
       <r>   -7.7589    1.0000 </r>
       <r>   -6.9150    1.0000 </r>
       <r>   -5.5775    1.0000 </r>
       <r>   -5.4350    1.0000 </r>
       <r>   -4.1721    1.0000 </r>
       <r>   -1.5688    0.0000 </r>
       <r>   -0.9713    0.0000 </r>
       <r>    0.0883    0.0000 </r>
       <r>    0.4027    0.0000 </r>
       <r>    2.6104    0.0000 </r>
      </set>
      <set comment="kpoint 28">
       <r>  -15.9535    1.0000 </r>
       <r>  -15.7189    1.0000 </r>
       <r>   -9.2652    1.0000 </r>
       <r>   -8.6751    1.0000 </r>
       <r>   -7.7423    1.0000 </r>
       <r>   -6.9087    1.0000 </r>
       <r>   -5.6166    1.0000 </r>
       <r>   -5.5811    1.0000 </r>
       <r>   -4.1432    1.0000 </r>
       <r>   -1.5873    0.0000 </r>
       <r>   -0.9253    0.0000 </r>
       <r>   -0.0140    0.0000 </r>
       <r>    0.4653    0.0000 </r>
       <r>    2.6675    0.0000 </r>
      </set>
      <set comment="kpoint 29">
       <r>  -15.9356    1.0000 </r>
       <r>  -15.7068    1.0000 </r>
       <r>   -9.2014    1.0000 </r>
       <r>   -8.7209    1.0000 </r>
       <r>   -7.7244    1.0000 </r>
       <r>   -6.8978    1.0000 </r>
       <r>   -5.8054    1.0000 </r>
       <r>   -5.5891    1.0000 </r>
       <r>   -4.1154    1.0000 </r>
       <r>   -1.6163    0.0000 </r>
       <r>   -0.8695    0.0000 </r>
       <r>   -0.1174    0.0000 </r>
       <r>    0.5354    0.0000 </r>
       <r>    2.7297    0.0000 </r>
      </set>
      <set comment="kpoint 30">
       <r>  -15.9165    1.0000 </r>
       <r>  -15.6939    1.0000 </r>
       <r>   -9.1303    1.0000 </r>
       <r>   -8.7695    1.0000 </r>
       <r>   -7.7060    1.0000 </r>
       <r>   -6.8821    1.0000 </r>
       <r>   -5.9988    1.0000 </r>
       <r>   -5.6022    1.0000 </r>
       <r>   -4.0870    1.0000 </r>
       <r>   -1.6551    0.0000 </r>
       <r>   -0.8056    0.0000 </r>
       <r>   -0.2174    0.0000 </r>
       <r>    0.6093    0.0000 </r>
       <r>    2.7962    0.0000 </r>
      </set>
      <set comment="kpoint 31">
       <r>  -15.8965    1.0000 </r>
       <r>  -15.6806    1.0000 </r>
       <r>   -9.0525    1.0000 </r>
       <r>   -8.8197    1.0000 </r>
       <r>   -7.6876    1.0000 </r>
       <r>   -6.8615    1.0000 </r>
       <r>   -6.1941    1.0000 </r>
       <r>   -5.6209    1.0000 </r>
       <r>   -4.0568    1.0000 </r>
       <r>   -1.7023    0.0000 </r>
       <r>   -0.7360    0.0000 </r>
       <r>   -0.3107    0.0000 </r>
       <r>    0.6843    0.0000 </r>
       <r>    2.8667    0.0000 </r>
      </set>
      <set comment="kpoint 32">
       <r>  -15.8762    1.0000 </r>
       <r>  -15.6671    1.0000 </r>
       <r>   -8.9683    1.0000 </r>
       <r>   -8.8700    1.0000 </r>
       <r>   -7.6701    1.0000 </r>
       <r>   -6.8362    1.0000 </r>
       <r>   -6.3885    1.0000 </r>
       <r>   -5.6451    1.0000 </r>
       <r>   -4.0239    1.0000 </r>
       <r>   -1.7563    0.0000 </r>
       <r>   -0.6630    0.0000 </r>
       <r>   -0.3953    0.0000 </r>
       <r>    0.7580    0.0000 </r>
       <r>    2.9408    0.0000 </r>
      </set>
      <set comment="kpoint 33">
       <r>  -15.8560    1.0000 </r>
       <r>  -15.6539    1.0000 </r>
       <r>   -8.9190    1.0000 </r>
       <r>   -8.8786    1.0000 </r>
       <r>   -7.6547    1.0000 </r>
       <r>   -6.8069    1.0000 </r>
       <r>   -6.5789    1.0000 </r>
       <r>   -5.6744    1.0000 </r>
       <r>   -3.9880    1.0000 </r>
       <r>   -1.8150    0.0000 </r>
       <r>   -0.5890    0.0000 </r>
       <r>   -0.4699    0.0000 </r>
       <r>    0.8281    0.0000 </r>
       <r>    3.0181    0.0000 </r>
      </set>
      <set comment="kpoint 34">
       <r>  -15.8365    1.0000 </r>
       <r>  -15.6412    1.0000 </r>
       <r>   -8.9652    1.0000 </r>
       <r>   -8.7842    1.0000 </r>
       <r>   -7.6432    1.0000 </r>
       <r>   -6.7743    1.0000 </r>
       <r>   -6.7614    1.0000 </r>
       <r>   -5.7081    1.0000 </r>
       <r>   -3.9495    1.0000 </r>
       <r>   -1.8764    0.0000 </r>
       <r>   -0.5335    0.0000 </r>
       <r>   -0.5164    0.0000 </r>
       <r>    0.8925    0.0000 </r>
       <r>    3.0979    0.0000 </r>
      </set>
      <set comment="kpoint 35">
       <r>  -15.8183    1.0000 </r>
       <r>  -15.6295    1.0000 </r>
       <r>   -9.0073    1.0000 </r>
       <r>   -8.6863    1.0000 </r>
       <r>   -7.6388    1.0000 </r>
       <r>   -6.9309    1.0000 </r>
       <r>   -6.7398    1.0000 </r>
       <r>   -5.7447    1.0000 </r>
       <r>   -3.9092    1.0000 </r>
       <r>   -1.9378    0.0000 </r>
       <r>   -0.5858    0.0000 </r>
       <r>   -0.4476    0.0000 </r>
       <r>    0.9495    0.0000 </r>
       <r>    3.1794    0.0000 </r>
      </set>
      <set comment="kpoint 36">
       <r>  -15.8019    1.0000 </r>
       <r>  -15.6192    1.0000 </r>
       <r>   -9.0440    1.0000 </r>
       <r>   -8.5867    1.0000 </r>
       <r>   -7.6465    1.0000 </r>
       <r>   -7.0795    1.0000 </r>
       <r>   -6.7050    1.0000 </r>
       <r>   -5.7824    1.0000 </r>
       <r>   -3.8691    1.0000 </r>
       <r>   -1.9963    0.0000 </r>
       <r>   -0.6269    0.0000 </r>
       <r>   -0.3851    0.0000 </r>
       <r>    0.9976    0.0000 </r>
       <r>    3.2613    0.0000 </r>
      </set>
      <set comment="kpoint 37">
       <r>  -15.7881    1.0000 </r>
       <r>  -15.6106    1.0000 </r>
       <r>   -9.0742    1.0000 </r>
       <r>   -8.4884    1.0000 </r>
       <r>   -7.6738    1.0000 </r>
       <r>   -7.1957    1.0000 </r>
       <r>   -6.6724    1.0000 </r>
       <r>   -5.8182    1.0000 </r>
       <r>   -3.8318    1.0000 </r>
       <r>   -2.0484    0.0000 </r>
       <r>   -0.6572    0.0000 </r>
       <r>   -0.3317    0.0000 </r>
       <r>    1.0355    0.0000 </r>
       <r>    3.3408    0.0000 </r>
      </set>
      <set comment="kpoint 38">
       <r>  -15.7774    1.0000 </r>
       <r>  -15.6040    1.0000 </r>
       <r>   -9.0969    1.0000 </r>
       <r>   -8.3973    1.0000 </r>
       <r>   -7.7234    1.0000 </r>
       <r>   -7.2702    1.0000 </r>
       <r>   -6.6450    1.0000 </r>
       <r>   -5.8488    1.0000 </r>
       <r>   -3.8006    1.0000 </r>
       <r>   -2.0901    0.0000 </r>
       <r>   -0.6775    0.0000 </r>
       <r>   -0.2903    0.0000 </r>
       <r>    1.0626    0.0000 </r>
       <r>    3.4125    0.0000 </r>
      </set>
      <set comment="kpoint 39">
       <r>  -15.7705    1.0000 </r>
       <r>  -15.5999    1.0000 </r>
       <r>   -9.1110    1.0000 </r>
       <r>   -8.3261    1.0000 </r>
       <r>   -7.7791    1.0000 </r>
       <r>   -7.3059    1.0000 </r>
       <r>   -6.6261    1.0000 </r>
       <r>   -5.8700    1.0000 </r>
       <r>   -3.7794    1.0000 </r>
       <r>   -2.1176    0.0000 </r>
       <r>   -0.6887    0.0000 </r>
       <r>   -0.2635    0.0000 </r>
       <r>    1.0787    0.0000 </r>
       <r>    3.4656    0.0000 </r>
      </set>
      <set comment="kpoint 40">
       <r>  -15.7681    1.0000 </r>
       <r>  -15.5984    1.0000 </r>
       <r>   -9.1159    1.0000 </r>
       <r>   -8.2973    1.0000 </r>
       <r>   -7.8055    1.0000 </r>
       <r>   -7.3152    1.0000 </r>
       <r>   -6.6193    1.0000 </r>
       <r>   -5.8778    1.0000 </r>
       <r>   -3.7717    1.0000 </r>
       <r>   -2.1273    0.0000 </r>
       <r>   -0.6921    0.0000 </r>
       <r>   -0.2541    0.0000 </r>
       <r>    1.0839    0.0000 </r>
       <r>    3.4928    0.0000 </r>
      </set>
      <set comment="kpoint 41">
       <r>  -15.7681    1.0000 </r>
       <r>  -15.5984    1.0000 </r>
       <r>   -9.1159    1.0000 </r>
       <r>   -8.2973    1.0000 </r>
       <r>   -7.8055    1.0000 </r>
       <r>   -7.3152    1.0000 </r>
       <r>   -6.6193    1.0000 </r>
       <r>   -5.8778    1.0000 </r>
       <r>   -3.7717    1.0000 </r>
       <r>   -2.1273    0.0000 </r>
       <r>   -0.6921    0.0000 </r>
       <r>   -0.2541    0.0000 </r>
       <r>    1.0839    0.0000 </r>
       <r>    3.4849    0.0000 </r>
      </set>
      <set comment="kpoint 42">
       <r>  -15.7789    1.0000 </r>
       <r>  -15.6046    1.0000 </r>
       <r>   -9.0953    1.0000 </r>
       <r>   -8.3937    1.0000 </r>
       <r>   -7.7061    1.0000 </r>
       <r>   -7.2902    1.0000 </r>
       <r>   -6.6475    1.0000 </r>
       <r>   -5.8446    1.0000 </r>
       <r>   -3.8049    1.0000 </r>
       <r>   -2.0872    0.0000 </r>
       <r>   -0.6816    0.0000 </r>
       <r>   -0.2947    0.0000 </r>
       <r>    1.0648    0.0000 </r>
       <r>    3.4484    0.0000 </r>
      </set>
      <set comment="kpoint 43">
       <r>  -15.8139    1.0000 </r>
       <r>  -15.6240    1.0000 </r>
       <r>   -9.0317    1.0000 </r>
       <r>   -8.5585    1.0000 </r>
       <r>   -7.5316    1.0000 </r>
       <r>   -7.2164    1.0000 </r>
       <r>   -6.7204    1.0000 </r>
       <r>   -5.7534    1.0000 </r>
       <r>   -3.8983    1.0000 </r>
       <r>   -1.9781    0.0000 </r>
       <r>   -0.6596    0.0000 </r>
       <r>   -0.4161    0.0000 </r>
       <r>    1.0147    0.0000 </r>
       <r>    3.4427    0.0000 </r>
      </set>
      <set comment="kpoint 44">
       <r>  -15.8756    1.0000 </r>
       <r>  -15.6568    1.0000 </r>
       <r>   -8.9238    1.0000 </r>
       <r>   -8.7005    1.0000 </r>
       <r>   -7.4095    1.0000 </r>
       <r>   -7.0611    1.0000 </r>
       <r>   -6.8124    1.0000 </r>
       <r>   -5.6262    1.0000 </r>
       <r>   -4.0288    1.0000 </r>
       <r>   -1.8326    0.0000 </r>
       <r>   -0.6414    0.0000 </r>
       <r>   -0.6038    0.0000 </r>
       <r>    0.9465    0.0000 </r>
       <r>    3.5171    0.0000 </r>
      </set>
      <set comment="kpoint 45">
       <r>  -15.9646    1.0000 </r>
       <r>  -15.7027    1.0000 </r>
       <r>   -8.7973    1.0000 </r>
       <r>   -8.7723    1.0000 </r>
       <r>   -7.3589    1.0000 </r>
       <r>   -6.9022    1.0000 </r>
       <r>   -6.8362    1.0000 </r>
       <r>   -5.4815    1.0000 </r>
       <r>   -4.1700    1.0000 </r>
       <r>   -1.6899    0.0000 </r>
       <r>   -0.8278    0.0000 </r>
       <r>   -0.6417    0.0000 </r>
       <r>    0.8733    0.0000 </r>
       <r>    3.6606    0.0000 </r>
      </set>
      <set comment="kpoint 46">
       <r>  -16.0796    1.0000 </r>
       <r>  -15.7603    1.0000 </r>
       <r>   -8.8447    1.0000 </r>
       <r>   -8.5799    1.0000 </r>
       <r>   -7.3500    1.0000 </r>
       <r>   -6.9764    1.0000 </r>
       <r>   -6.5887    1.0000 </r>
       <r>   -5.3315    1.0000 </r>
       <r>   -4.3015    1.0000 </r>
       <r>   -1.5898    0.0000 </r>
       <r>   -1.0459    0.0000 </r>
       <r>   -0.6716    0.0000 </r>
       <r>    0.8033    0.0000 </r>
       <r>    3.8418    0.0000 </r>
      </set>
      <set comment="kpoint 47">
       <r>  -16.2172    1.0000 </r>
       <r>  -15.8275    1.0000 </r>
       <r>   -8.8457    1.0000 </r>
       <r>   -8.3509    1.0000 </r>
       <r>   -7.3723    1.0000 </r>
       <r>   -7.0261    1.0000 </r>
       <r>   -6.3421    1.0000 </r>
       <r>   -5.1847    1.0000 </r>
       <r>   -4.4114    1.0000 </r>
       <r>   -1.5802    0.0000 </r>
       <r>   -1.1970    0.0000 </r>
       <r>   -0.7341    0.0000 </r>
       <r>    0.7365    0.0000 </r>
       <r>    3.9845    0.0000 </r>
      </set>
      <set comment="kpoint 48">
       <r>  -16.3725    1.0000 </r>
       <r>  -15.9021    1.0000 </r>
       <r>   -8.8085    1.0000 </r>
       <r>   -8.0917    1.0000 </r>
       <r>   -7.4209    1.0000 </r>
       <r>   -7.0447    1.0000 </r>
       <r>   -6.1102    1.0000 </r>
       <r>   -5.0477    1.0000 </r>
       <r>   -4.4944    1.0000 </r>
       <r>   -1.6680    0.0000 </r>
       <r>   -1.2519    0.0000 </r>
       <r>   -0.8235    0.0000 </r>
       <r>    0.6645    0.0000 </r>
       <r>    3.9170    0.0000 </r>
      </set>
      <set comment="kpoint 49">
       <r>  -16.5399    1.0000 </r>
       <r>  -15.9816    1.0000 </r>
       <r>   -8.7474    1.0000 </r>
       <r>   -7.8112    1.0000 </r>
       <r>   -7.4844    1.0000 </r>
       <r>   -7.0263    1.0000 </r>
       <r>   -5.9095    1.0000 </r>
       <r>   -4.9257    1.0000 </r>
       <r>   -4.5467    1.0000 </r>
       <r>   -1.7634    0.0000 </r>
       <r>   -1.2738    0.0000 </r>
       <r>   -0.9287    0.0000 </r>
       <r>    0.5756    0.0000 </r>
       <r>    3.6698    0.0000 </r>
      </set>
      <set comment="kpoint 50">
       <r>  -16.7135    1.0000 </r>
       <r>  -16.0634    1.0000 </r>
       <r>   -8.6848    1.0000 </r>
       <r>   -7.5402    1.0000 </r>
       <r>   -7.5237    1.0000 </r>
       <r>   -6.9625    1.0000 </r>
       <r>   -5.7647    1.0000 </r>
       <r>   -4.8232    1.0000 </r>
       <r>   -4.5568    1.0000 </r>
       <r>   -1.8091    0.0000 </r>
       <r>   -1.2957    0.0000 </r>
       <r>   -1.0370    0.0000 </r>
       <r>    0.4607    0.0000 </r>
       <r>    3.3846    0.0000 </r>
      </set>
      <set comment="kpoint 51">
       <r>  -16.8876    1.0000 </r>
       <r>  -16.1451    1.0000 </r>
       <r>   -8.6513    1.0000 </r>
       <r>   -7.5552    1.0000 </r>
       <r>   -7.2536    1.0000 </r>
       <r>   -6.8368    1.0000 </r>
       <r>   -5.7026    1.0000 </r>
       <r>   -4.7433    1.0000 </r>
       <r>   -4.5066    1.0000 </r>
       <r>   -1.7948    0.0000 </r>
       <r>   -1.3127    0.0000 </r>
       <r>   -1.1368    0.0000 </r>
       <r>    0.3166    0.0000 </r>
       <r>    3.1749    0.0000 </r>
      </set>
      <set comment="kpoint 52">
       <r>  -17.0568    1.0000 </r>
       <r>  -16.2245    1.0000 </r>
       <r>   -8.6731    1.0000 </r>
       <r>   -7.5008    1.0000 </r>
       <r>   -7.0289    1.0000 </r>
       <r>   -6.6322    1.0000 </r>
       <r>   -5.7273    1.0000 </r>
       <r>   -4.6887    1.0000 </r>
       <r>   -4.3955    1.0000 </r>
       <r>   -1.7314    0.0000 </r>
       <r>   -1.3095    0.0000 </r>
       <r>   -1.2179    0.0000 </r>
       <r>    0.1462    0.0000 </r>
       <r>    2.8529    0.0000 </r>
      </set>
      <set comment="kpoint 53">
       <r>  -17.2166    1.0000 </r>
       <r>  -16.2995    1.0000 </r>
       <r>   -8.7496    1.0000 </r>
       <r>   -7.3760    1.0000 </r>
       <r>   -6.8392    1.0000 </r>
       <r>   -6.3716    1.0000 </r>
       <r>   -5.8132    1.0000 </r>
       <r>   -4.6614    1.0000 </r>
       <r>   -4.2500    1.0000 </r>
       <r>   -1.6366    0.0000 </r>
       <r>   -1.2716    0.0000 </r>
       <r>   -1.2715    0.0000 </r>
       <r>   -0.0431    0.0000 </r>
       <r>    2.5987    0.0000 </r>
      </set>
      <set comment="kpoint 54">
       <r>  -17.3629    1.0000 </r>
       <r>  -16.3682    1.0000 </r>
       <r>   -8.8590    1.0000 </r>
       <r>   -7.2036    1.0000 </r>
       <r>   -6.6532    1.0000 </r>
       <r>   -6.1013    1.0000 </r>
       <r>   -5.9279    1.0000 </r>
       <r>   -4.6633    1.0000 </r>
       <r>   -4.1026    1.0000 </r>
       <r>   -1.5213    0.0000 </r>
       <r>   -1.2915    0.0000 </r>
       <r>   -1.1948    0.0000 </r>
       <r>   -0.2409    0.0000 </r>
       <r>    2.3846    0.0000 </r>
      </set>
      <set comment="kpoint 55">
       <r>  -17.4923    1.0000 </r>
       <r>  -16.4291    1.0000 </r>
       <r>   -8.9786    1.0000 </r>
       <r>   -7.0093    1.0000 </r>
       <r>   -6.4567    1.0000 </r>
       <r>   -6.0482    1.0000 </r>
       <r>   -5.8512    1.0000 </r>
       <r>   -4.6962    1.0000 </r>
       <r>   -3.9756    1.0000 </r>
       <r>   -1.3853    0.0000 </r>
       <r>   -1.2746    0.0000 </r>
       <r>   -1.0921    0.0000 </r>
       <r>   -0.4355    0.0000 </r>
       <r>    2.1877    0.0000 </r>
      </set>
      <set comment="kpoint 56">
       <r>  -17.6019    1.0000 </r>
       <r>  -16.4807    1.0000 </r>
       <r>   -9.0922    1.0000 </r>
       <r>   -6.8151    1.0000 </r>
       <r>   -6.2475    1.0000 </r>
       <r>   -6.1594    1.0000 </r>
       <r>   -5.6378    1.0000 </r>
       <r>   -4.7617    1.0000 </r>
       <r>   -3.8793    1.0000 </r>
       <r>   -1.2277    0.0000 </r>
       <r>   -1.2232    0.0000 </r>
       <r>   -0.9834    0.0000 </r>
       <r>   -0.6147    0.0000 </r>
       <r>    2.0228    0.0000 </r>
      </set>
      <set comment="kpoint 57">
       <r>  -17.6894    1.0000 </r>
       <r>  -16.5221    1.0000 </r>
       <r>   -9.1893    1.0000 </r>
       <r>   -6.6400    1.0000 </r>
       <r>   -6.2523    1.0000 </r>
       <r>   -6.0293    1.0000 </r>
       <r>   -5.4703    1.0000 </r>
       <r>   -4.8607    1.0000 </r>
       <r>   -3.8140    1.0000 </r>
       <r>   -1.1479    0.0000 </r>
       <r>   -1.0590    0.0000 </r>
       <r>   -0.8857    0.0000 </r>
       <r>   -0.7674    0.0000 </r>
       <r>    1.8915    0.0000 </r>
      </set>
      <set comment="kpoint 58">
       <r>  -17.7532    1.0000 </r>
       <r>  -16.5522    1.0000 </r>
       <r>   -9.2629    1.0000 </r>
       <r>   -6.5003    1.0000 </r>
       <r>   -6.3217    1.0000 </r>
       <r>   -5.8089    1.0000 </r>
       <r>   -5.3517    1.0000 </r>
       <r>   -4.9914    1.0000 </r>
       <r>   -3.7744    1.0000 </r>
       <r>   -1.0672    0.0000 </r>
       <r>   -0.9023    0.0000 </r>
       <r>   -0.8837    0.0000 </r>
       <r>   -0.8099    0.0000 </r>
       <r>    1.7701    0.0000 </r>
      </set>
      <set comment="kpoint 59">
       <r>  -17.7920    1.0000 </r>
       <r>  -16.5705    1.0000 </r>
       <r>   -9.3087    1.0000 </r>
       <r>   -6.4101    1.0000 </r>
       <r>   -6.3645    1.0000 </r>
       <r>   -5.5991    1.0000 </r>
       <r>   -5.2817    1.0000 </r>
       <r>   -5.1455    1.0000 </r>
       <r>   -3.7539    1.0000 </r>
       <r>   -1.0047    0.0000 </r>
       <r>   -0.9565    0.0000 </r>
       <r>   -0.7883    0.0000 </r>
       <r>   -0.7624    0.0000 </r>
       <r>    1.7028    0.0000 </r>
      </set>
      <set comment="kpoint 60">
       <r>  -17.8050    1.0000 </r>
       <r>  -16.5767    1.0000 </r>
       <r>   -9.3242    1.0000 </r>
       <r>   -6.3789    1.0000 </r>
       <r>   -6.3789    1.0000 </r>
       <r>   -5.4671    1.0000 </r>
       <r>   -5.2586    1.0000 </r>
       <r>   -5.2586    1.0000 </r>
       <r>   -3.7476    1.0000 </r>
       <r>   -0.9813    0.0000 </r>
       <r>   -0.9813    0.0000 </r>
       <r>   -0.7462    0.0000 </r>
       <r>   -0.7462    0.0000 </r>
       <r>    1.6665    0.0000 </r>
      </set>
     </set>
    </set>
   </array>
  </eigenvalues>
  <separator name="orbital magnetization" >
   <v name="MAGDIPOLOUT">      0.00000000      0.00000000      0.00000000</v>
  </separator>
  <dos>
   <i name="efermi">     -2.93000000 </i>
   <total>
    <array>
     <dimension dim="1">gridpoints</dimension>
     <dimension dim="2">spin</dimension>
     <field>energy</field>
     <field>total</field>
     <field>integrated</field>
     <set>
      <set comment="spin 1">
       <r>   -12.0000   400.0000     4.0000 </r>
       <r>   -11.9900     0.0000     4.0000 </r>
       <r>   -11.9800     0.0000     4.0000 </r>
       <r>   -11.9700     0.0000     4.0000 </r>
       <r>   -11.9600     0.0000     4.0000 </r>
       <r>   -11.9500     0.0000     4.0000 </r>
       <r>   -11.9400     0.0000     4.0000 </r>
       <r>   -11.9300     0.0000     4.0000 </r>
       <r>   -11.9200     0.0000     4.0000 </r>
       <r>   -11.9100     0.0000     4.0000 </r>
       <r>   -11.9000     0.0000     4.0000 </r>
       <r>   -11.8900     0.0000     4.0000 </r>
       <r>   -11.8800     0.0000     4.0000 </r>
       <r>   -11.8700     0.0000     4.0000 </r>
       <r>   -11.8600     0.0000     4.0000 </r>
       <r>   -11.8500     0.0000     4.0000 </r>
       <r>   -11.8400     0.0000     4.0000 </r>
       <r>   -11.8300     0.0000     4.0000 </r>
       <r>   -11.8200     0.0000     4.0000 </r>
       <r>   -11.8100     0.0000     4.0000 </r>
       <r>   -11.8000     0.0000     4.0000 </r>
       <r>   -11.7900     0.0000     4.0000 </r>
       <r>   -11.7800     0.0000     4.0000 </r>
       <r>   -11.7700     0.0000     4.0000 </r>
       <r>   -11.7600     0.0000     4.0000 </r>
       <r>   -11.7500     0.0000     4.0000 </r>
       <r>   -11.7400     0.0000     4.0000 </r>
       <r>   -11.7300     0.0000     4.0000 </r>
       <r>   -11.7200     0.0000     4.0000 </r>
       <r>   -11.7100     0.0000     4.0000 </r>
       <r>   -11.7000     0.0000     4.0000 </r>
       <r>   -11.6900     0.0000     4.0000 </r>
       <r>   -11.6800     0.0000     4.0000 </r>
       <r>   -11.6700     0.0000     4.0000 </r>
       <r>   -11.6600     0.0000     4.0000 </r>
       <r>   -11.6500     0.0000     4.0000 </r>
       <r>   -11.6400     0.0000     4.0000 </r>
       <r>   -11.6300     0.0000     4.0000 </r>
       <r>   -11.6200     0.0000     4.0000 </r>
       <r>   -11.6100     0.0000     4.0000 </r>
       <r>   -11.6000     0.0000     4.0000 </r>
       <r>   -11.5900     0.0000     4.0000 </r>
       <r>   -11.5800     0.0000     4.0000 </r>
       <r>   -11.5700     0.0000     4.0000 </r>
       <r>   -11.5600     0.0000     4.0000 </r>
       <r>   -11.5500     0.0000     4.0000 </r>
       <r>   -11.5400     0.0000     4.0000 </r>
       <r>   -11.5300     0.0000     4.0000 </r>
       <r>   -11.5200     0.0000     4.0000 </r>
       <r>   -11.5100     0.0000     4.0000 </r>
       <r>   -11.5000     0.0000     4.0000 </r>
       <r>   -11.4900     0.0000     4.0000 </r>
       <r>   -11.4800     0.0000     4.0000 </r>
       <r>   -11.4700     0.0000     4.0000 </r>
       <r>   -11.4600     0.0000     4.0000 </r>
       <r>   -11.4500     0.0000     4.0000 </r>
       <r>   -11.4400     0.0000     4.0000 </r>
       <r>   -11.4300     0.0000     4.0000 </r>
       <r>   -11.4200     0.0000     4.0000 </r>
       <r>   -11.4100     0.0000     4.0000 </r>
       <r>   -11.4000     0.0000     4.0000 </r>
       <r>   -11.3900     0.0000     4.0000 </r>
       <r>   -11.3800     0.0000     4.0000 </r>
       <r>   -11.3700     0.0000     4.0000 </r>
       <r>   -11.3600     0.0000     4.0000 </r>
       <r>   -11.3500     0.0000     4.0000 </r>
       <r>   -11.3400     0.0000     4.0000 </r>
       <r>   -11.3300     0.0000     4.0000 </r>
       <r>   -11.3200     0.0000     4.0000 </r>
       <r>   -11.3100     0.0000     4.0000 </r>
       <r>   -11.3000     0.0000     4.0000 </r>
       <r>   -11.2900     0.0000     4.0000 </r>
       <r>   -11.2800     0.0000     4.0000 </r>
       <r>   -11.2700     0.0000     4.0000 </r>
       <r>   -11.2600     0.0000     4.0000 </r>
       <r>   -11.2500     0.0000     4.0000 </r>
       <r>   -11.2400     0.0000     4.0000 </r>
       <r>   -11.2300     0.0000     4.0000 </r>
       <r>   -11.2200     0.0000     4.0000 </r>
       <r>   -11.2100     0.0000     4.0000 </r>
       <r>   -11.2000     0.0000     4.0000 </r>
       <r>   -11.1900     0.0000     4.0000 </r>
       <r>   -11.1800     0.0000     4.0000 </r>
       <r>   -11.1700     0.0000     4.0000 </r>
       <r>   -11.1600     0.0000     4.0000 </r>
       <r>   -11.1500     0.0000     4.0000 </r>
       <r>   -11.1400     0.0000     4.0000 </r>
       <r>   -11.1300     0.0000     4.0000 </r>
       <r>   -11.1200     0.0000     4.0000 </r>
       <r>   -11.1100     0.0000     4.0000 </r>
       <r>   -11.1000     0.0000     4.0000 </r>
       <r>   -11.0900     0.0000     4.0000 </r>
       <r>   -11.0800     0.0000     4.0000 </r>
       <r>   -11.0700     0.0000     4.0000 </r>
       <r>   -11.0600     0.0000     4.0000 </r>
       <r>   -11.0500     0.0000     4.0000 </r>
       <r>   -11.0400     0.0000     4.0000 </r>
       <r>   -11.0300     0.0000     4.0000 </r>
       <r>   -11.0200     0.0000     4.0000 </r>
       <r>   -11.0100     0.0000     4.0000 </r>
       <r>   -11.0000     0.0000     4.0000 </r>
       <r>   -10.9900     0.0000     4.0000 </r>
       <r>   -10.9800     0.0000     4.0000 </r>
       <r>   -10.9700     0.0000     4.0000 </r>
       <r>   -10.9600     0.0000     4.0000 </r>
       <r>   -10.9500     0.0000     4.0000 </r>
       <r>   -10.9400     0.0000     4.0000 </r>
       <r>   -10.9300     0.0000     4.0000 </r>
       <r>   -10.9200     0.0000     4.0000 </r>
       <r>   -10.9100     0.0000     4.0000 </r>
       <r>   -10.9000     0.0000     4.0000 </r>
       <r>   -10.8900     0.0000     4.0000 </r>
       <r>   -10.8800     0.0000     4.0000 </r>
       <r>   -10.8700     0.0000     4.0000 </r>
       <r>   -10.8600     0.0000     4.0000 </r>
       <r>   -10.8500     0.0000     4.0000 </r>
       <r>   -10.8400     0.0000     4.0000 </r>
       <r>   -10.8300     0.0000     4.0000 </r>
       <r>   -10.8200     0.0000     4.0000 </r>
       <r>   -10.8100     0.0000     4.0000 </r>
       <r>   -10.8000     0.0000     4.0000 </r>
       <r>   -10.7900     0.0000     4.0000 </r>
       <r>   -10.7800     0.0000     4.0000 </r>
       <r>   -10.7700     0.0000     4.0000 </r>
       <r>   -10.7600     0.0000     4.0000 </r>
       <r>   -10.7500     0.0000     4.0000 </r>
       <r>   -10.7400     0.0000     4.0000 </r>
       <r>   -10.7300     0.0000     4.0000 </r>
       <r>   -10.7200     0.0000     4.0000 </r>
       <r>   -10.7100     0.0000     4.0000 </r>
       <r>   -10.7000     0.0000     4.0000 </r>
       <r>   -10.6900     0.0000     4.0000 </r>
       <r>   -10.6800     0.0000     4.0000 </r>
       <r>   -10.6700     0.0000     4.0000 </r>
       <r>   -10.6600     0.0000     4.0000 </r>
       <r>   -10.6500     0.0000     4.0000 </r>
       <r>   -10.6400     0.0000     4.0000 </r>
       <r>   -10.6300     0.0000     4.0000 </r>
       <r>   -10.6200     0.0000     4.0000 </r>
       <r>   -10.6100     0.0000     4.0000 </r>
       <r>   -10.6000     0.0000     4.0000 </r>
       <r>   -10.5900     0.0000     4.0000 </r>
       <r>   -10.5800     0.0000     4.0000 </r>
       <r>   -10.5700     0.0000     4.0000 </r>
       <r>   -10.5600     0.0000     4.0000 </r>
       <r>   -10.5500     0.0000     4.0000 </r>
       <r>   -10.5400     0.0000     4.0000 </r>
       <r>   -10.5300     0.0000     4.0000 </r>
       <r>   -10.5200     0.0000     4.0000 </r>
       <r>   -10.5100     0.0000     4.0000 </r>
       <r>   -10.5000     0.0000     4.0000 </r>
       <r>   -10.4900     0.0000     4.0000 </r>
       <r>   -10.4800     0.0000     4.0000 </r>
       <r>   -10.4700     0.0000     4.0000 </r>
       <r>   -10.4600     0.0000     4.0000 </r>
       <r>   -10.4500     0.0000     4.0000 </r>
       <r>   -10.4400     0.0000     4.0000 </r>
       <r>   -10.4300     0.0000     4.0000 </r>
       <r>   -10.4200     0.0000     4.0000 </r>
       <r>   -10.4100     0.0000     4.0000 </r>
       <r>   -10.4000     0.0000     4.0000 </r>
       <r>   -10.3900     0.0000     4.0000 </r>
       <r>   -10.3800     0.0000     4.0000 </r>
       <r>   -10.3700     0.0000     4.0000 </r>
       <r>   -10.3600     0.0000     4.0000 </r>
       <r>   -10.3500     0.0000     4.0000 </r>
       <r>   -10.3400     0.0000     4.0000 </r>
       <r>   -10.3300     0.0000     4.0000 </r>
       <r>   -10.3200     0.0000     4.0000 </r>
       <r>   -10.3100     0.0000     4.0000 </r>
       <r>   -10.3000     0.0000     4.0000 </r>
       <r>   -10.2900     0.0000     4.0000 </r>
       <r>   -10.2800     0.0000     4.0000 </r>
       <r>   -10.2700     0.0000     4.0000 </r>
       <r>   -10.2600     0.0000     4.0000 </r>
       <r>   -10.2500     0.0000     4.0000 </r>
       <r>   -10.2400     0.0000     4.0000 </r>
       <r>   -10.2300     0.0000     4.0000 </r>
       <r>   -10.2200     0.0000     4.0000 </r>
       <r>   -10.2100     0.0000     4.0000 </r>
       <r>   -10.2000     0.0000     4.0000 </r>
       <r>   -10.1900     0.0000     4.0000 </r>
       <r>   -10.1800     0.0000     4.0000 </r>
       <r>   -10.1700     0.0000     4.0000 </r>
       <r>   -10.1600     0.0000     4.0000 </r>
       <r>   -10.1500     0.0000     4.0000 </r>
       <r>   -10.1400     0.0000     4.0000 </r>
       <r>   -10.1300     0.0000     4.0000 </r>
       <r>   -10.1200     0.0000     4.0000 </r>
       <r>   -10.1100     0.0000     4.0000 </r>
       <r>   -10.1000     0.0000     4.0000 </r>
       <r>   -10.0900     0.0000     4.0000 </r>
       <r>   -10.0800     0.0000     4.0000 </r>
       <r>   -10.0700     0.0001     4.0000 </r>
       <r>   -10.0600     0.0001     4.0000 </r>
       <r>   -10.0500     0.0001     4.0000 </r>
       <r>   -10.0400     0.0002     4.0000 </r>
       <r>   -10.0300     0.0002     4.0000 </r>
       <r>   -10.0200     0.0003     4.0000 </r>
       <r>   -10.0100     0.0004     4.0000 </r>
       <r>   -10.0000     0.0005     4.0000 </r>
       <r>    -9.9900     0.0006     4.0000 </r>
       <r>    -9.9800     0.0008     4.0000 </r>
       <r>    -9.9700     0.0010     4.0000 </r>
       <r>    -9.9600     0.0013     4.0001 </r>
       <r>    -9.9500     0.0017     4.0001 </r>
       <r>    -9.9400     0.0022     4.0001 </r>
       <r>    -9.9300     0.0028     4.0001 </r>
       <r>    -9.9200     0.0035     4.0002 </r>
       <r>    -9.9100     0.0044     4.0002 </r>
       <r>    -9.9000     0.0055     4.0003 </r>
       <r>    -9.8900     0.0069     4.0003 </r>
       <r>    -9.8800     0.0085     4.0004 </r>
       <r>    -9.8700     0.0105     4.0005 </r>
       <r>    -9.8600     0.0129     4.0006 </r>
       <r>    -9.8500     0.0158     4.0008 </r>
       <r>    -9.8400     0.0192     4.0010 </r>
       <r>    -9.8300     0.0232     4.0012 </r>
       <r>    -9.8200     0.0280     4.0015 </r>
       <r>    -9.8100     0.0336     4.0018 </r>
       <r>    -9.8000     0.0401     4.0022 </r>
       <r>    -9.7900     0.0477     4.0027 </r>
       <r>    -9.7800     0.0564     4.0033 </r>
       <r>    -9.7700     0.0665     4.0040 </r>
       <r>    -9.7600     0.0779     4.0047 </r>
       <r>    -9.7500     0.0910     4.0056 </r>
       <r>    -9.7400     0.1057     4.0067 </r>
       <r>    -9.7300     0.1223     4.0079 </r>
       <r>    -9.7200     0.1409     4.0093 </r>
       <r>    -9.7100     0.1616     4.0109 </r>
       <r>    -9.7000     0.1845     4.0128 </r>
       <r>    -9.6900     0.2098     4.0149 </r>
       <r>    -9.6800     0.2376     4.0173 </r>
       <r>    -9.6700     0.2679     4.0199 </r>
       <r>    -9.6600     0.3008     4.0230 </r>
       <r>    -9.6500     0.3363     4.0263 </r>
       <r>    -9.6400     0.3745     4.0301 </r>
       <r>    -9.6300     0.4154     4.0342 </r>
       <r>    -9.6200     0.4589     4.0388 </r>
       <r>    -9.6100     0.5049     4.0439 </r>
       <r>    -9.6000     0.5535     4.0494 </r>
       <r>    -9.5900     0.6044     4.0554 </r>
       <r>    -9.5800     0.6575     4.0620 </r>
       <r>    -9.5700     0.7126     4.0691 </r>
       <r>    -9.5600     0.7696     4.0768 </r>
       <r>    -9.5500     0.8282     4.0851 </r>
       <r>    -9.5400     0.8882     4.0940 </r>
       <r>    -9.5300     0.9493     4.1035 </r>
       <r>    -9.5200     1.0113     4.1136 </r>
       <r>    -9.5100     1.0738     4.1243 </r>
       <r>    -9.5000     1.1367     4.1357 </r>
       <r>    -9.4900     1.1995     4.1477 </r>
       <r>    -9.4800     1.2621     4.1603 </r>
       <r>    -9.4700     1.3241     4.1736 </r>
       <r>    -9.4600     1.3853     4.1874 </r>
       <r>    -9.4500     1.4456     4.2019 </r>
       <r>    -9.4400     1.5046     4.2169 </r>
       <r>    -9.4300     1.5621     4.2325 </r>
       <r>    -9.4200     1.6181     4.2487 </r>
       <r>    -9.4100     1.6724     4.2654 </r>
       <r>    -9.4000     1.7248     4.2827 </r>
       <r>    -9.3900     1.7753     4.3004 </r>
       <r>    -9.3800     1.8238     4.3187 </r>
       <r>    -9.3700     1.8704     4.3374 </r>
       <r>    -9.3600     1.9150     4.3565 </r>
       <r>    -9.3500     1.9576     4.3761 </r>
       <r>    -9.3400     1.9984     4.3961 </r>
       <r>    -9.3300     2.0374     4.4165 </r>
       <r>    -9.3200     2.0746     4.4372 </r>
       <r>    -9.3100     2.1102     4.4583 </r>
       <r>    -9.3000     2.1443     4.4798 </r>
       <r>    -9.2900     2.1770     4.5015 </r>
       <r>    -9.2800     2.2084     4.5236 </r>
       <r>    -9.2700     2.2386     4.5460 </r>
       <r>    -9.2600     2.2677     4.5687 </r>
       <r>    -9.2500     2.2959     4.5916 </r>
       <r>    -9.2400     2.3232     4.6149 </r>
       <r>    -9.2300     2.3497     4.6384 </r>
       <r>    -9.2200     2.3755     4.6621 </r>
       <r>    -9.2100     2.4005     4.6861 </r>
       <r>    -9.2000     2.4249     4.7104 </r>
       <r>    -9.1900     2.4486     4.7349 </r>
       <r>    -9.1800     2.4717     4.7596 </r>
       <r>    -9.1700     2.4941     4.7845 </r>
       <r>    -9.1600     2.5158     4.8097 </r>
       <r>    -9.1500     2.5369     4.8350 </r>
       <r>    -9.1400     2.5572     4.8606 </r>
       <r>    -9.1300     2.5768     4.8864 </r>
       <r>    -9.1200     2.5957     4.9123 </r>
       <r>    -9.1100     2.6138     4.9385 </r>
       <r>    -9.1000     2.6312     4.9648 </r>
       <r>    -9.0900     2.6478     4.9913 </r>
       <r>    -9.0800     2.6638     5.0179 </r>
       <r>    -9.0700     2.6790     5.0447 </r>
       <r>    -9.0600     2.6936     5.0716 </r>
       <r>    -9.0500     2.7077     5.0987 </r>
       <r>    -9.0400     2.7214     5.1259 </r>
       <r>    -9.0300     2.7346     5.1533 </r>
       <r>    -9.0200     2.7475     5.1807 </r>
       <r>    -9.0100     2.7602     5.2083 </r>
       <r>    -9.0000     2.7728     5.2361 </r>
       <r>    -8.9900     2.7853     5.2639 </r>
       <r>    -8.9800     2.7979     5.2919 </r>
       <r>    -8.9700     2.8106     5.3200 </r>
       <r>    -8.9600     2.8234     5.3482 </r>
       <r>    -8.9500     2.8364     5.3766 </r>
       <r>    -8.9400     2.8495     5.4051 </r>
       <r>    -8.9300     2.8627     5.4337 </r>
       <r>    -8.9200     2.8760     5.4625 </r>
       <r>    -8.9100     2.8892     5.4914 </r>
       <r>    -8.9000     2.9023     5.5204 </r>
       <r>    -8.8900     2.9151     5.5496 </r>
       <r>    -8.8800     2.9275     5.5788 </r>
       <r>    -8.8700     2.9393     5.6082 </r>
       <r>    -8.8600     2.9502     5.6377 </r>
       <r>    -8.8500     2.9602     5.6673 </r>
       <r>    -8.8400     2.9689     5.6970 </r>
       <r>    -8.8300     2.9762     5.7268 </r>
       <r>    -8.8200     2.9819     5.7566 </r>
       <r>    -8.8100     2.9858     5.7865 </r>
       <r>    -8.8000     2.9877     5.8163 </r>
       <r>    -8.7900     2.9875     5.8462 </r>
       <r>    -8.7800     2.9850     5.8761 </r>
       <r>    -8.7700     2.9801     5.9059 </r>
       <r>    -8.7600     2.9727     5.9356 </r>
       <r>    -8.7500     2.9628     5.9652 </r>
       <r>    -8.7400     2.9504     5.9947 </r>
       <r>    -8.7300     2.9355     6.0241 </r>
       <r>    -8.7200     2.9181     6.0533 </r>
       <r>    -8.7100     2.8982     6.0822 </r>
       <r>    -8.7000     2.8759     6.1110 </r>
       <r>    -8.6900     2.8514     6.1395 </r>
       <r>    -8.6800     2.8247     6.1678 </r>
       <r>    -8.6700     2.7959     6.1957 </r>
       <r>    -8.6600     2.7652     6.2234 </r>
       <r>    -8.6500     2.7328     6.2507 </r>
       <r>    -8.6400     2.6987     6.2777 </r>
       <r>    -8.6300     2.6631     6.3043 </r>
       <r>    -8.6200     2.6262     6.3306 </r>
       <r>    -8.6100     2.5880     6.3565 </r>
       <r>    -8.6000     2.5486     6.3819 </r>
       <r>    -8.5900     2.5082     6.4070 </r>
       <r>    -8.5800     2.4669     6.4317 </r>
       <r>    -8.5700     2.4248     6.4559 </r>
       <r>    -8.5600     2.3818     6.4798 </r>
       <r>    -8.5500     2.3382     6.5031 </r>
       <r>    -8.5400     2.2940     6.5261 </r>
       <r>    -8.5300     2.2492     6.5486 </r>
       <r>    -8.5200     2.2039     6.5706 </r>
       <r>    -8.5100     2.1581     6.5922 </r>
       <r>    -8.5000     2.1119     6.6133 </r>
       <r>    -8.4900     2.0653     6.6340 </r>
       <r>    -8.4800     2.0184     6.6542 </r>
       <r>    -8.4700     1.9712     6.6739 </r>
       <r>    -8.4600     1.9236     6.6931 </r>
       <r>    -8.4500     1.8759     6.7119 </r>
       <r>    -8.4400     1.8279     6.7301 </r>
       <r>    -8.4300     1.7798     6.7479 </r>
       <r>    -8.4200     1.7316     6.7653 </r>
       <r>    -8.4100     1.6833     6.7821 </r>
       <r>    -8.4000     1.6350     6.7984 </r>
       <r>    -8.3900     1.5868     6.8143 </r>
       <r>    -8.3800     1.5386     6.8297 </r>
       <r>    -8.3700     1.4906     6.8446 </r>
       <r>    -8.3600     1.4428     6.8590 </r>
       <r>    -8.3500     1.3953     6.8730 </r>
       <r>    -8.3400     1.3482     6.8865 </r>
       <r>    -8.3300     1.3014     6.8995 </r>
       <r>    -8.3200     1.2553     6.9120 </r>
       <r>    -8.3100     1.2097     6.9241 </r>
       <r>    -8.3000     1.1649     6.9358 </r>
       <r>    -8.2900     1.1209     6.9470 </r>
       <r>    -8.2800     1.0779     6.9578 </r>
       <r>    -8.2700     1.0359     6.9681 </r>
       <r>    -8.2600     0.9951     6.9781 </r>
       <r>    -8.2500     0.9556     6.9876 </r>
       <r>    -8.2400     0.9176     6.9968 </r>
       <r>    -8.2300     0.8812     7.0056 </r>
       <r>    -8.2200     0.8466     7.0141 </r>
       <r>    -8.2100     0.8139     7.0222 </r>
       <r>    -8.2000     0.7833     7.0301 </r>
       <r>    -8.1900     0.7549     7.0376 </r>
       <r>    -8.1800     0.7290     7.0449 </r>
       <r>    -8.1700     0.7057     7.0519 </r>
       <r>    -8.1600     0.6852     7.0588 </r>
       <r>    -8.1500     0.6677     7.0655 </r>
       <r>    -8.1400     0.6534     7.0720 </r>
       <r>    -8.1300     0.6425     7.0784 </r>
[...]
        <r>  0.0108  0.1401  0.0057  0.0477  0.0000  0.0000  0.0000  0.0000  0.0000 </r>
        <r>  0.0065  0.1032  0.0042  0.0356  0.0000  0.0000  0.0000  0.0000  0.0000 </r>
       </set>
       <set comment="band 11">
        <r>  0.0000  0.0001  0.0003  0.0000  0.0006  0.2686  0.0003  0.1763  0.0019 </r>
        <r>  0.0146  0.0693  0.0028  0.0233  0.0000  0.0000  0.0000  0.0000  0.0000 </r>
        <r>  0.0189  0.1064  0.0044  0.0353  0.0000  0.0000  0.0000  0.0000  0.0000 </r>
       </set>
       <set comment="band 12">
        <r>  0.0011  0.0065  0.0000  0.0122  0.2532  0.0000  0.0054  0.0000  0.0845 </r>
        <r>  0.0000  0.0513  0.0003  0.1522  0.0000  0.0000  0.0000  0.0000  0.0000 </r>
        <r>  0.0000  0.0511  0.0003  0.1516  0.0000  0.0000  0.0000  0.0000  0.0000 </r>
       </set>
       <set comment="band 13">
        <r>  0.0000  0.0000  0.0007  0.0000  0.0000  0.1567  0.0000  0.2343  0.0000 </r>
        <r>  0.0004  0.0448  0.0012  0.1342  0.0000  0.0000  0.0000  0.0000  0.0000 </r>
        <r>  0.0004  0.0452  0.0012  0.1347  0.0000  0.0000  0.0000  0.0000  0.0000 </r>
       </set>
       <set comment="band 14">
        <r>  0.0151  0.0017  0.0000  0.0007  0.0009  0.0000  0.0236  0.0000  0.0024 </r>
        <r>  0.0124  0.0060  0.0074  0.0020  0.0000  0.0000  0.0000  0.0000  0.0000 </r>
        <r>  0.0105  0.0052  0.0031  0.0018  0.0000  0.0000  0.0000  0.0000  0.0000 </r>
       </set>
      </set>
      <set comment="kpoint 57">
       <set comment="band 1">
        <r>  0.1253  0.0026  0.0000  0.0009  0.0004  0.0000  0.0003  0.0000  0.0011 </r>
        <r>  0.2778  0.0003  0.0051  0.0001  0.0000  0.0000  0.0000  0.0000  0.0000 </r>
        <r>  0.2771  0.0003  0.0051  0.0001  0.0000  0.0000  0.0000  0.0000  0.0000 </r>
       </set>
       <set comment="band 2">
        <r>  0.0000  0.0000  0.0566  0.0000  0.0000  0.0050  0.0000  0.0017  0.0000 </r>
        <r>  0.3158  0.0002  0.0005  0.0001  0.0000  0.0000  0.0000  0.0000  0.0000 </r>
        <r>  0.3165  0.0002  0.0005  0.0001  0.0000  0.0000  0.0000  0.0000  0.0000 </r>
       </set>
       <set comment="band 3">
        <r>  0.1173  0.0048  0.0000  0.0017  0.0023  0.0000  0.1992  0.0000  0.0061 </r>
        <r>  0.0167  0.0007  0.1282  0.0002  0.0000  0.0000  0.0000  0.0000  0.0000 </r>
        <r>  0.0167  0.0007  0.1281  0.0002  0.0000  0.0000  0.0000  0.0000  0.0000 </r>
       </set>
       <set comment="band 4">
        <r>  0.0180  0.0040  0.0000  0.0036  0.1350  0.0000  0.0003  0.0000  0.4044 </r>
        <r>  0.0043  0.0862  0.0002  0.0287  0.0000  0.0000  0.0000  0.0000  0.0000 </r>
        <r>  0.0043  0.0861  0.0002  0.0287  0.0000  0.0000  0.0000  0.0000  0.0000 </r>
       </set>
       <set comment="band 5">
        <r>  0.0000  0.0046  0.0000  0.0064  0.4311  0.0000  0.0003  0.0000  0.1439 </r>
        <r>  0.0000  0.0300  0.0000  0.0900  0.0000  0.0000  0.0000  0.0000  0.0000 </r>
        <r>  0.0000  0.0299  0.0000  0.0898  0.0000  0.0000  0.0000  0.0000  0.0000 </r>
       </set>
       <set comment="band 6">
        <r>  0.0000  0.0000  0.0094  0.0000  0.0000  0.2310  0.0000  0.0804  0.0000 </r>
        <r>  0.0002  0.0490  0.1208  0.0187  0.0000  0.0000  0.0000  0.0000  0.0000 </r>
        <r>  0.0002  0.0491  0.1208  0.0187  0.0000  0.0000  0.0000  0.0000  0.0000 </r>
       </set>
       <set comment="band 7">
        <r>  0.0000  0.0000  0.0004  0.0000  0.0000  0.1352  0.0000  0.3918  0.0000 </r>
        <r>  0.0003  0.0456  0.0005  0.1077  0.0000  0.0000  0.0000  0.0000  0.0000 </r>
        <r>  0.0003  0.0456  0.0005  0.1078  0.0000  0.0000  0.0000  0.0000  0.0000 </r>
       </set>
       <set comment="band 8">
        <r>  0.0000  0.0000  0.0533  0.0000  0.0000  0.1284  0.0000  0.0429  0.0000 </r>
        <r>  0.0001  0.0715  0.1252  0.0318  0.0000  0.0000  0.0000  0.0000  0.0000 </r>
        <r>  0.0001  0.0715  0.1250  0.0318  0.0000  0.0000  0.0000  0.0000  0.0000 </r>
       </set>
       <set comment="band 9">
        <r>  0.0164  0.0006  0.0000  0.0002  0.0054  0.0000  0.5841  0.0000  0.0143 </r>
        <r>  0.0037  0.0052  0.0651  0.0018  0.0000  0.0000  0.0000  0.0000  0.0000 </r>
        <r>  0.0037  0.0052  0.0653  0.0018  0.0000  0.0000  0.0000  0.0000  0.0000 </r>
       </set>
       <set comment="band 10">
        <r>  0.0000  0.0000  0.0005  0.0000  0.0000  0.2709  0.0000  0.1413  0.0000 </r>
        <r>  0.0114  0.1078  0.0018  0.0360  0.0000  0.0000  0.0000  0.0000  0.0000 </r>
        <r>  0.0112  0.1054  0.0018  0.0352  0.0000  0.0000  0.0000  0.0000  0.0000 </r>
       </set>
       <set comment="band 11">
        <r>  0.0019  0.0108  0.0000  0.0049  0.0778  0.0000  0.0209  0.0000  0.2332 </r>
        <r>  0.0067  0.1381  0.0027  0.0463  0.0000  0.0000  0.0000  0.0000  0.0000 </r>
        <r>  0.0068  0.1406  0.0027  0.0472  0.0000  0.0000  0.0000  0.0000  0.0000 </r>
       </set>
       <set comment="band 12">
        <r>  0.0004  0.0059  0.0000  0.0133  0.2409  0.0000  0.0014  0.0000  0.0805 </r>
        <r>  0.0000  0.0543  0.0001  0.1624  0.0000  0.0000  0.0000  0.0000  0.0000 </r>
        <r>  0.0000  0.0535  0.0001  0.1599  0.0000  0.0000  0.0000  0.0000  0.0000 </r>
       </set>
       <set comment="band 13">
        <r>  0.0000  0.0000  0.0003  0.0000  0.0000  0.1299  0.0000  0.2469  0.0000 </r>
        <r>  0.0001  0.0454  0.0004  0.1358  0.0000  0.0000  0.0000  0.0000  0.0000 </r>
        <r>  0.0001  0.0462  0.0004  0.1384  0.0000  0.0000  0.0000  0.0000  0.0000 </r>
       </set>
       <set comment="band 14">
        <r>  0.0187  0.0012  0.0001  0.0005  0.0006  0.0001  0.0219  0.0000  0.0016 </r>
        <r>  0.0120  0.0041  0.0020  0.0014  0.0000  0.0000  0.0000  0.0000  0.0000 </r>
        <r>  0.0163  0.0052  0.0089  0.0017  0.0000  0.0000  0.0000  0.0000  0.0000 </r>
       </set>
      </set>
      <set comment="kpoint 58">
       <set comment="band 1">
        <r>  0.1289  0.0012  0.0000  0.0004  0.0002  0.0000  0.0003  0.0000  0.0005 </r>
        <r>  0.2767  0.0002  0.0051  0.0001  0.0000  0.0000  0.0000  0.0000  0.0000 </r>
        <r>  0.2760  0.0002  0.0051  0.0001  0.0000  0.0000  0.0000  0.0000  0.0000 </r>
       </set>
       <set comment="band 2">
        <r>  0.0000  0.0000  0.0583  0.0000  0.0000  0.0022  0.0000  0.0007  0.0000 </r>
        <r>  0.3154  0.0001  0.0004  0.0000  0.0000  0.0000  0.0000  0.0000  0.0000 </r>
        <r>  0.3162  0.0001  0.0004  0.0000  0.0000  0.0000  0.0000  0.0000  0.0000 </r>
       </set>
       <set comment="band 3">
        <r>  0.1237  0.0022  0.0000  0.0007  0.0009  0.0000  0.2031  0.0000  0.0024 </r>
        <r>  0.0174  0.0003  0.1268  0.0001  0.0000  0.0000  0.0000  0.0000  0.0000 </r>
        <r>  0.0174  0.0003  0.1266  0.0001  0.0000  0.0000  0.0000  0.0000  0.0000 </r>
       </set>
       <set comment="band 4">
        <r>  0.0081  0.0045  0.0000  0.0025  0.1428  0.0000  0.0001  0.0000  0.4281 </r>
        <r>  0.0020  0.0857  0.0000  0.0286  0.0000  0.0000  0.0000  0.0000  0.0000 </r>
        <r>  0.0020  0.0855  0.0000  0.0285  0.0000  0.0000  0.0000  0.0000  0.0000 </r>
       </set>
       <set comment="band 5">
        <r>  0.0000  0.0029  0.0000  0.0056  0.4409  0.0000  0.0000  0.0000  0.1470 </r>
        <r>  0.0000  0.0291  0.0000  0.0873  0.0000  0.0000  0.0000  0.0000  0.0000 </r>
        <r>  0.0000  0.0290  0.0000  0.0871  0.0000  0.0000  0.0000  0.0000  0.0000 </r>
       </set>
       <set comment="band 6">
        <r>  0.0000  0.0000  0.0180  0.0000  0.0000  0.2010  0.0000  0.0681  0.0000 </r>
        <r>  0.0002  0.0428  0.1384  0.0154  0.0000  0.0000  0.0000  0.0000  0.0000 </r>
        <r>  0.0002  0.0429  0.1384  0.0155  0.0000  0.0000  0.0000  0.0000  0.0000 </r>
       </set>
       <set comment="band 7">
        <r>  0.0000  0.0000  0.0001  0.0000  0.0000  0.1357  0.0000  0.4022  0.0000 </r>
        <r>  0.0001  0.0415  0.0001  0.1107  0.0000  0.0000  0.0000  0.0000  0.0000 </r>
        <r>  0.0001  0.0416  0.0001  0.1108  0.0000  0.0000  0.0000  0.0000  0.0000 </r>
       </set>
       <set comment="band 8">
        <r>  0.0000  0.0000  0.0409  0.0000  0.0000  0.1842  0.0000  0.0616  0.0000 </r>
        <r>  0.0000  0.0740  0.1085  0.0282  0.0000  0.0000  0.0000  0.0000  0.0000 </r>
        <r>  0.0000  0.0740  0.1084  0.0282  0.0000  0.0000  0.0000  0.0000  0.0000 </r>
       </set>
       <set comment="band 9">
        <r>  0.0158  0.0003  0.0000  0.0001  0.0020  0.0000  0.5943  0.0000  0.0057 </r>
        <r>  0.0029  0.0023  0.0675  0.0008  0.0000  0.0000  0.0000  0.0000  0.0000 </r>
        <r>  0.0029  0.0023  0.0677  0.0008  0.0000  0.0000  0.0000  0.0000  0.0000 </r>
       </set>
       <set comment="band 10">
        <r>  0.0000  0.0000  0.0004  0.0000  0.0000  0.2690  0.0000  0.1130  0.0000 </r>
        <r>  0.0058  0.1242  0.0007  0.0414  0.0000  0.0000  0.0000  0.0000  0.0000 </r>
        <r>  0.0058  0.1228  0.0007  0.0412  0.0000  0.0000  0.0000  0.0000  0.0000 </r>
       </set>
       <set comment="band 11">
        <r>  0.0015  0.0125  0.0000  0.0047  0.0758  0.0000  0.0083  0.0001  0.2305 </r>
        <r>  0.0040  0.1537  0.0012  0.0522  0.0000  0.0000  0.0000  0.0000  0.0000 </r>
        <r>  0.0040  0.1579  0.0012  0.0503  0.0000  0.0000  0.0000  0.0000  0.0000 </r>
       </set>
       <set comment="band 12">
        <r>  0.0000  0.0000  0.0001  0.0000  0.0000  0.1082  0.0000  0.2570  0.0001 </r>
        <r>  0.0000  0.0489  0.0001  0.1407  0.0000  0.0000  0.0000  0.0000  0.0000 </r>
        <r>  0.0000  0.0439  0.0001  0.1366  0.0000  0.0000  0.0000  0.0000  0.0000 </r>
       </set>
       <set comment="band 13">
        <r>  0.0001  0.0053  0.0000  0.0139  0.2329  0.0000  0.0003  0.0000  0.0766 </r>
        <r>  0.0000  0.0541  0.0000  0.1646  0.0000  0.0000  0.0000  0.0000  0.0000 </r>
        <r>  0.0000  0.0564  0.0000  0.1710  0.0000  0.0000  0.0000  0.0000  0.0000 </r>
       </set>
       <set comment="band 14">
        <r>  0.0257  0.0007  0.0000  0.0003  0.0003  0.0000  0.0234  0.0000  0.0009 </r>
        <r>  0.0196  0.0033  0.0041  0.0011  0.0000  0.0000  0.0000  0.0000  0.0000 </r>
        <r>  0.0189  0.0032  0.0033  0.0011  0.0000  0.0000  0.0000  0.0000  0.0000 </r>
       </set>
      </set>
      <set comment="kpoint 59">
       <set comment="band 1">
        <r>  0.1311  0.0003  0.0000  0.0001  0.0000  0.0000  0.0002  0.0000  0.0001 </r>
        <r>  0.2761  0.0000  0.0051  0.0000  0.0000  0.0000  0.0000  0.0000  0.0000 </r>
        <r>  0.2753  0.0000  0.0051  0.0000  0.0000  0.0000  0.0000  0.0000  0.0000 </r>
       </set>
       <set comment="band 2">
        <r>  0.0000  0.0000  0.0593  0.0000  0.0000  0.0006  0.0000  0.0002  0.0000 </r>
        <r>  0.3152  0.0000  0.0004  0.0000  0.0000  0.0000  0.0000  0.0000  0.0000 </r>
        <r>  0.3160  0.0000  0.0004  0.0000  0.0000  0.0000  0.0000  0.0000  0.0000 </r>
       </set>
       <set comment="band 3">
        <r>  0.1274  0.0006  0.0000  0.0002  0.0002  0.0000  0.2053  0.0000  0.0006 </r>
        <r>  0.0178  0.0001  0.1258  0.0000  0.0000  0.0000  0.0000  0.0000  0.0000 </r>
        <r>  0.0178  0.0001  0.1257  0.0000  0.0000  0.0000  0.0000  0.0000  0.0000 </r>
       </set>
       <set comment="band 4">
        <r>  0.0020  0.0049  0.0000  0.0019  0.1477  0.0000  0.0000  0.0000  0.4430 </r>
        <r>  0.0005  0.0853  0.0000  0.0284  0.0000  0.0000  0.0000  0.0000  0.0000 </r>
        <r>  0.0005  0.0852  0.0000  0.0284  0.0000  0.0000  0.0000  0.0000  0.0000 </r>
       </set>
       <set comment="band 5">
        <r>  0.0000  0.0020  0.0000  0.0052  0.4463  0.0000  0.0000  0.0000  0.1488 </r>
        <r>  0.0000  0.0286  0.0000  0.0857  0.0000  0.0000  0.0000  0.0000  0.0000 </r>
        <r>  0.0000  0.0285  0.0000  0.0855  0.0000  0.0000  0.0000  0.0000  0.0000 </r>
       </set>
       <set comment="band 6">
        <r>  0.0000  0.0000  0.0322  0.0000  0.0000  0.1360  0.0000  0.0455  0.0000 </r>
        <r>  0.0003  0.0305  0.1726  0.0104  0.0000  0.0000  0.0000  0.0000  0.0000 </r>
        <r>  0.0003  0.0305  0.1726  0.0104  0.0000  0.0000  0.0000  0.0000  0.0000 </r>
       </set>
       <set comment="band 7">
        <r>  0.0000  0.0000  0.0000  0.0000  0.0000  0.1362  0.0000  0.4075  0.0000 </r>
        <r>  0.0000  0.0388  0.0000  0.1128  0.0000  0.0000  0.0000  0.0000  0.0000 </r>
        <r>  0.0000  0.0388  0.0000  0.1128  0.0000  0.0000  0.0000  0.0000  0.0000 </r>
       </set>
       <set comment="band 8">
        <r>  0.0000  0.0000  0.0242  0.0000  0.0000  0.2668  0.0000  0.0891  0.0000 </r>
        <r>  0.0000  0.0838  0.0746  0.0289  0.0000  0.0000  0.0000  0.0000  0.0000 </r>
        <r>  0.0000  0.0839  0.0745  0.0289  0.0000  0.0000  0.0000  0.0000  0.0000 </r>
       </set>
       <set comment="band 9">
        <r>  0.0154  0.0001  0.0000  0.0000  0.0004  0.0000  0.5991  0.0000  0.0013 </r>
        <r>  0.0024  0.0006  0.0689  0.0002  0.0000  0.0000  0.0000  0.0000  0.0000 </r>
        <r>  0.0024  0.0006  0.0691  0.0002  0.0000  0.0000  0.0000  0.0000  0.0000 </r>
       </set>
       <set comment="band 10">
        <r>  0.0000  0.0000  0.0001  0.0000  0.0000  0.2627  0.0000  0.0992  0.0000 </r>
        <r>  0.0016  0.1360  0.0001  0.0476  0.0000  0.0000  0.0000  0.0000  0.0000 </r>
        <r>  0.0016  0.1302  0.0001  0.0476  0.0000  0.0000  0.0000  0.0000  0.0000 </r>
       </set>
       <set comment="band 11">
        <r>  0.0000  0.0000  0.0000  0.0000  0.0000  0.0981  0.0000  0.2598  0.0000 </r>
        <r>  0.0000  0.0502  0.0000  0.1379  0.0000  0.0000  0.0000  0.0000  0.0000 </r>
        <r>  0.0000  0.0478  0.0000  0.1365  0.0000  0.0000  0.0000  0.0000  0.0000 </r>
       </set>
       <set comment="band 12">
        <r>  0.0005  0.0133  0.0000  0.0052  0.0816  0.0000  0.0019  0.0000  0.2202 </r>
        <r>  0.0011  0.1599  0.0003  0.0604  0.0000  0.0000  0.0000  0.0000  0.0000 </r>
        <r>  0.0012  0.1652  0.0003  0.0606  0.0000  0.0000  0.0000  0.0000  0.0000 </r>
       </set>
       <set comment="band 13">
        <r>  0.0000  0.0053  0.0000  0.0137  0.2207  0.0000  0.0000  0.0000  0.0818 </r>
        <r>  0.0000  0.0602  0.0000  0.1654  0.0000  0.0000  0.0000  0.0000  0.0000 </r>
        <r>  0.0000  0.0630  0.0000  0.1667  0.0000  0.0000  0.0000  0.0000  0.0000 </r>
       </set>
       <set comment="band 14">
        <r>  0.0293  0.0002  0.0001  0.0001  0.0001  0.0000  0.0212  0.0000  0.0003 </r>
        <r>  0.0228  0.0011  0.0043  0.0003  0.0000  0.0000  0.0000  0.0000  0.0000 </r>
        <r>  0.0216  0.0010  0.0032  0.0003  0.0000  0.0000  0.0000  0.0000  0.0000 </r>
       </set>
      </set>
      <set comment="kpoint 60">
       <set comment="band 1">
        <r>  0.1318  0.0000  0.0000  0.0000  0.0000  0.0000  0.0002  0.0000  0.0000 </r>
        <r>  0.2759  0.0000  0.0051  0.0000  0.0000  0.0000  0.0000  0.0000  0.0000 </r>
        <r>  0.2751  0.0000  0.0051  0.0000  0.0000  0.0000  0.0000  0.0000  0.0000 </r>
       </set>
       <set comment="band 2">
        <r>  0.0000  0.0000  0.0597  0.0000  0.0000  0.0000  0.0000  0.0000  0.0000 </r>
        <r>  0.3152  0.0000  0.0004  0.0000  0.0000  0.0000  0.0000  0.0000  0.0000 </r>
        <r>  0.3159  0.0000  0.0004  0.0000  0.0000  0.0000  0.0000  0.0000  0.0000 </r>
       </set>
       <set comment="band 3">
        <r>  0.1285  0.0000  0.0000  0.0000  0.0000  0.0000  0.2061  0.0000  0.0000 </r>
        <r>  0.0179  0.0000  0.1255  0.0000  0.0000  0.0000  0.0000  0.0000  0.0000 </r>
        <r>  0.0179  0.0000  0.1254  0.0000  0.0000  0.0000  0.0000  0.0000  0.0000 </r>
       </set>
       <set comment="band 4">
        <r>  0.0000  0.0002  0.0000  0.0065  0.5796  0.0000  0.0000  0.0000  0.0180 </r>
        <r>  0.0000  0.0034  0.0000  0.1102  0.0000  0.0000  0.0000  0.0000  0.0000 </r>
        <r>  0.0000  0.0034  0.0000  0.1100  0.0000  0.0000  0.0000  0.0000  0.0000 </r>
       </set>
       <set comment="band 5">
        <r>  0.0000  0.0065  0.0000  0.0002  0.0180  0.0000  0.0000  0.0000  0.5796 </r>
        <r>  0.0000  0.1102  0.0000  0.0034  0.0000  0.0000  0.0000  0.0000  0.0000 </r>
        <r>  0.0000  0.1100  0.0000  0.0034  0.0000  0.0000  0.0000  0.0000  0.0000 </r>
       </set>
       <set comment="band 6">
        <r>  0.0000  0.0000  0.0555  0.0000  0.0000  0.0000  0.0000  0.0000  0.0000 </r>
        <r>  0.0003  0.0000  0.2472  0.0000  0.0000  0.0000  0.0000  0.0000  0.0000 </r>
        <r>  0.0003  0.0000  0.2472  0.0000  0.0000  0.0000  0.0000  0.0000  0.0000 </r>
       </set>
       <set comment="band 7">
        <r>  0.0000  0.0000  0.0000  0.0000  0.0000  0.5045  0.0000  0.0409  0.0000 </r>
        <r>  0.0000  0.1399  0.0000  0.0114  0.0000  0.0000  0.0000  0.0000  0.0000 </r>
        <r>  0.0000  0.1400  0.0000  0.0114  0.0000  0.0000  0.0000  0.0000  0.0000 </r>
       </set>
       <set comment="band 8">
        <r>  0.0000  0.0000  0.0000  0.0000  0.0000  0.0409  0.0000  0.5045  0.0000 </r>
        <r>  0.0000  0.0114  0.0000  0.1399  0.0000  0.0000  0.0000  0.0000  0.0000 </r>
        <r>  0.0000  0.0114  0.0000  0.1400  0.0000  0.0000  0.0000  0.0000  0.0000 </r>
       </set>
       <set comment="band 9">
        <r>  0.0152  0.0000  0.0000  0.0000  0.0000  0.0000  0.6004  0.0000  0.0000 </r>
        <r>  0.0023  0.0000  0.0693  0.0000  0.0000  0.0000  0.0000  0.0000  0.0000 </r>
        <r>  0.0023  0.0000  0.0695  0.0000  0.0000  0.0000  0.0000  0.0000  0.0000 </r>
       </set>
       <set comment="band 10">
        <r>  0.0000  0.0000  0.0000  0.0000  0.0000  0.2284  0.0000  0.1268  0.0000 </r>
        <r>  0.0000  0.1204  0.0000  0.0669  0.0000  0.0000  0.0000  0.0000  0.0000 </r>
        <r>  0.0000  0.1194  0.0000  0.0663  0.0000  0.0000  0.0000  0.0000  0.0000 </r>
       </set>
       <set comment="band 11">
        <r>  0.0000  0.0000  0.0000  0.0000  0.0000  0.1268  0.0000  0.2284  0.0000 </r>
        <r>  0.0000  0.0671  0.0000  0.1198  0.0000  0.0000  0.0000  0.0000  0.0000 </r>
        <r>  0.0000  0.0661  0.0000  0.1200  0.0000  0.0000  0.0000  0.0000  0.0000 </r>
       </set>
       <set comment="band 12">
        <r>  0.0000  0.0141  0.0000  0.0049  0.0781  0.0000  0.0000  0.0000  0.2221 </r>
        <r>  0.0000  0.1689  0.0000  0.0594  0.0000  0.0000  0.0000  0.0000  0.0000 </r>
        <r>  0.0000  0.1702  0.0000  0.0598  0.0000  0.0000  0.0000  0.0000  0.0000 </r>
       </set>
       <set comment="band 13">
        <r>  0.0000  0.0049  0.0000  0.0140  0.2221  0.0000  0.0000  0.0000  0.0781 </r>
        <r>  0.0000  0.0592  0.0000  0.1695  0.0000  0.0000  0.0000  0.0000  0.0000 </r>
        <r>  0.0000  0.0600  0.0000  0.1696  0.0000  0.0000  0.0000  0.0000  0.0000 </r>
       </set>
       <set comment="band 14">
        <r>  0.0343  0.0000  0.0000  0.0000  0.0000  0.0000  0.0223  0.0000  0.0000 </r>
        <r>  0.0259  0.0000  0.0028  0.0000  0.0000  0.0000  0.0000  0.0000  0.0000 </r>
        <r>  0.0256  0.0000  0.0026  0.0000  0.0000  0.0000  0.0000  0.0000  0.0000 </r>
       </set>
      </set>
     </set>
    </set>
   </array>
  </projected>
 </calculation>
 <structure name="finalpos" >
  <crystal>
   <varray name="basis" >
    <v>       3.18985683       0.00000000       0.00000000 </v>
    <v>      -1.59492842       2.76249705       0.00000000 </v>
    <v>       0.00000000       0.00000000      30.79397887 </v>
   </varray>
   <i name="volume">    271.35562051 </i>
   <varray name="rec_basis" >
    <v>       0.31349369       0.18099567       0.00000000 </v>
    <v>       0.00000000       0.36199134       0.00000000 </v>
    <v>       0.00000000       0.00000000       0.03247388 </v>
   </varray>
  </crystal>
  <varray name="positions" >
   <v>       0.33333300       0.66666700       0.12046214 </v>
   <v>       0.66666700       0.33333300       0.06984045 </v>
   <v>       0.66666600       0.33333300       0.17108384 </v>
  </varray>
 </structure>
</modeling>
