    3    3    1    1
  0.7897505E+02  0.3190316E-09  0.3190316E-09  0.2687900E-08  0.5000000E-15
  1.000000000000000E-004
  CAR 
 unknown system                          
     18     10     14
 
  0.0000000E+00  0.0000000E+00  0.0000000E+00  0.1562500E-01
    1      -17.463514   1.000000
    2      -16.255453   1.000000
    3       -8.984407   1.000000
    4       -6.023635   1.000000
    5       -6.023629   1.000000
    6       -5.162307   1.000000
    7       -4.918100   1.000000
    8       -4.918068   1.000000
    9       -3.441914   1.000000
   10       -0.670418   0.000000
   11       -0.670388   0.000000
   12       -0.446668   0.000000
   13       -0.446655   0.000000
   14        1.992570   0.000000
 
  0.1250000E+00  0.0000000E+00  0.0000000E+00  0.9375000E-01
    1      -17.249365   1.000000
    2      -16.153066   1.000000
    3       -8.739876   1.000000
    4       -6.487055   1.000000
    5       -5.970388   1.000000
    6       -5.789215   1.000000
    7       -5.253828   1.000000
    8       -4.484827   1.000000
    9       -3.580337   1.000000
   10       -0.950430   0.000000
   11       -0.884632   0.000000
   12       -0.683257   0.000000
   13       -0.315608   0.000000
   14        2.381181   0.000000
 
  0.2500000E+00  0.0000000E+00  0.0000000E+00  0.9375000E-01
    1      -16.680627   1.000000
    2      -15.884305   1.000000
    3       -8.373787   1.000000
    4       -7.213610   1.000000
    5       -6.951234   1.000000
    6       -5.888854   1.000000
    7       -5.202135   1.000000
    8       -4.736412   1.000000
    9       -4.148295   1.000000
   10       -1.274537   0.000000
   11       -1.097982   0.000000
   12       -0.555871   0.000000
   13        0.301365   0.000000
   14        3.178470   0.000000
 
  0.3750000E+00  0.0000000E+00  0.0000000E+00  0.9375000E-01
    1      -16.005515   1.000000
    2      -15.575878   1.000000
    3       -8.811040   1.000000
    4       -7.818607   1.000000
    5       -7.346449   1.000000
    6       -6.386190   1.000000
    7       -5.145716   1.000000
    8       -4.611629   1.000000
    9       -4.343494   1.000000
   10       -1.279417   0.000000
   11       -1.000541   0.000000
   12        0.162649   0.000000
   13        0.694694   0.000000
   14        3.700936   0.000000
 
  0.5000000E+00  0.0000000E+00  0.0000000E+00  0.4687500E-01
    1      -15.677259   1.000000
    2      -15.432555   1.000000
    3       -9.143692   1.000000
    4       -8.183530   1.000000
    5       -7.472754   1.000000
    6       -6.566769   1.000000
    7       -5.284570   1.000000
    8       -4.384549   1.000000
    9       -4.062713   1.000000
   10       -1.257098   0.000000
   11       -0.741151   0.000000
   12        0.461238   0.000000
   13        0.810120   0.000000
   14        2.740539   0.000000
 
  0.1250000E+00  0.1250000E+00  0.0000000E+00  0.9375000E-01
    1      -16.856554   1.000000
    2      -15.966058   1.000000
    3       -8.392612   1.000000
    4       -7.051047   1.000000
    5       -6.532547   1.000000
    6       -6.067668   1.000000
    7       -5.449746   1.000000
    8       -4.350355   1.000000
    9       -3.952228   1.000000
   10       -1.349669   0.000000
   11       -0.971494   0.000000
   12       -0.959695   0.000000
   13        0.279243   0.000000
   14        2.956927   0.000000
 
  0.2500000E+00  0.1250000E+00  0.0000000E+00  0.1875000E+00
    1      -16.222967   1.000000
    2      -15.667523   1.000000
    3       -8.455367   1.000000
    4       -7.477770   1.000000
    5       -7.214626   1.000000
    6       -6.571971   1.000000
    7       -5.350304   1.000000
    8       -4.712570   1.000000
    9       -4.235863   1.000000
   10       -1.433011   0.000000
   11       -0.984533   0.000000
   12       -0.489721   0.000000
   13        0.787081   0.000000
   14        3.924423   0.000000
 
  0.3750000E+00  0.1250000E+00  0.0000000E+00  0.1875000E+00
    1      -15.692493   1.000000
    2      -15.423606   1.000000
    3       -8.856338   1.000000
    4       -8.240800   1.000000
    5       -7.345012   1.000000
    6       -6.588780   1.000000
    7       -5.335132   1.000000
    8       -5.194392   1.000000
    9       -3.908993   1.000000
   10       -1.238250   0.000000
   11       -0.727937   0.000000
   12        0.131960   0.000000
   13        0.820788   0.000000
   14        3.267377   0.000000
 
  0.2500000E+00  0.2500000E+00  0.0000000E+00  0.9375000E-01
    1      -15.707454   1.000000
    2      -15.414609   1.000000
    3       -8.495957   1.000000
    4       -8.291597   1.000000
    5       -7.017844   1.000000
    6       -6.637084   1.000000
    7       -6.317949   1.000000
    8       -5.060942   1.000000
    9       -3.937824   1.000000
   10       -1.289258   0.000000
   11       -0.678224   0.000000
   12       -0.366580   0.000000
   13        1.108840   0.000000
   14        4.099732   0.000000
 
  0.3750000E+00  0.2500000E+00  0.0000000E+00  0.9375000E-01
    1      -15.472568   1.000000
    2      -15.295452   1.000000
    3       -8.676024   1.000000
    4       -8.326937   1.000000
    5       -7.302196   1.000000
    6       -6.639600   1.000000
    7       -6.409438   1.000000
    8       -5.447231   1.000000
    9       -3.570394   1.000000
   10       -1.614905   0.000000
   11       -0.308217   0.000000
   12       -0.127622   0.000000
   13        1.254145   0.000000
   14        3.510319   0.000000
