       N       E                     dE             d eps       ncg     rms          rms(c)
DAV:   1     0.165709992856E+03    0.16571E+03   -0.76418E+03   280   0.141E+03
DAV:   2    -0.229144536296E+01   -0.16800E+03   -0.15824E+03   470   0.197E+02
DAV:   3    -0.228846233748E+02   -0.20593E+02   -0.20282E+02   376   0.843E+01
DAV:   4    -0.233956333383E+02   -0.51101E+00   -0.50781E+00   378   0.163E+01
DAV:   5    -0.234095208755E+02   -0.13888E-01   -0.13877E-01   352   0.263E+00    0.689E+00
RMM:   6    -0.222489195099E+02    0.11606E+01   -0.54298E+00   297   0.125E+01    0.261E+00
RMM:   7    -0.218642234448E+02    0.38470E+00   -0.55264E-01   294   0.341E+00    0.150E+00
RMM:   8    -0.218043305672E+02    0.59893E-01   -0.23300E-01   311   0.253E+00    0.355E-01
RMM:   9    -0.217994947550E+02    0.48358E-02   -0.89169E-03   336   0.619E-01    0.967E-02
RMM:  10    -0.217987428297E+02    0.75193E-03   -0.17986E-03   334   0.227E-01    0.445E-02
RMM:  11    -0.217986615921E+02    0.81238E-04   -0.17610E-03   315   0.199E-01    0.575E-02
RMM:  12    -0.217984281275E+02    0.23346E-03   -0.57280E-04   306   0.135E-01    0.171E-02
RMM:  13    -0.217987108591E+02   -0.28273E-03   -0.15125E-04   284   0.728E-02    0.201E-02
RMM:  14    -0.217987448876E+02   -0.34029E-04   -0.27018E-05   254   0.301E-02    0.495E-03
RMM:  15    -0.217988561793E+02   -0.11129E-03   -0.11422E-05   198   0.180E-02    0.281E-03
RMM:  16    -0.217988908928E+02   -0.34714E-04   -0.45266E-06   188   0.954E-03    0.169E-03
RMM:  17    -0.217989357084E+02   -0.44816E-04   -0.32710E-06   161   0.791E-03    0.138E-03
RMM:  18    -0.217989428647E+02   -0.71563E-05   -0.44627E-07    87   0.408E-03
   1 F= -.22389852E+02 E0= -.22389852E+02  d E =0.000000E+00
