 vasp.5.4.4.18Apr17-6-g9f103f2a35 (build Jun 30 2017 11:15:00) complex          
  
 executed on    STALLO_VASP_5.4.4 date 2019.11.08  12:00:18
 running on    4 total cores
 distrk:  each k-point on    4 cores,    1 groups
 distr:  one band on NCORES_PER_BAND=   2 cores,    2 groups


--------------------------------------------------------------------------------------------------------


 INCAR:
 POTCAR:   PAW_PBE Mo 08Apr2002                   
 POTCAR:    PAW_PBE S 17Jan2003                   
 POTCAR:   PAW_PBE Mo 08Apr2002                   
   VRHFIN =Mo: 4p5s4d                                                           
   LEXCH  = PE                                                                  
   EATOM  =   217.5180 eV,   15.9871 Ry                                         
                                                                                
   TITEL  = PAW_PBE Mo 08Apr2002                                                
   LULTRA =        F    use ultrasoft PP ?                                      
   IUNSCR =        1    unscreen: 0-lin 1-nonlin 2-no                           
   RPACOR =    2.200    partial core radius                                     
   POMASS =   95.940; ZVAL   =    6.000    mass and valenz                      
   RCORE  =    2.750    outmost cutoff radius                                   
   RWIGS  =    2.750; RWIGS  =    1.455    wigner-seitz radius (au A)           
   ENMAX  =  224.584; ENMIN  =  168.438 eV                                      
   RCLOC  =    2.111    cutoff for local pot                                    
   LCOR   =        T    correct aug charges                                     
   LPAW   =        T    paw PP                                                  
   EAUG   =  345.278                                                            
   DEXC   =    -.088                                                            
   RMAX   =    3.077    core radius for proj-oper                               
   RAUG   =    1.300    factor for augmentation sphere                          
   RDEP   =    2.815    radius for radial grids                                 
   QCUT   =   -4.063; QGAM   =    8.126    optimization parameters              
                                                                                
   Description                                                                  
     l     E      TYP  RCUT    TYP  RCUT                                        
     2   .000     23  2.500                                                     
     2   .000     23  2.500                                                     
     0   .000     23  2.600                                                     
     0  1.000     23  2.600                                                     
     1   .400     23  2.750                                                     
     1  2.000     23  2.750                                                     
     3   .000      7   .000                                                     
  local pseudopotential read in
  partial core-charges read in
  atomic valenz-charges read in
  non local Contribution for L=           2  read in
    real space projection operators read in
  non local Contribution for L=           2  read in
    real space projection operators read in
  non local Contribution for L=           0  read in
    real space projection operators read in
  non local Contribution for L=           0  read in
    real space projection operators read in
  non local Contribution for L=           1  read in
    real space projection operators read in
  non local Contribution for L=           1  read in
    real space projection operators read in
    PAW grid and wavefunctions read in
 
   number of l-projection  operators is LMAX  =           6
   number of lm-projection operators is LMMAX =          18
 
 POTCAR:    PAW_PBE S 17Jan2003                   
   VRHFIN =S : s2p4                                                             
   LEXCH  = PE                                                                  
   EATOM  =   276.8230 eV,   20.3459 Ry                                         
                                                                                
   TITEL  = PAW_PBE S 17Jan2003                                                 
   LULTRA =        F    use ultrasoft PP ?                                      
   IUNSCR =        1    unscreen: 0-lin 1-nonlin 2-no                           
   RPACOR =    1.500    partial core radius                                     
   POMASS =   32.066; ZVAL   =    6.000    mass and valenz                      
   RCORE  =    1.900    outmost cutoff radius                                   
   RWIGS  =    2.200; RWIGS  =    1.164    wigner-seitz radius (au A)           
   ENMAX  =  280.000; ENMIN  =  194.016 eV                                      
   ICORE  =        2    local potential                                         
   LCOR   =        T    correct aug charges                                     
   LPAW   =        T    paw PP                                                  
   EAUG   =  335.092                                                            
   DEXC   =     .000                                                            
   RMAX   =    2.867    core radius for proj-oper                               
   RAUG   =    1.300    factor for augmentation sphere                          
   RDEP   =    1.954    radius for radial grids                                 
   QCUT   =   -4.360; QGAM   =    8.721    optimization parameters              
                                                                                
   Description                                                                  
     l     E      TYP  RCUT    TYP  RCUT                                        
     0   .000     23  1.900                                                     
     0   .000     23  1.900                                                     
     1   .000     23  1.900                                                     
     1   .000     23  1.900                                                     
     2   .000     23  1.900                                                     
  local pseudopotential read in
  partial core-charges read in
  atomic valenz-charges read in
  non local Contribution for L=           0  read in
    real space projection operators read in
  non local Contribution for L=           0  read in
    real space projection operators read in
  non local Contribution for L=           1  read in
    real space projection operators read in
  non local Contribution for L=           1  read in
    real space projection operators read in
    PAW grid and wavefunctions read in
 
   number of l-projection  operators is LMAX  =           4
   number of lm-projection operators is LMMAX =           8
 
 WARNING: PSMAXN for non-local potential too small
          PSMAXN should be >   15.3694255016867       NTYP=           1
 PAW_PBE Mo 08Apr2002                   :
 energy of atom  1       EATOM= -217.5180
 kinetic energy error for atom=    0.0001 (will be added to EATOM!!)
  PAW_PBE S 17Jan2003                   :
 energy of atom  2       EATOM= -276.8230
 kinetic energy error for atom=    0.0003 (will be added to EATOM!!)
 
 
 POSCAR: MoS2_mp-2815_computed                   
  positions in cartesian coordinates
  velocities in cartesian coordinates
  No initial velocities read in
 exchange correlation table for  LEXCH =        8
   RHO(1)=    0.500       N(1)  =     2000
   RHO(2)=  100.500       N(2)  =     4000
 


--------------------------------------------------------------------------------------------------------


 ion  position               nearest neighbor table
   1  0.333  0.667  0.138-   3 2.42   2 2.42   2 2.42   3 2.42   3 2.42   2 2.42
   2  0.667  0.333  0.080-   1 2.42   1 2.42   1 2.42
   3  0.667  0.333  0.197-   1 2.42   1 2.42   1 2.42
 
  LATTYP: Found a hexagonal cell.
 ALAT       =     3.1903157300
 C/A-ratio  =     8.4251862746
  
  Lattice vectors:
  
 A1 = (   3.1903157300,   0.0000000000,   0.0000000000)
 A2 = (  -1.5951578650,   2.7628944683,   0.0000000000)
 A3 = (   0.0000000000,   0.0000000000,  26.8790043000)


Analysis of symmetry for initial positions (statically):
=====================================================================
 Subroutine PRICEL returns:
 Original cell was already a primitive cell.
 

 Routine SETGRP: Setting up the symmetry group for a 
 hexagonal supercell.


 Subroutine GETGRP returns: Found 12 space group operations
 (whereof  6 operations were pure point group operations)
 out of a pool of 24 trial point group operations.


The static configuration has the point symmetry C_3v.
 The point group associated with its full space group is D_3h.


Analysis of symmetry for dynamics (positions and initial velocities):
=====================================================================
 Subroutine PRICEL returns:
 Original cell was already a primitive cell.
 

 Routine SETGRP: Setting up the symmetry group for a 
 hexagonal supercell.


 Subroutine GETGRP returns: Found 12 space group operations
 (whereof  6 operations were pure point group operations)
 out of a pool of 24 trial point group operations.


The dynamic configuration has the point symmetry C_3v.
 The point group associated with its full space group is D_3h.


 Subroutine INISYM returns: Found 12 space group operations
 (whereof  6 operations are pure point group operations),
 and found     1 'primitive' translations

 
 
 KPOINTS: k-density: 4.0                          

Automatic generation of k-mesh.
Space group operators:
 irot       det(A)        alpha          n_x          n_y          n_z        tau_x        tau_y        tau_z
    1     1.000000     0.000001     1.000000     0.000000     0.000000     0.000000     0.000000     0.000000
    2     1.000000   120.000000     0.000000     0.000000    -1.000000     0.000000     0.000000     0.000000
    3     1.000000   120.000000     0.000000     0.000000     1.000000     0.000000     0.000000     0.000000
    4    -1.000000   179.999999     1.000000    -0.000000     0.000000     0.000000     0.000000     0.000000
    5    -1.000000   180.000000     0.500000    -0.866025     0.000000     0.000000     0.000000     0.000000
    6    -1.000000   180.000000    -0.500000    -0.866025     0.000000     0.000000     0.000000     0.000000
    7    -1.000000    60.000000     0.000000     0.000000    -1.000000    -0.000000     0.000000     0.276777
    8    -1.000000   180.000000     0.000000     0.000000     1.000000     0.000000     0.000000     0.276777
    9    -1.000000    60.000000     0.000000     0.000000     1.000000     0.000000     0.000001     0.276777
   10     1.000000   180.000000     0.866025    -0.500000     0.000000     0.000000     0.000000     0.276777
   11     1.000000   180.000000     0.000000     1.000000     0.000000     0.000000     0.000000     0.276777
   12     1.000000   179.999999     0.866025     0.500000     0.000000    -0.000000     0.000001     0.276777
 
 Subroutine IBZKPT returns following result:
 ===========================================
 
 Found     10 irreducible k-points:
 
 Following reciprocal coordinates:
            Coordinates               Weight
  0.000000  0.000000  0.000000      1.000000
  0.125000  0.000000  0.000000      6.000000
  0.250000  0.000000  0.000000      6.000000
  0.375000  0.000000  0.000000      6.000000
  0.500000  0.000000  0.000000      3.000000
  0.125000  0.125000  0.000000      6.000000
  0.250000  0.125000  0.000000     12.000000
  0.375000  0.125000  0.000000     12.000000
  0.250000  0.250000  0.000000      6.000000
  0.375000  0.250000  0.000000      6.000000
 
 Following cartesian coordinates:
            Coordinates               Weight
  0.000000  0.000000  0.000000      1.000000
  0.039181  0.022621  0.000000      6.000000
  0.078362  0.045242  0.000000      6.000000
  0.117543  0.067864  0.000000      6.000000
  0.156724  0.090485  0.000000      3.000000
  0.039181  0.067864  0.000000      6.000000
  0.078362  0.090485  0.000000     12.000000
  0.117543  0.113106  0.000000     12.000000
  0.078362  0.135727  0.000000      6.000000
  0.117543  0.158348  0.000000      6.000000
 
 TETIRR: Found     36 inequivalent tetrahedra from      384


--------------------------------------------------------------------------------------------------------




 Dimension of arrays:
   k-points           NKPTS =     10   k-points in BZ     NKDIM =     10   number of bands    NBANDS=     14
   number of dos      NEDOS =    301   number of ions     NIONS =      3
   non local maximal  LDIM  =      6   non local SUM 2l+1 LMDIM =     18
   total plane-waves  NPLWV = 115200
   max r-space proj   IRMAX =      1   max aug-charges    IRDMAX=  31414
   dimension x,y,z NGX =    24 NGY =   24 NGZ =  200
   dimension x,y,z NGXF=    48 NGYF=   48 NGZF=  400
   support grid    NGXF=    48 NGYF=   48 NGZF=  400
   ions per type =               1   2
   NGX,Y,Z   is equivalent  to a cutoff of  12.51, 12.51, 12.37 a.u.
   NGXF,Y,Z  is equivalent  to a cutoff of  25.01, 25.01, 24.74 a.u.

 SYSTEM =  unknown system                          
 POSCAR =  MoS2_mp-2815_computed                   

 Startparameter for this run:
   NWRITE =      2    write-flag & timer
   PREC   = normal    normal or accurate (medium, high low for compatibility)
   ISTART =      0    job   : 0-new  1-cont  2-samecut
   ICHARG =      2    charge: 1-file 2-atom 10-const
   ISPIN  =      1    spin polarized calculation?
   LNONCOLLINEAR =      F non collinear calculations
   LSORBIT =      F    spin-orbit coupling
   INIWAV =      1    electr: 0-lowe 1-rand  2-diag
   LASPH  =      F    aspherical Exc in radial PAW
   METAGGA=      F    non-selfconsistent MetaGGA calc.

 Electronic Relaxation 1
   ENCUT  =  900.0 eV  66.15 Ry    8.13 a.u.   7.80  7.80 65.75*2*pi/ulx,y,z
   ENINI  =  900.0     initial cutoff
   ENAUG  =  345.3 eV  augmentation charge cutoff
   NELM   =     60;   NELMIN=  4; NELMDL= -5     # of ELM steps 
   EDIFF  = 0.1E-04   stopping-criterion for ELM
   LREAL  =      F    real-space projection
   NLSPLINE    = F    spline interpolate recip. space projectors
   LCOMPAT=      F    compatible to vasp.4.4
   GGA_COMPAT  = T    GGA compatible to vasp.4.4-vasp.4.6
   LMAXPAW     = -100 max onsite density
   LMAXMIX     =    2 max onsite mixed and CHGCAR
   VOSKOWN=      0    Vosko Wilk Nusair interpolation
   ROPT   =    0.00000   0.00000
 Ionic relaxation
   EDIFFG = 0.1E-03   stopping-criterion for IOM
   NSW    =      0    number of steps for IOM
   NBLOCK =      1;   KBLOCK =      1    inner block; outer block 
   IBRION =     -1    ionic relax: 0-MD 1-quasi-New 2-CG
   NFREE  =      0    steps in history (QN), initial steepest desc. (CG)
   ISIF   =      2    stress and relaxation
   IWAVPR =     10    prediction:  0-non 1-charg 2-wave 3-comb
   ISYM   =      2    0-nonsym 1-usesym 2-fastsym
   LCORR  =      T    Harris-Foulkes like correction to forces

   POTIM  = 0.5000    time-step for ionic-motion
   TEIN   =    0.0    initial temperature
   TEBEG  =    0.0;   TEEND  =   0.0 temperature during run
   SMASS  =  -3.00    Nose mass-parameter (am)
   estimated Nose-frequenzy (Omega)   =  0.10E-29 period in steps =****** mass=  -0.233E-27a.u.
   SCALEE = 1.0000    scale energy and forces
   NPACO  =    256;   APACO  = 16.0  distance and # of slots for P.C.
   PSTRESS=    0.0 pullay stress

  Mass of Ions in am
   POMASS =  95.94 32.07
  Ionic Valenz
   ZVAL   =   6.00  6.00
  Atomic Wigner-Seitz radii
   RWIGS  =  -1.00 -1.00
  virtual crystal weights 
   VCA    =   1.00  1.00
   NELECT =      18.0000    total number of electrons
   NUPDOWN=      -1.0000    fix difference up-down

 DOS related values:
   EMIN   =  10.00;   EMAX   =-10.00  energy-range for DOS
   EFERMI =   0.00
   ISMEAR =    -5;   SIGMA  =   0.20  broadening in eV -4-tet -1-fermi 0-gaus

 Electronic relaxation 2 (details)
   IALGO  =     68    algorithm
   LDIAG  =      T    sub-space diagonalisation (order eigenvalues)
   LSUBROT=      F    optimize rotation matrix (better conditioning)
   TURBO    =      0    0=normal 1=particle mesh
   IRESTART =      0    0=no restart 2=restart with 2 vectors
   NREBOOT  =      0    no. of reboots
   NMIN     =      0    reboot dimension
   EREF     =   0.00    reference energy to select bands
   IMIX   =      4    mixing-type and parameters
     AMIX     =   0.40;   BMIX     =  1.00
     AMIX_MAG =   1.60;   BMIX_MAG =  1.00
     AMIN     =   0.10
     WC   =   100.;   INIMIX=   1;  MIXPRE=   1;  MAXMIX= -45

 Intra band minimization:
   WEIMIN = 0.0000     energy-eigenvalue tresh-hold
   EBREAK =  0.18E-06  absolut break condition
   DEPER  =   0.30     relativ break condition  

   TIME   =   0.40     timestep for ELM

  volume/ion in A,a.u.               =      78.98       532.95
  Fermi-wavevector in a.u.,A,eV,Ry     =   0.693365  1.310270  6.541070  0.480755
  Thomas-Fermi vector in A             =   1.775558
 
 Write flags
   LWAVE        =      F    write WAVECAR
   LDOWNSAMPLE  =      F    k-point downsampling of WAVECAR
   LCHARG       =      T    write CHGCAR
   LVTOT        =      F    write LOCPOT, total local potential
   LVHAR        =      F    write LOCPOT, Hartree potential only
   LELF         =      F    write electronic localiz. function (ELF)
   LORBIT       =      0    0 simple, 1 ext, 2 COOP (PROOUT), +10 PAW based schemes


 Dipole corrections
   LMONO  =      F    monopole corrections only (constant potential shift)
   LDIPOL =      F    correct potential (dipole corrections)
   IDIPOL =      0    1-x, 2-y, 3-z, 4-all directions 
   EPSILON=  1.0000000 bulk dielectric constant

 Exchange correlation treatment:
   GGA     =    --    GGA type
   LEXCH   =     8    internal setting for exchange type
   VOSKOWN=      0    Vosko Wilk Nusair interpolation
   LHFCALC =     F    Hartree Fock is set to
   LHFONE  =     F    Hartree Fock one center treatment
   AEXX    =    0.0000 exact exchange contribution

 Linear response parameters
   LEPSILON=     F    determine dielectric tensor
   LRPA    =     F    only Hartree local field effects (RPA)
   LNABLA  =     F    use nabla operator in PAW spheres
   LVEL    =     F    velocity operator in full k-point grid
   LINTERFAST=   F  fast interpolation
   KINTER  =     0    interpolate to denser k-point grid
   CSHIFT  =0.1000    complex shift for real part using Kramers Kronig
   OMEGAMAX=  -1.0    maximum frequency
   DEG_THRESHOLD= 0.2000000E-02 threshold for treating states as degnerate
   RTIME   =   -0.100 relaxation time in fs
  (WPLASMAI=    0.000 imaginary part of plasma frequency in eV, 0.658/RTIME)
   DFIELD  = 0.0000000 0.0000000 0.0000000 field for delta impulse in time
 
 Orbital magnetization related:
   ORBITALMAG=     F  switch on orbital magnetization
   LCHIMAG   =     F  perturbation theory with respect to B field
   DQ        =  0.001000  dq finite difference perturbation B field
   LLRAUG    =     F  two centre corrections for induced B field



--------------------------------------------------------------------------------------------------------


 Static calculation
 charge density and potential will be updated during run
 non-spin polarized calculation
 RMM-DIIS sequential band-by-band and
  variant of blocked Davidson during initial phase
 perform sub-space diagonalisation
    before iterative eigenvector-optimisation
 modified Broyden-mixing scheme, WC =      100.0
 initial mixing is a Kerker type mixing with AMIX =  0.4000 and BMIX =      1.0000
 Hartree-type preconditioning will be used
 using additional bands            5
 reciprocal scheme for non local part
 use partial core corrections
 calculate Harris-corrections to forces 
   (improved forces if not selfconsistent)
 use gradient corrections 
 use of overlap-Matrix (Vanderbilt PP)
 Fermi weights with tetrahedron method with Bloechl corrections


--------------------------------------------------------------------------------------------------------


  energy-cutoff  :      900.00
  volume of cell :      236.93
      direct lattice vectors                 reciprocal lattice vectors
     3.190315730  0.000000000  0.000000000     0.313448600  0.180969634  0.000000000
    -1.595157865  2.762894468  0.000000000     0.000000000  0.361939267  0.000000000
     0.000000000  0.000000000 26.879004300     0.000000000  0.000000000  0.037203759

  length of vectors
     3.190315730  3.190315730 26.879004300     0.361939267  0.361939267  0.037203759


 
 k-points in units of 2pi/SCALE and weight: k-density: 4.0                          
   0.00000000  0.00000000  0.00000000       0.016
   0.03918108  0.02262120  0.00000000       0.094
   0.07836215  0.04524241  0.00000000       0.094
   0.11754323  0.06786361  0.00000000       0.094
   0.15672430  0.09048482  0.00000000       0.047
   0.03918108  0.06786361  0.00000000       0.094
   0.07836215  0.09048482  0.00000000       0.188
   0.11754323  0.11310602  0.00000000       0.188
   0.07836215  0.13572723  0.00000000       0.094
   0.11754323  0.15834843  0.00000000       0.094
 
 k-points in reciprocal lattice and weights: k-density: 4.0                          
   0.00000000  0.00000000  0.00000000       0.016
   0.12500000  0.00000000  0.00000000       0.094
   0.25000000  0.00000000  0.00000000       0.094
   0.37500000  0.00000000  0.00000000       0.094
   0.50000000  0.00000000  0.00000000       0.047
   0.12500000  0.12500000  0.00000000       0.094
   0.25000000  0.12500000  0.00000000       0.188
   0.37500000  0.12500000  0.00000000       0.188
   0.25000000  0.25000000  0.00000000       0.094
   0.37500000  0.25000000  0.00000000       0.094
 
 position of ions in fractional coordinates (direct lattice) 
   0.33333300  0.66666700  0.13838872
   0.66666700  0.33333300  0.08016914
   0.66666600  0.33333300  0.19660830
 
 position of ions in cartesian coordinates  (Angst):
  -0.00000160  1.84193057  3.71975108
   1.59515946  0.92096390  2.15486668
   1.59515627  0.92096390  5.28463547
 


--------------------------------------------------------------------------------------------------------


 k-point  1 :   0.0000 0.0000 0.0000  plane waves:   14549
 k-point  2 :   0.1250 0.0000 0.0000  plane waves:   14529
 k-point  3 :   0.2500 0.0000 0.0000  plane waves:   14494
 k-point  4 :   0.3750 0.0000 0.0000  plane waves:   14534
 k-point  5 :   0.5000 0.0000 0.0000  plane waves:   14554
 k-point  6 :   0.1250 0.1250 0.0000  plane waves:   14462
 k-point  7 :   0.2500 0.1250 0.0000  plane waves:   14522
 k-point  8 :   0.3750 0.1250 0.0000  plane waves:   14541
 k-point  9 :   0.2500 0.2500 0.0000  plane waves:   14544
 k-point 10 :   0.3750 0.2500 0.0000  plane waves:   14548

 maximum and minimum number of plane-waves per node :      7295     7206

 maximum number of plane-waves:     14554
 maximum index in each direction: 
   IXMAX=    7   IYMAX=    7   IZMAX=   65
   IXMIN=   -8   IYMIN=   -8   IZMIN=  -65


 parallel 3D FFT for wavefunctions:
    minimum data exchange during FFTs selected (reduces bandwidth)
 parallel 3D FFT for charge:
    minimum data exchange during FFTs selected (reduces bandwidth)


 total amount of memory used by VASP MPI-rank0    84375. kBytes
=======================================================================

   base      :      30000. kBytes
   nonl-proj :      21362. kBytes
   fftplans  :       9525. kBytes
   grid      :      15257. kBytes
   one-center:         31. kBytes
   wavefun   :       8200. kBytes
 
     INWAV:  cpu time    0.0000: real time    0.0005
 Broyden mixing: mesh for mixing (old mesh)
   NGX = 15   NGY = 15   NGZ =131
  (NGX  = 48   NGY  = 48   NGZ  =400)
  gives a total of  29475 points

 initial charge density was supplied:
 charge density of overlapping atoms calculated
 number of electron      18.0000000 magnetization 
 keeping initial charge density in first step


--------------------------------------------------------------------------------------------------------


 Maximum index for augmentation-charges         7592 (set IRDMAX)


--------------------------------------------------------------------------------------------------------


 First call to EWALD:  gamma=   0.286
 Maximum number of real-space cells 6x 6x 1
 Maximum number of reciprocal cells 2x 2x10

    FEWALD:  cpu time    0.0010: real time    0.0015


--------------------------------------- Iteration      1(   1)  ---------------------------------------


    POTLOK:  cpu time    0.1460: real time    0.2755
    SETDIJ:  cpu time    0.0040: real time    0.0051
     EDDAV:  cpu time    0.6969: real time    0.7012
 BZINTS: Fermi energy:  8.092263; 18.000000 electrons
         Band energy:  22.254860;  BLOECHL correction: -0.312445
       DOS:  cpu time    0.0010: real time    0.0013
    --------------------------------------------
      LOOP:  cpu time    0.8479: real time    0.9832

 eigenvalue-minimisations  :   280
 total energy-change (2. order) : 0.1657100E+03  (-0.7641758E+03)
 number of electron      18.0000000 magnetization 
 augmentation part       18.0000000 magnetization 

 Free energy of the ion-electron system (eV)
  ---------------------------------------------------
  alpha Z        PSCENC =        12.51390764
  Ewald energy   TEWEN  =      4286.25630342
  -Hartree energ DENC   =     -4967.71356795
  -exchange      EXHF   =         0.00000000
  -V(xc)+E(xc)   XCENC  =       -36.31055729
  PAW double counting   =       406.88651198     -329.34073203
  entropy T*S    EENTRO =         0.00000000
  eigenvalues    EBANDS =        22.25485970
  atomic energy  EATOM  =       771.16326738
  Solvation  Ediel_sol  =         0.00000000
  ---------------------------------------------------
  free energy    TOTEN  =       165.70999286 eV

  energy without entropy =      165.70999286  energy(sigma->0) =      165.70999286


--------------------------------------------------------------------------------------------------------




--------------------------------------- Iteration      1(   2)  ---------------------------------------


     EDDAV:  cpu time    1.0268: real time    1.0307
 BZINTS: Fermi energy: -1.799785; 18.000000 electrons
         Band energy:-145.746579;  BLOECHL correction:  0.000000
       DOS:  cpu time    0.0010: real time    0.0002
    --------------------------------------------
      LOOP:  cpu time    1.0278: real time    1.0310

 eigenvalue-minimisations  :   470
 total energy-change (2. order) :-0.1680014E+03  (-0.1582397E+03)
 number of electron      18.0000000 magnetization 
 augmentation part       18.0000000 magnetization 

 Free energy of the ion-electron system (eV)
  ---------------------------------------------------
  alpha Z        PSCENC =        12.51390764
  Ewald energy   TEWEN  =      4286.25630342
  -Hartree energ DENC   =     -4967.71356795
  -exchange      EXHF   =         0.00000000
  -V(xc)+E(xc)   XCENC  =       -36.31055729
  PAW double counting   =       406.88651198     -329.34073203
  entropy T*S    EENTRO =         0.00000000
  eigenvalues    EBANDS =      -145.74657852
  atomic energy  EATOM  =       771.16326738
  Solvation  Ediel_sol  =         0.00000000
  ---------------------------------------------------
  free energy    TOTEN  =        -2.29144536 eV

  energy without entropy =       -2.29144536  energy(sigma->0) =       -2.29144536


--------------------------------------------------------------------------------------------------------




--------------------------------------- Iteration      1(   3)  ---------------------------------------


     EDDAV:  cpu time    0.8609: real time    0.8639
 BZINTS: Fermi energy: -3.307740; 18.000000 electrons
         Band energy:-166.339757;  BLOECHL correction:  0.000000
       DOS:  cpu time    0.0010: real time    0.0002
    --------------------------------------------
      LOOP:  cpu time    0.8619: real time    0.8642

 eigenvalue-minimisations  :   376
 total energy-change (2. order) :-0.2059318E+02  (-0.2028157E+02)
 number of electron      18.0000000 magnetization 
 augmentation part       18.0000000 magnetization 

 Free energy of the ion-electron system (eV)
  ---------------------------------------------------
  alpha Z        PSCENC =        12.51390764
  Ewald energy   TEWEN  =      4286.25630342
  -Hartree energ DENC   =     -4967.71356795
  -exchange      EXHF   =         0.00000000
  -V(xc)+E(xc)   XCENC  =       -36.31055729
  PAW double counting   =       406.88651198     -329.34073203
  entropy T*S    EENTRO =         0.00000000
  eigenvalues    EBANDS =      -166.33975653
  atomic energy  EATOM  =       771.16326738
  Solvation  Ediel_sol  =         0.00000000
  ---------------------------------------------------
  free energy    TOTEN  =       -22.88462337 eV

  energy without entropy =      -22.88462337  energy(sigma->0) =      -22.88462337


--------------------------------------------------------------------------------------------------------




--------------------------------------- Iteration      1(   4)  ---------------------------------------


     EDDAV:  cpu time    0.8589: real time    0.8590
 BZINTS: Fermi energy: -3.384420; 18.000000 electrons
         Band energy:-166.850766;  BLOECHL correction:  0.000000
       DOS:  cpu time    0.0000: real time    0.0002
    --------------------------------------------
      LOOP:  cpu time    0.8589: real time    0.8592

 eigenvalue-minimisations  :   378
 total energy-change (2. order) :-0.5110100E+00  (-0.5078089E+00)
 number of electron      18.0000000 magnetization 
 augmentation part       18.0000000 magnetization 

 Free energy of the ion-electron system (eV)
  ---------------------------------------------------
  alpha Z        PSCENC =        12.51390764
  Ewald energy   TEWEN  =      4286.25630342
  -Hartree energ DENC   =     -4967.71356795
  -exchange      EXHF   =         0.00000000
  -V(xc)+E(xc)   XCENC  =       -36.31055729
  PAW double counting   =       406.88651198     -329.34073203
  entropy T*S    EENTRO =         0.00000000
  eigenvalues    EBANDS =      -166.85076649
  atomic energy  EATOM  =       771.16326738
  Solvation  Ediel_sol  =         0.00000000
  ---------------------------------------------------
  free energy    TOTEN  =       -23.39563334 eV

  energy without entropy =      -23.39563334  energy(sigma->0) =      -23.39563334


--------------------------------------------------------------------------------------------------------




--------------------------------------- Iteration      1(   5)  ---------------------------------------


     EDDAV:  cpu time    0.8119: real time    0.8164
 BZINTS: Fermi energy: -3.316662; 18.000000 electrons
         Band energy:-166.864654;  BLOECHL correction:  0.000000
       DOS:  cpu time    0.0010: real time    0.0003
    CHARGE:  cpu time    0.0580: real time    0.0583
    MIXING:  cpu time    0.0040: real time    0.0043
    --------------------------------------------
      LOOP:  cpu time    0.8749: real time    0.8792

 eigenvalue-minimisations  :   352
 total energy-change (2. order) :-0.1388754E-01  (-0.1387739E-01)
 number of electron      18.0000002 magnetization 
 augmentation part       -0.9445688 magnetization 

 Broyden mixing:
  rms(total) = 0.68880E+00    rms(broyden)= 0.68880E+00
  rms(prec ) = 0.74606E+00
  weight for this iteration     100.00

 Free energy of the ion-electron system (eV)
  ---------------------------------------------------
  alpha Z        PSCENC =        12.51390764
  Ewald energy   TEWEN  =      4286.25630342
  -Hartree energ DENC   =     -4967.71356795
  -exchange      EXHF   =         0.00000000
  -V(xc)+E(xc)   XCENC  =       -36.31055729
  PAW double counting   =       406.88651198     -329.34073203
  entropy T*S    EENTRO =         0.00000000
  eigenvalues    EBANDS =      -166.86465403
  atomic energy  EATOM  =       771.16326738
  Solvation  Ediel_sol  =         0.00000000
  ---------------------------------------------------
  free energy    TOTEN  =       -23.40952088 eV

  energy without entropy =      -23.40952088  energy(sigma->0) =      -23.40952088


--------------------------------------------------------------------------------------------------------




--------------------------------------- Iteration      1(   6)  ---------------------------------------


    POTLOK:  cpu time    0.1330: real time    0.1341
    SETDIJ:  cpu time    0.0050: real time    0.0045
    EDDIAG:  cpu time    0.1260: real time    0.1262
  RMM-DIIS:  cpu time    0.6059: real time    0.6057
    ORTHCH:  cpu time    0.0110: real time    0.0116
 BZINTS: Fermi energy: -4.385688; 18.000000 electrons
         Band energy:-167.360134;  BLOECHL correction:  0.000000
       DOS:  cpu time    0.0010: real time    0.0002
    CHARGE:  cpu time    0.0580: real time    0.0584
    MIXING:  cpu time    0.0040: real time    0.0040
    --------------------------------------------
      LOOP:  cpu time    0.9439: real time    0.9449

 eigenvalue-minimisations  :   297
 total energy-change (2. order) : 0.1160601E+01  (-0.5429824E+00)
 number of electron      18.0000002 magnetization 
 augmentation part       -0.3982467 magnetization 

 Broyden mixing:
  rms(total) = 0.26124E+00    rms(broyden)= 0.26124E+00
  rms(prec ) = 0.30686E+00
  weight for this iteration     100.00

 eigenvalues of (default mixing * dielectric matrix)
  average eigenvalue GAMMA=   0.8341
  0.8341

 Free energy of the ion-electron system (eV)
  ---------------------------------------------------
  alpha Z        PSCENC =        12.51390764
  Ewald energy   TEWEN  =      4286.25630342
  -Hartree energ DENC   =     -4966.05476619
  -exchange      EXHF   =         0.00000000
  -V(xc)+E(xc)   XCENC  =       -35.42324188
  PAW double counting   =       423.88918643     -347.23344202
  entropy T*S    EENTRO =         0.00000000
  eigenvalues    EBANDS =      -167.36013429
  atomic energy  EATOM  =       771.16326738
  Solvation  Ediel_sol  =         0.00000000
  ---------------------------------------------------
  free energy    TOTEN  =       -22.24891951 eV

  energy without entropy =      -22.24891951  energy(sigma->0) =      -22.24891951


--------------------------------------------------------------------------------------------------------




--------------------------------------- Iteration      1(   7)  ---------------------------------------


    POTLOK:  cpu time    0.1220: real time    0.1252
    SETDIJ:  cpu time    0.0060: real time    0.0045
    EDDIAG:  cpu time    0.1240: real time    0.1251
  RMM-DIIS:  cpu time    0.5899: real time    0.5893
    ORTHCH:  cpu time    0.0120: real time    0.0115
 BZINTS: Fermi energy: -3.806167; 18.000000 electrons
         Band energy:-161.221156;  BLOECHL correction:  0.000000
       DOS:  cpu time    0.0000: real time    0.0002
    CHARGE:  cpu time    0.0580: real time    0.0578
    MIXING:  cpu time    0.0040: real time    0.0041
    --------------------------------------------
      LOOP:  cpu time    0.9159: real time    0.9177

 eigenvalue-minimisations  :   294
 total energy-change (2. order) : 0.3846961E+00  (-0.5526396E-01)
 number of electron      18.0000002 magnetization 
 augmentation part       -0.5981926 magnetization 

 Broyden mixing:
  rms(total) = 0.14983E+00    rms(broyden)= 0.14983E+00
  rms(prec ) = 0.15818E+00
  weight for this iteration     100.00

 eigenvalues of (default mixing * dielectric matrix)
  average eigenvalue GAMMA=   1.3611
  0.6662  2.0560

 Free energy of the ion-electron system (eV)
  ---------------------------------------------------
  alpha Z        PSCENC =        12.51390764
  Ewald energy   TEWEN  =      4286.25630342
  -Hartree energ DENC   =     -4971.43422703
  -exchange      EXHF   =         0.00000000
  -V(xc)+E(xc)   XCENC  =       -35.56636393
  PAW double counting   =       441.27401715     -364.84997174
  entropy T*S    EENTRO =         0.00000000
  eigenvalues    EBANDS =      -161.22115632
  atomic energy  EATOM  =       771.16326738
  Solvation  Ediel_sol  =         0.00000000
  ---------------------------------------------------
  free energy    TOTEN  =       -21.86422344 eV

  energy without entropy =      -21.86422344  energy(sigma->0) =      -21.86422344


--------------------------------------------------------------------------------------------------------




--------------------------------------- Iteration      1(   8)  ---------------------------------------


    POTLOK:  cpu time    0.1210: real time    0.1226
    SETDIJ:  cpu time    0.0060: real time    0.0045
    EDDIAG:  cpu time    0.1230: real time    0.1243
  RMM-DIIS:  cpu time    0.6219: real time    0.6209
    ORTHCH:  cpu time    0.0110: real time    0.0115
 BZINTS: Fermi energy: -3.707109; 18.000000 electrons
         Band energy:-157.008865;  BLOECHL correction:  0.000000
       DOS:  cpu time    0.0010: real time    0.0002
    CHARGE:  cpu time    0.0570: real time    0.0577
    MIXING:  cpu time    0.0040: real time    0.0049
    --------------------------------------------
      LOOP:  cpu time    0.9449: real time    0.9466

 eigenvalue-minimisations  :   311
 total energy-change (2. order) : 0.5989288E-01  (-0.2329986E-01)
 number of electron      18.0000002 magnetization 
 augmentation part       -0.5513570 magnetization 

 Broyden mixing:
  rms(total) = 0.35544E-01    rms(broyden)= 0.35544E-01
  rms(prec ) = 0.37893E-01
  weight for this iteration     100.00

 eigenvalues of (default mixing * dielectric matrix)
  average eigenvalue GAMMA=   1.4998
  1.9172  1.9172  0.6649

 Free energy of the ion-electron system (eV)
  ---------------------------------------------------
  alpha Z        PSCENC =        12.51390764
  Ewald energy   TEWEN  =      4286.25630342
  -Hartree energ DENC   =     -4975.34171062
  -exchange      EXHF   =         0.00000000
  -V(xc)+E(xc)   XCENC  =       -35.29527030
  PAW double counting   =       464.74729954     -388.83926214
  entropy T*S    EENTRO =         0.00000000
  eigenvalues    EBANDS =      -157.00886549
  atomic energy  EATOM  =       771.16326738
  Solvation  Ediel_sol  =         0.00000000
  ---------------------------------------------------
  free energy    TOTEN  =       -21.80433057 eV

  energy without entropy =      -21.80433057  energy(sigma->0) =      -21.80433057


--------------------------------------------------------------------------------------------------------




--------------------------------------- Iteration      1(   9)  ---------------------------------------


    POTLOK:  cpu time    0.1230: real time    0.1257
    SETDIJ:  cpu time    0.0050: real time    0.0045
    EDDIAG:  cpu time    0.1240: real time    0.1244
  RMM-DIIS:  cpu time    0.6779: real time    0.6774
    ORTHCH:  cpu time    0.0110: real time    0.0115
 BZINTS: Fermi energy: -3.634778; 18.000000 electrons
         Band energy:-155.685679;  BLOECHL correction:  0.000000
       DOS:  cpu time    0.0000: real time    0.0002
    CHARGE:  cpu time    0.0580: real time    0.0577
    MIXING:  cpu time    0.0050: real time    0.0045
    --------------------------------------------
      LOOP:  cpu time    1.0038: real time    1.0059

 eigenvalue-minimisations  :   336
 total energy-change (2. order) : 0.4835812E-02  (-0.8916949E-03)
 number of electron      18.0000002 magnetization 
 augmentation part       -0.5460529 magnetization 

 Broyden mixing:
  rms(total) = 0.96734E-02    rms(broyden)= 0.96734E-02
  rms(prec ) = 0.11927E-01
  weight for this iteration     100.00

 eigenvalues of (default mixing * dielectric matrix)
  average eigenvalue GAMMA=   1.5094
  0.6674  1.0488  2.4392  1.8822

 Free energy of the ion-electron system (eV)
  ---------------------------------------------------
  alpha Z        PSCENC =        12.51390764
  Ewald energy   TEWEN  =      4286.25630342
  -Hartree energ DENC   =     -4976.63386086
  -exchange      EXHF   =         0.00000000
  -V(xc)+E(xc)   XCENC  =       -35.24086730
  PAW double counting   =       470.14888928     -394.32145524
  entropy T*S    EENTRO =         0.00000000
  eigenvalues    EBANDS =      -155.68567909
  atomic energy  EATOM  =       771.16326738
  Solvation  Ediel_sol  =         0.00000000
  ---------------------------------------------------
  free energy    TOTEN  =       -21.79949476 eV

  energy without entropy =      -21.79949476  energy(sigma->0) =      -21.79949476


--------------------------------------------------------------------------------------------------------




--------------------------------------- Iteration      1(  10)  ---------------------------------------


    POTLOK:  cpu time    0.1220: real time    0.1243
    SETDIJ:  cpu time    0.0050: real time    0.0046
    EDDIAG:  cpu time    0.1230: real time    0.1241
  RMM-DIIS:  cpu time    0.6769: real time    0.6755
    ORTHCH:  cpu time    0.0110: real time    0.0115
 BZINTS: Fermi energy: -3.577062; 18.000000 electrons
         Band energy:-154.551263;  BLOECHL correction:  0.000000
       DOS:  cpu time    0.0000: real time    0.0002
    CHARGE:  cpu time    0.0580: real time    0.0577
    MIXING:  cpu time    0.0050: real time    0.0047
    --------------------------------------------
      LOOP:  cpu time    1.0008: real time    1.0025

 eigenvalue-minimisations  :   334
 total energy-change (2. order) : 0.7519253E-03  (-0.1798621E-03)
 number of electron      18.0000002 magnetization 
 augmentation part       -0.5506894 magnetization 

 Broyden mixing:
  rms(total) = 0.44527E-02    rms(broyden)= 0.44527E-02
  rms(prec ) = 0.60954E-02
  weight for this iteration     100.00

 eigenvalues of (default mixing * dielectric matrix)
  average eigenvalue GAMMA=   1.6696
  0.6680  1.0361  2.1665  2.2386  2.2386

 Free energy of the ion-electron system (eV)
  ---------------------------------------------------
  alpha Z        PSCENC =        12.51390764
  Ewald energy   TEWEN  =      4286.25630342
  -Hartree energ DENC   =     -4977.75852769
  -exchange      EXHF   =         0.00000000
  -V(xc)+E(xc)   XCENC  =       -35.21984525
  PAW double counting   =       472.39258960     -396.59517494
  entropy T*S    EENTRO =         0.00000000
  eigenvalues    EBANDS =      -154.55126299
  atomic energy  EATOM  =       771.16326738
  Solvation  Ediel_sol  =         0.00000000
  ---------------------------------------------------
  free energy    TOTEN  =       -21.79874283 eV

  energy without entropy =      -21.79874283  energy(sigma->0) =      -21.79874283


--------------------------------------------------------------------------------------------------------




--------------------------------------- Iteration      1(  11)  ---------------------------------------


    POTLOK:  cpu time    0.1200: real time    0.1245
    SETDIJ:  cpu time    0.0050: real time    0.0045
    EDDIAG:  cpu time    0.1240: real time    0.1239
  RMM-DIIS:  cpu time    0.6399: real time    0.6397
    ORTHCH:  cpu time    0.0110: real time    0.0115
 BZINTS: Fermi energy: -3.519841; 18.000000 electrons
         Band energy:-153.425970;  BLOECHL correction:  0.000000
       DOS:  cpu time    0.0000: real time    0.0002
    CHARGE:  cpu time    0.0580: real time    0.0578
    MIXING:  cpu time    0.0050: real time    0.0049
    --------------------------------------------
      LOOP:  cpu time    0.9629: real time    0.9671

 eigenvalue-minimisations  :   315
 total energy-change (2. order) : 0.8123757E-04  (-0.1760984E-03)
 number of electron      18.0000002 magnetization 
 augmentation part       -0.5468038 magnetization 

 Broyden mixing:
  rms(total) = 0.57495E-02    rms(broyden)= 0.57495E-02
  rms(prec ) = 0.65893E-02
  weight for this iteration     100.00

 eigenvalues of (default mixing * dielectric matrix)
  average eigenvalue GAMMA=   1.6712
  2.9126  2.6858  0.6687  0.9285  1.4159  1.4159

 Free energy of the ion-electron system (eV)
  ---------------------------------------------------
  alpha Z        PSCENC =        12.51390764
  Ewald energy   TEWEN  =      4286.25630342
  -Hartree energ DENC   =     -4978.90735654
  -exchange      EXHF   =         0.00000000
  -V(xc)+E(xc)   XCENC  =       -35.20619073
  PAW double counting   =       471.80572635     -395.99834893
  entropy T*S    EENTRO =         0.00000000
  eigenvalues    EBANDS =      -153.42597017
  atomic energy  EATOM  =       771.16326738
  Solvation  Ediel_sol  =         0.00000000
  ---------------------------------------------------
  free energy    TOTEN  =       -21.79866159 eV

  energy without entropy =      -21.79866159  energy(sigma->0) =      -21.79866159


--------------------------------------------------------------------------------------------------------




--------------------------------------- Iteration      1(  12)  ---------------------------------------


    POTLOK:  cpu time    0.1220: real time    0.1223
    SETDIJ:  cpu time    0.0050: real time    0.0045
    EDDIAG:  cpu time    0.1230: real time    0.1238
  RMM-DIIS:  cpu time    0.6239: real time    0.6231
    ORTHCH:  cpu time    0.0110: real time    0.0115
 BZINTS: Fermi energy: -3.484671; 18.000000 electrons
         Band energy:-152.770506;  BLOECHL correction:  0.000000
       DOS:  cpu time    0.0000: real time    0.0002
    CHARGE:  cpu time    0.0580: real time    0.0577
    MIXING:  cpu time    0.0050: real time    0.0051
    --------------------------------------------
      LOOP:  cpu time    0.9479: real time    0.9483

 eigenvalue-minimisations  :   306
 total energy-change (2. order) : 0.2334646E-03  (-0.5727956E-04)
 number of electron      18.0000002 magnetization 
 augmentation part       -0.5496527 magnetization 

 Broyden mixing:
  rms(total) = 0.17108E-02    rms(broyden)= 0.17108E-02
  rms(prec ) = 0.23112E-02
  weight for this iteration     100.00

 eigenvalues of (default mixing * dielectric matrix)
  average eigenvalue GAMMA=   1.9389
  3.8212  2.7163  2.7163  0.6687  0.9621  1.4467  1.2413

 Free energy of the ion-electron system (eV)
  ---------------------------------------------------
  alpha Z        PSCENC =        12.51390764
  Ewald energy   TEWEN  =      4286.25630342
  -Hartree energ DENC   =     -4979.56805708
  -exchange      EXHF   =         0.00000000
  -V(xc)+E(xc)   XCENC  =       -35.20293678
  PAW double counting   =       471.99386993     -396.18427674
  entropy T*S    EENTRO =         0.00000000
  eigenvalues    EBANDS =      -152.77050590
  atomic energy  EATOM  =       771.16326738
  Solvation  Ediel_sol  =         0.00000000
  ---------------------------------------------------
  free energy    TOTEN  =       -21.79842813 eV

  energy without entropy =      -21.79842813  energy(sigma->0) =      -21.79842813


--------------------------------------------------------------------------------------------------------




--------------------------------------- Iteration      1(  13)  ---------------------------------------


    POTLOK:  cpu time    0.1260: real time    0.1297
    SETDIJ:  cpu time    0.0050: real time    0.0045
    EDDIAG:  cpu time    0.1240: real time    0.1236
  RMM-DIIS:  cpu time    0.5549: real time    0.5547
    ORTHCH:  cpu time    0.0110: real time    0.0115
 BZINTS: Fermi energy: -3.446220; 18.000000 electrons
         Band energy:-152.056425;  BLOECHL correction:  0.000000
       DOS:  cpu time    0.0000: real time    0.0002
    CHARGE:  cpu time    0.0580: real time    0.0577
    MIXING:  cpu time    0.0050: real time    0.0053
    --------------------------------------------
      LOOP:  cpu time    0.8849: real time    0.8873

 eigenvalue-minimisations  :   284
 total energy-change (2. order) :-0.2827315E-03  (-0.1512474E-04)
 number of electron      18.0000002 magnetization 
 augmentation part       -0.5480817 magnetization 

 Broyden mixing:
  rms(total) = 0.20077E-02    rms(broyden)= 0.20077E-02
  rms(prec ) = 0.22601E-02
  weight for this iteration     100.00

 eigenvalues of (default mixing * dielectric matrix)
  average eigenvalue GAMMA=   1.9016
  4.7393  2.7041  2.3804  1.4172  1.4172  0.6688  0.9431  0.9431

 Free energy of the ion-electron system (eV)
  ---------------------------------------------------
  alpha Z        PSCENC =        12.51390764
  Ewald energy   TEWEN  =      4286.25630342
  -Hartree energ DENC   =     -4980.28406785
  -exchange      EXHF   =         0.00000000
  -V(xc)+E(xc)   XCENC  =       -35.19613467
  PAW double counting   =       471.94846868     -396.14403041
  entropy T*S    EENTRO =         0.00000000
  eigenvalues    EBANDS =      -152.05642505
  atomic energy  EATOM  =       771.16326738
  Solvation  Ediel_sol  =         0.00000000
  ---------------------------------------------------
  free energy    TOTEN  =       -21.79871086 eV

  energy without entropy =      -21.79871086  energy(sigma->0) =      -21.79871086


--------------------------------------------------------------------------------------------------------




--------------------------------------- Iteration      1(  14)  ---------------------------------------


    POTLOK:  cpu time    0.1270: real time    0.1270
    SETDIJ:  cpu time    0.0050: real time    0.0045
    EDDIAG:  cpu time    0.1230: real time    0.1239
  RMM-DIIS:  cpu time    0.5369: real time    0.5362
    ORTHCH:  cpu time    0.0120: real time    0.0115
 BZINTS: Fermi energy: -3.437366; 18.000000 electrons
         Band energy:-151.899728;  BLOECHL correction:  0.000000
       DOS:  cpu time    0.0000: real time    0.0002
    CHARGE:  cpu time    0.0580: real time    0.0579
    MIXING:  cpu time    0.0050: real time    0.0056
    --------------------------------------------
      LOOP:  cpu time    0.8659: real time    0.8669

 eigenvalue-minimisations  :   254
 total energy-change (2. order) :-0.3402852E-04  (-0.2701843E-05)
 number of electron      18.0000002 magnetization 
 augmentation part       -0.5492476 magnetization 

 Broyden mixing:
  rms(total) = 0.49515E-03    rms(broyden)= 0.49515E-03
  rms(prec ) = 0.68583E-03
  weight for this iteration     100.00

 eigenvalues of (default mixing * dielectric matrix)
  average eigenvalue GAMMA=   2.1581
  6.4340  2.9508  2.3893  2.3893  1.4998  0.6688  1.1902  0.9504  0.9504

 Free energy of the ion-electron system (eV)
  ---------------------------------------------------
  alpha Z        PSCENC =        12.51390764
  Ewald energy   TEWEN  =      4286.25630342
  -Hartree energ DENC   =     -4980.44324107
  -exchange      EXHF   =         0.00000000
  -V(xc)+E(xc)   XCENC  =       -35.19829121
  PAW double counting   =       471.76597095     -395.95693444
  entropy T*S    EENTRO =         0.00000000
  eigenvalues    EBANDS =      -151.89972756
  atomic energy  EATOM  =       771.16326738
  Solvation  Ediel_sol  =         0.00000000
  ---------------------------------------------------
  free energy    TOTEN  =       -21.79874489 eV

  energy without entropy =      -21.79874489  energy(sigma->0) =      -21.79874489


--------------------------------------------------------------------------------------------------------




--------------------------------------- Iteration      1(  15)  ---------------------------------------


    POTLOK:  cpu time    0.1300: real time    0.1346
    SETDIJ:  cpu time    0.0050: real time    0.0045
    EDDIAG:  cpu time    0.1240: real time    0.1245
  RMM-DIIS:  cpu time    0.4489: real time    0.4482
    ORTHCH:  cpu time    0.0110: real time    0.0115
 BZINTS: Fermi energy: -3.428115; 18.000000 electrons
         Band energy:-151.742735;  BLOECHL correction:  0.000000
       DOS:  cpu time    0.0000: real time    0.0002
    CHARGE:  cpu time    0.0580: real time    0.0580
    MIXING:  cpu time    0.0060: real time    0.0059
    --------------------------------------------
      LOOP:  cpu time    0.7829: real time    0.7874

 eigenvalue-minimisations  :   198
 total energy-change (2. order) :-0.1112917E-03  (-0.1142223E-05)
 number of electron      18.0000002 magnetization 
 augmentation part       -0.5490151 magnetization 

 Broyden mixing:
  rms(total) = 0.28146E-03    rms(broyden)= 0.28146E-03
  rms(prec ) = 0.37608E-03
  weight for this iteration     100.00

 eigenvalues of (default mixing * dielectric matrix)
  average eigenvalue GAMMA=   2.1405
  6.5027  3.5510  2.6164  1.7601  1.7601  1.5419  0.6688  1.0594  1.0128  0.9321

 Free energy of the ion-electron system (eV)
  ---------------------------------------------------
  alpha Z        PSCENC =        12.51390764
  Ewald energy   TEWEN  =      4286.25630342
  -Hartree energ DENC   =     -4980.60043581
  -exchange      EXHF   =         0.00000000
  -V(xc)+E(xc)   XCENC  =       -35.19809888
  PAW double counting   =       471.79101125     -395.98207632
  entropy T*S    EENTRO =         0.00000000
  eigenvalues    EBANDS =      -151.74273486
  atomic energy  EATOM  =       771.16326738
  Solvation  Ediel_sol  =         0.00000000
  ---------------------------------------------------
  free energy    TOTEN  =       -21.79885618 eV

  energy without entropy =      -21.79885618  energy(sigma->0) =      -21.79885618


--------------------------------------------------------------------------------------------------------




--------------------------------------- Iteration      1(  16)  ---------------------------------------


    POTLOK:  cpu time    0.1310: real time    0.1310
    SETDIJ:  cpu time    0.0050: real time    0.0046
    EDDIAG:  cpu time    0.1240: real time    0.1249
  RMM-DIIS:  cpu time    0.4429: real time    0.4419
    ORTHCH:  cpu time    0.0110: real time    0.0116
 BZINTS: Fermi energy: -3.424166; 18.000000 electrons
         Band energy:-151.679664;  BLOECHL correction:  0.000000
       DOS:  cpu time    0.0000: real time    0.0002
    CHARGE:  cpu time    0.0580: real time    0.0581
    MIXING:  cpu time    0.0060: real time    0.0061
    --------------------------------------------
      LOOP:  cpu time    0.7779: real time    0.7782

 eigenvalue-minimisations  :   188
 total energy-change (2. order) :-0.3471353E-04  (-0.4526604E-06)
 number of electron      18.0000002 magnetization 
 augmentation part       -0.5491457 magnetization 

 Broyden mixing:
  rms(total) = 0.16904E-03    rms(broyden)= 0.16904E-03
  rms(prec ) = 0.21594E-03
  weight for this iteration     100.00

 eigenvalues of (default mixing * dielectric matrix)
  average eigenvalue GAMMA=   2.2962
  7.2980  3.8813  2.9978  2.6238  2.1489  1.5495  0.6688  1.1267  1.0641  0.9789
  0.9203

 Free energy of the ion-electron system (eV)
  ---------------------------------------------------
  alpha Z        PSCENC =        12.51390764
  Ewald energy   TEWEN  =      4286.25630342
  -Hartree energ DENC   =     -4980.66262507
  -exchange      EXHF   =         0.00000000
  -V(xc)+E(xc)   XCENC  =       -35.19796468
  PAW double counting   =       471.84682241     -396.03893759
  entropy T*S    EENTRO =         0.00000000
  eigenvalues    EBANDS =      -151.67966441
  atomic energy  EATOM  =       771.16326738
  Solvation  Ediel_sol  =         0.00000000
  ---------------------------------------------------
  free energy    TOTEN  =       -21.79889089 eV

  energy without entropy =      -21.79889089  energy(sigma->0) =      -21.79889089


--------------------------------------------------------------------------------------------------------




--------------------------------------- Iteration      1(  17)  ---------------------------------------


    POTLOK:  cpu time    0.1300: real time    0.1317
    SETDIJ:  cpu time    0.0040: real time    0.0046
    EDDIAG:  cpu time    0.1250: real time    0.1249
  RMM-DIIS:  cpu time    0.3939: real time    0.3932
    ORTHCH:  cpu time    0.0110: real time    0.0115
 BZINTS: Fermi energy: -3.422448; 18.000000 electrons
         Band energy:-151.642291;  BLOECHL correction:  0.000000
       DOS:  cpu time    0.0000: real time    0.0002
    CHARGE:  cpu time    0.0580: real time    0.0579
    MIXING:  cpu time    0.0060: real time    0.0064
    --------------------------------------------
      LOOP:  cpu time    0.7279: real time    0.7304

 eigenvalue-minimisations  :   161
 total energy-change (2. order) :-0.4481556E-04  (-0.3271042E-06)
 number of electron      18.0000002 magnetization 
 augmentation part       -0.5491609 magnetization 

 Broyden mixing:
  rms(total) = 0.13792E-03    rms(broyden)= 0.13792E-03
  rms(prec ) = 0.15947E-03
  weight for this iteration     100.00

 eigenvalues of (default mixing * dielectric matrix)
  average eigenvalue GAMMA=   2.3185
  7.7408  4.9475  2.9258  2.4820  2.1219  1.4863  1.4863  0.6688  1.0486  1.0486
  0.9324  0.9324

 Free energy of the ion-electron system (eV)
  ---------------------------------------------------
  alpha Z        PSCENC =        12.51390764
  Ewald energy   TEWEN  =      4286.25630342
  -Hartree energ DENC   =     -4980.70088517
  -exchange      EXHF   =         0.00000000
  -V(xc)+E(xc)   XCENC  =       -35.19811838
  PAW double counting   =       471.80162465     -395.99274436
  entropy T*S    EENTRO =         0.00000000
  eigenvalues    EBANDS =      -151.64229090
  atomic energy  EATOM  =       771.16326738
  Solvation  Ediel_sol  =         0.00000000
  ---------------------------------------------------
  free energy    TOTEN  =       -21.79893571 eV

  energy without entropy =      -21.79893571  energy(sigma->0) =      -21.79893571


--------------------------------------------------------------------------------------------------------




--------------------------------------- Iteration      1(  18)  ---------------------------------------


    POTLOK:  cpu time    0.1270: real time    0.1278
    SETDIJ:  cpu time    0.0060: real time    0.0046
    EDDIAG:  cpu time    0.1240: real time    0.1247
  RMM-DIIS:  cpu time    0.3529: real time    0.3527
    ORTHCH:  cpu time    0.0120: real time    0.0115
 BZINTS: Fermi energy: -3.422577; 18.000000 electrons
         Band energy:-151.643130;  BLOECHL correction:  0.000000
       DOS:  cpu time    0.0000: real time    0.0002
    --------------------------------------------
      LOOP:  cpu time    0.6219: real time    0.6216

 eigenvalue-minimisations  :    87
 total energy-change (2. order) :-0.7156295E-05  (-0.4462661E-07)
 number of electron      18.0000002 magnetization 
 augmentation part       -0.5491609 magnetization 

 Free energy of the ion-electron system (eV)
  ---------------------------------------------------
  alpha Z        PSCENC =        12.51390764
  Ewald energy   TEWEN  =      4286.25630342
  -Hartree energ DENC   =     -4980.69986505
  -exchange      EXHF   =         0.00000000
  -V(xc)+E(xc)   XCENC  =       -35.19809483
  PAW double counting   =       471.81103283     -396.00236467
  entropy T*S    EENTRO =         0.00000000
  eigenvalues    EBANDS =      -151.64312958
  atomic energy  EATOM  =       771.16326738
  Solvation  Ediel_sol  =         0.00000000
  ---------------------------------------------------
  free energy    TOTEN  =       -21.79894286 eV

  energy without entropy =      -21.79894286  energy(sigma->0) =      -21.79894286


--------------------------------------------------------------------------------------------------------




 average (electrostatic) potential at core
  the test charge radii are     1.2296  0.9698
  (the norm of the test charge is              1.0000)
       1 -46.8733       2 -94.7157       3 -94.7157
 
 
 
 E-fermi :  -3.4226     XC(G=0):  -2.8684     alpha+bet : -2.6672


 k-point     1 :       0.0000    0.0000    0.0000
  band No.  band energies     occupation 
      1     -17.4635      2.00000
      2     -16.2555      2.00000
      3      -8.9844      2.00000
      4      -6.0236      2.00000
      5      -6.0236      2.00000
      6      -5.1623      2.00000
      7      -4.9181      2.00000
      8      -4.9181      2.00000
      9      -3.4419      2.00000
     10      -0.6704      0.00000
     11      -0.6704      0.00000
     12      -0.4467      0.00000
     13      -0.4467      0.00000
     14       1.9926      0.00000

 k-point     2 :       0.1250    0.0000    0.0000
  band No.  band energies     occupation 
      1     -17.2494      2.00000
      2     -16.1531      2.00000
      3      -8.7399      2.00000
      4      -6.4871      2.00000
      5      -5.9704      2.00000
      6      -5.7892      2.00000
      7      -5.2538      2.00000
      8      -4.4848      2.00000
      9      -3.5803      2.00000
     10      -0.9504      0.00000
     11      -0.8846      0.00000
     12      -0.6833      0.00000
     13      -0.3156      0.00000
     14       2.3812      0.00000

 k-point     3 :       0.2500    0.0000    0.0000
  band No.  band energies     occupation 
      1     -16.6806      2.00000
      2     -15.8843      2.00000
      3      -8.3738      2.00000
      4      -7.2136      2.00000
      5      -6.9512      2.00000
      6      -5.8889      2.00000
      7      -5.2021      2.00000
      8      -4.7364      2.00000
      9      -4.1483      2.00000
     10      -1.2745      0.00000
     11      -1.0980      0.00000
     12      -0.5559      0.00000
     13       0.3014      0.00000
     14       3.1785      0.00000

 k-point     4 :       0.3750    0.0000    0.0000
  band No.  band energies     occupation 
      1     -16.0055      2.00000
      2     -15.5759      2.00000
      3      -8.8110      2.00000
      4      -7.8186      2.00000
      5      -7.3464      2.00000
      6      -6.3862      2.00000
      7      -5.1457      2.00000
      8      -4.6116      2.00000
      9      -4.3435      2.00000
     10      -1.2794      0.00000
     11      -1.0005      0.00000
     12       0.1626      0.00000
     13       0.6947      0.00000
     14       3.7009      0.00000

 k-point     5 :       0.5000    0.0000    0.0000
  band No.  band energies     occupation 
      1     -15.6773      2.00000
      2     -15.4326      2.00000
      3      -9.1437      2.00000
      4      -8.1835      2.00000
      5      -7.4728      2.00000
      6      -6.5668      2.00000
      7      -5.2846      2.00000
      8      -4.3845      2.00000
      9      -4.0627      2.00000
     10      -1.2571      0.00000
     11      -0.7412      0.00000
     12       0.4612      0.00000
     13       0.8101      0.00000
     14       2.7405      0.00000

 k-point     6 :       0.1250    0.1250    0.0000
  band No.  band energies     occupation 
      1     -16.8566      2.00000
      2     -15.9661      2.00000
      3      -8.3926      2.00000
      4      -7.0510      2.00000
      5      -6.5325      2.00000
      6      -6.0677      2.00000
      7      -5.4497      2.00000
      8      -4.3504      2.00000
      9      -3.9522      2.00000
     10      -1.3497      0.00000
     11      -0.9715      0.00000
     12      -0.9597      0.00000
     13       0.2792      0.00000
     14       2.9569      0.00000

 k-point     7 :       0.2500    0.1250    0.0000
  band No.  band energies     occupation 
      1     -16.2230      2.00000
      2     -15.6675      2.00000
      3      -8.4554      2.00000
      4      -7.4778      2.00000
      5      -7.2146      2.00000
      6      -6.5720      2.00000
      7      -5.3503      2.00000
      8      -4.7126      2.00000
      9      -4.2359      2.00000
     10      -1.4330      0.00000
     11      -0.9845      0.00000
     12      -0.4897      0.00000
     13       0.7871      0.00000
     14       3.9244      0.00000

 k-point     8 :       0.3750    0.1250    0.0000
  band No.  band energies     occupation 
      1     -15.6925      2.00000
      2     -15.4236      2.00000
      3      -8.8563      2.00000
      4      -8.2408      2.00000
      5      -7.3450      2.00000
      6      -6.5888      2.00000
      7      -5.3351      2.00000
      8      -5.1944      2.00000
      9      -3.9090      2.00000
     10      -1.2383      0.00000
     11      -0.7279      0.00000
     12       0.1320      0.00000
     13       0.8208      0.00000
     14       3.2674      0.00000

 k-point     9 :       0.2500    0.2500    0.0000
  band No.  band energies     occupation 
      1     -15.7075      2.00000
      2     -15.4146      2.00000
      3      -8.4960      2.00000
      4      -8.2916      2.00000
      5      -7.0178      2.00000
      6      -6.6371      2.00000
      7      -6.3179      2.00000
      8      -5.0609      2.00000
      9      -3.9378      2.00000
     10      -1.2893      0.00000
     11      -0.6782      0.00000
     12      -0.3666      0.00000
     13       1.1088      0.00000
     14       4.0997      0.00000

 k-point    10 :       0.3750    0.2500    0.0000
  band No.  band energies     occupation 
      1     -15.4726      2.00000
      2     -15.2955      2.00000
      3      -8.6760      2.00000
      4      -8.3269      2.00000
      5      -7.3022      2.00000
      6      -6.6396      2.00000
      7      -6.4094      2.00000
      8      -5.4472      2.00000
      9      -3.5704      2.00000
     10      -1.6149      0.00000
     11      -0.3082      0.00000
     12      -0.1276      0.00000
     13       1.2541      0.00000
     14       3.5103      0.00000


--------------------------------------------------------------------------------------------------------


 soft charge-density along one line, spin component           1
         0         1         2         3         4         5         6         7         8         9
 total charge-density along one line
 
 pseudopotential strength for first ion, spin component:           1
 -9.986  -0.000  -0.000   0.000  -0.000   0.102   0.000   0.000
 -0.000  -9.987   0.000  -0.000   0.000   0.000   0.102  -0.000
 -0.000   0.000  -9.966  -0.000  -0.000   0.000  -0.000   0.101
  0.000  -0.000  -0.000  -9.987  -0.000  -0.000   0.000   0.000
 -0.000   0.000  -0.000  -0.000  -9.986   0.000  -0.000   0.000
  0.102   0.000   0.000  -0.000   0.000   0.098  -0.000   0.000
  0.000   0.102  -0.000   0.000  -0.000  -0.000   0.098   0.000
  0.000  -0.000   0.101   0.000   0.000   0.000   0.000   0.098
 -0.000   0.000   0.000   0.102   0.000   0.000  -0.000  -0.000
  0.000  -0.000   0.000   0.000   0.102  -0.000   0.000  -0.000
  0.000  -0.000  -0.005   0.000  -0.000  -0.000   0.000   0.000
 -0.000   0.000   0.001  -0.000   0.000   0.000  -0.000  -0.000
 -0.000   0.000  -0.000  -0.000  -0.007   0.000   0.000   0.000
 -0.000   0.000  -0.000  -0.000  -0.000  -0.000  -0.000  -0.000
 -0.007  -0.000   0.000   0.000  -0.000  -0.000  -0.000  -0.000
  0.000  -0.000   0.000   0.000   0.004  -0.000   0.000  -0.000
  0.000  -0.000   0.000   0.000   0.000  -0.000   0.000   0.000
  0.004   0.000  -0.000  -0.000   0.000   0.000  -0.000   0.000
 total augmentation occupancy for first ion, spin component:           1
  0.965  -0.000  -0.000  -0.000  -0.000   0.595  -0.000  -0.000   0.000  -0.000  -0.000   0.000   0.000   0.000  -0.065  -0.000
  0.000   0.907   0.000   0.000   0.000   0.000   0.833   0.000   0.000   0.000   0.000   0.000   0.000   0.000   0.000   0.000
 -0.000  -0.000   1.029   0.000   0.000  -0.000   0.000   0.495  -0.000   0.000   0.111  -0.019  -0.000  -0.000   0.000   0.000
  0.000   0.000   0.000   0.907   0.000   0.000   0.000   0.000   0.833   0.000  -0.000   0.000   0.000  -0.000   0.000   0.000
 -0.000   0.000   0.000   0.000   0.965  -0.000   0.000   0.000  -0.000   0.595   0.000  -0.000  -0.065   0.000  -0.000   0.007
  0.595   0.000  -0.000   0.000  -0.000   0.670  -0.000  -0.000   0.000  -0.000   0.000   0.000   0.000   0.000  -0.136  -0.000
  0.000   0.833   0.000   0.000   0.000   0.000   1.069   0.000   0.000   0.000   0.000   0.000   0.000   0.000  -0.000  -0.000
 -0.000   0.000   0.495  -0.000   0.000  -0.000   0.000   0.470  -0.000   0.000   0.058  -0.021  -0.000   0.000   0.000   0.000
 -0.000   0.000   0.000   0.833   0.000   0.000   0.000   0.000   1.069   0.000   0.000   0.000   0.000  -0.000  -0.000   0.000
 -0.000   0.000   0.000  -0.000   0.595  -0.000   0.000   0.000   0.000   0.670   0.000   0.000  -0.136   0.000  -0.000   0.023
 -0.000   0.000   0.111   0.000   0.000   0.000   0.000   0.058   0.000   0.000   1.207  -0.186   0.000   0.000  -0.000   0.000
  0.000   0.000  -0.019  -0.000  -0.000   0.000   0.000  -0.021   0.000   0.000  -0.186   0.042   0.000  -0.000  -0.000  -0.000
  0.000   0.000  -0.000  -0.000  -0.065   0.000   0.000  -0.000   0.000  -0.136  -0.000   0.000   0.217   0.000   0.000  -0.032
  0.000   0.000  -0.000  -0.000  -0.000   0.000   0.000   0.000  -0.000   0.000  -0.000   0.000   0.000   0.264  -0.000   0.000
 -0.065   0.000   0.000  -0.000  -0.000  -0.136   0.000   0.000   0.000  -0.000  -0.000  -0.000   0.000  -0.000   0.217  -0.000
 -0.000   0.000   0.000   0.000   0.007  -0.000   0.000   0.000  -0.000   0.023   0.000  -0.000  -0.032   0.000  -0.000   0.005
  0.000  -0.000  -0.000   0.000  -0.000   0.000   0.000  -0.000   0.000   0.000   0.000   0.000   0.000  -0.038  -0.000   0.000
  0.007  -0.000  -0.000  -0.000   0.000   0.023   0.000  -0.000   0.000   0.000  -0.000   0.000  -0.000  -0.000  -0.032   0.000


------------------------ aborting loop because EDIFF is reached ----------------------------------------


    CHARGE:  cpu time    0.0580: real time    0.0582
    FORLOC:  cpu time    0.0100: real time    0.0105
    FORNL :  cpu time    0.1020: real time    0.1017
    STRESS:  cpu time    0.5419: real time    0.5426
    FORCOR:  cpu time    0.1440: real time    0.1439
    FORHAR:  cpu time    0.0350: real time    0.0345
    MIXING:  cpu time    0.0060: real time    0.0066
    OFIELD:  cpu time    0.0000: real time    0.0000

  DFT-D2 method for vdW energy calculation
  -------------------------------------------------------------------

  Parameters of vdW forcefield:
         C6(Jnm^6/mol)     R0(A)
   -----------------------------
   Mo      24.670          1.639
   S        5.570          1.683

  IVDW =   1
  VDW_RADIUS =    50.000 A
  VDW_S6 =     0.750
  VDW_SR =     1.000
  VDW_D =    20.000
  LVDW_EWALD = F

  Number of pair interactions contributing to vdW energy:   12957
  Edisp (eV):   -0.59091
    FORVDW:  cpu time    0.0110: real time    0.0158

  FORCE on cell =-STRESS in cart. coord.  units (eV):
  Direction    XX          YY          ZZ          XY          YZ          ZX
  --------------------------------------------------------------------------------------
  Alpha Z    12.51391    12.51391    12.51391
  Ewald    4853.12264  4853.12308 -5419.98957     0.00019     0.00000     0.00012
  Hartree  4942.42616  4942.42617 -4904.14948     0.00002    -0.00000    -0.00000
  E(xc)     -70.30222   -70.30223   -70.90722    -0.00000     0.00000    -0.00000
  Local  -10076.21594-10076.21621 10037.50714    -0.00016    -0.00000    -0.00006
  n-local   127.16513   125.78852   131.68410    -0.25749    -0.00000    -0.00001
  augment   -25.56282   -25.56281   -26.66563     0.00002     0.00000    -0.00001
  Kinetic   235.85780   238.65878   239.77617    -7.40906     0.00001     0.00002
  Fock        0.00000     0.00000     0.00000     0.00000     0.00000     0.00000
  vdW         0.16041     0.16041    -0.13425     0.00000     0.00000    -0.00000
  -------------------------------------------------------------------------------------
  Total      -0.12267    -0.12267    -0.36484     0.00000     0.00000     0.00000
  in kB      -0.82952    -0.82952    -2.46715     0.00000     0.00000     0.00000
  external pressure =       -1.38 kB  Pullay stress =        0.00 kB


 VOLUME and BASIS-vectors are now :
 -----------------------------------------------------------------------------
  energy-cutoff  :      900.00
  volume of cell :      236.93
      direct lattice vectors                 reciprocal lattice vectors
     3.190315730  0.000000000  0.000000000     0.313448600  0.180969634  0.000000000
    -1.595157865  2.762894468  0.000000000     0.000000000  0.361939267  0.000000000
     0.000000000  0.000000000 26.879004300     0.000000000  0.000000000  0.037203759

  length of vectors
     3.190315730  3.190315730 26.879004300     0.361939267  0.361939267  0.037203759


 FORCES acting on ions
    electron-ion (+dipol)            ewald-force                    non-local-force                 convergence-correction
 -----------------------------------------------------------------------------------------------
   -.116E-04 -.506E-06 0.599E-05   0.931E-04 -.108E-03 0.307E-06   -.347E-17 -.694E-17 0.000E+00   0.855E-09 -.169E-08 -.489E-07
   -.854E-03 0.495E-03 0.579E+03   -.864E-04 0.538E-04 -.584E+03   -.278E-16 0.000E+00 0.480E+01   -.141E-07 0.733E-08 0.249E-02
   0.865E-03 0.495E-03 -.579E+03   -.674E-05 0.538E-04 0.584E+03   -.338E-16 0.000E+00 -.480E+01   0.126E-07 0.732E-08 -.249E-02
 -----------------------------------------------------------------------------------------------
   -.959E-06 0.989E-03 0.440E-04   0.897E-14 0.972E-14 -.114E-12   -.651E-16 -.694E-17 0.888E-15   -.680E-09 0.130E-07 -.130E-06
 
 
 POSITION                                       TOTAL-FORCE (eV/Angst)
 -----------------------------------------------------------------------------------
     -0.00000      1.84193      3.71975         0.000000     -0.000000     -0.000000
      1.59516      0.92096      2.15487        -0.000000      0.000000      0.115130
      1.59516      0.92096      5.28464        -0.000000      0.000000     -0.115130
 -----------------------------------------------------------------------------------
    total drift:                               -0.000001      0.000989      0.000044


--------------------------------------------------------------------------------------------------------



  FREE ENERGIE OF THE ION-ELECTRON SYSTEM (eV)
  ---------------------------------------------------
  free  energy   TOTEN  =       -22.38985193 eV

  energy  without entropy=      -22.38985193  energy(sigma->0) =      -22.38985193
 


--------------------------------------------------------------------------------------------------------


    POTLOK:  cpu time    0.1340: real time    0.1335


--------------------------------------------------------------------------------------------------------


     LOOP+:  cpu time   17.8283: real time   19.4764
    4ORBIT:  cpu time    0.0000: real time    0.0000
 BZINTS: Fermi energy: -3.422577; 18.000000 electrons
         Band energy:-151.643130;  BLOECHL correction:  0.000000

 total amount of memory used by VASP MPI-rank0    84375. kBytes
=======================================================================

   base      :      30000. kBytes
   nonl-proj :      21362. kBytes
   fftplans  :       9525. kBytes
   grid      :      15257. kBytes
   one-center:         31. kBytes
   wavefun   :       8200. kBytes
 
  
  
 General timing and accounting informations for this job:
 ========================================================
  
                  Total CPU time used (sec):       19.764
                            User time (sec):       19.003
                          System time (sec):        0.761
                         Elapsed time (sec):       22.341
  
                   Maximum memory used (kb):       87376.
                   Average memory used (kb):           0.
  
                          Minor page faults:        68627
                          Major page faults:          180
                 Voluntary context switches:         2615
