perl: warning: Setting locale failed.
perl: warning: Please check that your locale settings:
	LANGUAGE = (unset),
	LC_ALL = (unset),
	LC_CTYPE = "UTF-8",
	LANG = "en_US.iso885915"
    are supported and installed on your system.
perl: warning: Falling back to the standard locale ("C").
Starting job 28532699 ("jobname") on c14-33 at Fri Nov 8 12:00:17 CET 2019
 running on    4 total cores
 distrk:  each k-point on    4 cores,    1 groups
 distr:  one band on    2 cores,    2 groups
 using from now: INCAR     
 vasp.5.4.4.18Apr17-6-g9f103f2a35 (build Jun 30 2017 11:15:00) complex          
  
 POSCAR found type information on POSCAR  Mo S 
 POSCAR found :  2 types and       3 ions
 scaLAPACK will be used
 WARNING: PSMAXN for non-local potential too small
 LDA part: xc-table for Pade appr. of Perdew
 POSCAR, INCAR and KPOINTS ok, starting setup
 FFT: planning ...
 WAVECAR not read
 entering main loop
       N       E                     dE             d eps       ncg     rms          rms(c)
DAV:   1     0.165709992856E+03    0.16571E+03   -0.76418E+03   280   0.141E+03
DAV:   2    -0.229144536296E+01   -0.16800E+03   -0.15824E+03   470   0.197E+02
DAV:   3    -0.228846233748E+02   -0.20593E+02   -0.20282E+02   376   0.843E+01
DAV:   4    -0.233956333383E+02   -0.51101E+00   -0.50781E+00   378   0.163E+01
DAV:   5    -0.234095208755E+02   -0.13888E-01   -0.13877E-01   352   0.263E+00    0.689E+00
RMM:   6    -0.222489195099E+02    0.11606E+01   -0.54298E+00   297   0.125E+01    0.261E+00
RMM:   7    -0.218642234448E+02    0.38470E+00   -0.55264E-01   294   0.341E+00    0.150E+00
RMM:   8    -0.218043305672E+02    0.59893E-01   -0.23300E-01   311   0.253E+00    0.355E-01
RMM:   9    -0.217994947550E+02    0.48358E-02   -0.89169E-03   336   0.619E-01    0.967E-02
RMM:  10    -0.217987428297E+02    0.75193E-03   -0.17986E-03   334   0.227E-01    0.445E-02
RMM:  11    -0.217986615921E+02    0.81238E-04   -0.17610E-03   315   0.199E-01    0.575E-02
RMM:  12    -0.217984281275E+02    0.23346E-03   -0.57280E-04   306   0.135E-01    0.171E-02
RMM:  13    -0.217987108591E+02   -0.28273E-03   -0.15125E-04   284   0.728E-02    0.201E-02
RMM:  14    -0.217987448876E+02   -0.34029E-04   -0.27018E-05   254   0.301E-02    0.495E-03
RMM:  15    -0.217988561793E+02   -0.11129E-03   -0.11422E-05   198   0.180E-02    0.281E-03
RMM:  16    -0.217988908928E+02   -0.34714E-04   -0.45266E-06   188   0.954E-03    0.169E-03
RMM:  17    -0.217989357084E+02   -0.44816E-04   -0.32710E-06   161   0.791E-03    0.138E-03
RMM:  18    -0.217989428647E+02   -0.71563E-05   -0.44627E-07    87   0.408E-03
   1 F= -.22389852E+02 E0= -.22389852E+02  d E =0.000000E+00

Currently Loaded Modulefiles:
  1) Anaconda3/5.1.0       3) vesta/3.3.8           5) intel/2016.1
  2) gnuplot/5.0.4         4) imagemagick/6.7.9-0   6) vasp/5.4.1.Feb16

Job script resource usage:
       JobID  MaxVMSize     MaxRSS 
------------ ---------- ---------- 
28532699.ba+    216888K      2585K 

Job step resource usage:
       JobID    JobName  AllocCPUS  MaxVMSize     MaxRSS    Elapsed ExitCode 
------------ ---------- ---------- ---------- ---------- ---------- -------- 
28532699        jobname          4                         00:00:25      0:0 
28532699.0    pmi_proxy          1    279832K       534K   00:00:23      0:0 

Job 28532699 ("jobname") completed on c14-33 at Fri Nov 8 12:00:40 CET 2019
