unknown system                          
   1.00000000000000     
     3.190316    0.000000    0.000000
    -1.595158    2.762894    0.000000
     0.000000    0.000000   22.879004
   Mo   S 
     1     2
Direct
  0.333333  0.666667  0.162584
  0.666667  0.333333  0.094185
  0.666666  0.333333  0.230982
 
   24   24  180
 0.31426     0.31890     0.33148     0.35324     0.38629     0.43012     0.48116     0.53498     0.58761     0.63555    
 0.67552     0.70292     0.71129     0.69703     0.66544     0.62728     0.58761     0.54233     0.48849     0.43286    
 0.38628     0.35318     0.33126     0.31827     0.31868     0.31911     0.33064     0.35373     0.38982     0.43943    
 0.50112     0.57147     0.64425     0.71140     0.76714     0.80968     0.83588     0.83771     0.80942     0.75701    
 0.69481     0.63236     0.56965     0.50536     0.44398     0.39251     0.35456     0.33020     0.33158     0.32411    
 0.33120     0.35410     0.39260     0.44539     0.51231     0.59312     0.68298     0.77162     0.84842     0.90788    
 0.94872     0.96821     0.95982     0.91829     0.84740     0.76059     0.67257     0.59067     0.51543     0.44781    
 0.39247     0.35371     0.35448     0.33656     0.33418     0.35252     0.39260     0.44889     0.51904     0.60586    
 0.70719     0.81222     0.90936     0.99054      1.0485      1.0786      1.0820      1.0603      1.0076     0.92064    
 0.81196     0.70356     0.60681     0.52034     0.44524     0.38909     0.38628     0.35817     0.34346     0.34984    
 0.38628     0.44551     0.51805     0.60818     0.71928     0.83824     0.94969      1.0499      1.1330      1.1819    
  1.1896      1.1701      1.1330      1.0661     0.96112     0.83709     0.71928     0.61280     0.51511     0.43627    
 0.42393     0.38546     0.36121     0.35102     0.37452     0.43239     0.50581     0.59334     0.70886     0.84368    
 0.96999      1.0804      1.1838      1.2659      1.2966      1.2771      1.2362      1.1802      1.0894     0.96486    
 0.83545     0.71632     0.60086     0.49601     0.46831     0.41323     0.38386     0.36076     0.36374     0.41192    
 0.48570     0.56657     0.67273     0.81556     0.96248      1.0832      1.1911      1.2975      1.3696      1.3767    
  1.3380      1.2827      1.2012      1.0792     0.94094     0.81453     0.69307     0.56880     0.52362     0.44189    
 0.40461     0.37720     0.36033     0.38830     0.45952     0.53900     0.62789     0.75830     0.91937      1.0607    
  1.1700      1.2767      1.3761      1.4244      1.4111      1.3673      1.3001      1.1875      1.0401     0.90062    
 0.77804     0.64897     0.58761     0.47695     0.42084     0.39243     0.36505     0.36660     0.42357     0.50672    
 0.58761     0.69292     0.84589      1.0075      1.1330      1.2353      1.3367      1.4105      1.4261      1.4016    
  1.3582      1.2733      1.1330     0.97816     0.84708     0.72258     0.64715     0.51979     0.43708     0.40064    
 0.37261     0.35341     0.38198     0.45836     0.54227     0.63024     0.75742     0.91939      1.0667      1.1804    
  1.2822      1.3674      1.4022      1.3884      1.3581      1.3059      1.1972      1.0442     0.89969     0.77646    
 0.68829     0.56212     0.45872     0.40433     0.37635     0.35072     0.35072     0.40169     0.48163     0.56422    
 0.66678     0.80790     0.95999      1.0894      1.2010      1.3008      1.3596      1.3586      1.3266      1.2864    
  1.2124      1.0846     0.93729     0.80857     0.70787     0.59205     0.48361     0.41042     0.37444     0.35084    
 0.33765     0.35917     0.41850     0.49336     0.58012     0.69530     0.83223     0.96216      1.0773      1.1869    
  1.2743      1.3062      1.2854      1.2436      1.1854      1.0881     0.95611     0.82476     0.71129     0.60392    
 0.50248     0.42098     0.37159     0.34540     0.33129     0.33682     0.37158     0.42876     0.50107     0.59509    
 0.71129     0.83026     0.93714      1.0379      1.1330      1.1976      1.2113      1.1839      1.1330      1.0561    
 0.94840     0.82661     0.70197     0.60034     0.50798     0.43020     0.37307     0.33748     0.32022     0.32066    
 0.34040     0.37812     0.43240     0.50689     0.60300     0.70961     0.81011     0.89858     0.97834      1.0454    
  1.0855      1.0884      1.0563     0.99531     0.91010     0.80831     0.67821     0.58638     0.50101     0.43128    
 0.37727     0.33600     0.31022     0.30423     0.31570     0.33941     0.37592     0.43019     0.50376     0.59222    
 0.68694     0.77602     0.84859     0.90192     0.93960     0.95980     0.95239     0.91193     0.84604     0.76629    
 0.63891     0.56405     0.48734     0.42370     0.37755     0.34053     0.31065     0.29629     0.29953     0.31294    
 0.33479     0.37129     0.42326     0.48587     0.55960     0.64423     0.72446     0.78037     0.81094     0.82887    
 0.83431     0.81427     0.76700     0.70593     0.58761     0.53277     0.47025     0.41248     0.37161     0.34264    
 0.31715     0.29987     0.29703     0.30296     0.31300     0.33456     0.37158     0.41446     0.45878     0.51561    
 0.58761     0.65340     0.69291     0.71100     0.71928     0.71268     0.68267     0.63705     0.53093     0.49347    
 0.44904     0.40170     0.36469     0.34079     0.32177     0.30687     0.30262     0.30622     0.30954     0.31756    
 0.34163     0.37658     0.40700     0.43444     0.47449     0.52686     0.57188     0.59822     0.61142     0.61373    
 0.59843     0.56701     0.47559     0.45098     0.42352     0.39129     0.36216     0.34258     0.32850     0.31646    
 0.31158     0.31527     0.31849     0.31801     0.32572     0.34974     0.37914     0.40059     0.41800     0.44207    
 0.47109     0.49562     0.51248     0.52160     0.51820     0.50027     0.42665     0.41170     0.39702     0.38005    
 0.36326     0.35184     0.34480     0.33770     0.33237     0.33370     0.33822     0.33749     0.33306     0.33652    
 0.35294     0.37423     0.39130     0.40353     0.41413     0.42442     0.43474     0.44411     0.44761     0.44080    
 0.38629     0.37944     0.37389     0.36906     0.36503     0.36441     0.36773     0.37107     0.37161     0.37187    
 0.37457     0.37635     0.37159     0.36127     0.35350     0.35507     0.36505     0.37671     0.38391     0.38578    
 0.38628     0.38897     0.39229     0.39174     0.35446     0.35431     0.35610     0.36077     0.36795     0.37787    
 0.39133     0.40696     0.42050     0.42836     0.43132     0.43237     0.43105     0.42257     0.40437     0.38199    
 0.36547     0.35979     0.36080     0.36117     0.35835     0.35513     0.35414     0.35454     0.33136     0.33565    
 0.34336     0.35606     0.37377     0.39480     0.41807     0.44373     0.47013     0.49196     0.50383     0.50577    
 0.50236     0.49570     0.48169     0.45569     0.42072     0.38716     0.36380     0.35101     0.34333     0.33675    
 0.33164     0.32979     0.31803     0.32388     0.33526     0.35388     0.38089     0.41431     0.45059     0.48777    
 0.52510     0.55982     0.58599     0.59774     0.59418     0.58034     0.56173     0.53801     0.50426     0.45973    
 0.41284     0.37488     0.35001     0.33438     0.32372     0.31787     0.41986     0.42786     0.45046     0.48909    
 0.54587     0.61960     0.70508     0.79550     0.88397     0.96388      1.0291      1.0727      1.0866      1.0665    
  1.0184     0.95506     0.88395     0.80332     0.71289     0.62252     0.54587     0.48905     0.45023     0.42718    
 0.42762     0.42805     0.44890     0.49039     0.55356     0.63799     0.74064     0.85576     0.97409      1.0839    
  1.1759      1.2450      1.2855      1.2875      1.2448      1.1652      1.0663     0.96153     0.85390     0.74513    
 0.64275     0.55637     0.49129     0.44847     0.45055     0.43710     0.45017     0.49079     0.55791     0.64888    
 0.76182     0.89431      1.0387      1.1812      1.3070      1.4061      1.4732      1.5022      1.4850      1.4172    
  1.3059      1.1696      1.0277     0.89168     0.76505     0.65140     0.55778     0.49037     0.49040     0.45815    
 0.45566     0.48836     0.55645     0.65253     0.77210     0.91590      1.0794      1.2486      1.4079      1.5441    
  1.6438      1.6964      1.7001      1.6562      1.5622      1.4198      1.2483      1.0755     0.91687     0.77347    
 0.64870     0.55275     0.54587     0.49350     0.47018     0.48468     0.54586     0.64435     0.76779     0.91828    
  1.0973      1.2890      1.4743      1.6450      1.7880      1.8774      1.8989      1.8649      1.7880      1.6621    
  1.4864      1.2877      1.0973     0.92321     0.76472     0.63461     0.61307     0.53964     0.49690     0.48612    
 0.52807     0.62203     0.74559     0.89446      1.0811      1.2947      1.5041      1.6979      1.8790      2.0225    
  2.0865      2.0659      1.9910      1.8752      1.7075      1.4986      1.2860      1.0890     0.90247     0.73525    
 0.69152     0.59063     0.53249     0.49875     0.51119     0.58927     0.70998     0.85066      1.0279      1.2521    
  1.4878      1.7009      1.8999      2.0871      2.2153      2.2415      2.1819      2.0714      1.9106      1.6967    
  1.4650      1.2510      1.0494     0.85299     0.78349     0.64561     0.56944     0.52120     0.50331     0.55213    
 0.66432     0.79986     0.95685      1.1672      1.4185      1.6564      1.8644      2.0650      2.2407      2.3314    
  2.3173      2.2314      2.0899      1.8829      1.6346      1.3986      1.1881     0.97910     0.88395     0.70837    
 0.60376     0.54489     0.50598     0.51750     0.60660     0.73987     0.88395      1.0644      1.3044      1.5620    
  1.7880      1.9900      2.1805      2.3167      2.3542      2.3073      2.2032      2.0303      1.7880      1.5310    
  1.3056      1.0958     0.97612     0.77790     0.63848     0.56273     0.51361     0.49328     0.54297     0.66094    
 0.80162     0.95816      1.1656      1.4184      1.6630      1.8758      2.0712      2.2316      2.3079      2.2932    
  2.2218      2.0964      1.8936      1.6392      1.3975      1.1858      1.0426     0.84307     0.67734     0.57605    
 0.51855     0.48182     0.49144     0.57330     0.70161     0.84527      1.0198      1.2431      1.4852      1.7079    
  1.9110      2.0910      2.2047      2.2222      2.1698      2.0757      1.9231      1.7028      1.4611      1.2439    
  1.0779     0.88939     0.71637     0.59085     0.51811     0.47488     0.46092     0.50199     0.59950     0.72676    
 0.87677      1.0646      1.2817      1.4958      1.6951      1.8827      2.0314      2.0963      2.0742      1.9988    
  1.8811      1.7066      1.4894      1.2738      1.0866     0.90960     0.74447     0.60818     0.51661     0.46355    
 0.43982     0.45443     0.51660     0.61647     0.74301     0.90026      1.0866      1.2796      1.4609      1.6325    
  1.7880      1.8936      1.9213      1.8790      1.7880      1.6518      1.4729      1.2757      1.0717     0.90584    
 0.75310     0.62117     0.51915     0.45116     0.41673     0.41711     0.45412     0.52447     0.62352     0.75192    
 0.90863      1.0798      1.2455      1.3963      1.5311      1.6403      1.7033      1.7063      1.6517      1.5491    
  1.4085      1.2436      1.0319     0.88341     0.74296     0.62231     0.52389     0.44737     0.39866     0.38477    
 0.40434     0.45093     0.52250     0.62114     0.74579     0.88959      1.0412      1.1853      1.3072      1.4000    
  1.4636      1.4933      1.4771      1.4106      1.3045      1.1750     0.96735     0.84508     0.72037     0.61109    
 0.52384     0.45207     0.39640     0.36830     0.37170     0.39883     0.44610     0.51726     0.61055     0.71877    
 0.84044     0.97304      1.0977      1.1905      1.2473      1.2790      1.2847      1.2507      1.1764      1.0782    
 0.88397     0.79156     0.68957     0.59312     0.51662     0.45648     0.40586     0.37206     0.36358     0.37530    
 0.40155     0.44806     0.51660     0.59511     0.67740     0.77348     0.88395     0.98377      1.0493      1.0834    
  1.0973      1.0851      1.0384     0.96657     0.79130     0.72582     0.65109     0.57333     0.50785     0.45866    
 0.41831     0.38757     0.37494     0.37868     0.39032     0.41393     0.45963     0.52037     0.57886     0.63568    
 0.70580     0.78694     0.85621     0.89970     0.92178     0.92417     0.89987     0.85112     0.69927     0.65526    
 0.60653     0.55280     0.50356     0.46619     0.43692     0.41276     0.40005     0.40123     0.40725     0.41435    
 0.43401     0.47375     0.52145     0.56267     0.60079     0.64583     0.69441     0.73479     0.76198     0.77481    
 0.76795     0.73973     0.61595     0.58905     0.56136     0.53172     0.50369     0.48299     0.46849     0.45540    
 0.44575     0.44495     0.44967     0.45108     0.45050     0.45976     0.48411     0.51528     0.54371     0.56832    
 0.59157     0.61353     0.63301     0.64753     0.65118     0.63937     0.54587     0.53326     0.52195     0.51257    
 0.50597     0.50490     0.50936     0.51449     0.51662     0.51793     0.52110     0.52261     0.51661     0.50420    
 0.49434     0.49498     0.50598     0.52071     0.53256     0.53994     0.54586     0.55266     0.55759     0.55556    
 0.49038     0.48940     0.49152     0.49879     0.51143     0.52949     0.55286     0.57882     0.60149     0.61598    
 0.62237     0.62349     0.61886     0.60374     0.57612     0.54296     0.51632     0.50278     0.49881     0.49685    
 0.49366     0.49113     0.49085     0.49124     0.45033     0.45721     0.47009     0.49145     0.52181     0.55906    
 0.60085     0.64553     0.68943     0.72520     0.74588     0.75072     0.74434     0.72919     0.70168     0.65818    
 0.60362     0.55096     0.51126     0.48610     0.47005     0.45837     0.45063     0.44799     0.42692     0.43689    
 0.45679     0.48892     0.53476     0.59176     0.65485     0.71985     0.78355     0.84066     0.88299     0.90304    
 0.89927     0.87699     0.84265     0.79719     0.73729     0.66451     0.59022     0.52843     0.48486     0.45586    
 0.43668     0.42672     0.56067     0.57454     0.61434     0.68073     0.77469     0.89331      1.0291      1.1722    
  1.3124      1.4388      1.5411      1.6087      1.6308      1.6021      1.5296      1.4293      1.3124      1.1806    
  1.0374     0.89643     0.77472     0.68072     0.61411     0.57380     0.57428     0.57473     0.61085     0.68186    
 0.78703     0.92374      1.0865      1.2666      1.4510      1.6232      1.7685      1.8768      1.9384      1.9405    
  1.8766      1.7570      1.6045      1.4377      1.2647      1.0913     0.92878     0.79000     0.68282     0.61041    
 0.61444     0.59152     0.61404     0.68229     0.79315     0.94119      1.1218      1.3298      1.5540      1.7757    
  1.9735      2.1308      2.2360      2.2787      2.2486      2.1426      1.9724      1.7634      1.5424      1.3269    
  1.1251     0.94383     0.79299     0.68184     0.68214     0.62810     0.62546     0.67997     0.79007     0.94502    
  1.1371      1.3644      1.6195      1.8835      2.1343      2.3502      2.5093      2.5937      2.5976      2.5226    
  2.3695      2.1470      1.8832      1.6153      1.3654      1.1385     0.94095     0.78613     0.77472     0.68650    
 0.65050     0.67712     0.77470     0.93046      1.1280      1.3668      1.6461      1.9456      2.2399      2.5120    
  2.7384      2.8824      2.9225      2.8691      2.7384      2.5301      2.2527      1.9443      1.6461      1.3721    
  1.1248     0.92013     0.88641     0.76237     0.69284     0.68140     0.75010     0.89593      1.0917      1.3298    
  1.6211      1.9516      2.2836      2.5973      2.8851      3.1092      3.2158      3.1938      3.0758      2.8810    
  2.6074      2.2778      1.9424      1.6296      1.3384      1.0808      1.0147     0.84831     0.74897     0.70017    
 0.72633     0.84690      1.0344      1.2612      1.5425      1.8872      2.2541      2.6004      2.9247      3.2169    
  3.4149      3.4642      3.3792      3.2002      2.9361      2.5960      2.2299      1.8861      1.5654      1.2637    
  1.1595     0.94177     0.81029     0.73255     0.71348     0.79183     0.96168      1.1770      1.4328      1.7608    
  2.1455      2.5240      2.8695      3.1934      3.4635      3.6048      3.5899      3.4537      3.2199      2.8891    
  2.5008      2.1245      1.7830      1.4564      1.3124      1.0444     0.87126     0.76933     0.71440     0.74018    
 0.87422      1.0779      1.3124      1.6025      1.9708      2.3694      2.7384      3.0747      3.3777      3.5892    
  3.6524      3.5792      3.4020      3.1175      2.7384      2.3363      1.9721      1.6358      1.4518      1.1524    
 0.93315     0.80219     0.72358     0.70201     0.78121     0.95697      1.1775      1.4326      1.7575      2.1439    
  2.5298      2.8808      3.1996      3.4538      3.5799      3.5642      3.4433      3.2263      2.8997      2.5045    
  2.1216      1.7790      1.5554      1.2507     0.99766     0.83116     0.73265     0.68073     0.70386     0.82829    
  1.0235      1.2530      1.5311      1.8748      2.2487      2.6059      2.9354      3.2205      3.4035      3.4438    
  3.3664      3.2043      2.9482      2.6005      2.2232      1.8756      1.6142      1.3213      1.0581     0.86074    
 0.73774     0.66777     0.65292     0.72063     0.87003      1.0693      1.3079      1.6000      1.9342      2.2718    
  2.5923      2.8881      3.1186      3.2267      3.2032      3.0841      2.8864      2.6045      2.2650      1.9259    
  1.6308      1.3542      1.1005     0.88994     0.74194     0.65314     0.61667     0.64339     0.74194     0.89883    
  1.0990      1.3442      1.6308      1.9321      2.2230      2.4973      2.7384      2.9007      2.9474      2.8851    
  2.7384      2.5179      2.2357      1.9279      1.6076      1.3502      1.1141     0.90965     0.74896     0.63925    
 0.58289     0.58320     0.64225     0.75459     0.91217      1.1128      1.3531      1.6163      1.8774      2.1204    
  2.3365      2.5069      2.6030      2.6062      2.5190      2.3556      2.1334      1.8752      1.5439      1.3150    
  1.0989     0.91085     0.75554     0.63513     0.55843     0.53499     0.56432     0.63884     0.75410     0.90959    
  1.1018      1.3216      1.5539      1.7785      1.9737      2.1259      2.2285      2.2721      2.2428      2.1371    
  1.9710      1.7675      1.4424      1.2528      1.0624     0.89307     0.75388     0.64002     0.55424     0.51048    
 0.51405     0.55681     0.63379     0.74696     0.89241      1.0607      1.2480      1.4485      1.6378      1.7855    
  1.8821      1.9351      1.9411      1.8857      1.7706      1.6172      1.3124      1.1668      1.0107     0.86324    
 0.74194     0.64474     0.56594     0.51444     0.50007     0.51784     0.56146     0.63599     0.74194     0.86523    
 0.99773      1.1477      1.3124      1.4613      1.5653      1.6238      1.6461      1.6254      1.5537      1.4431    
  1.1679      1.0629     0.94652     0.82836     0.72690     0.64792     0.58452     0.53796     0.51746     0.52135    
 0.54082     0.57996     0.64904     0.74010     0.83411     0.93020      1.0417      1.1632      1.2671      1.3355    
  1.3706      1.3731      1.3356      1.2617      1.0230     0.95206     0.87414     0.79165     0.71675     0.65857    
 0.61365     0.57870     0.55987     0.55929     0.56737     0.58031     0.61060     0.66657     0.73567     0.80216    
 0.86815     0.94203      1.0177      1.0802      1.1219      1.1399      1.1282      1.0855     0.88947     0.84669    
 0.80166     0.75528     0.71303     0.68193     0.66096     0.64448     0.63351     0.63259     0.63751     0.63905    
 0.63927     0.65173     0.68311     0.72534     0.76810     0.80909     0.84929     0.88684     0.91845     0.93975    
 0.94357     0.92515     0.77469     0.75560     0.73775     0.72334     0.71440     0.71431     0.72282     0.73383    
 0.74194     0.74772     0.75268     0.75265     0.74194     0.72299     0.70690     0.70374     0.71440     0.73203    
 0.74905     0.76269     0.77470     0.78609     0.79282     0.78912     0.68211     0.68215     0.68714     0.70021    
 0.72216     0.75297     0.79173     0.83410     0.87200     0.89820     0.91093     0.91215     0.90133     0.87447    
 0.83124     0.78116     0.73895     0.71298     0.70025     0.69280     0.68667     0.68293     0.68237     0.68276    
 0.61420     0.62712     0.65043     0.68706     0.73761     0.79927     0.86821     0.94070      1.0105      1.0675    
  1.1019      1.1115      1.1004      1.0718      1.0235     0.95410     0.87112     0.79064     0.72638     0.68136    
 0.65036     0.62834     0.61451     0.60987     0.57353     0.59134     0.62667     0.68161     0.75716     0.84953    
 0.95161      1.0566      1.1584      1.2482      1.3145      1.3472      1.3431      1.3081      1.2503      1.1729    
  1.0752     0.96187     0.84786     0.75043     0.67733     0.62568     0.59107     0.57329     0.75378     0.77631    
 0.84126     0.94757      1.0941      1.2756      1.4823      1.7014      1.9183      2.1159      2.2767      2.3829    
  2.4184      2.3758      2.2644      2.1058      1.9183      1.7104      1.4912      1.2790      1.0941     0.94758    
 0.84101     0.77551     0.77603     0.77652     0.83418     0.94658      1.1105      1.3207      1.5692      1.8448    
  2.1298      2.4004      2.6322      2.8056      2.9023      2.9045      2.8053      2.6200      2.3805      2.1157    
  1.8428      1.5744      1.3260      1.1136     0.94760     0.83370     0.84138     0.80552     0.84094     0.94702    
  1.1181      1.3460      1.6239      1.9444      2.2925      2.6415      2.9586      3.2140      3.3842      3.4499    
  3.3975      3.2266      2.9575      2.6284      2.2801      1.9414      1.6274      1.3488      1.1180     0.94655    
 0.94910     0.86583     0.86298     0.94674      1.1137      1.3501      1.6460      1.9986      2.3973      2.8158    
  3.2195      3.5711      3.8320      3.9710      3.9753      3.8463      3.5918      3.2331      2.8154      2.3927    
  1.9996      1.6476      1.3457      1.1095      1.0941     0.95821     0.90556     0.94819      1.0941      1.3278    
  1.6304      2.0011      2.4377      2.9139      3.3916      3.8367      4.2060      4.4440      4.5161      4.4298    
  4.2061      3.8561      3.4052      2.9124      2.4378      2.0068      1.6270      1.3168      1.2683      1.0765    
 0.97191     0.95973      1.0634      1.2785      1.5748      1.9444      2.3989      2.9202      3.4589      3.9778    
  4.4482      4.8097      4.9889      4.9654      4.7739      4.4438      3.9886      3.4528      2.9104      2.4080    
  1.9536      1.5631      1.4670      1.2112      1.0576     0.98947      1.0334      1.2097      1.4881      1.8393    
  2.2803      2.8196      3.4066      3.9811      4.5205      4.9909      5.3061      5.3949      5.2681      4.9731    
  4.5326      3.9764      3.3809      2.8185      2.3047      1.8418      1.6879      1.3582      1.1527      1.0368    
  1.0164      1.1329      1.3794      1.7067      2.1106      2.6257      3.2315      3.8495      4.4316      4.9658    
  5.3945      5.6203      5.6044      5.3841      4.9940      4.4525      3.8248      3.2091      2.6493      2.1356    
  1.9183      1.5170      1.2501      1.0918      1.0165      1.0607      1.2532      1.5526      1.9183      2.3783    
  2.9558      3.5917      4.2061      4.7728      5.2665      5.6037      5.7098      5.5930      5.2924      4.8185    
  4.2061      3.5564      2.9571      2.4138      2.1297      1.6801      1.3495      1.1453      1.0288      1.0059    
  1.1229      1.3749      1.7067      2.1092      2.6206      3.2280      3.8539      4.4422      4.9715      5.3839    
  5.5937      5.5770      5.3726      5.0000      4.4625      3.8270      3.2042      2.6434      2.2919      1.8274    
  1.4500      1.1958      1.0443     0.97331      1.0136      1.1928      1.4775      1.8298      2.2658      2.8033    
  3.3977      3.9841      4.5299      4.9939      5.2940      5.3735      5.2544      4.9766      4.5436      3.9784    
  3.3704      2.8042      2.3888      1.9346      1.5410      1.2459      1.0578     0.95419     0.93833      1.0395    
  1.2559      1.5530      1.9203      2.3735      2.8979      3.4426      3.9696      4.4500      4.8197      5.0013    
  4.9763      4.7829      4.4482      3.9825      3.4353      2.8889      2.4184      1.9868      1.6039      1.2917    
  1.0706     0.93714     0.88507     0.92665      1.0706      1.3014      1.6024      1.9762      2.4184      2.8956    
  3.3702      3.8193      4.2061      4.4649      4.5447      4.4482      4.2060      3.8412      3.3838      2.8911    
  2.3816      1.9826      1.6247      1.3209      1.0844     0.92306     0.84026     0.84049     0.92611      1.0904    
  1.3237      1.6232      1.9857      2.3909      2.8062      3.2029      3.5565      3.8314      3.9839      3.9872    
  3.8442      3.5770      3.2168      2.8039      2.2796      1.9278      1.6023      1.3222      1.0937     0.91957    
 0.80978     0.77521     0.81587     0.92345      1.0922      1.3208      1.6053      1.9349      2.2904      2.6429    
  2.9588      3.2106      3.3795      3.4467      3.3945      3.2226      2.9560      2.6312      2.1196      1.8295    
  1.5456      1.2951      1.0896     0.92470     0.80390     0.74237     0.74608     0.80657     0.91817      1.0823    
  1.2943      1.5437      1.8245      2.1262      2.4159      2.6519      2.8143      2.9027      2.9089      2.8180    
  2.6362      2.3940      1.9183      1.6953      1.4639      1.2487      1.0706     0.92877     0.81759     0.74650    
 0.72575     0.75007     0.81295     0.91967      1.0706      1.2506      1.4501      1.6751      1.9183      2.1408    
  2.3045      2.4019      2.4377      2.4034      2.2922      2.1216      1.6969      1.5366      1.3638      1.1929    
  1.0463     0.93156     0.84191     0.77830     0.74967     0.75375     0.78131     0.83721     0.93286      1.0602    
  1.1989      1.3465      1.5142      1.6918      1.8454      1.9505      2.0053      2.0078      1.9505      1.8397    
  1.4759      1.3692      1.2532      1.1340      1.0274     0.94441     0.88191     0.83581     0.81124     0.80918    
 0.81905     0.83743     0.87871     0.95292      1.0475      1.1453      1.2469      1.3584      1.4702      1.5625    
  1.6240      1.6491      1.6306      1.5682      1.2716      1.2095      1.1434      1.0768      1.0176     0.97452    
 0.94689     0.92794     0.91701     0.91693     0.92206     0.92272     0.92235     0.93712     0.97580      1.0307    
  1.0905      1.1514      1.2122      1.2687      1.3150      1.3445      1.3485      1.3221      1.0941      1.0693    
  1.0456      1.0269      1.0166      1.0189      1.0337      1.0535      1.0706      1.0832      1.0908      1.0884    
  1.0706      1.0421      1.0168      1.0076      1.0165      1.0362      1.0577      1.0768      1.0941      1.1095    
  1.1178      1.1127     0.94904     0.95357     0.96584     0.98948      1.0257      1.0744      1.1341      1.1989    
  1.2578      1.3005      1.3223      1.3237      1.3040      1.2606      1.1959      1.1228      1.0594      1.0159    
 0.98957     0.97189     0.95839     0.94993     0.94712     0.94754     0.84111     0.86478     0.90550     0.96574    
  1.0455      1.1410      1.2470      1.3577      1.4637      1.5509      1.6054      1.6219      1.6038      1.5555    
  1.4776      1.3719      1.2500      1.1317      1.0335     0.95965     0.90541     0.86607     0.84144     0.83313    
 0.77524     0.80531     0.86428     0.95298      1.0709      1.2125      1.3687      1.5300      1.6865      1.8247    
  1.9273      1.9793      1.9750      1.9205      1.8269      1.7019      1.5498      1.3796      1.2107      1.0637    
 0.94841     0.86324     0.80502     0.77497      1.0191      1.0530      1.1508      1.3099      1.5272      1.7965    
  2.1064      2.4414      2.7802      3.0950      3.3546      3.5272      3.5860      3.5195      3.3414      3.0842    
  2.7802      2.4511      2.1160      1.8000      1.5272      1.3099      1.1506      1.0521      1.0527      1.0532    
  1.1383      1.3044      1.5469      1.8601      2.2356      2.6600      3.1093      3.5470      3.9308      4.2209    
  4.3814      4.3838      4.2205      3.9177      3.5258      3.0944      2.6580      2.2411      1.8658      1.5503    
  1.3055      1.1378      1.1510      1.0989      1.1505      1.3048      1.5559      1.8956      2.3183      2.8167    
  3.3705      3.9399      4.4710      4.9076      5.1998      5.3091      5.2141      4.9211      4.4699      3.9259    
  3.3571      2.8133      2.3220      1.8985      1.5556      1.3043      1.3115      1.1914      1.1883      1.3089    
  1.5503      1.8998      2.3505      2.9018      3.5410      4.2303      4.9125      5.5191      5.9765      6.2228    
  6.2273      5.9918      5.5413      4.9270      4.2297      3.5360      2.9028      2.3521      1.8952      1.5458    
  1.5272      1.3296      1.2562      1.3189      1.5272      1.8676      2.3252      2.9044      3.6048      4.3917    
  5.2059      5.9804      6.6304      7.0574      7.1956      7.0422      6.6304      6.0011      5.2204      4.3900    
  3.6048      2.9105      2.3216      1.8559      1.7886      1.5053      1.3561      1.3431      1.4914      1.7996    
  2.2416      2.8165      3.5425      4.3983      5.3164      6.2280      7.0609      7.7032      8.0347      8.0095    
  7.6648      7.0562      6.2397      5.3099      4.3879      3.5524      2.8265      2.2291      2.0901      1.7076    