unknown system                          
   1.00000000000000     
     3.190316    0.000000    0.000000
    -1.595158    2.762894    0.000000
     0.000000    0.000000   22.879004
   Mo   S 
     1     2
Direct
  0.333333  0.666667  0.162584
  0.666667  0.333333  0.094185
  0.666666  0.333333  0.230982
 
   24   24  180
 0.31426346212E+00 0.31890368129E+00 0.33147807309E+00 0.35323654985E+00 0.38628777044E+00
 0.43012427650E+00 0.48115856707E+00 0.53498175941E+00 0.58761223365E+00 0.63555014355E+00
 0.67551647287E+00 0.70292156754E+00 0.71128897915E+00 0.69703185720E+00 0.66543523559E+00
 0.62728041262E+00 0.58760729512E+00 0.54233230165E+00 0.48849196942E+00 0.43286235452E+00
 0.38627666379E+00 0.35318097916E+00 0.33125987208E+00 0.31827071112E+00 0.31868205186E+00
 0.31910615622E+00 0.33064480745E+00 0.35372893012E+00 0.38982410408E+00 0.43943413670E+00
 0.50112337162E+00 0.57146599388E+00 0.64425367344E+00 0.71139525147E+00 0.76714042988E+00
 0.80967607023E+00 0.83587524555E+00 0.83771027685E+00 0.80941934112E+00 0.75700574813E+00
 0.69480621151E+00 0.63236402536E+00 0.56965076538E+00 0.50535728251E+00 0.44397555882E+00
 0.39250884744E+00 0.35455975664E+00 0.33020259844E+00 0.33157827000E+00 0.32410675720E+00
 0.33119676183E+00 0.35410012703E+00 0.39260431514E+00 0.44539030634E+00 0.51231490557E+00
 0.59311671112E+00 0.68298418771E+00 0.77162063060E+00 0.84842173942E+00 0.90788458567E+00
 0.94871571372E+00 0.96821354907E+00 0.95981940995E+00 0.91829306707E+00 0.84739577193E+00
 0.76058789858E+00 0.67256957299E+00 0.59066827408E+00 0.51542553103E+00 0.44780583565E+00
 0.39247100464E+00 0.35370944151E+00 0.35448436262E+00 0.33655622786E+00 0.33418377274E+00
 0.35252269324E+00 0.39260207886E+00 0.44889200501E+00 0.51903849686E+00 0.60585707987E+00
 0.70719037479E+00 0.81222187048E+00 0.90936003419E+00 0.99053795693E+00 0.10485182202E+01
 0.10785576406E+01 0.10820279140E+01 0.10602850197E+01 0.10076406521E+01 0.92063823259E+00
 0.81196469886E+00 0.70356080775E+00 0.60681157442E+00 0.52033995478E+00 0.44524079542E+00
 0.38909348629E+00 0.38627664937E+00 0.35816964951E+00 0.34345621889E+00 0.34983575443E+00
 0.38628053612E+00 0.44551105308E+00 0.51804915466E+00 0.60818170728E+00 0.71928175513E+00
 0.83824201571E+00 0.94969236476E+00 0.10499136463E+01 0.11329637231E+01 0.11818688493E+01
 0.11895546729E+01 0.11700623000E+01 0.11329598562E+01 0.10660782726E+01 0.96112339764E+00
 0.83709098371E+00 0.71928116488E+00 0.61279809873E+00 0.51510714681E+00 0.43627430986E+00
 0.42393078207E+00 0.38546014103E+00 0.36120791135E+00 0.35102069120E+00 0.37451715529E+00
 0.43239148658E+00 0.50581174105E+00 0.59333851005E+00 0.70886328066E+00 0.84367670494E+00
 0.96998930653E+00 0.10803759176E+01 0.11837951653E+01 0.12658657833E+01 0.12965909804E+01
 0.12771266300E+01 0.12362222052E+01 0.11802238668E+01 0.10894363872E+01 0.96486255482E+00
 0.83544932129E+00 0.71631905853E+00 0.60086150409E+00 0.49601439574E+00 0.46831301171E+00
 0.41322907336E+00 0.38386193165E+00 0.36076151267E+00 0.36373523227E+00 0.41191632593E+00
 0.48570083744E+00 0.56656764179E+00 0.67272760045E+00 0.81555834089E+00 0.96248137528E+00
 0.10832483097E+01 0.11910818738E+01 0.12974746670E+01 0.13696453729E+01 0.13767336271E+01
 0.13380387602E+01 0.12826924215E+01 0.12011579399E+01 0.10792431835E+01 0.94094443114E+00
 0.81452972343E+00 0.69306693363E+00 0.56880047367E+00 0.52361934679E+00 0.44188775568E+00
 0.40461254650E+00 0.37720322983E+00 0.36032918490E+00 0.38829949963E+00 0.45951855916E+00
 0.53899949009E+00 0.62788872369E+00 0.75829991277E+00 0.91937337520E+00 0.10606759627E+01
 0.11700468699E+01 0.12766840102E+01 0.13760860309E+01 0.14244224421E+01 0.14110809600E+01
 0.13672727577E+01 0.13001437464E+01 0.11874819964E+01 0.10400754185E+01 0.90062187212E+00
 0.77803920658E+00 0.64896503937E+00 0.58760730276E+00 0.47695210916E+00 0.42083920446E+00
 0.39243238962E+00 0.36504889883E+00 0.36660320442E+00 0.42356583580E+00 0.50672273255E+00
 0.58761009101E+00 0.69292459356E+00 0.84589026129E+00 0.10074692233E+01 0.11329675398E+01
 0.12352771679E+01 0.13367077093E+01 0.14105058881E+01 0.14260753428E+01 0.14016134833E+01
 0.13582177205E+01 0.12733342241E+01 0.11329598894E+01 0.97815684869E+00 0.84707738227E+00
 0.72257531355E+00 0.64714818451E+00 0.51978686325E+00 0.43708366597E+00 0.40063892703E+00
 0.37260793569E+00 0.35340583990E+00 0.38198054826E+00 0.45835614328E+00 0.54227213103E+00
 0.63024268969E+00 0.75741509832E+00 0.91939311521E+00 0.10666661974E+01 0.11804268245E+01
 0.12821970859E+01 0.13673510078E+01 0.14021932204E+01 0.13883650031E+01 0.13581275064E+01
 0.13059259671E+01 0.11972199936E+01 0.10442439688E+01 0.89968697738E+00 0.77646219520E+00
 0.68828689660E+00 0.56211534598E+00 0.45872105212E+00 0.40432710397E+00 0.37635485570E+00
 0.35071788254E+00 0.35072230493E+00 0.40169342948E+00 0.48162689652E+00 0.56422224524E+00
 0.66678235053E+00 0.80789548794E+00 0.95999033987E+00 0.10893705235E+01 0.12009884129E+01
 0.13008032195E+01 0.13595593713E+01 0.13586347217E+01 0.13266147801E+01 0.12863977926E+01
 0.12124063354E+01 0.10845929633E+01 0.93728618444E+00 0.80856906444E+00 0.70786892372E+00
 0.59205451631E+00 0.48360512897E+00 0.41042475643E+00 0.37444173665E+00 0.35083923623E+00
 0.33764606583E+00 0.35917179516E+00 0.41850285065E+00 0.49335523321E+00 0.58012405374E+00
 0.69530078975E+00 0.83223464438E+00 0.96215562851E+00 0.10772718425E+01 0.11869342856E+01
 0.12742946699E+01 0.13062340242E+01 0.12853760046E+01 0.12435739388E+01 0.11854160246E+01
 0.10880912991E+01 0.95611487372E+00 0.82476131594E+00 0.71128902098E+00 0.60391636077E+00
 0.50248071984E+00 0.42097636475E+00 0.37159185114E+00 0.34539685560E+00 0.33129126074E+00
 0.33681626371E+00 0.37158282629E+00 0.42875932364E+00 0.50106621697E+00 0.59509330894E+00
 0.71128983662E+00 0.83025608528E+00 0.93713867824E+00 0.10379399618E+01 0.11329675803E+01
 0.11976183407E+01 0.12112608408E+01 0.11838682848E+01 0.11329637967E+01 0.10560733620E+01
 0.94839732834E+00 0.82660544499E+00 0.70197165403E+00 0.60033736292E+00 0.50798179302E+00
 0.43020475669E+00 0.37306610070E+00 0.33748434320E+00 0.32021742357E+00 0.32065634695E+00
 0.34040157316E+00 0.37811956718E+00 0.43240171101E+00 0.50688571338E+00 0.60300186289E+00
 0.70961108175E+00 0.81010707107E+00 0.89857539714E+00 0.97833887617E+00 0.10454362838E+01
 0.10854599144E+01 0.10883575415E+01 0.10562536583E+01 0.99531465868E+00 0.91009621356E+00
 0.80831479865E+00 0.67821459087E+00 0.58637872255E+00 0.50101396109E+00 0.43127699378E+00
 0.37726698091E+00 0.33599866108E+00 0.31022458182E+00 0.30423098068E+00 0.31570209846E+00
 0.33941228564E+00 0.37591745429E+00 0.43019011232E+00 0.50376433778E+00 0.59222277467E+00
 0.68693591497E+00 0.77602121466E+00 0.84858838206E+00 0.90192210960E+00 0.93960435321E+00
 0.95979610570E+00 0.95239048396E+00 0.91192511936E+00 0.84604207626E+00 0.76629013564E+00
 0.63890598690E+00 0.56405357817E+00 0.48734132101E+00 0.42369713347E+00 0.37755286046E+00
 0.34053167789E+00 0.31065275332E+00 0.29629391033E+00 0.29952684918E+00 0.31294017607E+00
 0.33479479885E+00 0.37129047222E+00 0.42325666200E+00 0.48587404893E+00 0.55960479557E+00
 0.64423134252E+00 0.72446086896E+00 0.78036873875E+00 0.81094090905E+00 0.82886605211E+00
 0.83430796194E+00 0.81427433552E+00 0.76700318102E+00 0.70592748227E+00 0.58761225143E+00
 0.53276762746E+00 0.47025493147E+00 0.41248264415E+00 0.37160584341E+00 0.34263858794E+00
 0.31714689707E+00 0.29987283415E+00 0.29703407971E+00 0.30296433131E+00 0.31300400205E+00
 0.33455820336E+00 0.37158280607E+00 0.41445911002E+00 0.45877525475E+00 0.51561107201E+00
 0.58761010120E+00 0.65339500221E+00 0.69290657803E+00 0.71100156975E+00 0.71928179312E+00
 0.71268032048E+00 0.68266581250E+00 0.63704904797E+00 0.53093423840E+00 0.49346916296E+00
 0.44903658975E+00 0.40169557160E+00 0.36469214685E+00 0.34078800028E+00 0.32176655542E+00
 0.30686878996E+00 0.30261860299E+00 0.30622058325E+00 0.30954017817E+00 0.31755876653E+00
 0.34162721531E+00 0.37657966220E+00 0.40700260685E+00 0.43444083791E+00 0.47449477296E+00
 0.52685737305E+00 0.57187682645E+00 0.59822253377E+00 0.61142409730E+00 0.61373133883E+00
 0.59842592030E+00 0.56700713042E+00 0.47559070653E+00 0.45097786916E+00 0.42351756352E+00
 0.39128527664E+00 0.36216086128E+00 0.34258323689E+00 0.32849950277E+00 0.31645736108E+00
 0.31157902218E+00 0.31527022899E+00 0.31849054496E+00 0.31800582719E+00 0.32572340847E+00
 0.34974477301E+00 0.37914182917E+00 0.40058666243E+00 0.41799797651E+00 0.44206726915E+00
 0.47108976134E+00 0.49561852345E+00 0.51248128171E+00 0.52160355083E+00 0.51820118855E+00
 0.50027306818E+00 0.42664552164E+00 0.41170249791E+00 0.39701641586E+00 0.38004904604E+00
 0.36325866666E+00 0.35183916670E+00 0.34480034060E+00 0.33769590736E+00 0.33236651347E+00
 0.33369708464E+00 0.33821575287E+00 0.33748982721E+00 0.33305960055E+00 0.33652345750E+00
 0.35293501002E+00 0.37422906985E+00 0.39130488316E+00 0.40353372502E+00 0.41413346152E+00
 0.42441539878E+00 0.43474239108E+00 0.44410986155E+00 0.44760742215E+00 0.44080093703E+00
 0.38628777172E+00 0.37943508466E+00 0.37389241267E+00 0.36906311454E+00 0.36502733387E+00
 0.36440626358E+00 0.36772873296E+00 0.37107083986E+00 0.37160583063E+00 0.37186586389E+00
 0.37456887965E+00 0.37634719172E+00 0.37159181818E+00 0.36127351799E+00 0.35350320966E+00
 0.35507133761E+00 0.36504889555E+00 0.37671098288E+00 0.38391420033E+00 0.38577989745E+00
 0.38628055182E+00 0.38896753677E+00 0.39228592697E+00 0.39174393304E+00 0.35445638938E+00
 0.35430811697E+00 0.35610308281E+00 0.36077427473E+00 0.36795178495E+00 0.37787375050E+00
 0.39132709199E+00 0.40696294438E+00 0.42049577563E+00 0.42835641609E+00 0.43131881009E+00
 0.43237454787E+00 0.43105467961E+00 0.42256523506E+00 0.40436890212E+00 0.38199099449E+00
 0.36547179359E+00 0.35979372360E+00 0.36080331574E+00 0.36117208350E+00 0.35834550247E+00
 0.35512955768E+00 0.35414195118E+00 0.35453743470E+00 0.33135675303E+00 0.33564537514E+00
 0.34336236530E+00 0.35606126715E+00 0.37377108350E+00 0.39479929842E+00 0.41807100685E+00
 0.44372739468E+00 0.47013359808E+00 0.49195878107E+00 0.50383336523E+00 0.50577019439E+00
 0.50235940938E+00 0.49570382251E+00 0.48169401981E+00 0.45568977958E+00 0.42071788764E+00
 0.38716124270E+00 0.36380429814E+00 0.35101469146E+00 0.34333488574E+00 0.33674880988E+00
 0.33163648491E+00 0.32979450063E+00 0.31802924522E+00 0.32387527696E+00 0.33525816051E+00
 0.35387908818E+00 0.38089180752E+00 0.41430680969E+00 0.45059064000E+00 0.48777274447E+00
 0.52509987111E+00 0.55982329430E+00 0.58599147846E+00 0.59773851873E+00 0.59418342278E+00
 0.58034304796E+00 0.56172813988E+00 0.53800576737E+00 0.50425810671E+00 0.45972629265E+00
 0.41284187634E+00 0.37487972802E+00 0.35000530631E+00 0.33437839527E+00 0.32371953934E+00
 0.31786863057E+00 0.41986014451E+00 0.42785787659E+00 0.45046098595E+00 0.48909093240E+00
 0.54586811256E+00 0.61959733403E+00 0.70507774229E+00 0.79550439458E+00 0.88397225967E+00
 0.96387565770E+00 0.10290819183E+01 0.10726857981E+01 0.10865616996E+01 0.10664563491E+01
 0.10183792120E+01 0.95506338954E+00 0.88394606291E+00 0.80332265475E+00 0.71288703599E+00
 0.62251622054E+00 0.54586793786E+00 0.48904775194E+00 0.45023341936E+00 0.42717817163E+00
 0.42761733931E+00 0.42805182503E+00 0.44890111326E+00 0.49039296614E+00 0.55355962343E+00
 0.63798668572E+00 0.74063973606E+00 0.85576327403E+00 0.97408820282E+00 0.10839243949E+01
 0.11759002328E+01 0.12450250442E+01 0.12855344536E+01 0.12875022114E+01 0.12447819271E+01
 0.11651515489E+01 0.10663375584E+01 0.96153414165E+00 0.85390008610E+00 0.74512800601E+00
 0.64274708045E+00 0.55636871956E+00 0.49128651343E+00 0.44846504927E+00 0.45055470597E+00
 0.43709572301E+00 0.45017026876E+00 0.49078951244E+00 0.55791325630E+00 0.64888089365E+00
 0.76182168734E+00 0.89431332826E+00 0.10387341185E+01 0.11812135851E+01 0.13069795126E+01
 0.14061349246E+01 0.14732196823E+01 0.15022194972E+01 0.14849846860E+01 0.14171696687E+01
 0.13059252999E+01 0.11695818241E+01 0.10277305222E+01 0.89167999249E+00 0.76504500845E+00
 0.65140491305E+00 0.55777766731E+00 0.49037255305E+00 0.49040392661E+00 0.45815067486E+00
 0.45566128960E+00 0.48835764153E+00 0.55645069697E+00 0.65253246653E+00 0.77209719131E+00
 0.91590419722E+00 0.10793922901E+01 0.12485835009E+01 0.14078665059E+01 0.15440526938E+01
 0.16437585317E+01 0.16964468027E+01 0.17001214967E+01 0.16562216219E+01 0.15621762465E+01
 0.14198293352E+01 0.12483126571E+01 0.10755121067E+01 0.91686781859E+00 0.77346776933E+00
 0.64869560944E+00 0.55274544978E+00 0.54586792344E+00 0.49349645985E+00 0.47018131608E+00
 0.48467514725E+00 0.54586176800E+00 0.64435490590E+00 0.76779001810E+00 0.91828271322E+00
 0.10972851700E+01 0.12889518501E+01 0.14743450971E+01 0.16450492665E+01 0.17880272215E+01
 0.18773517413E+01 0.18988837500E+01 0.18648652818E+01 0.17880232877E+01 0.16621322505E+01
 0.14864006612E+01 0.12877039369E+01 0.10972931609E+01 0.92321063637E+00 0.76472373554E+00
 0.63460891988E+00 0.61307459532E+00 0.53964082331E+00 0.49689760133E+00 0.48611854897E+00
 0.52806687803E+00 0.62202983708E+00 0.74558892716E+00 0.89446122007E+00 0.10810873699E+01
 0.12946684292E+01 0.15040653988E+01 0.16979139980E+01 0.18790003111E+01 0.20224506535E+01
 0.20864901132E+01 0.20658742012E+01 0.19910481384E+01 0.18752009913E+01 0.17074872980E+01
 0.14986205972E+01 0.12859613064E+01 0.10890161458E+01 0.90247474744E+00 0.73524723953E+00
 0.69151584244E+00 0.59063259401E+00 0.53249299070E+00 0.49874688950E+00 0.51119176496E+00
 0.58927449644E+00 0.70997528589E+00 0.85065874396E+00 0.10278921045E+01 0.12520905592E+01
 0.14878033950E+01 0.17009057914E+01 0.18998884668E+01 0.20870630604E+01 0.22153499817E+01
 0.22415262730E+01 0.21818710624E+01 0.20714052247E+01 0.19105709356E+01 0.16966925693E+01
 0.14650294588E+01 0.12510219450E+01 0.10494230073E+01 0.85298614915E+00 0.78348783627E+00
 0.64561284938E+00 0.56943842579E+00 0.52120100354E+00 0.50330734760E+00 0.55213310711E+00
 0.66431504422E+00 0.79986332028E+00 0.95685346832E+00 0.11671636340E+01 0.14184575803E+01
 0.16563861064E+01 0.18644180557E+01 0.20650330680E+01 0.22406697861E+01 0.23314307262E+01
 0.23173158844E+01 0.22313603173E+01 0.20898869411E+01 0.18828879874E+01 0.16345984481E+01
 0.13986383199E+01 0.11880635236E+01 0.97910190187E+00 0.88394607054E+00 0.70837033104E+00
 0.60375917223E+00 0.54489382965E+00 0.50598203933E+00 0.51750194306E+00 0.60659579743E+00
 0.73986575037E+00 0.88394949284E+00 0.10643811748E+01 0.13043722859E+01 0.15620166515E+01
 0.17880345334E+01 0.19900444951E+01 0.21804595414E+01 0.23167056980E+01 0.23541703061E+01
 0.23072904840E+01 0.22032422585E+01 0.20303499974E+01 0.17880233210E+01 0.15309598645E+01
 0.13056040216E+01 0.10957586208E+01 0.97612114716E+00 0.77789866012E+00 0.63847537954E+00
 0.56273163453E+00 0.51360504711E+00 0.49327687928E+00 0.54296502513E+00 0.66094228736E+00
 0.80161628541E+00 0.95816013990E+00 0.11656158910E+01 0.14183876885E+01 0.16630016966E+01
 0.18758355136E+01 0.20712464546E+01 0.22316116673E+01 0.23079032286E+01 0.22932443823E+01
 0.22218216388E+01 0.20963735769E+01 0.18936220458E+01 0.16392263208E+01 0.13974650655E+01
 0.11857701547E+01 0.10425852097E+01 0.84306512425E+00 0.67734177580E+00 0.57605212326E+00
 0.51854959877E+00 0.48181552981E+00 0.49143766106E+00 0.57330360688E+00 0.70161095100E+00
 0.84526648945E+00 0.10197695453E+01 0.12431385074E+01 0.14851556995E+01 0.17079030822E+01
 0.19109993066E+01 0.20909511018E+01 0.22046655401E+01 0.22221880855E+01 0.21697728162E+01
 0.20756954005E+01 0.19230897492E+01 0.17028308094E+01 0.14611000124E+01 0.12438680052E+01
 0.10779273716E+01 0.88939474110E+00 0.71636820200E+00 0.59085405896E+00 0.51810752832E+00
 0.47488021913E+00 0.46092372771E+00 0.50199334778E+00 0.59950039419E+00 0.72676362639E+00
 0.87676661262E+00 0.10645878668E+01 0.12816570812E+01 0.14957773019E+01 0.16950789730E+01
 0.18827160601E+01 0.20313757405E+01 0.20963389016E+01 0.20742389698E+01 0.19988318559E+01
 0.18811237880E+01 0.17065616259E+01 0.14893953937E+01 0.12737641771E+01 0.10865617414E+01
 0.90960492780E+00 0.74447469453E+00 0.60817894342E+00 0.51660726284E+00 0.46354977329E+00
 0.43982114712E+00 0.45443147257E+00 0.51660391628E+00 0.61647111591E+00 0.74300582443E+00
 0.90025692278E+00 0.10865715444E+01 0.12795820356E+01 0.14609497011E+01 0.16325480057E+01
 0.17880345738E+01 0.18936488595E+01 0.19212596696E+01 0.18790460139E+01 0.17880272950E+01
 0.16517983517E+01 0.14728984083E+01 0.12756993567E+01 0.10716610284E+01 0.90583804140E+00
 0.75310247657E+00 0.62117300578E+00 0.51915330260E+00 0.45116458192E+00 0.41672759962E+00
 0.41710928022E+00 0.45411922621E+00 0.52446946713E+00 0.62352213160E+00 0.75191836690E+00
 0.90862809000E+00 0.10797899153E+01 0.12455164188E+01 0.13963051286E+01 0.15311316608E+01
 0.16402823643E+01 0.17032837245E+01 0.17063308185E+01 0.16517235070E+01 0.15491399873E+01
 0.14085128808E+01 0.12435610896E+01 0.10318692619E+01 0.88340646205E+00 0.74295799629E+00
 0.62230626288E+00 0.52388912814E+00 0.44737057346E+00 0.39865892097E+00 0.38476929703E+00
 0.40434019272E+00 0.45092694296E+00 0.52249637955E+00 0.62114420457E+00 0.74579317082E+00
 0.88959076171E+00 0.10411882209E+01 0.11853205209E+01 0.13071596323E+01 0.13999759232E+01
 0.14636449116E+01 0.14932706730E+01 0.14771324419E+01 0.14105758545E+01 0.13045135126E+01
 0.11749862934E+01 0.96735156950E+00 0.84507503552E+00 0.72037136635E+00 0.61109011891E+00
 0.52384076452E+00 0.45207379591E+00 0.39640002432E+00 0.36829648577E+00 0.37169559101E+00
 0.39883200599E+00 0.44609791554E+00 0.51726250320E+00 0.61055105328E+00 0.71876855459E+00
 0.84043749914E+00 0.97303576564E+00 0.10977173060E+01 0.11904743921E+01 0.12472615868E+01
 0.12790447108E+01 0.12847287801E+01 0.12507032432E+01 0.11763845949E+01 0.10781814398E+01
 0.88397227746E+00 0.79156350816E+00 0.68956807886E+00 0.59311719105E+00 0.51661717528E+00
 0.45647630021E+00 0.40586139823E+00 0.37205938086E+00 0.36357900036E+00 0.37530093604E+00
 0.40155287074E+00 0.44806278122E+00 0.51660389606E+00 0.59511062894E+00 0.67740497247E+00
 0.77347730931E+00 0.88394950303E+00 0.98376954183E+00 0.10492633179E+01 0.10834477804E+01
 0.10972852080E+01 0.10851173759E+01 0.10384128546E+01 0.96656781906E+00 0.79130362647E+00
 0.72582242880E+00 0.65108820895E+00 0.57332728849E+00 0.50785401268E+00 0.45865699961E+00
 0.41831484735E+00 0.38757058330E+00 0.37493983396E+00 0.37867941860E+00 0.39032321380E+00
 0.41393330886E+00 0.45962664650E+00 0.52037136225E+00 0.57885750353E+00 0.63568374917E+00
 0.70580475633E+00 0.78693553108E+00 0.85621264790E+00 0.89970204945E+00 0.92178094081E+00
 0.92416743884E+00 0.89986725672E+00 0.85112333654E+00 0.69927009576E+00 0.65526430651E+00
 0.60652639246E+00 0.55279971235E+00 0.50355682999E+00 0.46619418865E+00 0.43691653168E+00
 0.41276093373E+00 0.40005373734E+00 0.40122904063E+00 0.40725389568E+00 0.41434967490E+00
 0.43401350885E+00 0.47374786305E+00 0.52145130806E+00 0.56266965283E+00 0.60078815215E+00
 0.64583336277E+00 0.69441175995E+00 0.73479418461E+00 0.76198235916E+00 0.77480650867E+00
 0.76795064500E+00 0.73972578738E+00 0.61594756446E+00 0.58905124580E+00 0.56135825358E+00
 0.53172013663E+00 0.50368718008E+00 0.48299382414E+00 0.46849083489E+00 0.45539972993E+00
 0.44574527969E+00 0.44494811951E+00 0.44966720777E+00 0.45108328011E+00 0.45050403410E+00
 0.45975946972E+00 0.48411219981E+00 0.51527816530E+00 0.54371239445E+00 0.56831818142E+00
 0.59157117457E+00 0.61353176687E+00 0.63300614453E+00 0.64752651715E+00 0.65117755199E+00
 0.63936938333E+00 0.54586811384E+00 0.53326438268E+00 0.52194730004E+00 0.51257274278E+00
 0.50597282828E+00 0.50490226052E+00 0.50936448767E+00 0.51448948397E+00 0.51661716250E+00
 0.51793016832E+00 0.52110180130E+00 0.52261278096E+00 0.51660722988E+00 0.50420182249E+00
 0.49434361596E+00 0.49498199450E+00 0.50598203604E+00 0.52070747802E+00 0.53256296885E+00
 0.53994320414E+00 0.54586178370E+00 0.55265983249E+00 0.55759197944E+00 0.55555515664E+00
 0.49037994838E+00 0.48940120878E+00 0.49151596438E+00 0.49878755402E+00 0.51142705846E+00
 0.52948759428E+00 0.55286382344E+00 0.57881708483E+00 0.60148743035E+00 0.61598323789E+00
 0.62237037492E+00 0.62348682959E+00 0.61886390416E+00 0.60374226148E+00 0.57611621715E+00
 0.54296289272E+00 0.51632262272E+00 0.50278340159E+00 0.49881098831E+00 0.49684917049E+00
 0.49366315641E+00 0.49113106508E+00 0.49085363231E+00 0.49124282024E+00 0.45032523669E+00
 0.45720623033E+00 0.47008762358E+00 0.49145185299E+00 0.52181154167E+00 0.55906159361E+00
 0.60085447899E+00 0.64553429460E+00 0.68943231627E+00 0.72520036704E+00 0.74588105521E+00
 0.75072454959E+00 0.74433895487E+00 0.72919232370E+00 0.70168350944E+00 0.65818000670E+00
 0.60362342621E+00 0.55095673055E+00 0.51125755056E+00 0.48610285650E+00 0.47004555373E+00
 0.45837059012E+00 0.45062730973E+00 0.44798716120E+00 0.42692067014E+00 0.43689039220E+00
 0.45679031390E+00 0.48892118246E+00 0.53476186635E+00 0.59176380192E+00 0.65484837555E+00
 0.71985258924E+00 0.78354505006E+00 0.84066191282E+00 0.88299051616E+00 0.90304416705E+00
 0.89927174999E+00 0.87698654639E+00 0.84264921635E+00 0.79718737597E+00 0.73729334557E+00
 0.66451047960E+00 0.59021669519E+00 0.52843018355E+00 0.48486026159E+00 0.45585728068E+00
 0.43667980336E+00 0.42672195233E+00 0.56066662205E+00 0.57453992167E+00 0.61433811388E+00
 0.68072985240E+00 0.77469365832E+00 0.89331429355E+00 0.10290659749E+01 0.11722426969E+01
 0.13123816505E+01 0.14387633060E+01 0.15410670089E+01 0.16086891444E+01 0.16307910011E+01
 0.16020540283E+01 0.15296439755E+01 0.14293464094E+01 0.13123587236E+01 0.11806057595E+01
 0.10374058091E+01 0.89642857769E+00 0.77471753879E+00 0.68072194775E+00 0.61410630738E+00
 0.57380044648E+00 0.57427622709E+00 0.57472912717E+00 0.61085340605E+00 0.68185650178E+00
 0.78703045445E+00 0.92374471227E+00 0.10864679346E+01 0.12665562124E+01 0.14509815207E+01
 0.16232039764E+01 0.17684838365E+01 0.18768335500E+01 0.19383882211E+01 0.19404897131E+01
 0.18765740690E+01 0.17570229385E+01 0.16044918956E+01 0.14376869090E+01 0.12646500736E+01
 0.10912613383E+01 0.92877708638E+00 0.78999842207E+00 0.68282171761E+00 0.61041304170E+00
 0.61443787398E+00 0.59152489538E+00 0.61403982423E+00 0.68228522957E+00 0.79314763534E+00
 0.94118694817E+00 0.11217764451E+01 0.13297693869E+01 0.15540428628E+01 0.17756934184E+01
 0.19735325803E+01 0.21308386828E+01 0.22360455803E+01 0.22786700211E+01 0.22485639682E+01
 0.21425899885E+01 0.19724461970E+01 0.17633693246E+01 0.15423585431E+01 0.13269286484E+01
 0.11251344537E+01 0.94382612034E+00 0.79299383486E+00 0.68183713482E+00 0.68214134862E+00
 0.62810242336E+00 0.62546154329E+00 0.67997296981E+00 0.79006926219E+00 0.94502060494E+00
 0.11370680467E+01 0.13644024801E+01 0.16194620706E+01 0.18835299699E+01 0.21342523926E+01
 0.23501884443E+01 0.25092623508E+01 0.25936997354E+01 0.25976295069E+01 0.25225670108E+01
 0.23695071056E+01 0.21469821117E+01 0.18832027359E+01 0.16152689823E+01 0.13653703867E+01
 0.11385043043E+01 0.94094635517E+00 0.78613406832E+00 0.77471752437E+00 0.68650331450E+00
 0.65050128440E+00 0.67712333599E+00 0.77470277535E+00 0.93046300497E+00 0.11280039052E+01
 0.13668243969E+01 0.16460704298E+01 0.19456290257E+01 0.22399077741E+01 0.25119566068E+01
 0.27383637013E+01 0.28824124084E+01 0.29224722623E+01 0.28691499236E+01 0.27383657592E+01
 0.25300938369E+01 0.22526700616E+01 0.19442583018E+01 0.16460880682E+01 0.13721201534E+01
 0.11248029008E+01 0.92013213779E+00 0.88640676905E+00 0.76237051436E+00 0.69283875756E+00
 0.68139908120E+00 0.75010259346E+00 0.89593275316E+00 0.10917079719E+01 0.13298141309E+01
 0.16211450715E+01 0.19516357099E+01 0.22836094814E+01 0.25972626881E+01 0.28850637560E+01
 0.31092261058E+01 0.32158034651E+01 0.31938409714E+01 0.30757544557E+01 0.28809751172E+01
 0.26074421298E+01 0.22778391872E+01 0.19424056630E+01 0.16296309017E+01 0.13384108221E+01
 0.10807637754E+01 0.10146788157E+01 0.84831446789E+00 0.74897000190E+00 0.70016794057E+00
 0.72632617302E+00 0.84690027079E+00 0.10343609917E+01 0.12612380128E+01 0.15425318366E+01
 0.18871880043E+01 0.22541135027E+01 0.26004064275E+01 0.29247168355E+01 0.32168827725E+01
 0.34148577671E+01 0.34642179021E+01 0.33792457864E+01 0.32002229284E+01 0.29360848305E+01
 0.25959599823E+01 0.22299430594E+01 0.18860824854E+01 0.15654171081E+01 0.12636655143E+01
 0.11594951251E+01 0.94176610515E+00 0.81029328611E+00 0.73255054264E+00 0.71347902682E+00
 0.79182576003E+00 0.96167606199E+00 0.11770252829E+01 0.14328010841E+01 0.17608160561E+01
 0.21455035762E+01 0.25239888791E+01 0.28695239393E+01 0.31934042344E+01 0.34634653836E+01
 0.36048194978E+01 0.35898653972E+01 0.34536654387E+01 0.32198732253E+01 0.28891432751E+01
 0.25008140434E+01 0.21244520542E+01 0.17830196046E+01 0.14563526275E+01 0.13123587312E+01
 0.10444292283E+01 0.87125723721E+00 0.76933308466E+00 0.71439747343E+00 0.74017699377E+00
 0.87422056153E+00 0.10778728036E+01 0.13123592199E+01 0.16024580681E+01 0.19708492912E+01
 0.23693642464E+01 0.27383776775E+01 0.30746811385E+01 0.33777437379E+01 0.35892173616E+01
 0.36523719350E+01 0.35792094341E+01 0.34019727824E+01 0.31175428768E+01 0.27383657924E+01
 0.23363211187E+01 0.19721146387E+01 0.16357827239E+01 0.14517559325E+01 0.11523789850E+01
 0.93314767433E+00 0.80219212922E+00 0.72358438651E+00 0.70200639334E+00 0.78121319733E+00
 0.95697320143E+00 0.11774592056E+01 0.14325717670E+01 0.17575455226E+01 0.21439310069E+01
 0.25297648512E+01 0.28807837178E+01 0.31995895951E+01 0.34537749872E+01 0.35798602789E+01
 0.35642200431E+01 0.34432687377E+01 0.32262722959E+01 0.28997286281E+01 0.25044976412E+01
 0.21216408551E+01 0.17789566969E+01 0.15553872788E+01 0.12507431154E+01 0.99765672874E+00
 0.83116064275E+00 0.73264714232E+00 0.68072653768E+00 0.70385899684E+00 0.82828539972E+00
 0.10234730543E+01 0.12530436837E+01 0.15310694131E+01 0.18747839207E+01 0.22487370456E+01
 0.26059174823E+01 0.29353627621E+01 0.32205387724E+01 0.34034870422E+01 0.34438151023E+01
 0.33663874962E+01 0.32043213336E+01 0.29482155671E+01 0.26005092812E+01 0.22231522690E+01
 0.18755895247E+01 0.16142453924E+01 0.13213251622E+01 0.10581130582E+01 0.86074009974E+00
 0.73774245833E+00 0.66777030482E+00 0.65292061959E+00 0.72062936702E+00 0.87003406706E+00
 0.10692766131E+01 0.13079222898E+01 0.16000227106E+01 0.19342335421E+01 0.22718312286E+01
 0.25922657961E+01 0.28880812175E+01 0.31186391043E+01 0.32267062257E+01 0.32032311050E+01
 0.30840923125E+01 0.28864346216E+01 0.26044716740E+01 0.22650183407E+01 0.19258534794E+01
 0.16307910429E+01 0.13541537312E+01 0.11004942428E+01 0.88993877533E+00 0.74194484209E+00
 0.65313774496E+00 0.61667018316E+00 0.64338570346E+00 0.74194387943E+00 0.89883438548E+00
 0.10989823685E+01 0.13442057324E+01 0.16308096219E+01 0.19320577592E+01 0.22229937416E+01
 0.24973397906E+01 0.27383777179E+01 0.29006501635E+01 0.29474438382E+01 0.28850700378E+01
 0.27383637749E+01 0.25178585489E+01 0.22357140262E+01 0.19278969069E+01 0.16075690164E+01
 0.13501864792E+01 0.11140616777E+01 0.90964960798E+00 0.74896309358E+00 0.63924809991E+00
 0.58288867890E+00 0.58320349217E+00 0.64225095443E+00 0.75459304523E+00 0.91216948459E+00
 0.11127509684E+01 0.13531011456E+01 0.16162549298E+01 0.18773644259E+01 0.21204013230E+01
 0.23364775186E+01 0.25069191502E+01 0.26029869543E+01 0.26061643337E+01 0.25190056639E+01
 0.23556487930E+01 0.21334192328E+01 0.18752376240E+01 0.15439317071E+01 0.13149938785E+01
 0.10989381285E+01 0.91085289954E+00 0.75554215113E+00 0.63512579997E+00 0.55843160353E+00
 0.53499490055E+00 0.56432450892E+00 0.63883849768E+00 0.75410474676E+00 0.90958896381E+00
 0.11018470696E+01 0.13215740159E+01 0.15539480396E+01 0.17784946826E+01 0.19737139922E+01
 0.21258533385E+01 0.22285218648E+01 0.22721273368E+01 0.22427724735E+01 0.21371322027E+01
 0.19709995056E+01 0.17674992746E+01 0.14423544482E+01 0.12528098852E+01 0.10624319284E+01
 0.89306607646E+00 0.75387866655E+00 0.64002433434E+00 0.55424243878E+00 0.51047952373E+00
 0.51404507102E+00 0.55681073611E+00 0.63378700453E+00 0.74696102183E+00 0.89240994889E+00
 0.10606764301E+01 0.12479922277E+01 0.14484694571E+01 0.16378158084E+01 0.17855178606E+01
 0.18821365661E+01 0.19351021070E+01 0.19410510110E+01 0.18857017164E+01 0.17706419625E+01
 0.16171679332E+01 0.13123816683E+01 0.11667759101E+01 0.10106741038E+01 0.86324229422E+00
 0.74194162216E+00 0.64474120367E+00 0.56593741108E+00 0.51443534031E+00 0.50007118552E+00
 0.51783640254E+00 0.56145983230E+00 0.63598865096E+00 0.74194385921E+00 0.86522517707E+00
 0.99772977021E+00 0.11476672471E+01 0.13123592301E+01 0.14612941904E+01 0.15652588499E+01
 0.16237844485E+01 0.16460704677E+01 0.16254251471E+01 0.15537113189E+01 0.14431233071E+01
 0.11678827967E+01 0.10629209114E+01 0.94652179717E+00 0.82835929149E+00 0.72690421331E+00
 0.64791641302E+00 0.58451564904E+00 0.53796134880E+00 0.51745787824E+00 0.52135128969E+00
 0.54081518472E+00 0.57996374716E+00 0.64904134969E+00 0.74010132585E+00 0.83410566376E+00
 0.93020376571E+00 0.10417462987E+01 0.11631952805E+01 0.12670582842E+01 0.13354760117E+01
 0.13706336675E+01 0.13731025507E+01 0.13355896827E+01 0.12617205299E+01 0.10229941986E+01
 0.95206422810E+00 0.87413788219E+00 0.79164775621E+00 0.71674539590E+00 0.65857277402E+00
 0.61364952891E+00 0.57869536801E+00 0.55986562044E+00 0.55929392082E+00 0.56736806264E+00
 0.58030816044E+00 0.61059841514E+00 0.66657233189E+00 0.73567407918E+00 0.80216235517E+00
 0.86814878649E+00 0.94202579991E+00 0.10177057957E+01 0.10802258106E+01 0.11219321165E+01
 0.11399478256E+01 0.11281798126E+01 0.10854833635E+01 0.88946679044E+00 0.84668751509E+00
 0.80165551660E+00 0.75528024299E+00 0.71302800500E+00 0.68193346924E+00 0.66095991844E+00
 0.64448327414E+00 0.63351123273E+00 0.63258569401E+00 0.63751293248E+00 0.63905470256E+00
 0.63927466788E+00 0.65173148025E+00 0.68311370588E+00 0.72534270768E+00 0.76809609035E+00
 0.80908891676E+00 0.84928744711E+00 0.88683776236E+00 0.91844633495E+00 0.93975369582E+00