   3   3   1   0
  0.6722237E+02  0.3190316E-09  0.3190316E-09  0.2287900E-08  0.5000000E-15
  1.000000000000000E-004
  CAR 
 unknown system                          
     12.00000000    -12.00000000 2401     -2.17000000      1.00000000
    -12.000  0.4000E+03  0.4000E+01
    -11.990  0.0000E+00  0.4000E+01
    -11.980  0.0000E+00  0.4000E+01
    -11.970  0.0000E+00  0.4000E+01
    -11.960  0.0000E+00  0.4000E+01
    -11.950  0.0000E+00  0.4000E+01
    -11.940  0.0000E+00  0.4000E+01
    -11.930  0.0000E+00  0.4000E+01
    -11.920  0.0000E+00  0.4000E+01
    -11.910  0.0000E+00  0.4000E+01
    -11.900  0.0000E+00  0.4000E+01
    -11.890  0.0000E+00  0.4000E+01
    -11.880  0.0000E+00  0.4000E+01
    -11.870  0.0000E+00  0.4000E+01
    -11.860  0.0000E+00  0.4000E+01
    -11.850  0.0000E+00  0.4000E+01
    -11.840  0.0000E+00  0.4000E+01
    -11.830  0.0000E+00  0.4000E+01
    -11.820  0.0000E+00  0.4000E+01
    -11.810  0.0000E+00  0.4000E+01
    -11.800  0.0000E+00  0.4000E+01
    -11.790  0.0000E+00  0.4000E+01
    -11.780  0.0000E+00  0.4000E+01
    -11.770  0.0000E+00  0.4000E+01
    -11.760  0.0000E+00  0.4000E+01
    -11.750  0.0000E+00  0.4000E+01
    -11.740  0.0000E+00  0.4000E+01
    -11.730  0.0000E+00  0.4000E+01
    -11.720  0.0000E+00  0.4000E+01
    -11.710  0.0000E+00  0.4000E+01
    -11.700  0.0000E+00  0.4000E+01
    -11.690  0.0000E+00  0.4000E+01
    -11.680  0.0000E+00  0.4000E+01
    -11.670  0.0000E+00  0.4000E+01
    -11.660  0.0000E+00  0.4000E+01
    -11.650  0.0000E+00  0.4000E+01
    -11.640  0.0000E+00  0.4000E+01
    -11.630  0.0000E+00  0.4000E+01
    -11.620  0.0000E+00  0.4000E+01
    -11.610  0.0000E+00  0.4000E+01
    -11.600  0.0000E+00  0.4000E+01
    -11.590  0.0000E+00  0.4000E+01
    -11.580  0.0000E+00  0.4000E+01
    -11.570  0.0000E+00  0.4000E+01
    -11.560  0.0000E+00  0.4000E+01
    -11.550  0.0000E+00  0.4000E+01
    -11.540  0.0000E+00  0.4000E+01
    -11.530  0.0000E+00  0.4000E+01
    -11.520  0.0000E+00  0.4000E+01
    -11.510  0.0000E+00  0.4000E+01
    -11.500  0.0000E+00  0.4000E+01
    -11.490  0.0000E+00  0.4000E+01
    -11.480  0.0000E+00  0.4000E+01
    -11.470  0.0000E+00  0.4000E+01
    -11.460  0.0000E+00  0.4000E+01
    -11.450  0.0000E+00  0.4000E+01
    -11.440  0.0000E+00  0.4000E+01
    -11.430  0.0000E+00  0.4000E+01
    -11.420  0.0000E+00  0.4000E+01
    -11.410  0.0000E+00  0.4000E+01
    -11.400  0.0000E+00  0.4000E+01
    -11.390  0.0000E+00  0.4000E+01
    -11.380  0.0000E+00  0.4000E+01
    -11.370  0.0000E+00  0.4000E+01
    -11.360  0.0000E+00  0.4000E+01
    -11.350  0.0000E+00  0.4000E+01
    -11.340  0.0000E+00  0.4000E+01
    -11.330  0.0000E+00  0.4000E+01
    -11.320  0.0000E+00  0.4000E+01
    -11.310  0.0000E+00  0.4000E+01
    -11.300  0.0000E+00  0.4000E+01
    -11.290  0.0000E+00  0.4000E+01
    -11.280  0.0000E+00  0.4000E+01
    -11.270  0.0000E+00  0.4000E+01
    -11.260  0.0000E+00  0.4000E+01
    -11.250  0.0000E+00  0.4000E+01
    -11.240  0.0000E+00  0.4000E+01
    -11.230  0.0000E+00  0.4000E+01
    -11.220  0.0000E+00  0.4000E+01
    -11.210  0.0000E+00  0.4000E+01
    -11.200  0.0000E+00  0.4000E+01
    -11.190  0.0000E+00  0.4000E+01
    -11.180  0.0000E+00  0.4000E+01
    -11.170  0.0000E+00  0.4000E+01
    -11.160  0.0000E+00  0.4000E+01
    -11.150  0.0000E+00  0.4000E+01
    -11.140  0.0000E+00  0.4000E+01
    -11.130  0.0000E+00  0.4000E+01
    -11.120  0.0000E+00  0.4000E+01
    -11.110  0.0000E+00  0.4000E+01
    -11.100  0.0000E+00  0.4000E+01
    -11.090  0.0000E+00  0.4000E+01
    -11.080  0.0000E+00  0.4000E+01
    -11.070  0.0000E+00  0.4000E+01
    -11.060  0.0000E+00  0.4000E+01
    -11.050  0.0000E+00  0.4000E+01
    -11.040  0.0000E+00  0.4000E+01
    -11.030  0.0000E+00  0.4000E+01
    -11.020  0.0000E+00  0.4000E+01
    -11.010  0.0000E+00  0.4000E+01
    -11.000  0.0000E+00  0.4000E+01
    -10.990  0.0000E+00  0.4000E+01
    -10.980  0.0000E+00  0.4000E+01
    -10.970  0.0000E+00  0.4000E+01
    -10.960  0.0000E+00  0.4000E+01
    -10.950  0.0000E+00  0.4000E+01
    -10.940  0.0000E+00  0.4000E+01
    -10.930  0.0000E+00  0.4000E+01
    -10.920  0.0000E+00  0.4000E+01
    -10.910  0.0000E+00  0.4000E+01
    -10.900  0.0000E+00  0.4000E+01
    -10.890  0.0000E+00  0.4000E+01
    -10.880  0.0000E+00  0.4000E+01
    -10.870  0.0000E+00  0.4000E+01
    -10.860  0.0000E+00  0.4000E+01
    -10.850  0.0000E+00  0.4000E+01
    -10.840  0.0000E+00  0.4000E+01
    -10.830  0.0000E+00  0.4000E+01
    -10.820  0.0000E+00  0.4000E+01
    -10.810  0.0000E+00  0.4000E+01
    -10.800  0.0000E+00  0.4000E+01
    -10.790  0.0000E+00  0.4000E+01
    -10.780  0.0000E+00  0.4000E+01
    -10.770  0.0000E+00  0.4000E+01
    -10.760  0.0000E+00  0.4000E+01
    -10.750  0.0000E+00  0.4000E+01
    -10.740  0.0000E+00  0.4000E+01
    -10.730  0.0000E+00  0.4000E+01
    -10.720  0.0000E+00  0.4000E+01
    -10.710  0.0000E+00  0.4000E+01
    -10.700  0.0000E+00  0.4000E+01
    -10.690  0.0000E+00  0.4000E+01
    -10.680  0.0000E+00  0.4000E+01
    -10.670  0.0000E+00  0.4000E+01
    -10.660  0.0000E+00  0.4000E+01
    -10.650  0.0000E+00  0.4000E+01
    -10.640  0.0000E+00  0.4000E+01
    -10.630  0.0000E+00  0.4000E+01
    -10.620  0.0000E+00  0.4000E+01
    -10.610  0.0000E+00  0.4000E+01
    -10.600  0.0000E+00  0.4000E+01
    -10.590  0.0000E+00  0.4000E+01
    -10.580  0.0000E+00  0.4000E+01
    -10.570  0.0000E+00  0.4000E+01
    -10.560  0.0000E+00  0.4000E+01
    -10.550  0.0000E+00  0.4000E+01
    -10.540  0.0000E+00  0.4000E+01
    -10.530  0.0000E+00  0.4000E+01
    -10.520  0.0000E+00  0.4000E+01
    -10.510  0.0000E+00  0.4000E+01
    -10.500  0.0000E+00  0.4000E+01
    -10.490  0.0000E+00  0.4000E+01
    -10.480  0.0000E+00  0.4000E+01
    -10.470  0.0000E+00  0.4000E+01
    -10.460  0.0000E+00  0.4000E+01
    -10.450  0.0000E+00  0.4000E+01
    -10.440  0.0000E+00  0.4000E+01
    -10.430  0.0000E+00  0.4000E+01
    -10.420  0.0000E+00  0.4000E+01
    -10.410  0.0000E+00  0.4000E+01
    -10.400  0.0000E+00  0.4000E+01
    -10.390  0.0000E+00  0.4000E+01
    -10.380  0.0000E+00  0.4000E+01
    -10.370  0.0000E+00  0.4000E+01
    -10.360  0.0000E+00  0.4000E+01
    -10.350  0.0000E+00  0.4000E+01
    -10.340  0.0000E+00  0.4000E+01
    -10.330  0.0000E+00  0.4000E+01
    -10.320  0.0000E+00  0.4000E+01
    -10.310  0.0000E+00  0.4000E+01
    -10.300  0.0000E+00  0.4000E+01
    -10.290  0.0000E+00  0.4000E+01
    -10.280  0.0000E+00  0.4000E+01
    -10.270  0.0000E+00  0.4000E+01
    -10.260  0.0000E+00  0.4000E+01
    -10.250  0.0000E+00  0.4000E+01
    -10.240  0.0000E+00  0.4000E+01
    -10.230  0.0000E+00  0.4000E+01
    -10.220  0.0000E+00  0.4000E+01
    -10.210  0.0000E+00  0.4000E+01
    -10.200  0.0000E+00  0.4000E+01
    -10.190  0.0000E+00  0.4000E+01
    -10.180  0.0000E+00  0.4000E+01
    -10.170  0.0000E+00  0.4000E+01
    -10.160  0.0000E+00  0.4000E+01
    -10.150  0.0000E+00  0.4000E+01
    -10.140  0.0000E+00  0.4000E+01
    -10.130  0.0000E+00  0.4000E+01
    -10.120  0.0000E+00  0.4000E+01
    -10.110  0.0000E+00  0.4000E+01
    -10.100  0.0000E+00  0.4000E+01
    -10.090  0.0000E+00  0.4000E+01
    -10.080  0.0000E+00  0.4000E+01
    -10.070  0.0000E+00  0.4000E+01
    -10.060  0.0000E+00  0.4000E+01
    -10.050  0.0000E+00  0.4000E+01
    -10.040  0.0000E+00  0.4000E+01
    -10.030  0.0000E+00  0.4000E+01
    -10.020  0.0000E+00  0.4000E+01
    -10.010  0.0000E+00  0.4000E+01
    -10.000  0.0000E+00  0.4000E+01
     -9.990  0.0000E+00  0.4000E+01
     -9.980  0.0000E+00  0.4000E+01
     -9.970  0.0000E+00  0.4000E+01
     -9.960  0.0000E+00  0.4000E+01
     -9.950  0.0000E+00  0.4000E+01
     -9.940  0.0000E+00  0.4000E+01
     -9.930  0.0000E+00  0.4000E+01
     -9.920  0.0000E+00  0.4000E+01
     -9.910  0.0000E+00  0.4000E+01
     -9.900  0.0000E+00  0.4000E+01
     -9.890  0.5204E-15  0.4000E+01
     -9.880  0.0000E+00  0.4000E+01
     -9.870  0.5204E-15  0.4000E+01
     -9.860  0.5204E-15  0.4000E+01
     -9.850  0.1561E-14  0.4000E+01
     -9.840  0.2082E-14  0.4000E+01
     -9.830  0.4163E-14  0.4000E+01
     -9.820  0.6765E-14  0.4000E+01
     -9.810  0.1197E-13  0.4000E+01
     -9.800  0.2134E-13  0.4000E+01
     -9.790  0.3643E-13  0.4000E+01
     -9.780  0.6297E-13  0.4000E+01
     -9.770  0.1072E-12  0.4000E+01
     -9.760  0.1821E-12  0.4000E+01
     -9.750  0.3091E-12  0.4000E+01
     -9.740  0.5204E-12  0.4000E+01
     -9.730  0.8727E-12  0.4000E+01
     -9.720  0.1455E-11  0.4000E+01
     -9.710  0.2415E-11  0.4000E+01
     -9.700  0.3989E-11  0.4000E+01
     -9.690  0.6553E-11  0.4000E+01
     -9.680  0.1071E-10  0.4000E+01
     -9.670  0.1743E-10  0.4000E+01
     -9.660  0.2821E-10  0.4000E+01
     -9.650  0.4544E-10  0.4000E+01
     -9.640  0.7281E-10  0.4000E+01
     -9.630  0.1161E-09  0.4000E+01
     -9.620  0.1842E-09  0.4000E+01
     -9.610  0.2908E-09  0.4000E+01
     -9.600  0.4568E-09  0.4000E+01
     -9.590  0.7140E-09  0.4000E+01
     -9.580  0.1110E-08  0.4000E+01
     -9.570  0.1718E-08  0.4000E+01
     -9.560  0.2646E-08  0.4000E+01
     -9.550  0.4054E-08  0.4000E+01
     -9.540  0.6179E-08  0.4000E+01
     -9.530  0.9373E-08  0.4000E+01
     -9.520  0.1415E-07  0.4000E+01
     -9.510  0.2124E-07  0.4000E+01
     -9.500  0.3174E-07  0.4000E+01
     -9.490  0.4720E-07  0.4000E+01
     -9.480  0.6982E-07  0.4000E+01
     -9.470  0.1028E-06  0.4000E+01
     -9.460  0.1505E-06  0.4000E+01
     -9.450  0.2194E-06  0.4000E+01
     -9.440  0.3182E-06  0.4000E+01
     -9.430  0.4591E-06  0.4000E+01
     -9.420  0.6591E-06  0.4000E+01
     -9.410  0.9416E-06  0.4000E+01
     -9.400  0.1338E-05  0.4000E+01
     -9.390  0.1893E-05  0.4000E+01
     -9.380  0.2664E-05  0.4000E+01
     -9.370  0.3731E-05  0.4000E+01
     -9.360  0.5198E-05  0.4000E+01
     -9.350  0.7207E-05  0.4000E+01
     -9.340  0.9942E-05  0.4000E+01
     -9.330  0.1365E-04  0.4000E+01
     -9.320  0.1864E-04  0.4000E+01
     -9.310  0.2533E-04  0.4000E+01
     -9.300  0.3425E-04  0.4000E+01
     -9.290  0.4609E-04  0.4000E+01
     -9.280  0.6170E-04  0.4000E+01
     -9.270  0.8220E-04  0.4000E+01
     -9.260  0.1090E-03  0.4000E+01
     -9.250  0.1437E-03  0.4000E+01
     -9.240  0.1886E-03  0.4000E+01
     -9.230  0.2463E-03  0.4000E+01
     -9.220  0.3200E-03  0.4000E+01
     -9.210  0.4138E-03  0.4000E+01
     -9.200  0.5324E-03  0.4000E+01
     -9.190  0.6815E-03  0.4000E+01
     -9.180  0.8682E-03  0.4000E+01
     -9.170  0.1100E-02  0.4000E+01
     -9.160  0.1388E-02  0.4000E+01
     -9.150  0.1742E-02  0.4000E+01
     -9.140  0.2175E-02  0.4000E+01
     -9.130  0.2703E-02  0.4000E+01
     -9.120  0.3343E-02  0.4000E+01
     -9.110  0.4113E-02  0.4000E+01
     -9.100  0.5036E-02  0.4000E+01
     -9.090  0.6136E-02  0.4000E+01
     -9.080  0.7439E-02  0.4000E+01
     -9.070  0.8975E-02  0.4000E+01
     -9.060  0.1078E-01  0.4001E+01
     -9.050  0.1288E-01  0.4001E+01
     -9.040  0.1531E-01  0.4001E+01
     -9.030  0.1812E-01  0.4001E+01
     -9.020  0.2133E-01  0.4001E+01
     -9.010  0.2500E-01  0.4002E+01
     -9.000  0.2916E-01  0.4002E+01
     -8.990  0.3385E-01  0.4002E+01
     -8.980  0.3912E-01  0.4003E+01
     -8.970  0.4499E-01  0.4003E+01
     -8.960  0.5150E-01  0.4003E+01
     -8.950  0.5868E-01  0.4004E+01
     -8.940  0.6657E-01  0.4005E+01
     -8.930  0.7517E-01  0.4006E+01
     -8.920  0.8452E-01  0.4006E+01
     -8.910  0.9462E-01  0.4007E+01
     -8.900  0.1055E+00  0.4008E+01
     -8.890  0.1171E+00  0.4010E+01
     -8.880  0.1295E+00  0.4011E+01
     -8.870  0.1426E+00  0.4012E+01
     -8.860  0.1565E+00  0.4014E+01
     -8.850  0.1711E+00  0.4016E+01
     -8.840  0.1864E+00  0.4017E+01
     -8.830  0.2024E+00  0.4019E+01
     -8.820  0.2192E+00  0.4022E+01
     -8.810  0.2366E+00  0.4024E+01
     -8.800  0.2548E+00  0.4027E+01
     -8.790  0.2737E+00  0.4029E+01
     -8.780  0.2935E+00  0.4032E+01
     -8.770  0.3140E+00  0.4035E+01
     -8.760  0.3355E+00  0.4039E+01
     -8.750  0.3580E+00  0.4042E+01
     -8.740  0.3817E+00  0.4046E+01
     -8.730  0.4067E+00  0.4050E+01
     -8.720  0.4331E+00  0.4054E+01
     -8.710  0.4611E+00  0.4059E+01
     -8.700  0.4910E+00  0.4064E+01
     -8.690  0.5229E+00  0.4069E+01
     -8.680  0.5571E+00  0.4075E+01
     -8.670  0.5937E+00  0.4081E+01
     -8.660  0.6331E+00  0.4087E+01
     -8.650  0.6753E+00  0.4094E+01
     -8.640  0.7207E+00  0.4101E+01
     -8.630  0.7693E+00  0.4109E+01
     -8.620  0.8213E+00  0.4117E+01
     -8.610  0.8767E+00  0.4126E+01
     -8.600  0.9357E+00  0.4135E+01
     -8.590  0.9981E+00  0.4145E+01
     -8.580  0.1064E+01  0.4156E+01
     -8.570  0.1133E+01  0.4167E+01
     -8.560  0.1205E+01  0.4179E+01
     -8.550  0.1280E+01  0.4192E+01
     -8.540  0.1357E+01  0.4205E+01
     -8.530  0.1436E+01  0.4220E+01
     -8.520  0.1516E+01  0.4235E+01
     -8.510  0.1598E+01  0.4251E+01
     -8.500  0.1679E+01  0.4268E+01
     -8.490  0.1761E+01  0.4285E+01
     -8.480  0.1841E+01  0.4304E+01
     -8.470  0.1919E+01  0.4323E+01
     -8.460  0.1996E+01  0.4343E+01
     -8.450  0.2069E+01  0.4364E+01
     -8.440  0.2138E+01  0.4385E+01
     -8.430  0.2204E+01  0.4407E+01
     -8.420  0.2264E+01  0.4430E+01
     -8.410  0.2320E+01  0.4453E+01
     -8.400  0.2370E+01  0.4477E+01
     -8.390  0.2414E+01  0.4501E+01
     -8.380  0.2452E+01  0.4525E+01
     -8.370  0.2484E+01  0.4550E+01
     -8.360  0.2511E+01  0.4575E+01
     -8.350  0.2531E+01  0.4600E+01
     -8.340  0.2547E+01  0.4626E+01
     -8.330  0.2557E+01  0.4651E+01
     -8.320  0.2563E+01  0.4677E+01
     -8.310  0.2565E+01  0.4703E+01
     -8.300  0.2564E+01  0.4728E+01
     -8.290  0.2561E+01  0.4754E+01
     -8.280  0.2556E+01  0.4780E+01
     -8.270  0.2550E+01  0.4805E+01
     -8.260  0.2545E+01  0.4831E+01
     -8.250  0.2540E+01  0.4856E+01
     -8.240  0.2538E+01  0.4881E+01
     -8.230  0.2539E+01  0.4907E+01
     -8.220  0.2543E+01  0.4932E+01
     -8.210  0.2552E+01  0.4958E+01
     -8.200  0.2565E+01  0.4983E+01
     -8.190  0.2584E+01  0.5009E+01
     -8.180  0.2610E+01  0.5035E+01
     -8.170  0.2641E+01  0.5062E+01
     -8.160  0.2679E+01  0.5088E+01
     -8.150  0.2723E+01  0.5116E+01
     -8.140  0.2774E+01  0.5143E+01
     -8.130  0.2832E+01  0.5172E+01
     -8.120  0.2895E+01  0.5201E+01
     -8.110  0.2963E+01  0.5230E+01
     -8.100  0.3036E+01  0.5261E+01
     -8.090  0.3113E+01  0.5292E+01
     -8.080  0.3194E+01  0.5324E+01
     -8.070  0.3277E+01  0.5356E+01
     -8.060  0.3361E+01  0.5390E+01
     -8.050  0.3446E+01  0.5425E+01
     -8.040  0.3530E+01  0.5460E+01
     -8.030  0.3613E+01  0.5496E+01
     -8.020  0.3692E+01  0.5533E+01
     -8.010  0.3769E+01  0.5571E+01
     -8.000  0.3840E+01  0.5609E+01
     -7.990  0.3905E+01  0.5648E+01
     -7.980  0.3964E+01  0.5688E+01
     -7.970  0.4015E+01  0.5728E+01
     -7.960  0.4058E+01  0.5768E+01
     -7.950  0.4092E+01  0.5809E+01
     -7.940  0.4117E+01  0.5851E+01
     -7.930  0.4131E+01  0.5892E+01
     -7.920  0.4135E+01  0.5933E+01
     -7.910  0.4128E+01  0.5974E+01
     -7.900  0.4110E+01  0.6016E+01
     -7.890  0.4081E+01  0.6056E+01
     -7.880  0.4041E+01  0.6097E+01
     -7.870  0.3990E+01  0.6137E+01
     -7.860  0.3929E+01  0.6176E+01
     -7.850  0.3857E+01  0.6215E+01
     -7.840  0.3776E+01  0.6252E+01
     -7.830  0.3685E+01  0.6289E+01
     -7.820  0.3586E+01  0.6325E+01
     -7.810  0.3479E+01  0.6360E+01
     -7.800  0.3365E+01  0.6393E+01
     -7.790  0.3245E+01  0.6426E+01
     -7.780  0.3119E+01  0.6457E+01
     -7.770  0.2989E+01  0.6487E+01
     -7.760  0.2855E+01  0.6516E+01
     -7.750  0.2719E+01  0.6543E+01
     -7.740  0.2581E+01  0.6569E+01
     -7.730  0.2443E+01  0.6593E+01
     -7.720  0.2305E+01  0.6616E+01
     -7.710  0.2169E+01  0.6638E+01
     -7.700  0.2035E+01  0.6658E+01
     -7.690  0.1904E+01  0.6677E+01
     -7.680  0.1777E+01  0.6695E+01
     -7.670  0.1654E+01  0.6711E+01
     -7.660  0.1538E+01  0.6727E+01
     -7.650  0.1427E+01  0.6741E+01
     -7.640  0.1322E+01  0.6754E+01
     -7.630  0.1224E+01  0.6766E+01
     -7.620  0.1134E+01  0.6778E+01
     -7.610  0.1050E+01  0.6788E+01
     -7.600  0.9745E+00  0.6798E+01
     -7.590  0.9061E+00  0.6807E+01
     -7.580  0.8451E+00  0.6816E+01
     -7.570  0.7913E+00  0.6824E+01
     -7.560  0.7446E+00  0.6831E+01
     -7.550  0.7046E+00  0.6838E+01
     -7.540  0.6710E+00  0.6845E+01
     -7.530  0.6434E+00  0.6851E+01
     -7.520  0.6213E+00  0.6857E+01
     -7.510  0.6043E+00  0.6863E+01
     -7.500  0.5918E+00  0.6869E+01
     -7.490  0.5834E+00  0.6875E+01
     -7.480  0.5785E+00  0.6881E+01
     -7.470  0.5765E+00  0.6887E+01
     -7.460  0.5771E+00  0.6892E+01
     -7.450  0.5797E+00  0.6898E+01
     -7.440  0.5839E+00  0.6904E+01
     -7.430  0.5894E+00  0.6910E+01
     -7.420  0.5958E+00  0.6916E+01
     -7.410  0.6028E+00  0.6922E+01
     -7.400  0.6104E+00  0.6928E+01
     -7.390  0.6182E+00  0.6934E+01
     -7.380  0.6263E+00  0.6941E+01
     -7.370  0.6348E+00  0.6947E+01
     -7.360  0.6436E+00  0.6953E+01
     -7.350  0.6531E+00  0.6960E+01
     -7.340  0.6633E+00  0.6966E+01
     -7.330  0.6747E+00  0.6973E+01
     -7.320  0.6875E+00  0.6980E+01
     -7.310  0.7021E+00  0.6987E+01
     -7.300  0.7191E+00  0.6994E+01
     -7.290  0.7388E+00  0.7002E+01
     -7.280  0.7617E+00  0.7009E+01
     -7.270  0.7883E+00  0.7017E+01
     -7.260  0.8190E+00  0.7025E+01
     -7.250  0.8543E+00  0.7034E+01
     -7.240  0.8947E+00  0.7043E+01
     -7.230  0.9404E+00  0.7052E+01
     -7.220  0.9918E+00  0.7062E+01
     -7.210  0.1049E+01  0.7073E+01
     -7.200  0.1113E+01  0.7084E+01
     -7.190  0.1183E+01  0.7096E+01
     -7.180  0.1259E+01  0.7108E+01
     -7.170  0.1341E+01  0.7122E+01
     -7.160  0.1429E+01  0.7136E+01
     -7.150  0.1524E+01  0.7151E+01
     -7.140  0.1624E+01  0.7167E+01
     -7.130  0.1729E+01  0.7185E+01
     -7.120  0.1839E+01  0.7203E+01
     -7.110  0.1953E+01  0.7223E+01
     -7.100  0.2071E+01  0.7243E+01
     -7.090  0.2193E+01  0.7265E+01
     -7.080  0.2316E+01  0.7288E+01
     -7.070  0.2441E+01  0.7313E+01
     -7.060  0.2567E+01  0.7339E+01
     -7.050  0.2694E+01  0.7365E+01
     -7.040  0.2819E+01  0.7394E+01
     -7.030  0.2944E+01  0.7423E+01
     -7.020  0.3066E+01  0.7454E+01
     -7.010  0.3185E+01  0.7486E+01
     -7.000  0.3300E+01  0.7519E+01
     -6.990  0.3410E+01  0.7553E+01
     -6.980  0.3516E+01  0.7588E+01
     -6.970  0.3615E+01  0.7624E+01
     -6.960  0.3708E+01  0.7661E+01
     -6.950  0.3794E+01  0.7699E+01
     -6.940  0.3872E+01  0.7738E+01
     -6.930  0.3942E+01  0.7777E+01
     -6.920  0.4003E+01  0.7817E+01
     -6.910  0.4056E+01  0.7858E+01
     -6.900  0.4099E+01  0.7899E+01
     -6.890  0.4133E+01  0.7940E+01
     -6.880  0.4158E+01  0.7982E+01
     -6.870  0.4173E+01  0.8023E+01
     -6.860  0.4179E+01  0.8065E+01
     -6.850  0.4176E+01  0.8107E+01
     -6.840  0.4164E+01  0.8149E+01
     -6.830  0.4144E+01  0.8190E+01
     -6.820  0.4115E+01  0.8231E+01
     -6.810  0.4079E+01  0.8272E+01
     -6.800  0.4036E+01  0.8312E+01
     -6.790  0.3986E+01  0.8352E+01
     -6.780  0.3930E+01  0.8392E+01
     -6.770  0.3869E+01  0.8430E+01
     -6.760  0.3803E+01  0.8468E+01
     -6.750  0.3733E+01  0.8506E+01
     -6.740  0.3660E+01  0.8542E+01
     -6.730  0.3584E+01  0.8578E+01
     -6.720  0.3506E+01  0.8613E+01
     -6.710  0.3427E+01  0.8647E+01
     -6.700  0.3346E+01  0.8681E+01
     -6.690  0.3264E+01  0.8713E+01
     -6.680  0.3183E+01  0.8745E+01
     -6.670  0.3101E+01  0.8776E+01
     -6.660  0.3020E+01  0.8806E+01
     -6.650  0.2940E+01  0.8836E+01
     -6.640  0.2860E+01  0.8864E+01
     -6.630  0.2781E+01  0.8892E+01
     -6.620  0.2703E+01  0.8919E+01
     -6.610  0.2626E+01  0.8946E+01
     -6.600  0.2550E+01  0.8971E+01
     -6.590  0.2475E+01  0.8996E+01
     -6.580  0.2402E+01  0.9020E+01
     -6.570  0.2330E+01  0.9043E+01
     -6.560  0.2260E+01  0.9066E+01
     -6.550  0.2192E+01  0.9088E+01
     -6.540  0.2125E+01  0.9109E+01
     -6.530  0.2062E+01  0.9130E+01
     -6.520  0.2001E+01  0.9150E+01
     -6.510  0.1944E+01  0.9169E+01
     -6.500  0.1890E+01  0.9188E+01
     -6.490  0.1841E+01  0.9206E+01
     -6.480  0.1798E+01  0.9224E+01
     -6.470  0.1761E+01  0.9242E+01
     -6.460  0.1730E+01  0.9259E+01
     -6.450  0.1707E+01  0.9276E+01
     -6.440  0.1693E+01  0.9293E+01
     -6.430  0.1688E+01  0.9310E+01
     -6.420  0.1692E+01  0.9327E+01
     -6.410  0.1707E+01  0.9344E+01
     -6.400  0.1734E+01  0.9361E+01
     -6.390  0.1772E+01  0.9379E+01
     -6.380  0.1822E+01  0.9397E+01
     -6.370  0.1884E+01  0.9416E+01
     -6.360  0.1958E+01  0.9436E+01
     -6.350  0.2045E+01  0.9456E+01
     -6.340  0.2144E+01  0.9478E+01
     -6.330  0.2254E+01  0.9500E+01
     -6.320  0.2375E+01  0.9524E+01
     -6.310  0.2505E+01  0.9549E+01
     -6.300  0.2645E+01  0.9575E+01
     -6.290  0.2792E+01  0.9603E+01
     -6.280  0.2946E+01  0.9633E+01
     -6.270  0.3104E+01  0.9664E+01
     -6.260  0.3266E+01  0.9697E+01
     -6.250  0.3429E+01  0.9731E+01
     -6.240  0.3592E+01  0.9767E+01
     -6.230  0.3753E+01  0.9804E+01
     -6.220  0.3910E+01  0.9843E+01
     -6.210  0.4061E+01  0.9884E+01
     -6.200  0.4205E+01  0.9926E+01
     -6.190  0.4340E+01  0.9969E+01
     -6.180  0.4464E+01  0.1001E+02
     -6.170  0.4576E+01  0.1006E+02
     -6.160  0.4675E+01  0.1011E+02
     -6.150  0.4760E+01  0.1015E+02
     -6.140  0.4830E+01  0.1020E+02
     -6.130  0.4885E+01  0.1025E+02
     -6.120  0.4923E+01  0.1030E+02
     -6.110  0.4946E+01  0.1035E+02
     -6.100  0.4952E+01  0.1040E+02
     -6.090  0.4942E+01  0.1045E+02
     -6.080  0.4917E+01  0.1050E+02
     -6.070  0.4876E+01  0.1055E+02
     -6.060  0.4822E+01  0.1060E+02
     -6.050  0.4754E+01  0.1064E+02
     -6.040  0.4673E+01  0.1069E+02
     -6.030  0.4582E+01  0.1074E+02
     -6.020  0.4480E+01  0.1078E+02
     -6.010  0.4368E+01  0.1082E+02
     -6.000  0.4249E+01  0.1087E+02
     -5.990  0.4123E+01  0.1091E+02
     -5.980  0.3992E+01  0.1095E+02
     -5.970  0.3857E+01  0.1099E+02
     -5.960  0.3718E+01  0.1102E+02
     -5.950  0.3577E+01  0.1106E+02
     -5.940  0.3435E+01  0.1109E+02
     -5.930  0.3293E+01  0.1113E+02
     -5.920  0.3152E+01  0.1116E+02
     -5.910  0.3012E+01  0.1119E+02
     -5.900  0.2876E+01  0.1122E+02
     -5.890  0.2742E+01  0.1124E+02
     -5.880  0.2613E+01  0.1127E+02
     -5.870  0.2489E+01  0.1129E+02
     -5.860  0.2370E+01  0.1132E+02
     -5.850  0.2258E+01  0.1134E+02
     -5.840  0.2152E+01  0.1136E+02
     -5.830  0.2052E+01  0.1138E+02
     -5.820  0.1960E+01  0.1140E+02
     -5.810  0.1876E+01  0.1142E+02
     -5.800  0.1800E+01  0.1144E+02
     -5.790  0.1732E+01  0.1146E+02
     -5.780  0.1671E+01  0.1147E+02
     -5.770  0.1619E+01  0.1149E+02
     -5.760  0.1576E+01  0.1151E+02
     -5.750  0.1540E+01  0.1152E+02
     -5.740  0.1512E+01  0.1154E+02
     -5.730  0.1492E+01  0.1155E+02
     -5.720  0.1478E+01  0.1157E+02
     -5.710  0.1472E+01  0.1158E+02
     -5.700  0.1472E+01  0.1160E+02
     -5.690  0.1477E+01  0.1161E+02
     -5.680  0.1488E+01  0.1162E+02
     -5.670  0.1504E+01  0.1164E+02
     -5.660  0.1523E+01  0.1166E+02
     -5.650  0.1545E+01  0.1167E+02
     -5.640  0.1570E+01  0.1169E+02
     -5.630  0.1597E+01  0.1170E+02
     -5.620  0.1625E+01  0.1172E+02
     -5.610  0.1654E+01  0.1174E+02
     -5.600  0.1682E+01  0.1175E+02
     -5.590  0.1709E+01  0.1177E+02
     -5.580  0.1735E+01  0.1179E+02
     -5.570  0.1760E+01  0.1180E+02
     -5.560  0.1781E+01  0.1182E+02
     -5.550  0.1800E+01  0.1184E+02
     -5.540  0.1815E+01  0.1186E+02
     -5.530  0.1827E+01  0.1188E+02
     -5.520  0.1835E+01  0.1189E+02
     -5.510  0.1839E+01  0.1191E+02
     -5.500  0.1839E+01  0.1193E+02
     -5.490  0.1835E+01  0.1195E+02
     -5.480  0.1826E+01  0.1197E+02
     -5.470  0.1813E+01  0.1199E+02
     -5.460  0.1795E+01  0.1200E+02
     -5.450  0.1774E+01  0.1202E+02
     -5.440  0.1749E+01  0.1204E+02
     -5.430  0.1720E+01  0.1206E+02
     -5.420  0.1687E+01  0.1207E+02
     -5.410  0.1652E+01  0.1209E+02
     -5.400  0.1614E+01  0.1211E+02
     -5.390  0.1573E+01  0.1212E+02
     -5.380  0.1531E+01  0.1214E+02
     -5.370  0.1488E+01  0.1215E+02
     -5.360  0.1443E+01  0.1217E+02
     -5.350  0.1399E+01  0.1218E+02
     -5.340  0.1355E+01  0.1219E+02
     -5.330  0.1311E+01  0.1221E+02
     -5.320  0.1270E+01  0.1222E+02
     -5.310  0.1230E+01  0.1223E+02
     -5.300  0.1194E+01  0.1224E+02
     -5.290  0.1161E+01  0.1226E+02
     -5.280  0.1133E+01  0.1227E+02
     -5.270  0.1110E+01  0.1228E+02
     -5.260  0.1092E+01  0.1229E+02
     -5.250  0.1081E+01  0.1230E+02
     -5.240  0.1076E+01  0.1231E+02
     -5.230  0.1079E+01  0.1232E+02
     -5.220  0.1091E+01  0.1233E+02
     -5.210  0.1110E+01  0.1234E+02
     -5.200  0.1139E+01  0.1235E+02
     -5.190  0.1178E+01  0.1237E+02
     -5.180  0.1225E+01  0.1238E+02
     -5.170  0.1283E+01  0.1239E+02
     -5.160  0.1351E+01  0.1241E+02
     -5.150  0.1428E+01  0.1242E+02
     -5.140  0.1516E+01  0.1243E+02
     -5.130  0.1613E+01  0.1245E+02
     -5.120  0.1720E+01  0.1247E+02
     -5.110  0.1835E+01  0.1249E+02
     -5.100  0.1959E+01  0.1251E+02
     -5.090  0.2091E+01  0.1253E+02
     -5.080  0.2230E+01  0.1255E+02
     -5.070  0.2375E+01  0.1257E+02
     -5.060  0.2526E+01  0.1260E+02
     -5.050  0.2682E+01  0.1262E+02
     -5.040  0.2841E+01  0.1265E+02
     -5.030  0.3002E+01  0.1268E+02
     -5.020  0.3165E+01  0.1271E+02
     -5.010  0.3328E+01  0.1275E+02
     -5.000  0.3490E+01  0.1278E+02
     -4.990  0.3650E+01  0.1282E+02
     -4.980  0.3807E+01  0.1286E+02
     -4.970  0.3959E+01  0.1290E+02
     -4.960  0.4106E+01  0.1294E+02
     -4.950  0.4246E+01  0.1298E+02
     -4.940  0.4378E+01  0.1302E+02
     -4.930  0.4502E+01  0.1307E+02
     -4.920  0.4617E+01  0.1312E+02
     -4.910  0.4721E+01  0.1316E+02
     -4.900  0.4814E+01  0.1321E+02
     -4.890  0.4895E+01  0.1326E+02
     -4.880  0.4964E+01  0.1331E+02
     -4.870  0.5020E+01  0.1336E+02
     -4.860  0.5064E+01  0.1341E+02
     -4.850  0.5094E+01  0.1346E+02
     -4.840  0.5110E+01  0.1351E+02
     -4.830  0.5113E+01  0.1356E+02
     -4.820  0.5102E+01  0.1361E+02
     -4.810  0.5079E+01  0.1367E+02
     -4.800  0.5042E+01  0.1372E+02
     -4.790  0.4992E+01  0.1377E+02
     -4.780  0.4930E+01  0.1382E+02
     -4.770  0.4856E+01  0.1386E+02
     -4.760  0.4770E+01  0.1391E+02
     -4.750  0.4675E+01  0.1396E+02
     -4.740  0.4569E+01  0.1400E+02
     -4.730  0.4455E+01  0.1405E+02
     -4.720  0.4332E+01  0.1409E+02
     -4.710  0.4203E+01  0.1413E+02
     -4.700  0.4068E+01  0.1417E+02
     -4.690  0.3927E+01  0.1421E+02
     -4.680  0.3783E+01  0.1425E+02
     -4.670  0.3636E+01  0.1429E+02
     -4.660  0.3487E+01  0.1432E+02
     -4.650  0.3338E+01  0.1436E+02
     -4.640  0.3189E+01  0.1439E+02
     -4.630  0.3042E+01  0.1442E+02
     -4.620  0.2898E+01  0.1445E+02
     -4.610  0.2757E+01  0.1447E+02
     -4.600  0.2622E+01  0.1450E+02
     -4.590  0.2492E+01  0.1453E+02
     -4.580  0.2368E+01  0.1455E+02
     -4.570  0.2252E+01  0.1457E+02
     -4.560  0.2144E+01  0.1459E+02
     -4.550  0.2045E+01  0.1461E+02
     -4.540  0.1955E+01  0.1463E+02
     -4.530  0.1874E+01  0.1465E+02
     -4.520  0.1804E+01  0.1467E+02
     -4.510  0.1744E+01  0.1469E+02
     -4.500  0.1694E+01  0.1470E+02
     -4.490  0.1654E+01  0.1472E+02
     -4.480  0.1625E+01  0.1474E+02
     -4.470  0.1605E+01  0.1475E+02
     -4.460  0.1595E+01  0.1477E+02
     -4.450  0.1595E+01  0.1479E+02
     -4.440  0.1603E+01  0.1480E+02
     -4.430  0.1619E+01  0.1482E+02
     -4.420  0.1642E+01  0.1483E+02
     -4.410  0.1672E+01  0.1485E+02
     -4.400  0.1708E+01  0.1487E+02
     -4.390  0.1748E+01  0.1489E+02
     -4.380  0.1793E+01  0.1490E+02
     -4.370  0.1840E+01  0.1492E+02
     -4.360  0.1890E+01  0.1494E+02
     -4.350  0.1940E+01  0.1496E+02
     -4.340  0.1991E+01  0.1498E+02
     -4.330  0.2041E+01  0.1500E+02
     -4.320  0.2090E+01  0.1502E+02
     -4.310  0.2136E+01  0.1504E+02
     -4.300  0.2179E+01  0.1506E+02
     -4.290  0.2219E+01  0.1509E+02
     -4.280  0.2255E+01  0.1511E+02
     -4.270  0.2287E+01  0.1513E+02
     -4.260  0.2314E+01  0.1516E+02
     -4.250  0.2336E+01  0.1518E+02
     -4.240  0.2354E+01  0.1520E+02
     -4.230  0.2367E+01  0.1523E+02
     -4.220  0.2377E+01  0.1525E+02
     -4.210  0.2382E+01  0.1527E+02
     -4.200  0.2384E+01  0.1530E+02
     -4.190  0.2383E+01  0.1532E+02
     -4.180  0.2379E+01  0.1534E+02
     -4.170  0.2374E+01  0.1537E+02
     -4.160  0.2367E+01  0.1539E+02
     -4.150  0.2360E+01  0.1542E+02
     -4.140  0.2353E+01  0.1544E+02
     -4.130  0.2347E+01  0.1546E+02
     -4.120  0.2343E+01  0.1549E+02
     -4.110  0.2340E+01  0.1551E+02
     -4.100  0.2339E+01  0.1553E+02
     -4.090  0.2341E+01  0.1556E+02
     -4.080  0.2346E+01  0.1558E+02
     -4.070  0.2355E+01  0.1560E+02
     -4.060  0.2366E+01  0.1563E+02
     -4.050  0.2382E+01  0.1565E+02
     -4.040  0.2400E+01  0.1567E+02
     -4.030  0.2422E+01  0.1570E+02
     -4.020  0.2446E+01  0.1572E+02
     -4.010  0.2474E+01  0.1575E+02
     -4.000  0.2504E+01  0.1577E+02
     -3.990  0.2535E+01  0.1580E+02
     -3.980  0.2568E+01  0.1582E+02
     -3.970  0.2602E+01  0.1585E+02
     -3.960  0.2637E+01  0.1588E+02
     -3.950  0.2671E+01  0.1590E+02
     -3.940  0.2705E+01  0.1593E+02
     -3.930  0.2737E+01  0.1596E+02
     -3.920  0.2768E+01  0.1599E+02
     -3.910  0.2796E+01  0.1601E+02
     -3.900  0.2822E+01  0.1604E+02
     -3.890  0.2845E+01  0.1607E+02
     -3.880  0.2865E+01  0.1610E+02
     -3.870  0.2881E+01  0.1613E+02
     -3.860  0.2893E+01  0.1616E+02
     -3.850  0.2902E+01  0.1619E+02
     -3.840  0.2907E+01  0.1621E+02
     -3.830  0.2909E+01  0.1624E+02
     -3.820  0.2907E+01  0.1627E+02
     -3.810  0.2902E+01  0.1630E+02
     -3.800  0.2894E+01  0.1633E+02
     -3.790  0.2883E+01  0.1636E+02
     -3.780  0.2870E+01  0.1639E+02
     -3.770  0.2856E+01  0.1642E+02
     -3.760  0.2840E+01  0.1645E+02
     -3.750  0.2823E+01  0.1647E+02