    3    3    1    1
  0.6722237E+02  0.3190316E-09  0.3190316E-09  0.2287900E-08  0.5000000E-15
  1.000000000000000E-004
  CAR 
 unknown system                          
     18     10     14
 
  0.0000000E+00  0.0000000E+00  0.0000000E+00  0.1562500E-01
    1      -17.034871   1.000000
    2      -15.826479   1.000000
    3       -8.544079   1.000000
    4       -5.582368   1.000000
    5       -5.582122   1.000000
    6       -4.722982   1.000000
    7       -4.475071   1.000000
    8       -4.474608   1.000000
    9       -3.000193   1.000000
   10       -0.226055   0.000000
   11       -0.225277   0.000000
   12       -0.002911   0.000000
   13       -0.002254   0.000000
   14        2.394929   0.000000
 
  0.1250000E+00  0.0000000E+00  0.0000000E+00  0.9375000E-01
    1      -16.820848   1.000000
    2      -15.724084   1.000000
    3       -8.299805   1.000000
    4       -6.047295   1.000000
    5       -5.530071   1.000000
    6       -5.348543   1.000000
    7       -4.811450   1.000000
    8       -4.044292   1.000000
    9       -3.139449   1.000000
   10       -0.509124   0.000000
   11       -0.442525   0.000000
   12       -0.240706   0.000000
   13        0.127895   0.000000
   14        2.757434   0.000000
 
  0.2500000E+00  0.0000000E+00  0.0000000E+00  0.9375000E-01
    1      -16.252299   1.000000
    2      -15.455183   1.000000
    3       -7.933785   1.000000
    4       -6.775372   1.000000
    5       -6.511651   1.000000
    6       -5.448515   1.000000
    7       -4.762672   1.000000
    8       -4.296217   1.000000
    9       -3.707931   1.000000
   10       -0.833382   0.000000
   11       -0.658300   0.000000
   12       -0.115197   0.000000
   13        0.742788   0.000000
   14        3.585164   0.000000
 
  0.3750000E+00  0.0000000E+00  0.0000000E+00  0.9375000E-01
    1      -15.577364   1.000000
    2      -15.146607   1.000000
    3       -8.372986   1.000000
    4       -7.380489   1.000000
    5       -6.906705   1.000000
    6       -5.946699   1.000000
    7       -4.705214   1.000000
    8       -4.172701   1.000000
    9       -3.902145   1.000000
   10       -0.840621   0.000000
   11       -0.560940   0.000000
   12        0.603975   0.000000
   13        1.135972   0.000000
   14        4.159525   0.000000
 
  0.5000000E+00  0.0000000E+00  0.0000000E+00  0.4687500E-01
    1      -15.249138   1.000000
    2      -15.003296   1.000000
    3       -8.706446   1.000000
    4       -7.746773   1.000000
    5       -7.032454   1.000000
    6       -6.128028   1.000000
    7       -4.844050   1.000000
    8       -3.945797   1.000000
    9       -3.620766   1.000000
   10       -0.819172   0.000000
   11       -0.304495   0.000000
   12        0.902898   0.000000
   13        1.250917   0.000000
   14        3.205077   0.000000
 
  0.1250000E+00  0.1250000E+00  0.0000000E+00  0.9375000E-01
    1      -16.428181   1.000000
    2      -15.537016   1.000000
    3       -7.952670   1.000000
    4       -6.612563   1.000000
    5       -6.092966   1.000000
    6       -5.626382   1.000000
    7       -5.010221   1.000000
    8       -3.909684   1.000000
    9       -3.512283   1.000000
   10       -0.908534   0.000000
   11       -0.531278   0.000000
   12       -0.518898   0.000000
   13        0.721696   0.000000
   14        3.350836   0.000000
 
  0.2500000E+00  0.1250000E+00  0.0000000E+00  0.1875000E+00
    1      -15.794783   1.000000
    2      -15.238335   1.000000
    3       -8.016618   1.000000
    4       -7.038785   1.000000
    5       -6.775638   1.000000
    6       -6.131474   1.000000
    7       -4.911101   1.000000
    8       -4.272402   1.000000
    9       -3.795762   1.000000
   10       -0.992116   0.000000
   11       -0.545325   0.000000
   12       -0.048461   0.000000
   13        1.227685   0.000000
   14        4.344585   0.000000
 
  0.3750000E+00  0.1250000E+00  0.0000000E+00  0.1875000E+00
    1      -15.264353   1.000000
    2      -14.994384   1.000000
    3       -8.418400   1.000000
    4       -7.802529   1.000000
    5       -6.904408   1.000000
    6       -6.149140   1.000000
    7       -4.895751   1.000000
    8       -4.753694   1.000000
    9       -3.469003   1.000000
   10       -0.800012   0.000000
   11       -0.289909   0.000000
   12        0.575252   0.000000
   13        1.261446   0.000000
   14        3.731305   0.000000
 
  0.2500000E+00  0.2500000E+00  0.0000000E+00  0.9375000E-01
    1      -15.279378   1.000000
    2      -14.985487   1.000000
    3       -8.057727   1.000000
    4       -7.852516   1.000000
    5       -6.578510   1.000000
    6       -6.197438   1.000000
    7       -5.878175   1.000000
    8       -4.620716   1.000000
    9       -3.498910   1.000000
   10       -0.850921   0.000000
   11       -0.239354   0.000000
   12        0.077334   0.000000
   13        1.545679   0.000000
   14        4.561155   0.000000
 
  0.3750000E+00  0.2500000E+00  0.0000000E+00  0.9375000E-01
    1      -15.044442   1.000000
    2      -14.866437   1.000000
    3       -8.237308   1.000000
    4       -7.888586   1.000000
    5       -6.861617   1.000000
    6       -6.199831   1.000000
    7       -5.971602   1.000000
    8       -5.006258   1.000000
    9       -3.131587   1.000000
   10       -1.177202   0.000000
   11        0.138249   0.000000
   12        0.310041   0.000000
   13        1.688754   0.000000
   14        3.975694   0.000000
