unknown system                          
   1.00000000000000     
     3.190316    0.000000    0.000000
    -1.595158    2.762894    0.000000
     0.000000    0.000000   22.879004
   Mo   S 
     1     2
Direct
  0.333333  0.666667  0.162584
  0.666667  0.333333  0.094185
  0.666666  0.333333  0.230982
 
   12   12   90
 0.21721E-02 0.10430E-01 0.42512     0.55660E-03 0.79817     0.14971E-01 0.44269E-02 0.27340E-02 0.87382E-02 0.39589E-03
 0.16577E-01 0.60397E-02 0.32698E-02 0.14948E-02 0.14235E-02 0.25681E-02 0.16768E-01 0.78207E-02 0.45934E-01 0.42529E-02
 0.14862     0.30270E-02 0.20948E-02 0.32018E-02 0.64625E-03 0.29968E-02 0.22412E-02 0.16311E-02 0.22833E-01 0.11193E-01
 0.99621E-02 0.81503E-02 0.23115E-01 0.10873E-01 0.46669E-01 0.95147E-02 0.11018E-02 0.14917E-03 0.10801E-02 0.34266E-02
 0.40121E-02 0.20363E-02 0.68187E-02 0.45764E-02 0.18044E-01 0.58547     0.29185E-01 0.13114E-02 0.21391E-01 0.65001E-02
 0.17774E-02 0.58073E-03 0.28825E-01 0.12124E-01 0.21514E-01 0.20659E-01 0.43694     0.13287E-01 0.42613E-01 0.33613E-01
 0.12017E-02 0.10651E-02 0.93820E-04 0.10071E-03 0.32338E-03 0.18244E-01 0.13928E-01 0.58368     0.14589E-01 0.49801E-02
 0.56618E-02 0.80934E-02 0.35694E-01 0.19284E-02 0.10910E-02 0.62514E-04 0.15966E-02 0.11233E-01 0.46177E-01 0.54883E-01
 0.32631E-01 0.48891E-02 0.25326E-01 0.18111E-01 0.82824E-02 0.20542     0.35871E-03 0.22093E-03 0.49509E-03 0.83591E-03
 0.15466     0.22164E-02 0.12137E-01 0.47094E-02 0.11158E-01 0.50087     0.86903E-02 0.85795     0.18769E-01 0.14959E-03
 0.21375E-01 0.11124E-02 0.36015E-03 0.83052E-03 0.51666     0.16094E-02 0.90666     0.94629     0.10039E-01 0.58499E-03
 0.64959E-01 0.76485E-01 0.53034E-02 0.76513E-04 0.28832E-03 0.77116E-04 0.62620E-02 0.68799E-02 0.82621     0.12928E-02
 0.15287E-02 0.10916     0.57987E-02 0.32715E-03 0.26140E-02 0.10726E-02 0.24163E-03 0.25455E-03 0.38269E-02 0.24017E-03
 0.15229E-01 0.89762     0.28117E-02 0.17259E-02 0.10983E-02 0.13121E-02 0.32176E-02 0.11131E-02 0.12020E-01 0.35770E-03
 0.33894E-01 0.45073E-03 0.57205E-03 0.22021E-02 0.35652E-02 0.77060E-02 0.24992E-01 0.39001E-02 0.18406     0.70950    
 0.30121E-01 0.60841E-01 0.27923E-01 0.27989E-02 0.13381     0.64411E-02 0.48285E-02 0.32270E-02 0.55910E-02 0.79703E-01
 0.64752E-01 0.55566E-01 0.96370     0.36048E-01 0.76691     0.67915E-01 0.11563E-01 0.88684E-02 0.25965E-02 0.21739    
 0.60106E-02 0.10217E-01 0.80346E-01 0.30782     0.79544E-01 0.19000     0.12485     0.73857E-01 0.11438     0.61640    
 0.23636E-01 0.71790E-03 0.76939E-01 0.12537E-01 0.10286     0.20759E-01 0.15627     0.47307E-01 0.49397     0.50079    
 0.74268     0.11247E-01 0.98510     0.73655E-02 0.68054E-01 0.28335E-02 0.52528E-01 0.41841     0.12179     0.56159    
 0.66801     0.98037E-01 0.85179     0.10706     0.10353E-01 0.23742E-01 0.48365E-03 0.13440E-02 0.22848E-02 0.67935    
 0.83583E-01 0.49646     0.10413     0.11894     0.53510E-01 0.20062     0.98193     0.11622E-01 0.60872E-01 0.30345E-03
 0.24373     0.30071E-01 0.11111     0.98061     0.75188     0.48426E-01 0.64696     0.10318     0.45452E-01 0.90085E-01
 0.19817E-02 0.39193E-02 0.12881E-02 0.38240E-02 0.26948     0.16522E-01 0.64272E-01 0.10480     0.77679E-01 0.54786    
 0.35795E-01 0.94633E-01 0.12170E-01 0.59005E-03 0.30017E-02 0.90137     0.16547E-02 0.17484E-01 0.25012     0.13241E-01
 0.30707     0.32795     0.98660     0.29211E-02 0.94894E-02 0.11213E-01 0.20382E-01 0.34792E-03 0.77958E-02 0.41496E-03
 0.84772E-01 0.57076     0.12943     0.85439E-02 0.49907E-02 0.19180E-01 0.46762E-02 0.13075E-02 0.65005E-02 0.34400E-01
 0.13093E-02 0.50683E-02 0.31491E-02 0.10160E-02 0.13524E-01 0.46486E-01 0.44791E-02 0.31021E-02 0.29281E-02 0.61625E-01
 0.11567E-01 0.78893E-02 0.99823     0.25294E-02 0.70181E-01 0.11576E-01 0.16026E-02 0.39311E-02 0.40335E-02 0.78852E-02
 0.26299E-01 0.17903E-01 0.21711     0.65211     0.14138     0.87468     0.82424E-01 0.13450E-01 0.44502E-01 0.74115E-02
 0.64861E-02 0.53717E-02 0.16188E-01 0.90886     0.18568     0.24022     0.79749     0.20235     0.64103     0.91264    
 0.45799E-01 0.20844E-01 0.82707E-02 0.17182E-01 0.13771E-01 0.43810E-01 0.24002     0.97387     0.37836     0.97850    
 0.43544     0.30116     0.27355     0.45947     0.97139     0.27986E-02 0.55890E-01 0.35097E-01 0.99793     0.14599    
 0.95922     0.34616     0.99812     0.71708     0.87602     0.64681E-01 0.39583     0.15511E-01 0.13992E-01 0.98084E-02
 0.11609     0.92455     0.43357     0.99492     0.84803     0.48273     0.92217     0.29410     0.60939E-01 0.99188    
 0.21138E-02 0.61134E-01 0.11405E-01 0.74520     0.31827     0.71180     0.49487     0.88212     0.32533     0.99949    
 0.58138     0.46725E-01 0.11311     0.13151E-02 0.70334E-01 0.75440E-01 0.27119     0.81069     0.93817     0.30981    
 0.94281     0.35966     0.16368     0.12998     0.80508E-02 0.20722     0.31803E-02 0.12395E-01 0.20623     0.82533E-01
 0.23705     0.93391     0.31751     0.54592     0.10306     0.88994E-01 0.18223E-01 0.19945E-02 0.32601E-02 0.16242E-01
 0.60628E-02 0.83081     0.24642     0.72615E-01 0.37888     0.37396     0.17622     0.10200E-01 0.11286E-01 0.86055E-02
 0.89764E-02 0.14092E-02 0.76357E-01 0.18917E-02 0.36795E-01 0.26829     0.16005     0.38663E-01 0.12636E-01 0.14987E-01
 0.72595E-02 0.42891E-02 0.13906E-01 0.27100     0.53127E-02 0.70575     0.56862E-02 0.34992E-02 0.20781E-01 0.44020E-01
 0.62749E-02 0.54409E-02 0.68347E-02 0.15850     0.33855E-01 0.36889E-01 0.29970     0.12324E-01 0.39324E-01 0.19047    
 0.37875E-02 0.58525E-02 0.59175E-02 0.11182E-01 0.36208E-01 0.54178E-01 0.30243     0.56915     0.38304     0.80694    
 0.18538     0.43550E-01 0.46943E-01 0.10926E-01 0.10144E-01 0.91588E-02 0.33003E-01 0.40882     0.37869     0.53360    
 0.78284     0.54104     0.71071     0.79442     0.12020     0.37080E-01 0.19309E-01 0.19068E-01 0.25993E-01 0.12141    
 0.46808     0.83644     0.70668     0.92966     0.72077     0.61339     0.48199     0.33879     0.32722     0.83802E-02
 0.40358E-01 0.74746E-01 0.73603     0.48670     0.93418     0.72766     0.91838     0.82105     0.80795     0.23409    
 0.39056     0.30853E-01 0.19642E-01 0.25862E-01 0.22048     0.78209     0.72385     0.91483     0.87439     0.77736    
 0.86614     0.54526     0.22685     0.31170     0.69927E-02 0.22372     0.38928E-01 0.63066     0.62112     0.81934    
 0.78195     0.96019     0.69288     0.87634     0.60040     0.12292     0.57271E-01 0.44091E-02 0.50228E-01 0.14711    
 0.48088     0.79507     0.86818     0.68558     0.86517     0.64977     0.36890     0.19302     0.20805E-01 0.25693E-01
 0.66950E-02 0.26711E-01 0.24098     0.26209     0.51475     0.90956     0.62685     0.66316     0.21724     0.11996    
 0.28968E-01 0.51142E-02 0.51488E-02 0.13804E-01 0.15860E-01 0.34972     0.32796     0.24867     0.52938     0.49630    
 0.15455     0.26185E-01 0.19619E-01 0.13301E-01 0.11053E-01 0.41500E-02 0.28964E-01 0.64722E-02 0.46788E-01 0.19054    
 0.22269     0.11210     0.25403E-01 0.22522E-01 0.14357E-01 0.11550E-01 0.25811E-01 0.80497E-01 0.14876E-01 0.72480E-01
 0.12351E-01 0.96186E-02 0.32950E-01 0.53473E-01 0.99682E-02 0.10610E-01 0.15058E-01 0.81935E-01 0.74556E-01 0.10891    
 0.25845     0.40901E-01 0.52866E-01 0.56561E-01 0.85174E-02 0.95192E-02 0.10222E-01 0.17167E-01 0.53969E-01 0.12648    
 0.42762     0.63266     0.59658     0.72232     0.34090     0.10856     0.63621E-01 0.17074E-01 0.16290E-01 0.15411E-01
 0.56851E-01 0.39242     0.56628     0.72563     0.83301     0.75855     0.78549     0.72653     0.23531     0.60020E-01
 0.37386E-01 0.25493E-01 0.44980E-01 0.24372     0.64227     0.85119     0.85481     0.92190     0.85578     0.78791    
 0.64772     0.37969     0.28729     0.18674E-01 0.48174E-01 0.14262     0.70882     0.74386     0.92327     0.89148    
 0.93501     0.89414     0.84554     0.47328     0.47932     0.59097E-01 0.28716E-01 0.58214E-01 0.36948     0.80159    
 0.85838     0.93384     0.93193     0.90240     0.89647     0.72171     0.46316     0.28031     0.17442E-01 0.92179E-01
 0.10236     0.67163     0.78469     0.89307     0.90366     0.94583     0.86130     0.86310     0.67778     0.23871    
 0.69789E-01 0.11690E-01 0.67415E-01 0.24963     0.63765     0.83988     0.89561     0.86107     0.89405     0.79742    
 0.55864     0.28606     0.46575E-01 0.30918E-01 0.15439E-01 0.53544E-01 0.31869     0.48598     0.71428     0.87537    
 0.79354     0.76403     0.37441     0.18591     0.50687E-01 0.13033E-01 0.12357E-01 0.22766E-01 0.36076E-01 0.29070    
 0.44639     0.48513     0.66621     0.62046     0.20620     0.57163E-01 0.33062E-01 0.22959E-01 0.20441E-01 0.11510E-01
 0.33904E-01 0.16598E-01 0.74089E-01 0.23509     0.31327     0.23287     0.45162E-01 0.34095E-01 0.24297E-01 0.24805E-01
 0.48249E-01 0.87036E-01 0.35416E-01 0.63630E-01 0.22102E-01 0.20321E-01 0.52021E-01 0.72329E-01 0.16123E-01 0.18128E-01
 0.27588E-01 0.99329E-01 0.14748     0.22802     0.31737     0.10538     0.85829E-01 0.55415E-01 0.15590E-01 0.15646E-01
 0.15587E-01 0.24817E-01 0.82649E-01 0.23635     0.55505     0.71361     0.72245     0.75562     0.49922     0.21167    
 0.93383E-01 0.24820E-01 0.24070E-01 0.23296E-01 0.93561E-01 0.45613     0.68523     0.81715     0.87549     0.85107    
 0.83931     0.75410     0.36066     0.96325E-01 0.64840E-01 0.32396E-01 0.73718E-01 0.37574     0.73444     0.88018    
 0.90830     0.93472     0.90723     0.86014     0.73705     0.46034     0.36413     0.33624E-01 0.64746E-01 0.23976    
 0.75070     0.84455     0.93450     0.93584     0.94819     0.92524     0.88013     0.63502     0.58974     0.10892    
 0.40845E-01 0.11520     0.51835     0.84271     0.90877     0.94762     0.95102     0.93880     0.92116     0.81143    
 0.63312     0.37043     0.35150E-01 0.96955E-01 0.20920     0.74138     0.85862     0.92612     0.93905     0.95112    
 0.91635     0.88825     0.75226     0.37945     0.10812     0.23993E-01 0.10828     0.37977     0.73843     0.87962    
 0.92031     0.91627     0.91951     0.86509     0.68708     0.40837     0.96944E-01 0.44435E-01 0.30659E-01 0.10425    
 0.43512     0.64435     0.81138     0.88922     0.86230     0.82823     0.52658     0.29386     0.90922E-01 0.27417E-01
 0.24010E-01 0.37692E-01 0.73909E-01 0.37220     0.56902     0.64363     0.74601     0.70827     0.29927     0.11149    
 0.53942E-01 0.36235E-01 0.35714E-01 0.25440E-01 0.44980E-01 0.34493E-01 0.12526     0.32930     0.41288     0.36486    
 0.74998E-01 0.50272E-01 0.36986E-01 0.46073E-01 0.88717E-01 0.13314     0.74505E-01 0.80169E-01 0.34800E-01 0.35823E-01
 0.82010E-01 0.10690     0.23949E-01 0.25961E-01 0.44752E-01 0.14906     0.26278     0.37412     0.42669     0.21459    
 0.14416     0.68118E-01 0.23292E-01 0.23377E-01 0.20651E-01 0.34328E-01 0.12275     0.35129     0.65033     0.77435    
 0.79379     0.79988     0.60681     0.32257     0.13774     0.34401E-01 0.33323E-01 0.33027E-01 0.14205     0.52615    
 0.74736     0.85281     0.88987     0.87998     0.86440     0.78438     0.45736     0.14629     0.10246     0.42158E-01
 0.11417     0.47685     0.77840     0.88437     0.91188     0.92650     0.91000     0.87657     0.77989     0.53518    
 0.47343     0.52817E-01 0.96185E-01 0.33545     0.78745     0.86859     0.92361     0.92684     0.93378     0.91830    
 0.88733     0.71116     0.66727     0.18623     0.58296E-01 0.20403     0.61436     0.86629     0.91061     0.93348    
 0.93369     0.92906     0.91670     0.84991     0.72741     0.49068     0.62996E-01 0.13490     0.33292     0.79551    
 0.88267     0.92222     0.92890     0.93475     0.91753     0.89850     0.80765     0.50537     0.18094     0.45362E-01
 0.18467     0.49721     0.80286     0.89349     0.91670     0.91461     0.91684     0.88569     0.76467     0.52733    
 0.18288     0.76850E-01 0.62202E-01 0.18990     0.55118     0.73252     0.84994     0.89020     0.87731     0.85587    
 0.63450     0.41385     0.15762     0.57379E-01 0.49056E-01 0.69700E-01 0.13716     0.49121     0.65741     0.72157    
 0.78457     0.75960     0.39861     0.18615     0.88884E-01 0.61408E-01 0.68116E-01 0.54658E-01 0.70550E-01 0.62463E-01
 0.20112     0.43533     0.49557     0.46894     0.11536     0.74997E-01 0.57288E-01 0.80776E-01 0.15517     0.21680    
 0.14087     0.12067     0.53466E-01 0.57316E-01 0.12465     0.15600     0.33605E-01 0.35824E-01 0.69699E-01 0.22045    
 0.39063     0.50987     0.53823     0.33782     0.23039     0.94231E-01 0.32658E-01 0.32639E-01 0.27044E-01 0.46989E-01
 0.16662     0.43307     0.69953     0.80078     0.82435     0.81641     0.65340     0.41684     0.19067     0.46698E-01
 0.44966E-01 0.46316E-01 0.19093     0.57623     0.76587     0.84984     0.87433     0.87061     0.85955     0.78699    
 0.51119     0.20264     0.15007     0.54218E-01 0.16533     0.52900     0.78847     0.85629     0.87001     0.87312    
 0.86650     0.85340     0.79128     0.57144     0.55358     0.76914E-01 0.13443     0.41470     0.79237     0.84849    
 0.86201     0.83143     0.83947     0.85714     0.86121     0.73584     0.68927     0.29011     0.78903E-01 0.31277    
 0.65272     0.86185     0.86659     0.83934     0.80133     0.83539     0.87058     0.85208     0.77120     0.56593    
 0.10715     0.17940     0.45015     0.81108     0.87203     0.86923     0.83503     0.83891     0.86639     0.88205    
 0.83263     0.58384     0.27428     0.77878E-01 0.27881     0.57313     0.83290     0.87852     0.87134     0.85472    
 0.87360     0.87181     0.79633     0.61159     0.27579     0.12693     0.10809     0.29061     0.61674     0.77083    
 0.85056     0.86275     0.85238     0.85078     0.68871     0.50408     0.23554     0.10381     0.87210E-01 0.11637    
 0.22137     0.58204     0.68833     0.74774     0.79099     0.77471     0.47031     0.26000     0.13873     0.10250    
 0.11671     0.10122     0.10842     0.10182     0.29743     0.50701     0.54389     0.53349     0.15854     0.10754    
 0.88630E-01 0.12976     0.23315     0.30506     0.22770     0.17668     0.76714E-01 0.86155E-01 0.17550     0.20726    
 0.46423E-01 0.49858E-01 0.10176     0.29130     0.48656     0.60186     0.60850     0.44155     0.33039     0.12464    
 0.44611E-01 0.45097E-01 0.36599E-01 0.62788E-01 0.20252     0.47604     0.72188     0.81526     0.84124     0.81936    
 0.67569     0.49415     0.23002     0.60724E-01 0.59601E-01 0.62346E-01 0.22723     0.59633     0.76326     0.83337    
 0.84953     0.85043     0.84344     0.76911     0.53569     0.24830     0.20161     0.67226E-01 0.21516     0.54170    
 0.77941     0.81159     0.79008     0.76500     0.78439     0.81217     0.78416     0.56712     0.56984     0.11185    
 0.15958     0.48408     0.77556     0.80915     0.73239     0.56282     0.57100     0.72831     0.81651     0.74315    
 0.68851     0.39606     0.10602     0.39704     0.67340     0.84588     0.78438     0.57097     0.37988     0.56869    
 0.78631     0.84088     0.80027     0.59306     0.18047     0.21772     0.56158     0.81044     0.85110     0.76143    
 0.56845     0.56753     0.76088     0.85581     0.84627     0.64358     0.37111     0.13068     0.36749     0.64029    
 0.84957     0.85369     0.78739     0.72738     0.79273     0.84771     0.81037     0.67680     0.36684     0.20815    
 0.17471     0.39706     0.65447     0.79677     0.83855     0.81810     0.80824     0.83526     0.71344     0.56911    
 0.32259     0.17398     0.15218     0.18892     0.32827     0.62454     0.69046     0.75407     0.77971     0.76951    
 0.50922     0.32126     0.20235     0.16588     0.19108     0.17113     0.16164     0.16239     0.39920     0.52207    
 0.55997     0.56175     0.19344     0.14356     0.13068     0.19158     0.31923     0.40016     0.33032     0.23014    
 0.10477     0.12756     0.21942     0.24171     0.62215E-01 0.67962E-01 0.13665     0.35189     0.55529     0.66529    
 0.65904     0.53621     0.41146     0.14533     0.60082E-01 0.61698E-01 0.50562E-01 0.80982E-01 0.22539     0.48919    
 0.73205     0.82834     0.85433     0.82040     0.69598     0.54274     0.24034     0.76411E-01 0.77669E-01 0.78967E-01
 0.24444     0.59091     0.76029     0.83182     0.85004     0.85461     0.84181     0.75188     0.54605     0.26563    
 0.23900     0.84100E-01 0.24524     0.53171     0.76975     0.79585     0.76462     0.72689     0.75808     0.79895    
 0.77409     0.54426     0.53891     0.15780     0.16962     0.53553     0.75896     0.79670     0.67651     0.44833    
 0.45295     0.67473     0.79836     0.75427     0.69164     0.44110     0.13861     0.41194     0.69585     0.84437    
 0.75828     0.45275     0.22665     0.45315     0.75786     0.84257     0.82491     0.57803     0.24522     0.23139    
 0.61912     0.80924     0.85443     0.72536     0.45321     0.44765     0.72763     0.85338     0.85671     0.67114    
 0.38755     0.17294     0.37703     0.67922     0.86085     0.85261     0.75868     0.67633     0.76531     0.84888    
 0.82024     0.69942     0.39112     0.24256     0.20638     0.42074     0.66152     0.82214     0.84028     0.79972    
 0.79202     0.83654     0.72485     0.59269     0.35640     0.20732     0.18672     0.22473     0.37407     0.60819    
 0.69195     0.76296     0.76788     0.76392     0.52344     0.35556     0.24166     0.20218     0.22442     0.20305    
 0.19158     0.22060     0.44944     0.49785     0.55889     0.56048     0.21535     0.17610     0.16643     0.22977    
 0.35138     0.42823     0.36838     0.24338     0.13491     0.17884     0.23826     0.25302     0.79868E-01 0.89106E-01
 0.16734     0.38818     0.58133     0.68219     0.67639     0.59247     0.43169     0.15732     0.82118E-01 0.81425E-01
 0.72149E-01 0.10296     0.23238     0.45523     0.69919     0.80977     0.83614     0.79100     0.67856     0.52097    
 0.23013     0.97076E-01 0.10027     0.97963E-01 0.24333     0.55938     0.74178     0.82922     0.86045     0.86713    
 0.83890     0.72572     0.53034     0.25680     0.24426     0.10594     0.24711     0.49558     0.75205     0.80718    
 0.80662     0.78798     0.80167     0.81042     0.75236     0.50916     0.47456     0.18241     0.16503     0.52833    
 0.73182     0.80704     0.74407     0.62642     0.62651     0.74445     0.80549     0.74917     0.66714     0.37324    
 0.14709     0.33808     0.68068     0.84311     0.80186     0.62590     0.46917     0.62940     0.79949     0.84166    
 0.81158     0.49260     0.22141     0.20069     0.54824     0.77884     0.86612     0.78929     0.62961     0.62008    
 0.79327     0.86027     0.83688     0.61338     0.31490     0.17620     0.30869     0.62775     0.84026     0.86008    
 0.80019     0.74820     0.80570     0.85957     0.79604     0.62955     0.34141     0.24064     0.21532     0.35604    
 0.59563     0.81320     0.83874     0.80648     0.80137     0.83851     0.69172     0.52150     0.30698     0.21461    
 0.21647     0.23117     0.31503     0.50831     0.66557     0.75589     0.74649     0.74469     0.49527     0.32051    
 0.21083     0.19137     0.22806     0.21051     0.18567     0.20898     0.38465     0.44334     0.53822     0.52386    
 0.22092     0.18523     0.15964     0.20083     0.30190     0.37060     0.30968     0.20089     0.14150     0.20093    
 0.23021     0.24997     0.10078     0.10997     0.17473     0.35388     0.51211     0.60824     0.61170     0.53662    
 0.35941     0.15891     0.10895     0.10348     0.11246     0.13793     0.22342     0.35001     0.56208     0.69715    
 0.72853     0.66942     0.55228     0.40286     0.21405     0.13098     0.13440     0.12866     0.23632     0.49659    
 0.65738     0.76808     0.82626     0.83381     0.78069     0.64552     0.46550     0.24493     0.22572     0.13008    
 0.23015     0.41888     0.69053     0.78765     0.81335     0.81083     0.81165     0.78641     0.68338     0.44601    
 0.36698     0.15709     0.14151     0.42771     0.64587     0.77791     0.78044     0.75183     0.74657     0.78159    
 0.77868     0.67444     0.54336     0.23711     0.11595     0.21549     0.55694     0.79162     0.81047     0.74546    
 0.68827     0.75189     0.80757     0.78444     0.69535     0.34854     0.15872     0.15397     0.37426     0.65538    
 0.83274     0.81540     0.75209     0.74077     0.82026     0.82157     0.73006     0.47886     0.24861     0.16301    
 0.24806     0.49134     0.73076     0.82062     0.80906     0.78635     0.81256     0.82402     0.67382     0.48541    
 0.29268     0.22979     0.21305     0.29862     0.46599     0.70451     0.77729     0.78168     0.77433     0.78772    
 0.55345     0.36597     0.24876     0.21172     0.22515     0.22457     0.24799     0.35253     0.54298     0.67886    
 0.67882     0.66349     0.39579     0.21678     0.15520     0.17205     0.22105     0.20935     0.17106     0.15515    
 0.24418     0.34472     0.47965     0.44426     0.21019     0.15915     0.11715     0.14822     0.24520     0.31214    
 0.24519     0.14913     0.11237     0.16813     0.21071     0.24662     0.13357     0.12882     0.14849     0.24344    
 0.35941     0.46572     0.47708     0.37695     0.23027     0.14110     0.13291     0.13638     0.19428     0.21000    
 0.22068     0.22912     0.35402     0.47356     0.50581     0.44798     0.34468     0.26458     0.21402     0.19724    
 0.20115     0.18932     0.25430     0.42382     0.47364     0.56916     0.65841     0.66172     0.58900     0.48041    
 0.37564     0.25983     0.21956     0.16861     0.22287     0.32381     0.56989     0.67565     0.70487     0.71549    
 0.71133     0.66127     0.54725     0.36507     0.25119     0.13282     0.12793     0.29477     0.46536     0.64089    
 0.70911     0.71524     0.70328     0.70644     0.65279     0.49989     0.34079     0.15732     0.10128     0.14409    
 0.35509     0.61215     0.70267     0.70161     0.68362     0.71191     0.70506     0.59241     0.46509     0.22944    
 0.11524     0.11618     0.23467     0.43398     0.66643     0.72439     0.71230     0.69710     0.73150     0.64527    
 0.51062     0.32485     0.14960     0.91194E-01 0.15146     0.33217     0.50633     0.64308     0.70882     0.71154    
 0.70931     0.65040     0.44615     0.32716     0.17052     0.10339     0.96058E-01 0.17304     0.31824     0.47818    
 0.57532     0.66592     0.64069     0.60712     0.34622     0.23608     0.15075     0.95584E-01 0.92143E-01 0.10062    
 0.14880     0.23023     0.34418     0.49719     0.54878     0.48595     0.27183     0.14704     0.11486     0.95763E-01
 0.98823E-01 0.95380E-01 0.96195E-01 0.11301     0.16086     0.23531     0.39918     0.35005     0.20513     0.14101    
 0.10024     0.10980     0.14988     0.18028     0.14642     0.11244     0.99577E-01 0.14154     0.20476     0.27042    
 0.19957     0.15902     0.13011     0.16678     0.23117     0.31325     0.32573     0.24119     0.15366     0.12836    
 0.16597     0.20308     0.32293     0.33641     0.25312     0.18507     0.23443     0.26878     0.27429     0.25614    
 0.22087     0.21343     0.25931     0.30878     0.31372     0.28912     0.34020     0.39437     0.28895     0.31156    
 0.36088     0.35320     0.32646     0.31662     0.33141     0.32837     0.26140     0.24484     0.25207     0.27708    
 0.45300     0.45702     0.42732     0.44069     0.44776     0.43555     0.39892     0.32607     0.20879     0.16124    
 0.16693     0.24125     0.28357     0.41325     0.49876     0.49506     0.48063     0.48153     0.43020     0.32497    
 0.21929     0.15406     0.12669     0.14251     0.23743     0.34382     0.42555     0.48095     0.48419     0.49035    
 0.44218     0.32804     0.26245     0.14937     0.82996E-01 0.83979E-01 0.14779     0.24846     0.36764     0.44529    
 0.49205     0.47483     0.45585     0.34407     0.27947     0.15959     0.48572E-01 0.22148E-01 0.49990E-01 0.16153    
 0.27313     0.34560     0.44459     0.48732     0.44155     0.35000     0.25168     0.15952     0.40576E-01 0.94430E-02
 0.85362E-02 0.41174E-01 0.15700     0.27143     0.30969     0.45599     0.40847     0.34517     0.22779     0.15127    
 0.49190E-01 0.85298E-02 0.49385E-02 0.89200E-02 0.48822E-01 0.14883     0.22637     0.31002     0.41981     0.30371    
 0.22132     0.14552     0.83134E-01 0.23274E-01 0.86866E-02 0.87076E-02 0.23438E-01 0.80922E-01 0.15593     0.19698    
 0.35628     0.30883     0.23804     0.17995     0.12421     0.79668E-01 0.49809E-01 0.42495E-01 0.47222E-01 0.82376E-01
 0.12611     0.17442     0.23879     0.35825     0.31547     0.21796     0.16735     0.16307     0.14701     0.15389    
 0.16116     0.15379     0.15086     0.16206     0.23476     0.31290     0.43354     0.45163     0.29810     0.21346    
 0.21529     0.17146     0.15357     0.16907     0.19471     0.23691     0.33240     0.41530     0.41562     0.38697    
 0.48540     0.40856     0.20735     0.18549     0.17800     0.16874     0.18834     0.24891     0.35431     0.42508    
 0.33461     0.32464     0.29622     0.31162     0.41014     0.26358     0.19511     0.19308     0.21196     0.25996    
 0.31979     0.35201     0.23481     0.22385     0.24521     0.25465     0.20486     0.25801     0.26747     0.22283    
 0.22087     0.24624     0.25875     0.25125     0.19421     0.19096     0.17350     0.18216     0.21744     0.18968    
 0.19467     0.22456     0.22017     0.22393     0.21005     0.18904     0.17002     0.12168     0.78301E-01 0.77991E-01
 0.11748     0.16762     0.18081     0.18832     0.22578     0.21860     0.19578     0.16737     0.15691     0.82365E-01
 0.18287E-01 0.64209E-02 0.19379E-01 0.81911E-01 0.15201     0.17222     0.20695     0.25345     0.20500     0.17187    
 0.16546     0.81581E-01 0.85986E-02 0.27657E-03 0.21985E-03 0.87072E-02 0.81474E-01 0.17412     0.17822     0.27816    
 0.24315     0.19745     0.20707     0.12117     0.18784E-01 0.22375E-03 0.11469E-04 0.22901E-03 0.18822E-01 0.12012    
 0.20598     0.22581     0.36628     0.22307     0.23479     0.18562     0.77974E-01 0.67164E-02 0.21702E-03 0.25770E-03
 0.67339E-02 0.76112E-01 0.18985     0.23033     0.36141     0.35191     0.30181     0.25188     0.16945     0.75673E-01
 0.19409E-01 0.87404E-02 0.17916E-01 0.77888E-01 0.17536     0.24266     0.30124     0.47524     0.43023     0.28142    
 0.24771     0.19688     0.11739     0.80382E-01 0.83397E-01 0.12299     0.18856     0.22629     0.31511     0.40617    
 0.44961     0.45482     0.29179     0.24073     0.21742     0.15691     0.14157     0.16188     0.19403     0.24350    
 0.34394     0.43462     0.42644     0.41470     0.53562     0.36348     0.19962     0.18288     0.15781     0.14823    
 0.17465     0.24513     0.36145     0.44030     0.34816     0.32873     0.29310     0.36696     0.40472     0.22101    
 0.17138     0.16853     0.18370     0.23718     0.31160     0.36224     0.24276     0.23754     0.26449     0.23814    
 0.20116     0.25831     0.23303     0.18567     0.19113     0.21611     0.23826     0.24363     0.19450     0.19729    
 0.18051     0.19828     0.21636     0.16445     0.17189     0.19701     0.18829     0.19066     0.18338     0.17522    
 0.15988     0.12101     0.79840E-01 0.77284E-01 0.11527     0.16536     0.15827     0.15895     0.19225     0.19066    
 0.16523     0.15012     0.14379     0.75357E-01 0.16103E-01 0.58122E-02 0.17503E-01 0.73485E-01 0.13972     0.15778    
 0.17674     0.22489     0.17624     0.15460     0.15945     0.74015E-01 0.70625E-02 0.14642E-03 0.11349E-03 0.70780E-02
 0.75087E-01 0.16014     0.17084     0.24482     0.23337     0.17616     0.20768     0.11849     0.16876E-01 0.11932E-03
 0.64949E-05 0.11878E-03 0.16904E-01 0.11886     0.20843     0.21457     0.36642     0.21630     0.22714     0.20053    
 0.78362E-01 0.58572E-02 0.11459E-03 0.15394E-03 0.58005E-02 0.77855E-01 0.19245     0.25362     0.33626     0.39467    
 0.32693     0.25471     0.17743     0.78209E-01 0.17417E-01 0.68045E-02 0.16314E-01 0.78878E-01 0.18545     0.25013    
 0.32214     0.47669     0.44967     0.29512     0.27138     0.19540     0.11579     0.75033E-01 0.75985E-01 0.12001    
 0.19742     0.23746     0.33071     0.41113     0.36061     0.34697     0.23971     0.23050     0.22317     0.21536    
 0.23215     0.22963     0.20585     0.21189     0.27877     0.34905     0.33938     0.34611     0.42071     0.29620    
 0.25903     0.29928     0.28881     0.27574     0.27644     0.29547     0.32974     0.35274     0.28025     0.25544    
 0.24113     0.37616     0.42183     0.33926     0.35618     0.37303     0.36446     0.37286     0.36879     0.33410    
 0.21418     0.18064     0.19851     0.19373     0.26365     0.41503     0.42022     0.38888     0.40613     0.40825    
 0.37709     0.28909     0.20716     0.15898     0.13612     0.16766     0.22051     0.25297     0.35820     0.41509    
 0.40078     0.39933     0.36748     0.27634     0.22352     0.14077     0.79806E-01 0.76181E-01 0.13441     0.23904    
 0.28641     0.35217     0.40144     0.40861     0.35838     0.28378     0.23320     0.12944     0.34165E-01 0.15424E-01
 0.36354E-01 0.12484     0.22943     0.29720     0.35489     0.41682     0.35596     0.28917     0.22820     0.12671    
 0.26428E-01 0.34575E-02 0.33747E-02 0.26271E-01 0.13005     0.21905     0.28062     0.37075     0.38359     0.26983    
 0.21618     0.13664     0.35490E-01 0.34650E-02 0.13710E-02 0.33355E-02 0.35675E-01 0.13842     0.21791     0.26560    
 0.40754     0.27108     0.19432     0.16759     0.77914E-01 0.15035E-01 0.33301E-02 0.37506E-02 0.14843E-01 0.78589E-01
 0.15372     0.23324     0.29447     0.37347     0.28100     0.18148     0.13540     0.79630E-01 0.36387E-01 0.24888E-01
 0.35161E-01 0.79055E-01 0.14092     0.18130     0.27676     0.35894     0.35513     0.24595     0.20325     0.15252    
 0.13520     0.13140     0.12983     0.13729     0.16089     0.18040     0.26224     0.32852     0.22753     0.22010    