 vasp.5.4.4.18Apr17-6-g9f103f2a35 (build Jun 30 2017 11:15:00) complex          
  
 executed on    STALLO_VASP_5.4.4 date 2019.11.08  11:45:40
 running on    4 total cores
 distrk:  each k-point on    4 cores,    1 groups
 distr:  one band on NCORES_PER_BAND=   2 cores,    2 groups


--------------------------------------------------------------------------------------------------------


 INCAR:
 POTCAR:   PAW_PBE Mo 08Apr2002                   
 POTCAR:    PAW_PBE S 17Jan2003                   
 POTCAR:   PAW_PBE Mo 08Apr2002                   
   VRHFIN =Mo: 4p5s4d                                                           
   LEXCH  = PE                                                                  
   EATOM  =   217.5180 eV,   15.9871 Ry                                         
                                                                                
   TITEL  = PAW_PBE Mo 08Apr2002                                                
   LULTRA =        F    use ultrasoft PP ?                                      
   IUNSCR =        1    unscreen: 0-lin 1-nonlin 2-no                           
   RPACOR =    2.200    partial core radius                                     
   POMASS =   95.940; ZVAL   =    6.000    mass and valenz                      
   RCORE  =    2.750    outmost cutoff radius                                   
   RWIGS  =    2.750; RWIGS  =    1.455    wigner-seitz radius (au A)           
   ENMAX  =  224.584; ENMIN  =  168.438 eV                                      
   RCLOC  =    2.111    cutoff for local pot                                    
   LCOR   =        T    correct aug charges                                     
   LPAW   =        T    paw PP                                                  
   EAUG   =  345.278                                                            
   DEXC   =    -.088                                                            
   RMAX   =    3.077    core radius for proj-oper                               
   RAUG   =    1.300    factor for augmentation sphere                          
   RDEP   =    2.815    radius for radial grids                                 
   QCUT   =   -4.063; QGAM   =    8.126    optimization parameters              
                                                                                
   Description                                                                  
     l     E      TYP  RCUT    TYP  RCUT                                        
     2   .000     23  2.500                                                     
     2   .000     23  2.500                                                     
     0   .000     23  2.600                                                     
     0  1.000     23  2.600                                                     
     1   .400     23  2.750                                                     
     1  2.000     23  2.750                                                     
     3   .000      7   .000                                                     
  local pseudopotential read in
  partial core-charges read in
  atomic valenz-charges read in
  non local Contribution for L=           2  read in
    real space projection operators read in
  non local Contribution for L=           2  read in
    real space projection operators read in
  non local Contribution for L=           0  read in
    real space projection operators read in
  non local Contribution for L=           0  read in
    real space projection operators read in
  non local Contribution for L=           1  read in
    real space projection operators read in
  non local Contribution for L=           1  read in
    real space projection operators read in
    PAW grid and wavefunctions read in
 
   number of l-projection  operators is LMAX  =           6
   number of lm-projection operators is LMMAX =          18
 
 POTCAR:    PAW_PBE S 17Jan2003                   
   VRHFIN =S : s2p4                                                             
   LEXCH  = PE                                                                  
   EATOM  =   276.8230 eV,   20.3459 Ry                                         
                                                                                
   TITEL  = PAW_PBE S 17Jan2003                                                 
   LULTRA =        F    use ultrasoft PP ?                                      
   IUNSCR =        1    unscreen: 0-lin 1-nonlin 2-no                           
   RPACOR =    1.500    partial core radius                                     
   POMASS =   32.066; ZVAL   =    6.000    mass and valenz                      
   RCORE  =    1.900    outmost cutoff radius                                   
   RWIGS  =    2.200; RWIGS  =    1.164    wigner-seitz radius (au A)           
   ENMAX  =  280.000; ENMIN  =  194.016 eV                                      
   ICORE  =        2    local potential                                         
   LCOR   =        T    correct aug charges                                     
   LPAW   =        T    paw PP                                                  
   EAUG   =  335.092                                                            
   DEXC   =     .000                                                            
   RMAX   =    2.867    core radius for proj-oper                               
   RAUG   =    1.300    factor for augmentation sphere                          
   RDEP   =    1.954    radius for radial grids                                 
   QCUT   =   -4.360; QGAM   =    8.721    optimization parameters              
                                                                                
   Description                                                                  
     l     E      TYP  RCUT    TYP  RCUT                                        
     0   .000     23  1.900                                                     
     0   .000     23  1.900                                                     
     1   .000     23  1.900                                                     
     1   .000     23  1.900                                                     
     2   .000     23  1.900                                                     
  local pseudopotential read in
  partial core-charges read in
  atomic valenz-charges read in
  non local Contribution for L=           0  read in
    real space projection operators read in
  non local Contribution for L=           0  read in
    real space projection operators read in
  non local Contribution for L=           1  read in
    real space projection operators read in
  non local Contribution for L=           1  read in
    real space projection operators read in
    PAW grid and wavefunctions read in
 
   number of l-projection  operators is LMAX  =           4
   number of lm-projection operators is LMMAX =           8
 

 ----------------------------------------------------------------------------- 
|                                                                             |
|  ADVICE TO THIS USER RUNNING 'VASP/VAMP'   (HEAR YOUR MASTER'S VOICE ...):  |
|                                                                             |
|      You have a (more or less) 'small supercell' and for smaller cells      |
|      it is recommended  to use the reciprocal-space projection scheme!      |
|      The real space optimization is not  efficient for small cells and it   |
|      is also less accurate ...                                              |
|      Therefore set LREAL=.FALSE. in the  INCAR file                         |
|                                                                             |
 ----------------------------------------------------------------------------- 

 Optimization of the real space projectors (new method)

 maximal supplied QI-value         = 13.61
 optimisation between [QCUT,QGAM] = [  8.03, 16.19] = [ 18.05, 73.41] Ry 
 Optimized for a Real-space Cutoff    1.97 Angstroem

   l    n(q)    QCUT    max X(q) W(low)/X(q) W(high)/X(q)  e(spline) 
   2      9     8.028     3.671    0.48E-05    0.25E-04    0.70E-07
   2      9     8.028    25.193    0.26E-03    0.70E-03    0.27E-06
   0     10     8.028    26.379    0.19E-04    0.25E-05    0.73E-08
   0     10     8.028    49.709    0.28E-04    0.49E-04    0.74E-07
   1      9     8.028     7.852    0.15E-04    0.15E-05    0.29E-07
   1      9     8.028    10.693    0.92E-04    0.27E-04    0.86E-07
 Optimization of the real space projectors (new method)

 maximal supplied QI-value         = 19.84
 optimisation between [QCUT,QGAM] = [  7.94, 16.07] = [ 17.64, 72.34] Ry 
 Optimized for a Real-space Cutoff    1.55 Angstroem

   l    n(q)    QCUT    max X(q) W(low)/X(q) W(high)/X(q)  e(spline) 
   0      7     7.937     5.487    0.27E-04    0.20E-04    0.12E-07
   0      7     7.937    85.627    0.10E-03    0.36E-03    0.16E-06
   1      7     7.937     3.530    0.15E-04    0.55E-04    0.56E-07
   1      7     7.937    42.714    0.49E-03    0.85E-03    0.12E-06
 PAW_PBE Mo 08Apr2002                   :
 energy of atom  1       EATOM= -217.5180
 kinetic energy error for atom=    0.0235 (will be added to EATOM!!)
  PAW_PBE S 17Jan2003                   :
 energy of atom  2       EATOM= -276.8230
 kinetic energy error for atom=    0.0359 (will be added to EATOM!!)
 
 
 POSCAR: MoS2_mp-2815_computed                   
  positions in cartesian coordinates
  velocities in cartesian coordinates
  No initial velocities read in
 exchange correlation table for  LEXCH =        8
   RHO(1)=    0.500       N(1)  =     2000
   RHO(2)=  100.500       N(2)  =     4000
 


--------------------------------------------------------------------------------------------------------


 ion  position               nearest neighbor table
   1  0.333  0.667  0.163-   3 2.42   2 2.42   2 2.42   3 2.42   3 2.42   2 2.42
   2  0.667  0.333  0.094-   1 2.42   1 2.42   1 2.42
   3  0.667  0.333  0.231-   1 2.42   1 2.42   1 2.42
 
  LATTYP: Found a hexagonal cell.
 ALAT       =     3.1903157300
 C/A-ratio  =     7.1713918735
  
  Lattice vectors:
  
 A1 = (   3.1903157300,   0.0000000000,   0.0000000000)
 A2 = (  -1.5951578650,   2.7628944683,   0.0000000000)
 A3 = (   0.0000000000,   0.0000000000,  22.8790043000)


Analysis of symmetry for initial positions (statically):
=====================================================================
 Subroutine PRICEL returns:
 Original cell was already a primitive cell.
 

 Routine SETGRP: Setting up the symmetry group for a 
 hexagonal supercell.


 Subroutine GETGRP returns: Found 12 space group operations
 (whereof  6 operations were pure point group operations)
 out of a pool of 24 trial point group operations.


The static configuration has the point symmetry C_3v.
 The point group associated with its full space group is D_3h.


Analysis of symmetry for dynamics (positions and initial velocities):
=====================================================================
 Subroutine PRICEL returns:
 Original cell was already a primitive cell.
 

 Routine SETGRP: Setting up the symmetry group for a 
 hexagonal supercell.


 Subroutine GETGRP returns: Found 12 space group operations
 (whereof  6 operations were pure point group operations)
 out of a pool of 24 trial point group operations.


The dynamic configuration has the point symmetry C_3v.
 The point group associated with its full space group is D_3h.


 Subroutine INISYM returns: Found 12 space group operations
 (whereof  6 operations are pure point group operations),
 and found     1 'primitive' translations

 
 
 KPOINTS: k-density: 4.0                          

Automatic generation of k-mesh.
Space group operators:
 irot       det(A)        alpha          n_x          n_y          n_z        tau_x        tau_y        tau_z
    1     1.000000     0.000000     1.000000     0.000000     0.000000     0.000000     0.000000     0.000000
    2     1.000000   120.000000     0.000000     0.000000    -1.000000     0.000000     0.000000     0.000000
    3     1.000000   120.000000     0.000000     0.000000     1.000000     0.000000     0.000000     0.000000
    4    -1.000000   180.000000     1.000000    -0.000000     0.000000     0.000000     0.000000     0.000000
    5    -1.000000   180.000000     0.500000    -0.866025     0.000000     0.000000     0.000000     0.000000
    6    -1.000000   180.000000    -0.500000    -0.866025     0.000000     0.000000     0.000000     0.000000
    7    -1.000000    60.000000     0.000000     0.000000    -1.000000    -0.000000     0.000000     0.325167
    8    -1.000000   180.000000     0.000000     0.000000     1.000000     0.000000     0.000000     0.325167
    9    -1.000000    60.000000     0.000000     0.000000     1.000000     0.000000     0.000001     0.325167
   10     1.000000   180.000000     0.866025    -0.500000     0.000000     0.000000     0.000000     0.325167
   11     1.000000   180.000000     0.000000     1.000000     0.000000     0.000000     0.000000     0.325167
   12     1.000000   180.000000     0.866025     0.500000     0.000000    -0.000000     0.000001     0.325167
 
 Subroutine IBZKPT returns following result:
 ===========================================
 
 Found     10 irreducible k-points:
 
 Following reciprocal coordinates:
            Coordinates               Weight
  0.000000  0.000000  0.000000      1.000000
  0.125000  0.000000  0.000000      6.000000
  0.250000  0.000000  0.000000      6.000000
  0.375000  0.000000  0.000000      6.000000
  0.500000  0.000000  0.000000      3.000000
  0.125000  0.125000  0.000000      6.000000
  0.250000  0.125000  0.000000     12.000000
  0.375000  0.125000  0.000000     12.000000
  0.250000  0.250000  0.000000      6.000000
  0.375000  0.250000  0.000000      6.000000
 
 Following cartesian coordinates:
            Coordinates               Weight
  0.000000  0.000000  0.000000      1.000000
  0.039181  0.022621  0.000000      6.000000
  0.078362  0.045242  0.000000      6.000000
  0.117543  0.067864  0.000000      6.000000
  0.156724  0.090485  0.000000      3.000000
  0.039181  0.067864  0.000000      6.000000
  0.078362  0.090485  0.000000     12.000000
  0.117543  0.113106  0.000000     12.000000
  0.078362  0.135727  0.000000      6.000000
  0.117543  0.158348  0.000000      6.000000
 


--------------------------------------------------------------------------------------------------------




 Dimension of arrays:
   k-points           NKPTS =     10   k-points in BZ     NKDIM =     10   number of bands    NBANDS=     14
   number of dos      NEDOS =   2401   number of ions     NIONS =      3
   non local maximal  LDIM  =      6   non local SUM 2l+1 LMDIM =     18
   total plane-waves  NPLWV =  12960
   max r-space proj   IRMAX =   2093   max aug-charges    IRDMAX=   4325
   dimension x,y,z NGX =    12 NGY =   12 NGZ =   90
   dimension x,y,z NGXF=    24 NGYF=   24 NGZF=  180
   support grid    NGXF=    24 NGYF=   24 NGZF=  180
   ions per type =               1   2
   NGX,Y,Z   is equivalent  to a cutoff of   6.25,  6.25,  6.54 a.u.
   NGXF,Y,Z  is equivalent  to a cutoff of  12.51, 12.51, 13.08 a.u.

 SYSTEM =  unknown system                          
 POSCAR =  MoS2_mp-2815_computed                   

 Startparameter for this run:
   NWRITE =      2    write-flag & timer
   PREC   = normal    normal or accurate (medium, high low for compatibility)
   ISTART =      0    job   : 0-new  1-cont  2-samecut
   ICHARG =      2    charge: 1-file 2-atom 10-const
   ISPIN  =      1    spin polarized calculation?
   LNONCOLLINEAR =      F non collinear calculations
   LSORBIT =      F    spin-orbit coupling
   INIWAV =      1    electr: 0-lowe 1-rand  2-diag
   LASPH  =      F    aspherical Exc in radial PAW
   METAGGA=      F    non-selfconsistent MetaGGA calc.

 Electronic Relaxation 1
   ENCUT  =  250.0 eV  18.37 Ry    4.29 a.u.   4.11  4.11 29.50*2*pi/ulx,y,z
   ENINI  =  250.0     initial cutoff
   ENAUG  =  345.3 eV  augmentation charge cutoff
   NELM   =     60;   NELMIN=  4; NELMDL= -5     # of ELM steps 
   EDIFF  = 0.1E-05   stopping-criterion for ELM
   LREAL  =      T    real-space projection
   NLSPLINE    = F    spline interpolate recip. space projectors
   LCOMPAT=      F    compatible to vasp.4.4
   GGA_COMPAT  = T    GGA compatible to vasp.4.4-vasp.4.6
   LMAXPAW     = -100 max onsite density
   LMAXMIX     =    2 max onsite mixed and CHGCAR
   VOSKOWN=      0    Vosko Wilk Nusair interpolation
   ROPT   =   -0.00050  -0.00050
 Ionic relaxation
   EDIFFG = 0.1E-04   stopping-criterion for IOM
   NSW    =      0    number of steps for IOM
   NBLOCK =      1;   KBLOCK =      1    inner block; outer block 
   IBRION =     -1    ionic relax: 0-MD 1-quasi-New 2-CG
   NFREE  =      0    steps in history (QN), initial steepest desc. (CG)
   ISIF   =      2    stress and relaxation
   IWAVPR =     10    prediction:  0-non 1-charg 2-wave 3-comb
   ISYM   =      2    0-nonsym 1-usesym 2-fastsym
   LCORR  =      T    Harris-Foulkes like correction to forces

   POTIM  = 0.5000    time-step for ionic-motion
   TEIN   =    0.0    initial temperature
   TEBEG  =    0.0;   TEEND  =   0.0 temperature during run
   SMASS  =  -3.00    Nose mass-parameter (am)
   estimated Nose-frequenzy (Omega)   =  0.10E-29 period in steps =****** mass=  -0.233E-27a.u.
   SCALEE = 1.0000    scale energy and forces
   NPACO  =    256;   APACO  = 16.0  distance and # of slots for P.C.
   PSTRESS=    0.0 pullay stress

  Mass of Ions in am
   POMASS =  95.94 32.07
  Ionic Valenz
   ZVAL   =   6.00  6.00
  Atomic Wigner-Seitz radii
   RWIGS  =  -1.00 -1.00
  virtual crystal weights 
   VCA    =   1.00  1.00
   NELECT =      18.0000    total number of electrons
   NUPDOWN=      -1.0000    fix difference up-down

 DOS related values:
   EMIN   = -12.00;   EMAX   = 12.00  energy-range for DOS
   EFERMI =   0.00
   ISMEAR =     0;   SIGMA  =   0.20  broadening in eV -4-tet -1-fermi 0-gaus

 Electronic relaxation 2 (details)
   IALGO  =     68    algorithm
   LDIAG  =      T    sub-space diagonalisation (order eigenvalues)
   LSUBROT=      F    optimize rotation matrix (better conditioning)
   TURBO    =      0    0=normal 1=particle mesh
   IRESTART =      0    0=no restart 2=restart with 2 vectors
   NREBOOT  =      0    no. of reboots
   NMIN     =      0    reboot dimension
   EREF     =   0.00    reference energy to select bands
   IMIX   =      4    mixing-type and parameters
     AMIX     =   0.40;   BMIX     =  1.00
     AMIX_MAG =   1.60;   BMIX_MAG =  1.00
     AMIN     =   0.10
     WC   =   100.;   INIMIX=   1;  MIXPRE=   1;  MAXMIX= -45

 Intra band minimization:
   WEIMIN = 0.0000     energy-eigenvalue tresh-hold
   EBREAK =  0.18E-07  absolut break condition
   DEPER  =   0.30     relativ break condition  

   TIME   =   0.40     timestep for ELM

  volume/ion in A,a.u.               =      67.22       453.64
  Fermi-wavevector in a.u.,A,eV,Ry     =   0.731623  1.382567  7.282819  0.535272
  Thomas-Fermi vector in A             =   1.823885
 
 Write flags
   LWAVE        =      F    write WAVECAR
   LDOWNSAMPLE  =      F    k-point downsampling of WAVECAR
   LCHARG       =      T    write CHGCAR
   LVTOT        =      F    write LOCPOT, total local potential
   LVHAR        =      F    write LOCPOT, Hartree potential only
   LELF         =      T    write electronic localiz. function (ELF)
   LORBIT       =     11    0 simple, 1 ext, 2 COOP (PROOUT), +10 PAW based schemes


 Dipole corrections
   LMONO  =      F    monopole corrections only (constant potential shift)
   LDIPOL =      F    correct potential (dipole corrections)
   IDIPOL =      0    1-x, 2-y, 3-z, 4-all directions 
   EPSILON=  1.0000000 bulk dielectric constant

 Exchange correlation treatment:
   GGA     =    --    GGA type
   LEXCH   =     8    internal setting for exchange type
   VOSKOWN=      0    Vosko Wilk Nusair interpolation
   LHFCALC =     F    Hartree Fock is set to
   LHFONE  =     F    Hartree Fock one center treatment
   AEXX    =    0.0000 exact exchange contribution

 Linear response parameters
   LEPSILON=     F    determine dielectric tensor
   LRPA    =     F    only Hartree local field effects (RPA)
   LNABLA  =     F    use nabla operator in PAW spheres
   LVEL    =     F    velocity operator in full k-point grid
   LINTERFAST=   F  fast interpolation
   KINTER  =     0    interpolate to denser k-point grid
   CSHIFT  =0.1000    complex shift for real part using Kramers Kronig
   OMEGAMAX=  -1.0    maximum frequency
   DEG_THRESHOLD= 0.2000000E-02 threshold for treating states as degnerate
   RTIME   =   -0.100 relaxation time in fs
  (WPLASMAI=    0.000 imaginary part of plasma frequency in eV, 0.658/RTIME)
   DFIELD  = 0.0000000 0.0000000 0.0000000 field for delta impulse in time
 
 Orbital magnetization related:
   ORBITALMAG=     F  switch on orbital magnetization
   LCHIMAG   =     F  perturbation theory with respect to B field
   DQ        =  0.001000  dq finite difference perturbation B field
   LLRAUG    =     F  two centre corrections for induced B field



--------------------------------------------------------------------------------------------------------


 Static calculation
 charge density and potential will be updated during run
 non-spin polarized calculation
 RMM-DIIS sequential band-by-band and
  variant of blocked Davidson during initial phase
 perform sub-space diagonalisation
    before iterative eigenvector-optimisation
 modified Broyden-mixing scheme, WC =      100.0
 initial mixing is a Kerker type mixing with AMIX =  0.4000 and BMIX =      1.0000
 Hartree-type preconditioning will be used
 using additional bands            5
 real space projection scheme for non local part
 use partial core corrections
 calculate Harris-corrections to forces 
   (improved forces if not selfconsistent)
 use gradient corrections 
 use of overlap-Matrix (Vanderbilt PP)
 Gauss-broadening in eV      SIGMA  =   0.20


--------------------------------------------------------------------------------------------------------


  energy-cutoff  :      250.00
  volume of cell :      201.67
      direct lattice vectors                 reciprocal lattice vectors
     3.190315730  0.000000000  0.000000000     0.313448600  0.180969634  0.000000000
    -1.595157865  2.762894468  0.000000000     0.000000000  0.361939267  0.000000000
     0.000000000  0.000000000 22.879004300     0.000000000  0.000000000  0.043708196

  length of vectors
     3.190315730  3.190315730 22.879004300     0.361939267  0.361939267  0.043708196


 
 k-points in units of 2pi/SCALE and weight: k-density: 4.0                          
   0.00000000  0.00000000  0.00000000       0.016
   0.03918108  0.02262120  0.00000000       0.094
   0.07836215  0.04524241  0.00000000       0.094
   0.11754323  0.06786361  0.00000000       0.094
   0.15672430  0.09048482  0.00000000       0.047
   0.03918108  0.06786361  0.00000000       0.094
   0.07836215  0.09048482  0.00000000       0.188
   0.11754323  0.11310602  0.00000000       0.188
   0.07836215  0.13572723  0.00000000       0.094
   0.11754323  0.15834843  0.00000000       0.094
 
 k-points in reciprocal lattice and weights: k-density: 4.0                          
   0.00000000  0.00000000  0.00000000       0.016
   0.12500000  0.00000000  0.00000000       0.094
   0.25000000  0.00000000  0.00000000       0.094
   0.37500000  0.00000000  0.00000000       0.094
   0.50000000  0.00000000  0.00000000       0.047
   0.12500000  0.12500000  0.00000000       0.094
   0.25000000  0.12500000  0.00000000       0.188
   0.37500000  0.12500000  0.00000000       0.188
   0.25000000  0.25000000  0.00000000       0.094
   0.37500000  0.25000000  0.00000000       0.094
 
 position of ions in fractional coordinates (direct lattice) 
   0.33333300  0.66666700  0.16258361
   0.66666700  0.33333300  0.09418533
   0.66666600  0.33333300  0.23098188
 
 position of ions in cartesian coordinates  (Angst):
  -0.00000160  1.84193057  3.71975108
   1.59515946  0.92096390  2.15486668
   1.59515627  0.92096390  5.28463547
 


--------------------------------------------------------------------------------------------------------


 k-point  1 :   0.0000 0.0000 0.0000  plane waves:    1733
 k-point  2 :   0.1250 0.0000 0.0000  plane waves:    1771
 k-point  3 :   0.2500 0.0000 0.0000  plane waves:    1809
 k-point  4 :   0.3750 0.0000 0.0000  plane waves:    1823
 k-point  5 :   0.5000 0.0000 0.0000  plane waves:    1844
 k-point  6 :   0.1250 0.1250 0.0000  plane waves:    1796
 k-point  7 :   0.2500 0.1250 0.0000  plane waves:    1807
 k-point  8 :   0.3750 0.1250 0.0000  plane waves:    1813
 k-point  9 :   0.2500 0.2500 0.0000  plane waves:    1822
 k-point 10 :   0.3750 0.2500 0.0000  plane waves:    1822

 maximum and minimum number of plane-waves per node :       931      854

 maximum number of plane-waves:      1844
 maximum index in each direction: 
   IXMAX=    4   IYMAX=    4   IZMAX=   29
   IXMIN=   -4   IYMIN=   -4   IZMIN=  -29


 real space projection operators:
  total allocation   :        401.16 KBytes
  max/ min on nodes  :        201.00        200.16


 parallel 3D FFT for wavefunctions:
    minimum data exchange during FFTs selected (reduces bandwidth)
 parallel 3D FFT for charge:
    minimum data exchange during FFTs selected (reduces bandwidth)


 total amount of memory used by VASP MPI-rank0    34224. kBytes
=======================================================================

   base      :      30000. kBytes
   nonlr-proj:        349. kBytes
   fftplans  :       1069. kBytes
   grid      :       1723. kBytes
   one-center:         31. kBytes
   wavefun   :       1052. kBytes
 
     INWAV:  cpu time    0.0010: real time    0.0004
 Broyden mixing: mesh for mixing (old mesh)
   NGX =  9   NGY =  9   NGZ = 59
  (NGX  = 24   NGY  = 24   NGZ  =180)
  gives a total of   4779 points

 initial charge density was supplied:
 charge density of overlapping atoms calculated
 number of electron      18.0000000 magnetization 
 keeping initial charge density in first step


--------------------------------------------------------------------------------------------------------


 Maximum index for non-local projection operator          986
 Maximum index for augmentation-charges         1015 (set IRDMAX)


--------------------------------------------------------------------------------------------------------


 First call to EWALD:  gamma=   0.302
 Maximum number of real-space cells 5x 5x 1
 Maximum number of reciprocal cells 2x 2x 9

    FEWALD:  cpu time    0.0020: real time    0.0015


--------------------------------------- Iteration      1(   1)  ---------------------------------------


    POTLOK:  cpu time    0.0180: real time    0.4438
    SETDIJ:  cpu time    0.0030: real time    0.0030
     EDDAV:  cpu time    0.1050: real time    0.1086
       DOS:  cpu time    0.0020: real time    0.0021
    --------------------------------------------
      LOOP:  cpu time    0.1280: real time    0.5575

 eigenvalue-minimisations  :   280
 total energy-change (2. order) : 0.9813324E+02  (-0.4385593E+03)
 number of electron      18.0000000 magnetization 
 augmentation part       18.0000000 magnetization 

 Free energy of the ion-electron system (eV)
  ---------------------------------------------------
  alpha Z        PSCENC =        14.70174895
  Ewald energy   TEWEN  =      3213.00539378
  -Hartree energ DENC   =     -3905.14261690
  -exchange      EXHF   =         0.00000000
  -V(xc)+E(xc)   XCENC  =       -36.31054475
  PAW double counting   =       406.88651198     -329.34073203
  entropy T*S    EENTRO =        -0.01152451
  eigenvalues    EBANDS =       -36.72357061
  atomic energy  EATOM  =       771.06857575
  Solvation  Ediel_sol  =         0.00000000
  ---------------------------------------------------
  free energy    TOTEN  =        98.13324165 eV

  energy without entropy =       98.14476616  energy(sigma->0) =       98.13900390


--------------------------------------------------------------------------------------------------------




--------------------------------------- Iteration      1(   2)  ---------------------------------------


     EDDAV:  cpu time    0.1460: real time    0.1476
       DOS:  cpu time    0.0020: real time    0.0018
    --------------------------------------------
      LOOP:  cpu time    0.1480: real time    0.1494

 eigenvalue-minimisations  :   440
 total energy-change (2. order) :-0.1107983E+03  (-0.1030403E+03)
 number of electron      18.0000000 magnetization 
 augmentation part       18.0000000 magnetization 

 Free energy of the ion-electron system (eV)
  ---------------------------------------------------
  alpha Z        PSCENC =        14.70174895
  Ewald energy   TEWEN  =      3213.00539378
  -Hartree energ DENC   =     -3905.14261690
  -exchange      EXHF   =         0.00000000
  -V(xc)+E(xc)   XCENC  =       -36.31054475
  PAW double counting   =       406.88651198     -329.34073203
  entropy T*S    EENTRO =        -0.00000000
  eigenvalues    EBANDS =      -147.53342718
  atomic energy  EATOM  =       771.06857575
  Solvation  Ediel_sol  =         0.00000000
  ---------------------------------------------------
  free energy    TOTEN  =       -12.66509042 eV

  energy without entropy =      -12.66509042  energy(sigma->0) =      -12.66509042


--------------------------------------------------------------------------------------------------------




--------------------------------------- Iteration      1(   3)  ---------------------------------------


     EDDAV:  cpu time    0.1270: real time    0.1271
       DOS:  cpu time    0.0010: real time    0.0018
    --------------------------------------------
      LOOP:  cpu time    0.1280: real time    0.1289

 eigenvalue-minimisations  :   376
 total energy-change (2. order) :-0.1049755E+02  (-0.1036886E+02)
 number of electron      18.0000000 magnetization 
 augmentation part       18.0000000 magnetization 

 Free energy of the ion-electron system (eV)
  ---------------------------------------------------
  alpha Z        PSCENC =        14.70174895
  Ewald energy   TEWEN  =      3213.00539378
  -Hartree energ DENC   =     -3905.14261690
  -exchange      EXHF   =         0.00000000
  -V(xc)+E(xc)   XCENC  =       -36.31054475
  PAW double counting   =       406.88651198     -329.34073203
  entropy T*S    EENTRO =        -0.00000000
  eigenvalues    EBANDS =      -158.03097317
  atomic energy  EATOM  =       771.06857575
  Solvation  Ediel_sol  =         0.00000000
  ---------------------------------------------------
  free energy    TOTEN  =       -23.16263640 eV

  energy without entropy =      -23.16263640  energy(sigma->0) =      -23.16263640


--------------------------------------------------------------------------------------------------------




--------------------------------------- Iteration      1(   4)  ---------------------------------------


     EDDAV:  cpu time    0.1270: real time    0.1271
       DOS:  cpu time    0.0020: real time    0.0018
    --------------------------------------------
      LOOP:  cpu time    0.1290: real time    0.1288

 eigenvalue-minimisations  :   374
 total energy-change (2. order) :-0.2024620E+00  (-0.2010387E+00)
 number of electron      18.0000000 magnetization 
 augmentation part       18.0000000 magnetization 

 Free energy of the ion-electron system (eV)
  ---------------------------------------------------
  alpha Z        PSCENC =        14.70174895
  Ewald energy   TEWEN  =      3213.00539378
  -Hartree energ DENC   =     -3905.14261690
  -exchange      EXHF   =         0.00000000
  -V(xc)+E(xc)   XCENC  =       -36.31054475
  PAW double counting   =       406.88651198     -329.34073203
  entropy T*S    EENTRO =        -0.00000000
  eigenvalues    EBANDS =      -158.23343521
  atomic energy  EATOM  =       771.06857575
  Solvation  Ediel_sol  =         0.00000000
  ---------------------------------------------------
  free energy    TOTEN  =       -23.36509844 eV

  energy without entropy =      -23.36509844  energy(sigma->0) =      -23.36509844


--------------------------------------------------------------------------------------------------------




--------------------------------------- Iteration      1(   5)  ---------------------------------------


     EDDAV:  cpu time    0.1220: real time    0.1254
       DOS:  cpu time    0.0020: real time    0.0018
    CHARGE:  cpu time    0.0080: real time    0.0077
    MIXING:  cpu time    0.0010: real time    0.0009
    --------------------------------------------
      LOOP:  cpu time    0.1330: real time    0.1359

 eigenvalue-minimisations  :   358
 total energy-change (2. order) :-0.5452147E-02  (-0.5449394E-02)
 number of electron      17.9999940 magnetization 
 augmentation part       -0.9516586 magnetization 

 Broyden mixing:
  rms(total) = 0.69117E+00    rms(broyden)= 0.69099E+00
  rms(prec ) = 0.76854E+00
  weight for this iteration     100.00

 Free energy of the ion-electron system (eV)
  ---------------------------------------------------
  alpha Z        PSCENC =        14.70174895
  Ewald energy   TEWEN  =      3213.00539378
  -Hartree energ DENC   =     -3905.14261690
  -exchange      EXHF   =         0.00000000
  -V(xc)+E(xc)   XCENC  =       -36.31054475
  PAW double counting   =       406.88651198     -329.34073203
  entropy T*S    EENTRO =        -0.00000000
  eigenvalues    EBANDS =      -158.23888736
  atomic energy  EATOM  =       771.06857575
  Solvation  Ediel_sol  =         0.00000000
  ---------------------------------------------------
  free energy    TOTEN  =       -23.37055059 eV

  energy without entropy =      -23.37055059  energy(sigma->0) =      -23.37055059


--------------------------------------------------------------------------------------------------------




--------------------------------------- Iteration      1(   6)  ---------------------------------------


    POTLOK:  cpu time    0.0130: real time    0.0144
    SETDIJ:  cpu time    0.0030: real time    0.0021
    EDDIAG:  cpu time    0.0180: real time    0.0183
  RMM-DIIS:  cpu time    0.0650: real time    0.0648
    ORTHCH:  cpu time    0.0020: real time    0.0022
       DOS:  cpu time    0.0020: real time    0.0018
    CHARGE:  cpu time    0.0070: real time    0.0076
    MIXING:  cpu time    0.0010: real time    0.0009
    --------------------------------------------
      LOOP:  cpu time    0.1110: real time    0.1120

 eigenvalue-minimisations  :   293
 total energy-change (2. order) : 0.1159563E+01  (-0.5378558E+00)
 number of electron      17.9999937 magnetization 
 augmentation part       -0.4082496 magnetization 

 Broyden mixing:
  rms(total) = 0.26295E+00    rms(broyden)= 0.26275E+00
  rms(prec ) = 0.32398E+00
  weight for this iteration     100.00

 eigenvalues of (default mixing * dielectric matrix)
  average eigenvalue GAMMA=   0.8353
  0.8353

 Free energy of the ion-electron system (eV)
  ---------------------------------------------------
  alpha Z        PSCENC =        14.70174895
  Ewald energy   TEWEN  =      3213.00539378
  -Hartree energ DENC   =     -3903.53729151
  -exchange      EXHF   =         0.00000000
  -V(xc)+E(xc)   XCENC  =       -35.41193006
  PAW double counting   =       426.19339672     -349.53841764
  entropy T*S    EENTRO =        -0.00000003
  eigenvalues    EBANDS =      -158.69246355
  atomic energy  EATOM  =       771.06857575
  Solvation  Ediel_sol  =         0.00000000
  ---------------------------------------------------
  free energy    TOTEN  =       -22.21098760 eV

  energy without entropy =      -22.21098757  energy(sigma->0) =      -22.21098759


--------------------------------------------------------------------------------------------------------




--------------------------------------- Iteration      1(   7)  ---------------------------------------


    POTLOK:  cpu time    0.0130: real time    0.0139
    SETDIJ:  cpu time    0.0030: real time    0.0021
    EDDIAG:  cpu time    0.0170: real time    0.0178
  RMM-DIIS:  cpu time    0.0630: real time    0.0629
    ORTHCH:  cpu time    0.0020: real time    0.0023
       DOS:  cpu time    0.0020: real time    0.0018
    CHARGE:  cpu time    0.0070: real time    0.0076
    MIXING:  cpu time    0.0010: real time    0.0007
    --------------------------------------------
      LOOP:  cpu time    0.1080: real time    0.1091

 eigenvalue-minimisations  :   290
 total energy-change (2. order) : 0.3829504E+00  (-0.5450328E-01)
 number of electron      17.9999938 magnetization 
 augmentation part       -0.6078634 magnetization 

 Broyden mixing:
  rms(total) = 0.15207E+00    rms(broyden)= 0.15205E+00
  rms(prec ) = 0.16341E+00
  weight for this iteration     100.00

 eigenvalues of (default mixing * dielectric matrix)
  average eigenvalue GAMMA=   1.3739
  0.6643  2.0836

 Free energy of the ion-electron system (eV)
  ---------------------------------------------------
  alpha Z        PSCENC =        14.70174895
  Ewald energy   TEWEN  =      3213.00539378
  -Hartree energ DENC   =     -3908.53026962
  -exchange      EXHF   =         0.00000000
  -V(xc)+E(xc)   XCENC  =       -35.55305631
  PAW double counting   =       444.85690567     -368.43027913
  entropy T*S    EENTRO =        -0.00000000
  eigenvalues    EBANDS =      -152.94705630
  atomic energy  EATOM  =       771.06857575
  Solvation  Ediel_sol  =         0.00000000
  ---------------------------------------------------
  free energy    TOTEN  =       -21.82803723 eV

  energy without entropy =      -21.82803723  energy(sigma->0) =      -21.82803723


--------------------------------------------------------------------------------------------------------




--------------------------------------- Iteration      1(   8)  ---------------------------------------


    POTLOK:  cpu time    0.0140: real time    0.0139
    SETDIJ:  cpu time    0.0020: real time    0.0021
    EDDIAG:  cpu time    0.0180: real time    0.0179
  RMM-DIIS:  cpu time    0.0650: real time    0.0653
    ORTHCH:  cpu time    0.0020: real time    0.0022
       DOS:  cpu time    0.0020: real time    0.0018
    CHARGE:  cpu time    0.0080: real time    0.0076
    MIXING:  cpu time    0.0010: real time    0.0014
    --------------------------------------------
      LOOP:  cpu time    0.1120: real time    0.1121

 eigenvalue-minimisations  :   306
 total energy-change (2. order) : 0.5988813E-01  (-0.2345137E-01)
 number of electron      17.9999938 magnetization 
 augmentation part       -0.5617825 magnetization 

 Broyden mixing:
  rms(total) = 0.34964E-01    rms(broyden)= 0.34938E-01
  rms(prec ) = 0.38197E-01
  weight for this iteration     100.00

 eigenvalues of (default mixing * dielectric matrix)
  average eigenvalue GAMMA=   1.4957
  1.9123  1.9123  0.6626

 Free energy of the ion-electron system (eV)
  ---------------------------------------------------
  alpha Z        PSCENC =        14.70174895
  Ewald energy   TEWEN  =      3213.00539378
  -Hartree energ DENC   =     -3912.28931823
  -exchange      EXHF   =         0.00000000
  -V(xc)+E(xc)   XCENC  =       -35.27162445
  PAW double counting   =       471.16252518     -395.25783880
  entropy T*S    EENTRO =        -0.00000000
  eigenvalues    EBANDS =      -148.88761128
  atomic energy  EATOM  =       771.06857575
  Solvation  Ediel_sol  =         0.00000000
  ---------------------------------------------------
  free energy    TOTEN  =       -21.76814910 eV

  energy without entropy =      -21.76814910  energy(sigma->0) =      -21.76814910


--------------------------------------------------------------------------------------------------------




--------------------------------------- Iteration      1(   9)  ---------------------------------------


    POTLOK:  cpu time    0.0130: real time    0.0138
    SETDIJ:  cpu time    0.0020: real time    0.0021
    EDDIAG:  cpu time    0.0180: real time    0.0177
  RMM-DIIS:  cpu time    0.0720: real time    0.0718
    ORTHCH:  cpu time    0.0020: real time    0.0022
       DOS:  cpu time    0.0010: real time    0.0018
    CHARGE:  cpu time    0.0080: real time    0.0076
    MIXING:  cpu time    0.0010: real time    0.0008
    --------------------------------------------
      LOOP:  cpu time    0.1170: real time    0.1177

 eigenvalue-minimisations  :   337
 total energy-change (2. order) : 0.4729714E-02  (-0.8145149E-03)
 number of electron      17.9999938 magnetization 
 augmentation part       -0.5577758 magnetization 

 Broyden mixing:
  rms(total) = 0.94563E-02    rms(broyden)= 0.94494E-02
  rms(prec ) = 0.12535E-01
  weight for this iteration     100.00

 eigenvalues of (default mixing * dielectric matrix)
  average eigenvalue GAMMA=   1.5062
  0.6642  1.0475  2.4448  1.8684

 Free energy of the ion-electron system (eV)
  ---------------------------------------------------
  alpha Z        PSCENC =        14.70174895
  Ewald energy   TEWEN  =      3213.00539378
  -Hartree energ DENC   =     -3913.50743021
  -exchange      EXHF   =         0.00000000
  -V(xc)+E(xc)   XCENC  =       -35.21825264
  PAW double counting   =       476.78271179     -400.95340730
  entropy T*S    EENTRO =        -0.00000000
  eigenvalues    EBANDS =      -147.64275951
  atomic energy  EATOM  =       771.06857575
  Solvation  Ediel_sol  =         0.00000000
  ---------------------------------------------------
  free energy    TOTEN  =       -21.76341939 eV

  energy without entropy =      -21.76341939  energy(sigma->0) =      -21.76341939


--------------------------------------------------------------------------------------------------------




--------------------------------------- Iteration      1(  10)  ---------------------------------------


    POTLOK:  cpu time    0.0130: real time    0.0137
    SETDIJ:  cpu time    0.0020: real time    0.0021
    EDDIAG:  cpu time    0.0180: real time    0.0177
  RMM-DIIS:  cpu time    0.0720: real time    0.0721
    ORTHCH:  cpu time    0.0020: real time    0.0022
       DOS:  cpu time    0.0020: real time    0.0018
    CHARGE:  cpu time    0.0070: real time    0.0076
    MIXING:  cpu time    0.0010: real time    0.0008
    --------------------------------------------
      LOOP:  cpu time    0.1170: real time    0.1181

 eigenvalue-minimisations  :   337
 total energy-change (2. order) : 0.7699802E-03  (-0.1714229E-03)
 number of electron      17.9999938 magnetization 
 augmentation part       -0.5614780 magnetization 

 Broyden mixing:
  rms(total) = 0.44881E-02    rms(broyden)= 0.44818E-02
  rms(prec ) = 0.68329E-02
  weight for this iteration     100.00

 eigenvalues of (default mixing * dielectric matrix)
  average eigenvalue GAMMA=   1.6755
  0.6648  1.0337  2.1601  2.2594  2.2594

 Free energy of the ion-electron system (eV)
  ---------------------------------------------------
  alpha Z        PSCENC =        14.70174895
  Ewald energy   TEWEN  =      3213.00539378
  -Hartree energ DENC   =     -3914.60655524
  -exchange      EXHF   =         0.00000000
  -V(xc)+E(xc)   XCENC  =       -35.19363863
  PAW double counting   =       479.37873312     -403.58218743
  entropy T*S    EENTRO =        -0.00000000
  eigenvalues    EBANDS =      -146.53471970
  atomic energy  EATOM  =       771.06857575
  Solvation  Ediel_sol  =         0.00000000
  ---------------------------------------------------
  free energy    TOTEN  =       -21.76264941 eV

  energy without entropy =      -21.76264941  energy(sigma->0) =      -21.76264941


--------------------------------------------------------------------------------------------------------




--------------------------------------- Iteration      1(  11)  ---------------------------------------


    POTLOK:  cpu time    0.0140: real time    0.0138
    SETDIJ:  cpu time    0.0020: real time    0.0021
    EDDIAG:  cpu time    0.0180: real time    0.0177
  RMM-DIIS:  cpu time    0.0670: real time    0.0670
    ORTHCH:  cpu time    0.0020: real time    0.0023
       DOS:  cpu time    0.0020: real time    0.0018
    CHARGE:  cpu time    0.0070: real time    0.0076
    MIXING:  cpu time    0.0010: real time    0.0008
    --------------------------------------------
      LOOP:  cpu time    0.1130: real time    0.1131

 eigenvalue-minimisations  :   313
 total energy-change (2. order) : 0.1676458E-04  (-0.2092004E-03)
 number of electron      17.9999938 magnetization 
 augmentation part       -0.5582031 magnetization 

 Broyden mixing:
  rms(total) = 0.60546E-02    rms(broyden)= 0.60498E-02
  rms(prec ) = 0.71749E-02
  weight for this iteration     100.00

 eigenvalues of (default mixing * dielectric matrix)
  average eigenvalue GAMMA=   1.6652
  2.8637  2.7472  0.6652  1.4018  1.4018  0.9115

 Free energy of the ion-electron system (eV)
  ---------------------------------------------------
  alpha Z        PSCENC =        14.70174895
  Ewald energy   TEWEN  =      3213.00539378
  -Hartree energ DENC   =     -3915.80977446
  -exchange      EXHF   =         0.00000000
  -V(xc)+E(xc)   XCENC  =       -35.17986482
  PAW double counting   =       478.68684380     -402.87899951
  entropy T*S    EENTRO =        -0.00000000
  eigenvalues    EBANDS =      -145.35655613
  atomic energy  EATOM  =       771.06857575
  Solvation  Ediel_sol  =         0.00000000
  ---------------------------------------------------
  free energy    TOTEN  =       -21.76263265 eV

  energy without entropy =      -21.76263265  energy(sigma->0) =      -21.76263265


--------------------------------------------------------------------------------------------------------




--------------------------------------- Iteration      1(  12)  ---------------------------------------


    POTLOK:  cpu time    0.0140: real time    0.0141
    SETDIJ:  cpu time    0.0020: real time    0.0021
    EDDIAG:  cpu time    0.0180: real time    0.0177
  RMM-DIIS:  cpu time    0.0640: real time    0.0645
    ORTHCH:  cpu time    0.0030: real time    0.0023
       DOS:  cpu time    0.0010: real time    0.0018
    CHARGE:  cpu time    0.0080: real time    0.0076
    MIXING:  cpu time    0.0010: real time    0.0009
    --------------------------------------------
      LOOP:  cpu time    0.1110: real time    0.1110

 eigenvalue-minimisations  :   304
 total energy-change (2. order) : 0.1287874E-03  (-0.6933341E-04)
 number of electron      17.9999938 magnetization 
 augmentation part       -0.5605683 magnetization 

 Broyden mixing:
  rms(total) = 0.17403E-02    rms(broyden)= 0.17275E-02
  rms(prec ) = 0.25373E-02
  weight for this iteration     100.00

 eigenvalues of (default mixing * dielectric matrix)
  average eigenvalue GAMMA=   1.9695
  3.9700  2.7575  2.7575  0.6652  0.9688  1.3338  1.3338

 Free energy of the ion-electron system (eV)
  ---------------------------------------------------
  alpha Z        PSCENC =        14.70174895
  Ewald energy   TEWEN  =      3213.00539378
  -Hartree energ DENC   =     -3916.43322631
  -exchange      EXHF   =         0.00000000
  -V(xc)+E(xc)   XCENC  =       -35.17594275
  PAW double counting   =       478.86766148     -403.05728559
  entropy T*S    EENTRO =        -0.00000000
  eigenvalues    EBANDS =      -144.73942916
  atomic energy  EATOM  =       771.06857575
  Solvation  Ediel_sol  =         0.00000000
  ---------------------------------------------------
  free energy    TOTEN  =       -21.76250386 eV

  energy without entropy =      -21.76250386  energy(sigma->0) =      -21.76250386


--------------------------------------------------------------------------------------------------------




--------------------------------------- Iteration      1(  13)  ---------------------------------------


    POTLOK:  cpu time    0.0140: real time    0.0144
    SETDIJ:  cpu time    0.0020: real time    0.0021
    EDDIAG:  cpu time    0.0180: real time    0.0178
  RMM-DIIS:  cpu time    0.0610: real time    0.0608
    ORTHCH:  cpu time    0.0010: real time    0.0022
       DOS:  cpu time    0.0020: real time    0.0018
    CHARGE:  cpu time    0.0080: real time    0.0076
    MIXING:  cpu time    0.0010: real time    0.0009
    --------------------------------------------
      LOOP:  cpu time    0.1070: real time    0.1076

 eigenvalue-minimisations  :   300
 total energy-change (2. order) :-0.5288489E-03  (-0.1676964E-04)
 number of electron      17.9999938 magnetization 
 augmentation part       -0.5592948 magnetization 

 Broyden mixing:
  rms(total) = 0.20147E-02    rms(broyden)= 0.20041E-02
  rms(prec ) = 0.22991E-02
  weight for this iteration     100.00

 eigenvalues of (default mixing * dielectric matrix)
  average eigenvalue GAMMA=   1.9217
  4.8943  2.7133  2.3347  1.4223  1.4223  0.6652  0.9607  0.9607

 Free energy of the ion-electron system (eV)
  ---------------------------------------------------
  alpha Z        PSCENC =        14.70174895
  Ewald energy   TEWEN  =      3213.00539378
  -Hartree energ DENC   =     -3917.12832887
  -exchange      EXHF   =         0.00000000
  -V(xc)+E(xc)   XCENC  =       -35.16959616
  PAW double counting   =       478.82447299     -403.01960297
  entropy T*S    EENTRO =        -0.00000000
  eigenvalues    EBANDS =      -144.04569617
  atomic energy  EATOM  =       771.06857575
  Solvation  Ediel_sol  =         0.00000000
  ---------------------------------------------------
  free energy    TOTEN  =       -21.76303271 eV

  energy without entropy =      -21.76303271  energy(sigma->0) =      -21.76303271


--------------------------------------------------------------------------------------------------------




--------------------------------------- Iteration      1(  14)  ---------------------------------------


    POTLOK:  cpu time    0.0140: real time    0.0177
    SETDIJ:  cpu time    0.0030: real time    0.0021
    EDDIAG:  cpu time    0.0170: real time    0.0177
  RMM-DIIS:  cpu time    0.0700: real time    0.0695
    ORTHCH:  cpu time    0.0020: real time    0.0023
       DOS:  cpu time    0.0020: real time    0.0018
    CHARGE:  cpu time    0.0070: real time    0.0076
    MIXING:  cpu time    0.0010: real time    0.0010
    --------------------------------------------
      LOOP:  cpu time    0.1160: real time    0.1196

 eigenvalue-minimisations  :   326
 total energy-change (2. order) :-0.8661293E-04  (-0.2976202E-05)
 number of electron      17.9999938 magnetization 
 augmentation part       -0.5605141 magnetization 

 Broyden mixing:
  rms(total) = 0.63004E-03    rms(broyden)= 0.59527E-03
  rms(prec ) = 0.81723E-03
  weight for this iteration     100.00

 eigenvalues of (default mixing * dielectric matrix)
  average eigenvalue GAMMA=   2.2453
  7.0966  3.0576  2.3762  2.3762  0.6653  1.5062  0.9713  0.9713  1.1865

 Free energy of the ion-electron system (eV)
  ---------------------------------------------------
  alpha Z        PSCENC =        14.70174895
  Ewald energy   TEWEN  =      3213.00539378
  -Hartree energ DENC   =     -3917.24497878
  -exchange      EXHF   =         0.00000000
  -V(xc)+E(xc)   XCENC  =       -35.17234309
  PAW double counting   =       478.61127147     -402.80129766
  entropy T*S    EENTRO =        -0.00000000
  eigenvalues    EBANDS =      -143.93148973
  atomic energy  EATOM  =       771.06857575
  Solvation  Ediel_sol  =         0.00000000
  ---------------------------------------------------
  free energy    TOTEN  =       -21.76311932 eV

  energy without entropy =      -21.76311932  energy(sigma->0) =      -21.76311932


--------------------------------------------------------------------------------------------------------




--------------------------------------- Iteration      1(  15)  ---------------------------------------


    POTLOK:  cpu time    0.0140: real time    0.0141
    SETDIJ:  cpu time    0.0020: real time    0.0021
    EDDIAG:  cpu time    0.0180: real time    0.0177
  RMM-DIIS:  cpu time    0.0600: real time    0.0600
    ORTHCH:  cpu time    0.0020: real time    0.0023
       DOS:  cpu time    0.0020: real time    0.0018
    CHARGE:  cpu time    0.0080: real time    0.0076
    MIXING:  cpu time    0.0010: real time    0.0011
    --------------------------------------------
      LOOP:  cpu time    0.1070: real time    0.1066

 eigenvalue-minimisations  :   289
 total energy-change (2. order) :-0.1973352E-03  (-0.1440611E-05)
 number of electron      17.9999938 magnetization 
 augmentation part       -0.5599802 magnetization 

 Broyden mixing:
  rms(total) = 0.43681E-03    rms(broyden)= 0.38542E-03
  rms(prec ) = 0.48509E-03
  weight for this iteration     100.00
  WARNING: grid for Broyden might be to small

 eigenvalues of (default mixing * dielectric matrix)
  average eigenvalue GAMMA=   2.2150
  7.0659  3.5497  2.6219  1.7423  1.7423  1.7358  0.6653  1.0351  1.0351  0.9569

 Free energy of the ion-electron system (eV)
  ---------------------------------------------------
  alpha Z        PSCENC =        14.70174895
  Ewald energy   TEWEN  =      3213.00539378
  -Hartree energ DENC   =     -3917.36510614
  -exchange      EXHF   =         0.00000000
  -V(xc)+E(xc)   XCENC  =       -35.17182054
  PAW double counting   =       478.66499866     -402.85607739
  entropy T*S    EENTRO =        -0.00000000
  eigenvalues    EBANDS =      -143.81102972
  atomic energy  EATOM  =       771.06857575
  Solvation  Ediel_sol  =         0.00000000
  ---------------------------------------------------
  free energy    TOTEN  =       -21.76331666 eV

  energy without entropy =      -21.76331666  energy(sigma->0) =      -21.76331666


--------------------------------------------------------------------------------------------------------




--------------------------------------- Iteration      1(  16)  ---------------------------------------


    POTLOK:  cpu time    0.0130: real time    0.0140
    SETDIJ:  cpu time    0.0030: real time    0.0021
    EDDIAG:  cpu time    0.0170: real time    0.0178
  RMM-DIIS:  cpu time    0.0560: real time    0.0552
    ORTHCH:  cpu time    0.0010: real time    0.0023
       DOS:  cpu time    0.0020: real time    0.0018
    CHARGE:  cpu time    0.0080: real time    0.0077
    MIXING:  cpu time    0.0010: real time    0.0012
    --------------------------------------------
      LOOP:  cpu time    0.1010: real time    0.1021

 eigenvalue-minimisations  :   246
 total energy-change (2. order) :-0.5492068E-04  (-0.3192593E-06)
 number of electron      17.9999938 magnetization 
 augmentation part       -0.5603447 magnetization 

 Broyden mixing:
  rms(total) = 0.29790E-03    rms(broyden)= 0.21566E-03
  rms(prec ) = 0.25581E-03
  weight for this iteration     100.00
  WARNING: grid for Broyden might be to small

 eigenvalues of (default mixing * dielectric matrix)
  average eigenvalue GAMMA=   2.4152
  7.9605  4.6507  2.9411  2.5750  2.1166  1.5164  0.6653  1.2060  1.0000  1.0000
  0.9361

 Free energy of the ion-electron system (eV)
  ---------------------------------------------------
  alpha Z        PSCENC =        14.70174895
  Ewald energy   TEWEN  =      3213.00539378
  -Hartree energ DENC   =     -3917.39914177
  -exchange      EXHF   =         0.00000000
  -V(xc)+E(xc)   XCENC  =       -35.17205438
  PAW double counting   =       478.71447201     -402.90605892
  entropy T*S    EENTRO =        -0.00000000
  eigenvalues    EBANDS =      -143.77630698
  atomic energy  EATOM  =       771.06857575
  Solvation  Ediel_sol  =         0.00000000
  ---------------------------------------------------
  free energy    TOTEN  =       -21.76337158 eV

  energy without entropy =      -21.76337158  energy(sigma->0) =      -21.76337158


--------------------------------------------------------------------------------------------------------




--------------------------------------- Iteration      1(  17)  ---------------------------------------


    POTLOK:  cpu time    0.0140: real time    0.0137
    SETDIJ:  cpu time    0.0020: real time    0.0021
    EDDIAG:  cpu time    0.0170: real time    0.0177
  RMM-DIIS:  cpu time    0.0470: real time    0.0467
    ORTHCH:  cpu time    0.0020: real time    0.0023
       DOS:  cpu time    0.0020: real time    0.0018
    CHARGE:  cpu time    0.0080: real time    0.0076
    MIXING:  cpu time    0.0010: real time    0.0012
    --------------------------------------------
      LOOP:  cpu time    0.0930: real time    0.0931

 eigenvalue-minimisations  :   201
 total energy-change (2. order) :-0.3449626E-04  (-0.1999040E-06)
 number of electron      17.9999938 magnetization 
 augmentation part       -0.5602190 magnetization 

 Broyden mixing:
  rms(total) = 0.23329E-03    rms(broyden)= 0.11055E-03
  rms(prec ) = 0.12289E-03
  weight for this iteration     100.00
  WARNING: grid for Broyden might be to small

 eigenvalues of (default mixing * dielectric matrix)
  average eigenvalue GAMMA=   2.3058
  8.1510  4.7228  2.9402  2.5033  2.1087  1.5041  1.3221  0.6653  1.0049  1.0049
  0.9387  0.8034

 Free energy of the ion-electron system (eV)
  ---------------------------------------------------
  alpha Z        PSCENC =        14.70174895
  Ewald energy   TEWEN  =      3213.00539378
  -Hartree energ DENC   =     -3917.40408179
  -exchange      EXHF   =         0.00000000
  -V(xc)+E(xc)   XCENC  =       -35.17208256
  PAW double counting   =       478.67656130     -402.86737469
  entropy T*S    EENTRO =        -0.00000000
  eigenvalues    EBANDS =      -143.77214679
  atomic energy  EATOM  =       771.06857575
  Solvation  Ediel_sol  =         0.00000000
  ---------------------------------------------------
  free energy    TOTEN  =       -21.76340607 eV

  energy without entropy =      -21.76340607  energy(sigma->0) =      -21.76340607


--------------------------------------------------------------------------------------------------------




--------------------------------------- Iteration      1(  18)  ---------------------------------------


    POTLOK:  cpu time    0.0140: real time    0.0137
    SETDIJ:  cpu time    0.0020: real time    0.0021
    EDDIAG:  cpu time    0.0170: real time    0.0177
  RMM-DIIS:  cpu time    0.0460: real time    0.0456
    ORTHCH:  cpu time    0.0020: real time    0.0022
       DOS:  cpu time    0.0020: real time    0.0018
    CHARGE:  cpu time    0.0080: real time    0.0076
    MIXING:  cpu time    0.0010: real time    0.0013
    --------------------------------------------
      LOOP:  cpu time    0.0920: real time    0.0920

 eigenvalue-minimisations  :   156
 total energy-change (2. order) :-0.1458789E-05  (-0.1544584E-07)
 number of electron      17.9999938 magnetization 
 augmentation part       -0.5602114 magnetization 

 Broyden mixing:
  rms(total) = 0.21420E-03    rms(broyden)= 0.60715E-04
  rms(prec ) = 0.67554E-04
  weight for this iteration     100.00
  WARNING: grid for Broyden might be to small

 eigenvalues of (default mixing * dielectric matrix)
  average eigenvalue GAMMA=   2.3558
  8.1332  5.2925  2.7570  2.7570  2.1847  2.0839  1.6254  0.6653  1.1245  1.1245
  1.0246  0.9434  0.9100

 Free energy of the ion-electron system (eV)
  ---------------------------------------------------
  alpha Z        PSCENC =        14.70174895
  Ewald energy   TEWEN  =      3213.00539378
  -Hartree energ DENC   =     -3917.40293232
  -exchange      EXHF   =         0.00000000
  -V(xc)+E(xc)   XCENC  =       -35.17206647
  PAW double counting   =       478.68251561     -402.87346356
  entropy T*S    EENTRO =        -0.00000000
  eigenvalues    EBANDS =      -143.77317925
  atomic energy  EATOM  =       771.06857575
  Solvation  Ediel_sol  =         0.00000000
  ---------------------------------------------------
  free energy    TOTEN  =       -21.76340753 eV

  energy without entropy =      -21.76340753  energy(sigma->0) =      -21.76340753


--------------------------------------------------------------------------------------------------------




--------------------------------------- Iteration      1(  19)  ---------------------------------------


    POTLOK:  cpu time    0.0130: real time    0.0137
    SETDIJ:  cpu time    0.0030: real time    0.0021
    EDDIAG:  cpu time    0.0170: real time    0.0176
  RMM-DIIS:  cpu time    0.0450: real time    0.0450
    ORTHCH:  cpu time    0.0030: real time    0.0023
       DOS:  cpu time    0.0010: real time    0.0018
    CHARGE:  cpu time    0.0080: real time    0.0076
    MIXING:  cpu time    0.0010: real time    0.0014
    --------------------------------------------
      LOOP:  cpu time    0.0910: real time    0.0915

 eigenvalue-minimisations  :   173
 total energy-change (2. order) :-0.2161630E-05  (-0.2630326E-07)
 number of electron      17.9999938 magnetization 
 augmentation part       -0.5602311 magnetization 

 Broyden mixing:
  rms(total) = 0.20700E-03    rms(broyden)= 0.25569E-04
  rms(prec ) = 0.28635E-04
  weight for this iteration     100.00
  WARNING: grid for Broyden might be to small

 eigenvalues of (default mixing * dielectric matrix)
  average eigenvalue GAMMA=   2.3343
  8.1997  5.3113  3.2432  2.7362  2.1915  1.9027  1.9027  1.4644  0.6653  1.1198
  1.1198  0.9603  0.9315  0.9315

 Free energy of the ion-electron system (eV)
  ---------------------------------------------------
  alpha Z        PSCENC =        14.70174895
  Ewald energy   TEWEN  =      3213.00539378
  -Hartree energ DENC   =     -3917.40065218
  -exchange      EXHF   =         0.00000000
  -V(xc)+E(xc)   XCENC  =       -35.17210878
  PAW double counting   =       478.68605106     -402.87709966
  entropy T*S    EENTRO =        -0.00000000
  eigenvalues    EBANDS =      -143.77531860
  atomic energy  EATOM  =       771.06857575
  Solvation  Ediel_sol  =         0.00000000
  ---------------------------------------------------
  free energy    TOTEN  =       -21.76340969 eV

  energy without entropy =      -21.76340969  energy(sigma->0) =      -21.76340969


--------------------------------------------------------------------------------------------------------




--------------------------------------- Iteration      1(  20)  ---------------------------------------


    POTLOK:  cpu time    0.0140: real time    0.0139
    SETDIJ:  cpu time    0.0020: real time    0.0021
    EDDIAG:  cpu time    0.0180: real time    0.0177
  RMM-DIIS:  cpu time    0.0380: real time    0.0383
    ORTHCH:  cpu time    0.0020: real time    0.0022
       DOS:  cpu time    0.0010: real time    0.0017
    --------------------------------------------
      LOOP:  cpu time    0.0750: real time    0.0760

 eigenvalue-minimisations  :    83
 total energy-change (2. order) :-0.1983614E-06  (-0.1959920E-08)
 number of electron      17.9999938 magnetization 
 augmentation part       -0.5602311 magnetization 

 Free energy of the ion-electron system (eV)
  ---------------------------------------------------
  alpha Z        PSCENC =        14.70174895
  Ewald energy   TEWEN  =      3213.00539378
  -Hartree energ DENC   =     -3917.40273358
  -exchange      EXHF   =         0.00000000
  -V(xc)+E(xc)   XCENC  =       -35.17208108
  PAW double counting   =       478.68485267     -402.87588761
  entropy T*S    EENTRO =        -0.00000000
  eigenvalues    EBANDS =      -143.77327876
  atomic energy  EATOM  =       771.06857575
  Solvation  Ediel_sol  =         0.00000000
  ---------------------------------------------------
  free energy    TOTEN  =       -21.76340989 eV

  energy without entropy =      -21.76340989  energy(sigma->0) =      -21.76340989


--------------------------------------------------------------------------------------------------------




 average (electrostatic) potential at core
  the test charge radii are     1.2296  0.9698
  (the norm of the test charge is              1.0000)
       1 -46.4527       2 -94.3051       3 -94.3051
 
 
 
 E-fermi :  -2.1700     XC(G=0):  -3.3887     alpha+bet : -3.1336


 k-point     1 :       0.0000    0.0000    0.0000
  band No.  band energies     occupation 
      1     -17.0349      2.00000
      2     -15.8265      2.00000
      3      -8.5441      2.00000
      4      -5.5824      2.00000
      5      -5.5821      2.00000
      6      -4.7230      2.00000
      7      -4.4751      2.00000
      8      -4.4746      2.00000
      9      -3.0002      2.00000
     10      -0.2261      0.00000
     11      -0.2253      0.00000
     12      -0.0029      0.00000
     13      -0.0023      0.00000
     14       2.3949      0.00000

 k-point     2 :       0.1250    0.0000    0.0000
  band No.  band energies     occupation 
      1     -16.8208      2.00000
      2     -15.7241      2.00000
      3      -8.2998      2.00000
      4      -6.0473      2.00000
      5      -5.5301      2.00000
      6      -5.3485      2.00000
      7      -4.8115      2.00000
      8      -4.0443      2.00000
      9      -3.1394      2.00000
     10      -0.5091      0.00000
     11      -0.4425      0.00000
     12      -0.2407      0.00000
     13       0.1279      0.00000
     14       2.7574      0.00000

 k-point     3 :       0.2500    0.0000    0.0000
  band No.  band energies     occupation 
      1     -16.2523      2.00000
      2     -15.4552      2.00000
      3      -7.9338      2.00000
      4      -6.7754      2.00000
      5      -6.5117      2.00000
      6      -5.4485      2.00000
      7      -4.7627      2.00000
      8      -4.2962      2.00000
      9      -3.7079      2.00000
     10      -0.8334      0.00000
     11      -0.6583      0.00000
     12      -0.1152      0.00000
     13       0.7428      0.00000
     14       3.5852      0.00000

 k-point     4 :       0.3750    0.0000    0.0000
  band No.  band energies     occupation 
      1     -15.5774      2.00000
      2     -15.1466      2.00000
      3      -8.3730      2.00000
      4      -7.3805      2.00000
      5      -6.9067      2.00000
      6      -5.9467      2.00000
      7      -4.7052      2.00000
      8      -4.1727      2.00000
      9      -3.9021      2.00000
     10      -0.8406      0.00000
     11      -0.5609      0.00000
     12       0.6040      0.00000
     13       1.1360      0.00000
     14       4.1595      0.00000

 k-point     5 :       0.5000    0.0000    0.0000
  band No.  band energies     occupation 
      1     -15.2491      2.00000
      2     -15.0033      2.00000
      3      -8.7064      2.00000
      4      -7.7468      2.00000
      5      -7.0325      2.00000
      6      -6.1280      2.00000
      7      -4.8440      2.00000
      8      -3.9458      2.00000
      9      -3.6208      2.00000
     10      -0.8192      0.00000
     11      -0.3045      0.00000
     12       0.9029      0.00000
     13       1.2509      0.00000
     14       3.2051      0.00000

 k-point     6 :       0.1250    0.1250    0.0000
  band No.  band energies     occupation 
      1     -16.4282      2.00000
      2     -15.5370      2.00000
      3      -7.9527      2.00000
      4      -6.6126      2.00000
      5      -6.0930      2.00000
      6      -5.6264      2.00000
      7      -5.0102      2.00000
      8      -3.9097      2.00000
      9      -3.5123      2.00000
     10      -0.9085      0.00000
     11      -0.5313      0.00000
     12      -0.5189      0.00000
     13       0.7217      0.00000
     14       3.3508      0.00000

 k-point     7 :       0.2500    0.1250    0.0000
  band No.  band energies     occupation 
      1     -15.7948      2.00000
      2     -15.2383      2.00000
      3      -8.0166      2.00000
      4      -7.0388      2.00000
      5      -6.7756      2.00000
      6      -6.1315      2.00000
      7      -4.9111      2.00000
      8      -4.2724      2.00000
      9      -3.7958      2.00000
     10      -0.9921      0.00000
     11      -0.5453      0.00000
     12      -0.0485      0.00000
     13       1.2277      0.00000
     14       4.3446      0.00000

 k-point     8 :       0.3750    0.1250    0.0000
  band No.  band energies     occupation 
      1     -15.2644      2.00000
      2     -14.9944      2.00000
      3      -8.4184      2.00000
      4      -7.8025      2.00000
      5      -6.9044      2.00000
      6      -6.1491      2.00000
      7      -4.8958      2.00000
      8      -4.7537      2.00000
      9      -3.4690      2.00000
     10      -0.8000      0.00000
     11      -0.2899      0.00000
     12       0.5753      0.00000
     13       1.2614      0.00000
     14       3.7313      0.00000

 k-point     9 :       0.2500    0.2500    0.0000
  band No.  band energies     occupation 
      1     -15.2794      2.00000
      2     -14.9855      2.00000
      3      -8.0577      2.00000
      4      -7.8525      2.00000
      5      -6.5785      2.00000
      6      -6.1974      2.00000
      7      -5.8782      2.00000
      8      -4.6207      2.00000
      9      -3.4989      2.00000
     10      -0.8509      0.00000
     11      -0.2394      0.00000
     12       0.0773      0.00000
     13       1.5457      0.00000
     14       4.5612      0.00000

 k-point    10 :       0.3750    0.2500    0.0000
  band No.  band energies     occupation 
      1     -15.0444      2.00000
      2     -14.8664      2.00000
      3      -8.2373      2.00000
      4      -7.8886      2.00000
      5      -6.8616      2.00000
      6      -6.1998      2.00000
      7      -5.9716      2.00000
      8      -5.0063      2.00000
      9      -3.1316      2.00000
     10      -1.1772      0.00000
     11       0.1382      0.00000
     12       0.3100      0.00000
     13       1.6888      0.00000
     14       3.9757      0.00000


--------------------------------------------------------------------------------------------------------


 soft charge-density along one line, spin component           1
         0         1         2         3         4         5         6         7         8         9
 total charge-density along one line
 
 pseudopotential strength for first ion, spin component:           1
 -9.873  -0.000  -0.000   0.000  -0.000   0.091   0.000   0.000
 -0.000  -9.873  -0.000  -0.000  -0.000   0.000   0.091   0.000
 -0.000  -0.000  -9.852  -0.000   0.000   0.000   0.000   0.089
  0.000  -0.000  -0.000  -9.873   0.000  -0.000   0.000   0.000
 -0.000  -0.000   0.000   0.000  -9.873   0.000   0.000  -0.000
  0.091   0.000   0.000  -0.000   0.000   0.099  -0.000  -0.000
  0.000   0.091   0.000   0.000   0.000  -0.000   0.099  -0.000
  0.000   0.000   0.089   0.000  -0.000  -0.000  -0.000   0.099
 -0.000   0.000   0.000   0.091  -0.000   0.000   0.000  -0.000
  0.000   0.000  -0.000  -0.000   0.091  -0.000  -0.000   0.000
 -0.000  -0.000  -0.005  -0.000   0.000   0.000   0.000   0.000
  0.000   0.000   0.001   0.000  -0.000  -0.000  -0.000  -0.000
 -0.000  -0.000  -0.000  -0.000  -0.007   0.000   0.000   0.000
 -0.000   0.000  -0.000  -0.000  -0.000  -0.000  -0.000   0.000
 -0.007  -0.000   0.000  -0.000  -0.000  -0.000  -0.000  -0.000
  0.000   0.000   0.000   0.000   0.004  -0.000  -0.000  -0.000
  0.000  -0.000   0.000   0.000   0.000  -0.000   0.000  -0.000
  0.004   0.000  -0.000   0.000   0.000   0.000  -0.000   0.000
 total augmentation occupancy for first ion, spin component:           1
  0.970  -0.000  -0.000  -0.000  -0.000   0.662   0.000  -0.000  -0.000  -0.000  -0.000   0.000   0.000   0.000  -0.066  -0.000
  0.000   0.911   0.000   0.000   0.000   0.000   0.897   0.000   0.000  -0.000   0.000   0.000  -0.000   0.000   0.000   0.000
 -0.000   0.000   1.035   0.000   0.000  -0.000   0.000   0.566   0.000   0.000   0.111  -0.019  -0.000   0.000   0.000   0.000
  0.000   0.000   0.000   0.911   0.000  -0.000   0.000   0.000   0.897   0.000   0.000   0.000   0.000  -0.000   0.000   0.000
 -0.000   0.000   0.000   0.000   0.970  -0.000  -0.000   0.000   0.000   0.662   0.000  -0.000  -0.066   0.000  -0.000   0.007
  0.662   0.000  -0.000   0.000  -0.000   0.769   0.000  -0.000   0.000  -0.000   0.000   0.000   0.000   0.000  -0.143  -0.000
  0.000   0.897  -0.000   0.000  -0.000   0.000   1.205   0.000   0.000  -0.000   0.000   0.000  -0.000   0.000   0.000  -0.000
 -0.000  -0.000   0.566   0.000   0.000  -0.000   0.000   0.550   0.000   0.000   0.066  -0.023  -0.000  -0.000   0.000   0.000
 -0.000   0.000   0.000   0.897   0.000  -0.000   0.000   0.000   1.205   0.000  -0.000   0.000   0.000   0.000  -0.000   0.000
 -0.000  -0.000   0.000   0.000   0.662  -0.000   0.000   0.000   0.000   0.769   0.000  -0.000  -0.143   0.000  -0.000   0.024
 -0.000   0.000   0.111   0.000   0.000   0.000   0.000   0.066  -0.000   0.000   1.210  -0.183  -0.000  -0.000   0.000   0.000
  0.000   0.000  -0.019   0.000  -0.000   0.000  -0.000  -0.023   0.000  -0.000  -0.183   0.041   0.000  -0.000  -0.000  -0.000
  0.000  -0.000  -0.000   0.000  -0.066   0.000   0.000  -0.000   0.000  -0.143   0.000   0.000   0.217   0.000   0.000  -0.033
 -0.000   0.000  -0.000  -0.000  -0.000  -0.000   0.000   0.000   0.000   0.000  -0.000  -0.000   0.000   0.265   0.000   0.000
 -0.066   0.000   0.000   0.000  -0.000  -0.143   0.000   0.000  -0.000  -0.000   0.000   0.000   0.000   0.000   0.217  -0.000
 -0.000   0.000   0.000   0.000   0.007  -0.000   0.000   0.000   0.000   0.024   0.000  -0.000  -0.033   0.000  -0.000   0.005
 -0.000  -0.000   0.000   0.000   0.000   0.000   0.000  -0.000   0.000   0.000   0.000  -0.000   0.000  -0.039  -0.000   0.000
  0.007   0.000  -0.000  -0.000   0.000   0.024   0.000  -0.000   0.000   0.000   0.000   0.000  -0.000   0.000  -0.033   0.000


------------------------ aborting loop because EDIFF is reached ----------------------------------------


 


 total charge     
 
# of ion       s       p       d       tot
------------------------------------------
    1        0.414   0.593   4.443   5.450
    2        1.366   2.356   0.000   3.722
    3        1.366   2.356   0.000   3.722
--------------------------------------------------
tot          3.145   5.305   4.443  12.894
 
    CHARGE:  cpu time    0.0080: real time    0.0077
    FORLOC:  cpu time    0.0010: real time    0.0013
    FORNL :  cpu time    0.0310: real time    0.0312
    STRESS:  cpu time    0.0940: real time    0.0943
    FORCOR:  cpu time    0.0160: real time    0.0151
    FORHAR:  cpu time    0.0030: real time    0.0034
    MIXING:  cpu time    0.0010: real time    0.0015
    OFIELD:  cpu time    0.0000: real time    0.0000

  DFT-D2 method for vdW energy calculation
  -------------------------------------------------------------------

  Parameters of vdW forcefield:
         C6(Jnm^6/mol)     R0(A)
   -----------------------------
   Mo      24.670          1.639
   S        5.570          1.683

  IVDW =   1
  VDW_RADIUS =    50.000 A
  VDW_S6 =     0.750
  VDW_SR =     1.000
  VDW_D =    20.000
  LVDW_EWALD = F

  Number of pair interactions contributing to vdW energy:   15557
  Edisp (eV):   -0.59116
    FORVDW:  cpu time    0.0150: real time    0.0189

  FORCE on cell =-STRESS in cart. coord.  units (eV):
  Direction    XX          YY          ZZ          XY          YZ          ZX
  --------------------------------------------------------------------------------------
  Alpha Z    14.70175    14.70175    14.70175
  Ewald    3779.87172  3779.87216 -4346.73865     0.00019     0.00000     0.00012
  Hartree  3879.16409  3879.16409 -3840.92280     0.00002     0.00000    -0.00000
  E(xc)     -70.33546   -70.33543   -70.93949     0.00003    -0.00002    -0.00001
  Local   -7942.65911 -7942.66069  7898.03455    -0.00129    -0.00029    -0.00022
  n-local   127.31554   125.92693   131.85449    -0.26313     0.00001     0.00013
  augment   -25.66758   -25.66714   -26.77099     0.00039    -0.00002    -0.00001
  Kinetic   236.13464   238.93335   240.02609    -7.43307     0.00005     0.00006
  Fock        0.00000     0.00000     0.00000     0.00000     0.00000     0.00000
  vdW         0.16017     0.16017    -0.13527     0.00000     0.00000    -0.00000
  -------------------------------------------------------------------------------------
  Total      -0.60952    -0.60952    -0.89031    -0.00000     0.00000     0.00000
  in kB      -4.84243    -4.84243    -7.07322    -0.00000     0.00000     0.00000
  external pressure =       -5.59 kB  Pullay stress =        0.00 kB


 VOLUME and BASIS-vectors are now :
 -----------------------------------------------------------------------------
  energy-cutoff  :      250.00
  volume of cell :      201.67
      direct lattice vectors                 reciprocal lattice vectors
     3.190315730  0.000000000  0.000000000     0.313448600  0.180969634  0.000000000
    -1.595157865  2.762894468  0.000000000     0.000000000  0.361939267  0.000000000
     0.000000000  0.000000000 22.879004300     0.000000000  0.000000000  0.043708196

  length of vectors
     3.190315730  3.190315730 22.879004300     0.361939267  0.361939267  0.043708196


 FORCES acting on ions
    electron-ion (+dipol)            ewald-force                    non-local-force                 convergence-correction
 -----------------------------------------------------------------------------------------------
   -.103E-04 -.208E-05 -.122E-03   0.931E-04 -.108E-03 0.259E-06   0.139E-16 0.000E+00 0.163E-18   0.109E-08 -.141E-08 0.616E-06
   -.121E-02 -.789E-05 0.556E+03   -.864E-04 0.538E-04 -.561E+03   -.520E-17 -.173E-17 0.496E+01   -.291E-08 0.169E-08 -.418E-03
   0.111E-02 0.105E-02 -.556E+03   -.674E-05 0.538E-04 0.561E+03   -.139E-16 0.173E-17 -.496E+01   0.216E-08 0.209E-08 0.419E-03
 -----------------------------------------------------------------------------------------------
   -.110E-03 0.104E-02 -.365E-03   0.773E-14 0.218E-14 0.000E+00   -.520E-17 0.000E+00 0.000E+00   0.343E-09 0.237E-08 0.162E-05
 
 
 POSITION                                       TOTAL-FORCE (eV/Angst)
 -----------------------------------------------------------------------------------
     -0.00000      1.84193      3.71975        -0.000000     -0.000000      0.000000
      1.59516      0.92096      2.15487         0.000000      0.000000      0.106431
      1.59516      0.92096      5.28464        -0.000000     -0.000000     -0.106431
 -----------------------------------------------------------------------------------
    total drift:                               -0.000110      0.001043     -0.000363


--------------------------------------------------------------------------------------------------------



  FREE ENERGIE OF THE ION-ELECTRON SYSTEM (eV)
  ---------------------------------------------------
  free  energy   TOTEN  =       -22.35456773 eV

  energy  without entropy=      -22.35456773  energy(sigma->0) =      -22.35456773
 


--------------------------------------------------------------------------------------------------------


    POTLOK:  cpu time    0.0170: real time    0.0159


--------------------------------------------------------------------------------------------------------


     LOOP+:  cpu time    2.5396: real time    3.0396
    4ORBIT:  cpu time    0.0000: real time    0.0000
 


 total charge     
 
# of ion       s       p       d       tot
------------------------------------------
    1        0.414   0.593   4.443   5.450
    2        1.366   2.356   0.000   3.722
    3        1.366   2.356   0.000   3.722
--------------------------------------------------
tot          3.145   5.305   4.443  12.894
 

 total amount of memory used by VASP MPI-rank0    34224. kBytes
=======================================================================

   base      :      30000. kBytes
   nonlr-proj:        349. kBytes
   fftplans  :       1069. kBytes
   grid      :       1723. kBytes
   one-center:         31. kBytes
   wavefun   :       1052. kBytes
 
  
  
 General timing and accounting informations for this job:
 ========================================================
  
                  Total CPU time used (sec):        3.595
                            User time (sec):        3.501
                          System time (sec):        0.094
                         Elapsed time (sec):        6.963
  
                   Maximum memory used (kb):       26676.
                   Average memory used (kb):           0.
  
                          Minor page faults:         6735
                          Major page faults:          184
                 Voluntary context switches:         2550
