perl: warning: Setting locale failed.
perl: warning: Please check that your locale settings:
	LANGUAGE = (unset),
	LC_ALL = (unset),
	LC_CTYPE = "UTF-8",
	LANG = "en_US.iso885915"
    are supported and installed on your system.
perl: warning: Falling back to the standard locale ("C").
Starting job 28532607 ("jobname") on c15-29 at Fri Nov 8 11:45:39 CET 2019
 running on    4 total cores
 distrk:  each k-point on    4 cores,    1 groups
 distr:  one band on    2 cores,    2 groups
 using from now: INCAR     
 vasp.5.4.4.18Apr17-6-g9f103f2a35 (build Jun 30 2017 11:15:00) complex          
  
 POSCAR found type information on POSCAR  Mo S 
 POSCAR found :  2 types and       3 ions
 scaLAPACK will be used

 ----------------------------------------------------------------------------- 
|                                                                             |
|  ADVICE TO THIS USER RUNNING 'VASP/VAMP'   (HEAR YOUR MASTER'S VOICE ...):  |
|                                                                             |
|      You have a (more or less) 'small supercell' and for smaller cells      |
|      it is recommended  to use the reciprocal-space projection scheme!      |
|      The real space optimization is not  efficient for small cells and it   |
|      is also less accurate ...                                              |
|      Therefore set LREAL=.FALSE. in the  INCAR file                         |
|                                                                             |
 ----------------------------------------------------------------------------- 

 LDA part: xc-table for Pade appr. of Perdew
 POSCAR, INCAR and KPOINTS ok, starting setup
 FFT: planning ...
 WAVECAR not read
 entering main loop
       N       E                     dE             d eps       ncg     rms          rms(c)
DAV:   1     0.981332416512E+02    0.98133E+02   -0.43856E+03   280   0.528E+02
DAV:   2    -0.126650904155E+02   -0.11080E+03   -0.10304E+03   440   0.153E+02
DAV:   3    -0.231626363983E+02   -0.10498E+02   -0.10369E+02   376   0.580E+01
DAV:   4    -0.233650984443E+02   -0.20246E+00   -0.20104E+00   374   0.936E+00
DAV:   5    -0.233705505916E+02   -0.54521E-02   -0.54494E-02   358   0.142E+00    0.691E+00
RMM:   6    -0.222109876036E+02    0.11596E+01   -0.53786E+00   293   0.116E+01    0.263E+00
RMM:   7    -0.218280372299E+02    0.38295E+00   -0.54503E-01   290   0.325E+00    0.152E+00
RMM:   8    -0.217681491041E+02    0.59888E-01   -0.23451E-01   306   0.243E+00    0.350E-01
RMM:   9    -0.217634193903E+02    0.47297E-02   -0.81451E-03   337   0.547E-01    0.946E-02
RMM:  10    -0.217626494101E+02    0.76998E-03   -0.17142E-03   337   0.213E-01    0.449E-02
RMM:  11    -0.217626326456E+02    0.16765E-04   -0.20920E-03   313   0.201E-01    0.605E-02
RMM:  12    -0.217625038581E+02    0.12879E-03   -0.69333E-04   304   0.140E-01    0.174E-02
RMM:  13    -0.217630327071E+02   -0.52885E-03   -0.16770E-04   300   0.678E-02    0.201E-02
RMM:  14    -0.217631193200E+02   -0.86613E-04   -0.29762E-05   326   0.281E-02    0.630E-03
RMM:  15    -0.217633166552E+02   -0.19734E-03   -0.14406E-05   289   0.162E-02    0.437E-03
RMM:  16    -0.217633715759E+02   -0.54921E-04   -0.31926E-06   246   0.811E-03    0.298E-03
RMM:  17    -0.217634060722E+02   -0.34496E-04   -0.19990E-06   201   0.705E-03    0.233E-03
RMM:  18    -0.217634075309E+02   -0.14588E-05   -0.15446E-07   156   0.252E-03    0.214E-03
RMM:  19    -0.217634096926E+02   -0.21616E-05   -0.26303E-07   173   0.256E-03    0.207E-03
RMM:  20    -0.217634098909E+02   -0.19836E-06   -0.19599E-08    83   0.124E-03
   1 F= -.22354568E+02 E0= -.22354568E+02  d E =-.598031E-10

Currently Loaded Modulefiles:
  1) Anaconda3/5.1.0       3) vesta/3.3.8           5) intel/2016.1
  2) gnuplot/5.0.4         4) imagemagick/6.7.9-0   6) vasp/5.4.1.Feb16

Job script resource usage:
       JobID  MaxVMSize     MaxRSS 
------------ ---------- ---------- 
28532607.ba+    216888K      2318K 

Job step resource usage:
       JobID    JobName  AllocCPUS  MaxVMSize     MaxRSS    Elapsed ExitCode 
------------ ---------- ---------- ---------- ---------- ---------- -------- 
28532607        jobname          4                         00:00:09      0:0 
28532607.0    pmi_proxy          1    279832K       516K   00:00:08      0:0 

Job 28532607 ("jobname") completed on c15-29 at Fri Nov 8 11:45:47 CET 2019
