<?xml version="1.0" encoding="ISO-8859-1"?>
<modeling>
 <generator>
  <i name="program" type="string">vasp </i>
  <i name="version" type="string">5.4.4.18Apr17-6-g9f103f2a35  </i>
  <i name="subversion" type="string">(build Jun 30 2017 11:15:00) complex            parallel </i>
  <i name="platform" type="string">STALLO_VASP_5.4.4 </i>
  <i name="date" type="string">2019 11 08 </i>
  <i name="time" type="string">11:45:40 </i>
 </generator>
 <incar>
  <i type="string" name="PREC">normal    ! low/normal/accurate</i>
  <i type="string" name="ALGO"> Fast      ! Algorithm for electronic re</i>
  <i type="int" name="ISPIN">     1</i>
  <i type="int" name="NELMIN">     4</i>
  <i name="EDIFF">      0.00000100</i>
  <i type="int" name="NSW">     0</i>
  <i name="ENCUT">    250.00000000</i>
  <i type="int" name="NEDOS">  2401</i>
  <i type="string" name="LREAL"> Auto      ! Projection in reciprocal sp</i>
  <i name="EMIN">    -12.00000000</i>
  <i name="EMAX">     12.00000000</i>
  <i type="int" name="ISMEAR">     0</i>
  <i name="SIGMA">      0.20000000</i>
  <i type="logical" name="LWAVE"> F  </i>
  <i type="int" name="LORBIT">    11</i>
  <i type="logical" name="LELF"> T  </i>
  <v type="int" name="KPOINT_BSE">    -1     0     0     0</v>
 </incar>
 <structure name="primitive_cell" >
  <crystal>
   <varray name="basis" >
    <v>       3.19031573       0.00000000       0.00000000 </v>
    <v>      -1.59515786       2.76289447       0.00000000 </v>
    <v>       0.00000000       0.00000000      22.87900430 </v>
   </varray>
   <i name="volume">    201.66711341 </i>
   <varray name="rec_basis" >
    <v>       0.31344860       0.18096963       0.00000000 </v>
    <v>       0.00000000       0.36193927       0.00000000 </v>
    <v>       0.00000000       0.00000000       0.04370820 </v>
   </varray>
  </crystal>
  <varray name="positions" >
   <v>       0.33333300      -0.33333300       0.16258361 </v>
   <v>      -0.33333400       0.33333300       0.23098188 </v>
   <v>      -0.33333300       0.33333300       0.09418533 </v>
  </varray>
 </structure>
 <varray name="primitive_index" >
  <v type="int" >        1 </v>
  <v type="int" >        3 </v>
  <v type="int" >        2 </v>
 </varray>
 <kpoints>
  <generation param="Gamma">
   <v type="int" name="divisions">       8        8        1 </v>
   <v name="usershift">      0.00000000       0.00000000       0.00000000 </v>
   <v name="genvec1">      0.12500000       0.00000000       0.00000000 </v>
   <v name="genvec2">      0.00000000       0.12500000       0.00000000 </v>
   <v name="genvec3">      0.00000000       0.00000000       1.00000000 </v>
   <v name="shift">      0.00000000       0.00000000       0.00000000 </v>
  </generation>
  <varray name="kpointlist" >
   <v>       0.00000000       0.00000000       0.00000000 </v>
   <v>       0.12500000       0.00000000       0.00000000 </v>
   <v>       0.25000000       0.00000000       0.00000000 </v>
   <v>       0.37500000       0.00000000       0.00000000 </v>
   <v>       0.50000000       0.00000000       0.00000000 </v>
   <v>       0.12500000       0.12500000       0.00000000 </v>
   <v>       0.25000000       0.12500000       0.00000000 </v>
   <v>       0.37500000       0.12500000       0.00000000 </v>
   <v>       0.25000000       0.25000000       0.00000000 </v>
   <v>       0.37500000       0.25000000       0.00000000 </v>
  </varray>
  <varray name="weights" >
   <v>       0.01562500 </v>
   <v>       0.09375000 </v>
   <v>       0.09375000 </v>
   <v>       0.09375000 </v>
   <v>       0.04687500 </v>
   <v>       0.09375000 </v>
   <v>       0.18750000 </v>
   <v>       0.18750000 </v>
   <v>       0.09375000 </v>
   <v>       0.09375000 </v>
  </varray>
 </kpoints>
 <parameters>
  <separator name="general" >
   <i type="string" name="SYSTEM">unknown system</i>
   <i type="logical" name="LCOMPAT"> F  </i>
  </separator>
  <separator name="electronic" >
   <i type="string" name="PREC">normal</i>
   <i name="ENMAX">    250.00000000</i>
   <i name="ENAUG">    345.27800000</i>
   <i name="EDIFF">      0.00000100</i>
   <i type="int" name="IALGO">    68</i>
   <i type="int" name="IWAVPR">    10</i>
   <i type="int" name="NBANDS">    14</i>
   <i name="NELECT">     18.00000000</i>
   <i type="int" name="TURBO">     0</i>
   <i type="int" name="IRESTART">     0</i>
   <i type="int" name="NREBOOT">     0</i>
   <i type="int" name="NMIN">     0</i>
   <i name="EREF">      0.00000000</i>
   <separator name="electronic smearing" >
    <i type="int" name="ISMEAR">     0</i>
    <i name="SIGMA">      0.20000000</i>
    <i name="KSPACING">      0.50000000</i>
    <i type="logical" name="KGAMMA"> T  </i>
   </separator>
   <separator name="electronic projectors" >
    <i type="logical" name="LREAL"> T  </i>
    <v name="ROPT">     -0.00050000     -0.00050000</v>
    <i type="int" name="LMAXPAW">  -100</i>
    <i type="int" name="LMAXMIX">     2</i>
    <i type="logical" name="NLSPLINE"> F  </i>
   </separator>
   <separator name="electronic startup" >
    <i type="int" name="ISTART">     0</i>
    <i type="int" name="ICHARG">     2</i>
    <i type="int" name="INIWAV">     1</i>
   </separator>
   <separator name="electronic spin" >
    <i type="int" name="ISPIN">     1</i>
    <i type="logical" name="LNONCOLLINEAR"> F  </i>
    <v name="MAGMOM">      1.00000000      1.00000000      1.00000000</v>
    <i name="NUPDOWN">     -1.00000000</i>
    <i type="logical" name="LSORBIT"> F  </i>
    <v name="SAXIS">      0.00000000      0.00000000      1.00000000</v>
    <i type="logical" name="LSPIRAL"> F  </i>
    <v name="QSPIRAL">      0.00000000      0.00000000      0.00000000</v>
    <i type="logical" name="LZEROZ"> F  </i>
   </separator>
   <separator name="electronic exchange-correlation" >
    <i type="logical" name="LASPH"> F  </i>
    <i type="logical" name="LMETAGGA"> F  </i>
   </separator>
   <separator name="electronic convergence" >
    <i type="int" name="NELM">    60</i>
    <i type="int" name="NELMDL">    -5</i>
    <i type="int" name="NELMIN">     4</i>
    <i name="ENINI">    250.00000000</i>
    <separator name="electronic convergence detail" >
     <i type="logical" name="LDIAG"> T  </i>
     <i type="logical" name="LSUBROT"> F  </i>
     <i name="WEIMIN">      0.00000000</i>
     <i name="EBREAK">      0.00000002</i>
     <i name="DEPER">      0.30000000</i>
     <i type="int" name="NRMM">     4</i>
     <i name="TIME">      0.40000000</i>
    </separator>
   </separator>
   <separator name="electronic mixer" >
    <i name="AMIX">      0.40000000</i>
    <i name="BMIX">      1.00000000</i>
    <i name="AMIN">      0.10000000</i>
    <i name="AMIX_MAG">      1.60000000</i>
    <i name="BMIX_MAG">      1.00000000</i>
    <separator name="electronic mixer details" >
     <i type="int" name="IMIX">     4</i>
     <i type="logical" name="MIXFIRST"> F  </i>
     <i type="int" name="MAXMIX">   -45</i>
     <i name="WC">    100.00000000</i>
     <i type="int" name="INIMIX">     1</i>
     <i type="int" name="MIXPRE">     1</i>
     <i type="int" name="MREMOVE">     5</i>
    </separator>
   </separator>
   <separator name="electronic dipolcorrection" >
    <i type="logical" name="LDIPOL"> F  </i>
    <i type="logical" name="LMONO"> F  </i>
    <i type="int" name="IDIPOL">     0</i>
    <i name="EPSILON">      1.00000000</i>
    <v name="DIPOL">   -100.00000000   -100.00000000   -100.00000000</v>
    <i name="EFIELD">      0.00000000</i>
   </separator>
  </separator>
  <separator name="grids" >
   <i type="int" name="NGX">    12</i>
   <i type="int" name="NGY">    12</i>
   <i type="int" name="NGZ">    90</i>
   <i type="int" name="NGXF">    24</i>
   <i type="int" name="NGYF">    24</i>
   <i type="int" name="NGZF">   180</i>
   <i type="logical" name="ADDGRID"> F  </i>
  </separator>
  <separator name="ionic" >
   <i type="int" name="NSW">     0</i>
   <i type="int" name="IBRION">    -1</i>
   <i type="int" name="MDALGO">     0</i>
   <i type="int" name="ISIF">     2</i>
   <i name="PSTRESS">      0.00000000</i>
   <i name="EDIFFG">      0.00001000</i>
   <i type="int" name="NFREE">     0</i>
   <i name="POTIM">      0.50000000</i>
   <i name="SMASS">     -3.00000000</i>
   <i name="SCALEE">      1.00000000</i>
  </separator>
  <separator name="ionic md" >
   <i name="TEBEG">      0.00010000</i>
   <i name="TEEND">      0.00010000</i>
   <i type="int" name="NBLOCK">     1</i>
   <i type="int" name="KBLOCK">     1</i>
   <i type="int" name="NPACO">   256</i>
   <i name="APACO">     16.00000000</i>
  </separator>
  <separator name="symmetry" >
   <i type="int" name="ISYM">     2</i>
   <i name="SYMPREC">      0.00001000</i>
  </separator>
  <separator name="dos" >
   <i type="int" name="LORBIT">    11</i>
   <v name="RWIGS">     -1.00000000     -1.00000000</v>
   <i type="int" name="NEDOS">  2401</i>
   <i name="EMIN">    -12.00000000</i>
   <i name="EMAX">     12.00000000</i>
   <i name="EFERMI">      0.00000000</i>
  </separator>
  <separator name="writing" >
   <i type="int" name="NWRITE">     2</i>
   <i type="logical" name="LWAVE"> F  </i>
   <i type="logical" name="LDOWNSAMPLE"> F  </i>
   <i type="logical" name="LCHARG"> T  </i>
   <i type="logical" name="LPARD"> F  </i>
   <i type="logical" name="LVTOT"> F  </i>
   <i type="logical" name="LVHAR"> F  </i>
   <i type="logical" name="LELF"> T  </i>
   <i type="logical" name="LOPTICS"> F  </i>
   <v name="STM">      0.00000000      0.00000000      0.00000000      0.00000000      0.00000000      0.00000000      0.00000000</v>
  </separator>
  <separator name="performance" >
   <i type="int" name="NPAR">     2</i>
   <i type="int" name="NSIM">     4</i>
   <i type="int" name="NBLK">    -1</i>
   <i type="logical" name="LPLANE"> T  </i>
   <i type="logical" name="LSCALAPACK"> T  </i>
   <i type="logical" name="LSCAAWARE"> F  </i>
   <i type="logical" name="LSCALU"> F  </i>
   <i type="logical" name="LASYNC"> F  </i>
   <i type="logical" name="LORBITALREAL"> F  </i>
  </separator>
  <separator name="miscellaneous" >
   <i type="int" name="IDIOT">     3</i>
   <i type="int" name="ISPECIAL">     0</i>
   <i type="logical" name="LMUSIC"> F  </i>
   <v name="POMASS">     95.94000000     32.06600000</v>
   <v name="DARWINR">      0.00000000      0.00000000</v>
   <v name="DARWINV">      1.00000000      1.00000000</v>
   <i type="logical" name="LCORR"> T  </i>
  </separator>
  <i type="logical" name="GGA_COMPAT"> T  </i>
  <i type="logical" name="LBERRY"> F  </i>
  <i type="int" name="ICORELEVEL">     0</i>
  <i type="logical" name="LDAU"> F  </i>
  <i type="int" name="I_CONSTRAINED_M">     0</i>
  <separator name="electronic exchange-correlation" >
   <i type="string" name="GGA">--</i>
   <i type="int" name="VOSKOWN">     0</i>
   <i type="logical" name="LHFCALC"> F  </i>
   <i type="string" name="PRECFOCK"></i>
   <i type="logical" name="LSYMGRAD"> F  </i>
   <i type="logical" name="LHFONE"> F  </i>
   <i type="logical" name="LRHFCALC"> F  </i>
   <i type="logical" name="LTHOMAS"> F  </i>
   <i type="logical" name="LMODELHF"> F  </i>
   <i name="ENCUT4O">     -1.00000000</i>
   <i type="int" name="EXXOEP">     0</i>
   <i type="int" name="FOURORBIT">     0</i>
   <i name="AEXX">      0.00000000</i>
   <i name="HFALPHA">      0.00000000</i>
   <i name="MCALPHA">      0.00000000</i>
   <i name="ALDAX">      1.00000000</i>
   <i name="AGGAX">      1.00000000</i>
   <i name="ALDAC">      1.00000000</i>
   <i name="AGGAC">      1.00000000</i>
   <i type="int" name="NKREDX">     1</i>
   <i type="int" name="NKREDY">     1</i>
   <i type="int" name="NKREDZ">     1</i>
   <i type="logical" name="SHIFTRED"> F  </i>
   <i type="logical" name="ODDONLY"> F  </i>
   <i type="logical" name="EVENONLY"> F  </i>
   <i type="int" name="LMAXFOCK">     0</i>
   <i type="int" name="NMAXFOCKAE">     0</i>
   <i type="logical" name="LFOCKAEDFT"> F  </i>
   <i name="HFSCREEN">      0.00000000</i>
   <i name="HFSCREENC">      0.00000000</i>
   <i type="int" name="NBANDSGWLOW">     0</i>
  </separator>
  <separator name="vdW DFT" >
   <i type="logical" name="LUSE_VDW"> F  </i>
   <i name="Zab_VDW">     -0.84910000</i>
   <i name="PARAM1">      0.12340000</i>
   <i name="PARAM2">      1.00000000</i>
   <i name="PARAM3">      0.00000000</i>
  </separator>
  <separator name="model GW" >
   <i type="int" name="MODEL_GW">     0</i>
   <i name="MODEL_EPS0">     40.33342268</i>
   <i name="MODEL_ALPHA">      1.00000000</i>
  </separator>
  <separator name="linear response parameters" >
   <i type="logical" name="LEPSILON"> F  </i>
   <i type="logical" name="LRPA"> F  </i>
   <i type="logical" name="LNABLA"> F  </i>
   <i type="logical" name="LVEL"> F  </i>
   <i type="int" name="KINTER">     0</i>
   <i name="CSHIFT">      0.10000000</i>
   <i name="OMEGAMAX">     -1.00000000</i>
   <i name="DEG_THRESHOLD">      0.00200000</i>
   <i name="RTIME">     -0.10000000</i>
   <i name="WPLASMAI">      0.00000000</i>
   <v name="DFIELD">      0.00000000      0.00000000      0.00000000</v>
   <v name="WPLASMA">      0.00000000      0.00000000      0.00000000      0.00000000      0.00000000      0.00000000      0.00000000      0.00000000      0.00000000</v>
  </separator>
  <separator name="orbital magnetization" >
   <i type="logical" name="NUCIND"> F  </i>
   <v name="MAGPOS">      0.00000000      0.00000000      0.00000000</v>
   <i type="logical" name="LNICSALL"> T  </i>
   <i type="logical" name="ORBITALMAG"> F  </i>
   <i type="logical" name="LMAGBLOCH"> F  </i>
   <i type="logical" name="LCHIMAG"> F  </i>
   <i type="logical" name="LGAUGE"> T  </i>
   <i type="int" name="MAGATOM">     0</i>
   <v name="MAGDIPOL">      0.00000000      0.00000000      0.00000000</v>
   <v name="AVECCONST">      0.00000000      0.00000000      0.00000000</v>
  </separator>
  <separator name="response functions" >
   <i type="logical" name="LADDER"> F  </i>
   <i type="logical" name="LRPAFORCE"> F  </i>
   <i type="logical" name="LFXC"> F  </i>
   <i type="logical" name="LHARTREE"> T  </i>
   <i type="int" name="IBSE">     0</i>
   <v type="int" name="KPOINT">    -1     0     0     0</v>
   <i type="logical" name="LTCTE"> F  </i>
   <i type="logical" name="LTETE"> F  </i>
   <i type="logical" name="LTRIPLET"> F  </i>
   <i type="logical" name="LFXCEPS"> F  </i>
   <i type="logical" name="LFXHEG"> F  </i>
   <i type="int" name="NATURALO">     2</i>
   <i type="logical" name="L2ORDER"> F  </i>
   <i type="logical" name="LMP2LT"> F  </i>
   <i type="logical" name="LUSEW"> F  </i>
   <i name="ENCUTGW">     -2.00000000</i>
   <i name="ENCUTGWSOFT">     -2.00000000</i>
   <i name="ENCUTLF">     -1.00000000</i>
   <i type="int" name="LMAXMP2">    -1</i>
   <i name="SCISSOR">      0.00000000</i>
   <i type="int" name="NOMEGA">     0</i>
   <i type="int" name="NOMEGAR">     0</i>
   <i type="int" name="NBANDSGW">    -1</i>
   <i type="int" name="NBANDSO">    -1</i>
   <i type="int" name="NBANDSV">    -1</i>
   <i type="int" name="NELM">     1</i>
   <i type="int" name="NELMHF">     1</i>
   <i type="int" name="DIM">     3</i>
   <i type="int" name="ANTIRES">     0</i>
   <i name="OMEGAMAX">    -30.00000000</i>
   <i name="OMEGAMIN">    -30.00000000</i>
   <i name="OMEGATL">   -200.00000000</i>
   <i type="int" name="OMEGAGRID">   140</i>
   <i name="CSHIFT">     -0.10000000</i>
   <i type="logical" name="SELFENERGY"> F  </i>
   <i type="logical" name="LSPECTRAL"> F  </i>
   <i type="logical" name="LSPECTRALGW"> F  </i>
   <i type="logical" name="LSINGLES"> F  </i>
   <i type="logical" name="LFERMIGW"> F  </i>
   <i type="logical" name="ODDONLYGW"> F  </i>
   <i type="logical" name="EVENONLYGW"> F  </i>
   <i type="int" name="NKREDLFX">     1</i>
   <i type="int" name="NKREDLFY">     1</i>
   <i type="int" name="NKREDLFZ">     1</i>
   <i type="int" name="MAXMEM">  2800</i>
   <i type="int" name="TELESCOPE">     0</i>
   <i type="int" name="TAUPAR">     1</i>
   <i type="int" name="OMEGAPAR">    -1</i>
   <i name="LAMBDA">      1.00000000</i>
  </separator>
  <separator name="External order field" >
   <i name="OFIELD_KAPPA">      0.00000000</i>
   <v name="OFIELD_K">      0.00000000      0.00000000      0.00000000</v>
   <i name="OFIELD_Q6_NEAR">      0.00000000</i>
   <i name="OFIELD_Q6_FAR">      0.00000000</i>
   <i name="OFIELD_A">      0.00000000</i>
  </separator>
 </parameters>
 <atominfo>
  <atoms>       3 </atoms>
  <types>       2 </types>
  <array name="atoms" >
   <dimension dim="1">ion</dimension>
   <field type="string">element</field>
   <field type="int">atomtype</field>
   <set>
    <rc><c>Mo</c><c>   1</c></rc>
    <rc><c>S </c><c>   2</c></rc>
    <rc><c>S </c><c>   2</c></rc>
   </set>
  </array>
  <array name="atomtypes" >
   <dimension dim="1">type</dimension>
   <field type="int">atomspertype</field>
   <field type="string">element</field>
   <field>mass</field>
   <field>valence</field>
   <field type="string">pseudopotential</field>
   <set>
    <rc><c>   1</c><c>Mo</c><c>     95.94000000</c><c>      6.00000000</c><c> PAW_PBE Mo 08Apr2002                   </c></rc>
    <rc><c>   2</c><c>S </c><c>     32.06600000</c><c>      6.00000000</c><c>  PAW_PBE S 17Jan2003                   </c></rc>
   </set>
  </array>
 </atominfo>
 <structure name="initialpos" >
  <crystal>
   <varray name="basis" >
    <v>       3.19031573       0.00000000       0.00000000 </v>
    <v>      -1.59515786       2.76289447       0.00000000 </v>
    <v>       0.00000000       0.00000000      22.87900430 </v>
   </varray>
   <i name="volume">    201.66711341 </i>
   <varray name="rec_basis" >
    <v>       0.31344860       0.18096963       0.00000000 </v>
    <v>       0.00000000       0.36193927       0.00000000 </v>
    <v>       0.00000000       0.00000000       0.04370820 </v>
   </varray>
  </crystal>
  <varray name="positions" >
   <v>       0.33333300       0.66666700       0.16258361 </v>
   <v>       0.66666700       0.33333300       0.09418533 </v>
   <v>       0.66666600       0.33333300       0.23098188 </v>
  </varray>
 </structure>
 <calculation>
  <scstep>
   <time name="dav">    0.10    0.11</time>
   <time name="total">    0.13    0.56</time>
   <energy>
    <i name="alphaZ">     14.70174895 </i>
    <i name="ewald">   3213.00539378 </i>
    <i name="hartreedc">  -3905.14261690 </i>
    <i name="XCdc">    -36.31054475 </i>
    <i name="pawpsdc">    406.88651198 </i>
    <i name="pawaedc">   -329.34073203 </i>
    <i name="eentropy">     -0.01152451 </i>
    <i name="bandstr">    -36.72357061 </i>
    <i name="atom">    771.06857575 </i>
    <i name="e_fr_energy">     98.13324165 </i>
    <i name="e_wo_entrp">     98.14476616 </i>
    <i name="e_0_energy">     98.13900390 </i>
   </energy>
  </scstep>
  <scstep>
   <time name="dav">    0.15    0.15</time>
   <time name="total">    0.15    0.15</time>
   <energy>
    <i name="e_fr_energy">    -12.66509042 </i>
    <i name="e_wo_entrp">    -12.66509042 </i>
    <i name="e_0_energy">    -12.66509042 </i>
   </energy>
  </scstep>
  <scstep>
   <time name="dav">    0.13    0.13</time>
   <time name="total">    0.13    0.13</time>
   <energy>
    <i name="e_fr_energy">    -23.16263640 </i>
    <i name="e_wo_entrp">    -23.16263640 </i>
    <i name="e_0_energy">    -23.16263640 </i>
   </energy>
  </scstep>
  <scstep>
   <time name="dav">    0.13    0.13</time>
   <time name="total">    0.13    0.13</time>
   <energy>
    <i name="e_fr_energy">    -23.36509844 </i>
    <i name="e_wo_entrp">    -23.36509844 </i>
    <i name="e_0_energy">    -23.36509844 </i>
   </energy>
  </scstep>
  <scstep>
   <time name="dav">    0.12    0.13</time>
   <time name="total">    0.13    0.14</time>
   <energy>
    <i name="e_fr_energy">    -23.37055059 </i>
    <i name="e_wo_entrp">    -23.37055059 </i>
    <i name="e_0_energy">    -23.37055059 </i>
   </energy>
  </scstep>
  <scstep>
   <time name="diag">    0.02    0.02</time>
   <time name="diis">    0.06    0.06</time>
   <time name="orth">    0.00    0.00</time>
   <time name="total">    0.11    0.11</time>
   <energy>
    <i name="e_fr_energy">    -22.21098760 </i>
    <i name="e_wo_entrp">    -22.21098757 </i>
    <i name="e_0_energy">    -22.21098759 </i>
   </energy>
  </scstep>
  <scstep>
   <time name="diag">    0.02    0.02</time>
   <time name="diis">    0.06    0.06</time>
   <time name="orth">    0.00    0.00</time>
   <time name="total">    0.11    0.11</time>
   <energy>
    <i name="e_fr_energy">    -21.82803723 </i>
    <i name="e_wo_entrp">    -21.82803723 </i>
    <i name="e_0_energy">    -21.82803723 </i>
   </energy>
  </scstep>
  <scstep>
   <time name="diag">    0.02    0.02</time>
   <time name="diis">    0.06    0.07</time>
   <time name="orth">    0.00    0.00</time>
   <time name="total">    0.11    0.11</time>
   <energy>
    <i name="e_fr_energy">    -21.76814910 </i>
    <i name="e_wo_entrp">    -21.76814910 </i>
    <i name="e_0_energy">    -21.76814910 </i>
   </energy>
  </scstep>
  <scstep>
   <time name="diag">    0.02    0.02</time>
   <time name="diis">    0.07    0.07</time>
   <time name="orth">    0.00    0.00</time>
   <time name="total">    0.12    0.12</time>
   <energy>
    <i name="e_fr_energy">    -21.76341939 </i>
    <i name="e_wo_entrp">    -21.76341939 </i>
    <i name="e_0_energy">    -21.76341939 </i>
   </energy>
  </scstep>
  <scstep>
   <time name="diag">    0.02    0.02</time>
   <time name="diis">    0.07    0.07</time>
   <time name="orth">    0.00    0.00</time>
   <time name="total">    0.12    0.12</time>
   <energy>
    <i name="e_fr_energy">    -21.76264941 </i>
    <i name="e_wo_entrp">    -21.76264941 </i>
    <i name="e_0_energy">    -21.76264941 </i>
   </energy>
  </scstep>
  <scstep>
   <time name="diag">    0.02    0.02</time>
   <time name="diis">    0.07    0.07</time>
   <time name="orth">    0.00    0.00</time>
   <time name="total">    0.11    0.11</time>
   <energy>
    <i name="e_fr_energy">    -21.76263265 </i>
    <i name="e_wo_entrp">    -21.76263265 </i>
    <i name="e_0_energy">    -21.76263265 </i>
   </energy>
  </scstep>
  <scstep>
   <time name="diag">    0.02    0.02</time>
   <time name="diis">    0.06    0.06</time>
   <time name="orth">    0.00    0.00</time>
   <time name="total">    0.11    0.11</time>
   <energy>
    <i name="e_fr_energy">    -21.76250386 </i>
    <i name="e_wo_entrp">    -21.76250386 </i>
    <i name="e_0_energy">    -21.76250386 </i>
   </energy>
  </scstep>
  <scstep>
   <time name="diag">    0.02    0.02</time>
   <time name="diis">    0.06    0.06</time>
   <time name="orth">    0.00    0.00</time>
   <time name="total">    0.11    0.11</time>
   <energy>
    <i name="e_fr_energy">    -21.76303271 </i>
    <i name="e_wo_entrp">    -21.76303271 </i>
    <i name="e_0_energy">    -21.76303271 </i>
   </energy>
  </scstep>
  <scstep>
   <time name="diag">    0.02    0.02</time>
   <time name="diis">    0.07    0.07</time>
   <time name="orth">    0.00    0.00</time>
   <time name="total">    0.12    0.12</time>
   <energy>
    <i name="e_fr_energy">    -21.76311932 </i>
    <i name="e_wo_entrp">    -21.76311932 </i>
    <i name="e_0_energy">    -21.76311932 </i>
   </energy>
  </scstep>
  <scstep>
   <time name="diag">    0.02    0.02</time>
   <time name="diis">    0.06    0.06</time>
   <time name="orth">    0.00    0.00</time>
   <time name="total">    0.11    0.11</time>
   <energy>
    <i name="e_fr_energy">    -21.76331666 </i>
    <i name="e_wo_entrp">    -21.76331666 </i>
    <i name="e_0_energy">    -21.76331666 </i>
   </energy>
  </scstep>
  <scstep>
   <time name="diag">    0.02    0.02</time>
   <time name="diis">    0.06    0.06</time>
   <time name="orth">    0.00    0.00</time>
   <time name="total">    0.10    0.10</time>
   <energy>
    <i name="e_fr_energy">    -21.76337158 </i>
    <i name="e_wo_entrp">    -21.76337158 </i>
    <i name="e_0_energy">    -21.76337158 </i>
   </energy>
  </scstep>
  <scstep>
   <time name="diag">    0.02    0.02</time>
   <time name="diis">    0.05    0.05</time>
   <time name="orth">    0.00    0.00</time>
   <time name="total">    0.09    0.09</time>
   <energy>
    <i name="e_fr_energy">    -21.76340607 </i>
    <i name="e_wo_entrp">    -21.76340607 </i>
    <i name="e_0_energy">    -21.76340607 </i>
   </energy>
  </scstep>
  <scstep>
   <time name="diag">    0.02    0.02</time>
   <time name="diis">    0.05    0.05</time>
   <time name="orth">    0.00    0.00</time>
   <time name="total">    0.09    0.09</time>
   <energy>
    <i name="e_fr_energy">    -21.76340753 </i>
    <i name="e_wo_entrp">    -21.76340753 </i>
    <i name="e_0_energy">    -21.76340753 </i>
   </energy>
  </scstep>
  <scstep>
   <time name="diag">    0.02    0.02</time>
   <time name="diis">    0.04    0.05</time>
   <time name="orth">    0.00    0.00</time>
   <time name="total">    0.09    0.09</time>
   <energy>
    <i name="e_fr_energy">    -21.76340969 </i>
    <i name="e_wo_entrp">    -21.76340969 </i>
    <i name="e_0_energy">    -21.76340969 </i>
   </energy>
  </scstep>
  <scstep>
   <time name="diag">    0.02    0.02</time>
   <time name="diis">    0.04    0.04</time>
   <time name="orth">    0.00    0.00</time>
   <time name="total">    0.07    0.08</time>
   <energy>
    <i name="alphaZ">     14.70174895 </i>
    <i name="ewald">   3213.00539378 </i>
    <i name="hartreedc">  -3917.40273358 </i>
    <i name="XCdc">    -35.17208108 </i>
    <i name="pawpsdc">    478.68485267 </i>
    <i name="pawaedc">   -402.87588761 </i>
    <i name="eentropy">     -0.00000000 </i>
    <i name="bandstr">   -143.77327876 </i>
    <i name="atom">    771.06857575 </i>
    <i name="e_fr_energy">    -21.76340989 </i>
    <i name="e_wo_entrp">    -21.76340989 </i>
    <i name="e_0_energy">    -21.76340989 </i>
   </energy>
  </scstep>
  <structure>
   <crystal>
    <varray name="basis" >
     <v>       3.19031573       0.00000000       0.00000000 </v>
     <v>      -1.59515786       2.76289447       0.00000000 </v>
     <v>       0.00000000       0.00000000      22.87900430 </v>
    </varray>
    <i name="volume">    201.66711341 </i>
    <varray name="rec_basis" >
     <v>       0.31344860       0.18096963       0.00000000 </v>
     <v>       0.00000000       0.36193927       0.00000000 </v>
     <v>       0.00000000       0.00000000       0.04370820 </v>
    </varray>
   </crystal>
   <varray name="positions" >
    <v>       0.33333300       0.66666700       0.16258361 </v>
    <v>       0.66666700       0.33333300       0.09418533 </v>
    <v>       0.66666600       0.33333300       0.23098188 </v>
   </varray>
  </structure>
  <varray name="forces" >
   <v>      -0.00000000      -0.00000000       0.00000000 </v>
   <v>       0.00000000       0.00000000       0.10643070 </v>
   <v>      -0.00000000      -0.00000000      -0.10643070 </v>
  </varray>
  <varray name="stress" >
   <v>      -4.84242874       0.00000000       0.00000000 </v>
   <v>      -0.00000000      -4.84242874       0.00000000 </v>
   <v>       0.00000000       0.00000000      -7.07321752 </v>
  </varray>
  <energy>
   <i name="e_fr_energy">    -22.35456773 </i>
   <i name="e_wo_entrp">    -22.35456773 </i>
   <i name="e_0_energy">     -0.00000000 </i>
  </energy>
  <time name="totalsc">    2.54    3.04</time>
  <eigenvalues>
   <array>
    <dimension dim="1">band</dimension>
    <dimension dim="2">kpoint</dimension>
    <dimension dim="3">spin</dimension>
    <field>eigene</field>
    <field>occ</field>
    <set>
     <set comment="spin 1">
      <set comment="kpoint 1">
       <r>  -17.0349    1.0000 </r>
       <r>  -15.8265    1.0000 </r>
       <r>   -8.5441    1.0000 </r>
       <r>   -5.5824    1.0000 </r>
       <r>   -5.5821    1.0000 </r>
       <r>   -4.7230    1.0000 </r>
       <r>   -4.4751    1.0000 </r>
       <r>   -4.4746    1.0000 </r>
       <r>   -3.0002    1.0000 </r>
       <r>   -0.2261    0.0000 </r>
       <r>   -0.2253    0.0000 </r>
       <r>   -0.0029    0.0000 </r>
       <r>   -0.0023    0.0000 </r>
       <r>    2.3949    0.0000 </r>
      </set>
      <set comment="kpoint 2">
       <r>  -16.8208    1.0000 </r>
       <r>  -15.7241    1.0000 </r>
       <r>   -8.2998    1.0000 </r>
       <r>   -6.0473    1.0000 </r>
       <r>   -5.5301    1.0000 </r>
       <r>   -5.3485    1.0000 </r>
       <r>   -4.8115    1.0000 </r>
       <r>   -4.0443    1.0000 </r>
       <r>   -3.1394    1.0000 </r>
       <r>   -0.5091    0.0000 </r>
       <r>   -0.4425    0.0000 </r>
       <r>   -0.2407    0.0000 </r>
       <r>    0.1279    0.0000 </r>
       <r>    2.7574    0.0000 </r>
      </set>
      <set comment="kpoint 3">
       <r>  -16.2523    1.0000 </r>
       <r>  -15.4552    1.0000 </r>
       <r>   -7.9338    1.0000 </r>
       <r>   -6.7754    1.0000 </r>
       <r>   -6.5117    1.0000 </r>
       <r>   -5.4485    1.0000 </r>
       <r>   -4.7627    1.0000 </r>
       <r>   -4.2962    1.0000 </r>
       <r>   -3.7079    1.0000 </r>
       <r>   -0.8334    0.0000 </r>
       <r>   -0.6583    0.0000 </r>
       <r>   -0.1152    0.0000 </r>
       <r>    0.7428    0.0000 </r>
       <r>    3.5852    0.0000 </r>
      </set>
      <set comment="kpoint 4">
       <r>  -15.5774    1.0000 </r>
       <r>  -15.1466    1.0000 </r>
       <r>   -8.3730    1.0000 </r>
       <r>   -7.3805    1.0000 </r>
       <r>   -6.9067    1.0000 </r>
       <r>   -5.9467    1.0000 </r>
       <r>   -4.7052    1.0000 </r>
       <r>   -4.1727    1.0000 </r>
       <r>   -3.9021    1.0000 </r>
       <r>   -0.8406    0.0000 </r>
       <r>   -0.5609    0.0000 </r>
       <r>    0.6040    0.0000 </r>
       <r>    1.1360    0.0000 </r>
       <r>    4.1595    0.0000 </r>
      </set>
      <set comment="kpoint 5">
       <r>  -15.2491    1.0000 </r>
       <r>  -15.0033    1.0000 </r>
       <r>   -8.7064    1.0000 </r>
       <r>   -7.7468    1.0000 </r>
       <r>   -7.0325    1.0000 </r>
       <r>   -6.1280    1.0000 </r>
       <r>   -4.8440    1.0000 </r>
       <r>   -3.9458    1.0000 </r>
       <r>   -3.6208    1.0000 </r>
       <r>   -0.8192    0.0000 </r>
       <r>   -0.3045    0.0000 </r>
       <r>    0.9029    0.0000 </r>
       <r>    1.2509    0.0000 </r>
       <r>    3.2051    0.0000 </r>
      </set>
      <set comment="kpoint 6">
       <r>  -16.4282    1.0000 </r>
       <r>  -15.5370    1.0000 </r>
       <r>   -7.9527    1.0000 </r>
       <r>   -6.6126    1.0000 </r>
       <r>   -6.0930    1.0000 </r>
       <r>   -5.6264    1.0000 </r>
       <r>   -5.0102    1.0000 </r>
       <r>   -3.9097    1.0000 </r>
       <r>   -3.5123    1.0000 </r>
       <r>   -0.9085    0.0000 </r>
       <r>   -0.5313    0.0000 </r>
       <r>   -0.5189    0.0000 </r>
       <r>    0.7217    0.0000 </r>
       <r>    3.3508    0.0000 </r>
      </set>
      <set comment="kpoint 7">
       <r>  -15.7948    1.0000 </r>
       <r>  -15.2383    1.0000 </r>
       <r>   -8.0166    1.0000 </r>
       <r>   -7.0388    1.0000 </r>
       <r>   -6.7756    1.0000 </r>
       <r>   -6.1315    1.0000 </r>
       <r>   -4.9111    1.0000 </r>
       <r>   -4.2724    1.0000 </r>
       <r>   -3.7958    1.0000 </r>
       <r>   -0.9921    0.0000 </r>
       <r>   -0.5453    0.0000 </r>
       <r>   -0.0485    0.0000 </r>
       <r>    1.2277    0.0000 </r>
       <r>    4.3446    0.0000 </r>
      </set>
      <set comment="kpoint 8">
       <r>  -15.2644    1.0000 </r>
       <r>  -14.9944    1.0000 </r>
       <r>   -8.4184    1.0000 </r>
       <r>   -7.8025    1.0000 </r>
       <r>   -6.9044    1.0000 </r>
       <r>   -6.1491    1.0000 </r>
       <r>   -4.8958    1.0000 </r>
       <r>   -4.7537    1.0000 </r>
       <r>   -3.4690    1.0000 </r>
       <r>   -0.8000    0.0000 </r>
       <r>   -0.2899    0.0000 </r>
       <r>    0.5753    0.0000 </r>
       <r>    1.2614    0.0000 </r>
       <r>    3.7313    0.0000 </r>
      </set>
      <set comment="kpoint 9">
       <r>  -15.2794    1.0000 </r>
       <r>  -14.9855    1.0000 </r>
       <r>   -8.0577    1.0000 </r>
       <r>   -7.8525    1.0000 </r>
       <r>   -6.5785    1.0000 </r>
       <r>   -6.1974    1.0000 </r>
       <r>   -5.8782    1.0000 </r>
       <r>   -4.6207    1.0000 </r>
       <r>   -3.4989    1.0000 </r>
       <r>   -0.8509    0.0000 </r>
       <r>   -0.2394    0.0000 </r>
       <r>    0.0773    0.0000 </r>
       <r>    1.5457    0.0000 </r>
       <r>    4.5612    0.0000 </r>
      </set>
      <set comment="kpoint 10">
       <r>  -15.0444    1.0000 </r>
       <r>  -14.8664    1.0000 </r>
       <r>   -8.2373    1.0000 </r>
       <r>   -7.8886    1.0000 </r>
       <r>   -6.8616    1.0000 </r>
       <r>   -6.1998    1.0000 </r>
       <r>   -5.9716    1.0000 </r>
       <r>   -5.0063    1.0000 </r>
       <r>   -3.1316    1.0000 </r>
       <r>   -1.1772    0.0000 </r>
       <r>    0.1382    0.0000 </r>
       <r>    0.3100    0.0000 </r>
       <r>    1.6888    0.0000 </r>
       <r>    3.9757    0.0000 </r>
      </set>
     </set>
    </set>
   </array>
  </eigenvalues>
  <separator name="orbital magnetization" >
   <v name="MAGDIPOLOUT">      0.00000000      0.00000000      0.00000000</v>
  </separator>
  <dos>
   <i name="efermi">     -2.17000000 </i>
   <total>
    <array>
     <dimension dim="1">gridpoints</dimension>
     <dimension dim="2">spin</dimension>
     <field>energy</field>
     <field>total</field>
     <field>integrated</field>
     <set>
      <set comment="spin 1">
       <r>   -12.0000   400.0000     4.0000 </r>
       <r>   -11.9900     0.0000     4.0000 </r>
       <r>   -11.9800     0.0000     4.0000 </r>
       <r>   -11.9700     0.0000     4.0000 </r>
       <r>   -11.9600     0.0000     4.0000 </r>
       <r>   -11.9500     0.0000     4.0000 </r>
       <r>   -11.9400     0.0000     4.0000 </r>
       <r>   -11.9300     0.0000     4.0000 </r>
       <r>   -11.9200     0.0000     4.0000 </r>
       <r>   -11.9100     0.0000     4.0000 </r>
       <r>   -11.9000     0.0000     4.0000 </r>
       <r>   -11.8900     0.0000     4.0000 </r>
       <r>   -11.8800     0.0000     4.0000 </r>
       <r>   -11.8700     0.0000     4.0000 </r>
       <r>   -11.8600     0.0000     4.0000 </r>
       <r>   -11.8500     0.0000     4.0000 </r>
       <r>   -11.8400     0.0000     4.0000 </r>
       <r>   -11.8300     0.0000     4.0000 </r>
       <r>   -11.8200     0.0000     4.0000 </r>
       <r>   -11.8100     0.0000     4.0000 </r>
       <r>   -11.8000     0.0000     4.0000 </r>
       <r>   -11.7900     0.0000     4.0000 </r>
       <r>   -11.7800     0.0000     4.0000 </r>
       <r>   -11.7700     0.0000     4.0000 </r>
       <r>   -11.7600     0.0000     4.0000 </r>
       <r>   -11.7500     0.0000     4.0000 </r>
       <r>   -11.7400     0.0000     4.0000 </r>
       <r>   -11.7300     0.0000     4.0000 </r>
       <r>   -11.7200     0.0000     4.0000 </r>
       <r>   -11.7100     0.0000     4.0000 </r>
       <r>   -11.7000     0.0000     4.0000 </r>
       <r>   -11.6900     0.0000     4.0000 </r>
       <r>   -11.6800     0.0000     4.0000 </r>
       <r>   -11.6700     0.0000     4.0000 </r>
       <r>   -11.6600     0.0000     4.0000 </r>
       <r>   -11.6500     0.0000     4.0000 </r>
       <r>   -11.6400     0.0000     4.0000 </r>
       <r>   -11.6300     0.0000     4.0000 </r>
       <r>   -11.6200     0.0000     4.0000 </r>
       <r>   -11.6100     0.0000     4.0000 </r>
       <r>   -11.6000     0.0000     4.0000 </r>
       <r>   -11.5900     0.0000     4.0000 </r>
       <r>   -11.5800     0.0000     4.0000 </r>
       <r>   -11.5700     0.0000     4.0000 </r>
       <r>   -11.5600     0.0000     4.0000 </r>
       <r>   -11.5500     0.0000     4.0000 </r>
       <r>   -11.5400     0.0000     4.0000 </r>
       <r>   -11.5300     0.0000     4.0000 </r>
       <r>   -11.5200     0.0000     4.0000 </r>
       <r>   -11.5100     0.0000     4.0000 </r>
       <r>   -11.5000     0.0000     4.0000 </r>
       <r>   -11.4900     0.0000     4.0000 </r>
       <r>   -11.4800     0.0000     4.0000 </r>
       <r>   -11.4700     0.0000     4.0000 </r>
       <r>   -11.4600     0.0000     4.0000 </r>
       <r>   -11.4500     0.0000     4.0000 </r>
       <r>   -11.4400     0.0000     4.0000 </r>
       <r>   -11.4300     0.0000     4.0000 </r>
       <r>   -11.4200     0.0000     4.0000 </r>
       <r>   -11.4100     0.0000     4.0000 </r>
       <r>   -11.4000     0.0000     4.0000 </r>
       <r>   -11.3900     0.0000     4.0000 </r>
       <r>   -11.3800     0.0000     4.0000 </r>
       <r>   -11.3700     0.0000     4.0000 </r>
       <r>   -11.3600     0.0000     4.0000 </r>
       <r>   -11.3500     0.0000     4.0000 </r>
       <r>   -11.3400     0.0000     4.0000 </r>
       <r>   -11.3300     0.0000     4.0000 </r>
       <r>   -11.3200     0.0000     4.0000 </r>
       <r>   -11.3100     0.0000     4.0000 </r>
       <r>   -11.3000     0.0000     4.0000 </r>
       <r>   -11.2900     0.0000     4.0000 </r>
       <r>   -11.2800     0.0000     4.0000 </r>
       <r>   -11.2700     0.0000     4.0000 </r>
       <r>   -11.2600     0.0000     4.0000 </r>
       <r>   -11.2500     0.0000     4.0000 </r>
       <r>   -11.2400     0.0000     4.0000 </r>
       <r>   -11.2300     0.0000     4.0000 </r>
       <r>   -11.2200     0.0000     4.0000 </r>
       <r>   -11.2100     0.0000     4.0000 </r>
       <r>   -11.2000     0.0000     4.0000 </r>
       <r>   -11.1900     0.0000     4.0000 </r>
       <r>   -11.1800     0.0000     4.0000 </r>
       <r>   -11.1700     0.0000     4.0000 </r>
       <r>   -11.1600     0.0000     4.0000 </r>
       <r>   -11.1500     0.0000     4.0000 </r>
       <r>   -11.1400     0.0000     4.0000 </r>
       <r>   -11.1300     0.0000     4.0000 </r>
       <r>   -11.1200     0.0000     4.0000 </r>
       <r>   -11.1100     0.0000     4.0000 </r>
       <r>   -11.1000     0.0000     4.0000 </r>
       <r>   -11.0900     0.0000     4.0000 </r>
       <r>   -11.0800     0.0000     4.0000 </r>
       <r>   -11.0700     0.0000     4.0000 </r>
       <r>   -11.0600     0.0000     4.0000 </r>
       <r>   -11.0500     0.0000     4.0000 </r>
       <r>   -11.0400     0.0000     4.0000 </r>
       <r>   -11.0300     0.0000     4.0000 </r>
       <r>   -11.0200     0.0000     4.0000 </r>
       <r>   -11.0100     0.0000     4.0000 </r>
       <r>   -11.0000     0.0000     4.0000 </r>
       <r>   -10.9900     0.0000     4.0000 </r>
       <r>   -10.9800     0.0000     4.0000 </r>
       <r>   -10.9700     0.0000     4.0000 </r>
       <r>   -10.9600     0.0000     4.0000 </r>
       <r>   -10.9500     0.0000     4.0000 </r>
       <r>   -10.9400     0.0000     4.0000 </r>
       <r>   -10.9300     0.0000     4.0000 </r>
       <r>   -10.9200     0.0000     4.0000 </r>
       <r>   -10.9100     0.0000     4.0000 </r>
       <r>   -10.9000     0.0000     4.0000 </r>
       <r>   -10.8900     0.0000     4.0000 </r>
       <r>   -10.8800     0.0000     4.0000 </r>
       <r>   -10.8700     0.0000     4.0000 </r>
       <r>   -10.8600     0.0000     4.0000 </r>
       <r>   -10.8500     0.0000     4.0000 </r>
       <r>   -10.8400     0.0000     4.0000 </r>
       <r>   -10.8300     0.0000     4.0000 </r>
       <r>   -10.8200     0.0000     4.0000 </r>
       <r>   -10.8100     0.0000     4.0000 </r>
       <r>   -10.8000     0.0000     4.0000 </r>
       <r>   -10.7900     0.0000     4.0000 </r>
       <r>   -10.7800     0.0000     4.0000 </r>
       <r>   -10.7700     0.0000     4.0000 </r>
       <r>   -10.7600     0.0000     4.0000 </r>
       <r>   -10.7500     0.0000     4.0000 </r>
       <r>   -10.7400     0.0000     4.0000 </r>
       <r>   -10.7300     0.0000     4.0000 </r>
       <r>   -10.7200     0.0000     4.0000 </r>
       <r>   -10.7100     0.0000     4.0000 </r>
       <r>   -10.7000     0.0000     4.0000 </r>
       <r>   -10.6900     0.0000     4.0000 </r>
       <r>   -10.6800     0.0000     4.0000 </r>
       <r>   -10.6700     0.0000     4.0000 </r>
       <r>   -10.6600     0.0000     4.0000 </r>
       <r>   -10.6500     0.0000     4.0000 </r>
       <r>   -10.6400     0.0000     4.0000 </r>
       <r>   -10.6300     0.0000     4.0000 </r>
       <r>   -10.6200     0.0000     4.0000 </r>
       <r>   -10.6100     0.0000     4.0000 </r>
       <r>   -10.6000     0.0000     4.0000 </r>
       <r>   -10.5900     0.0000     4.0000 </r>
       <r>   -10.5800     0.0000     4.0000 </r>
       <r>   -10.5700     0.0000     4.0000 </r>
       <r>   -10.5600     0.0000     4.0000 </r>
       <r>   -10.5500     0.0000     4.0000 </r>
       <r>   -10.5400     0.0000     4.0000 </r>
       <r>   -10.5300     0.0000     4.0000 </r>
       <r>   -10.5200     0.0000     4.0000 </r>
       <r>   -10.5100     0.0000     4.0000 </r>
       <r>   -10.5000     0.0000     4.0000 </r>
       <r>   -10.4900     0.0000     4.0000 </r>
       <r>   -10.4800     0.0000     4.0000 </r>
       <r>   -10.4700     0.0000     4.0000 </r>
       <r>   -10.4600     0.0000     4.0000 </r>
       <r>   -10.4500     0.0000     4.0000 </r>
       <r>   -10.4400     0.0000     4.0000 </r>
       <r>   -10.4300     0.0000     4.0000 </r>
       <r>   -10.4200     0.0000     4.0000 </r>
       <r>   -10.4100     0.0000     4.0000 </r>
       <r>   -10.4000     0.0000     4.0000 </r>
       <r>   -10.3900     0.0000     4.0000 </r>
       <r>   -10.3800     0.0000     4.0000 </r>
       <r>   -10.3700     0.0000     4.0000 </r>
       <r>   -10.3600     0.0000     4.0000 </r>
       <r>   -10.3500     0.0000     4.0000 </r>
       <r>   -10.3400     0.0000     4.0000 </r>
       <r>   -10.3300     0.0000     4.0000 </r>
       <r>   -10.3200     0.0000     4.0000 </r>
       <r>   -10.3100     0.0000     4.0000 </r>
       <r>   -10.3000     0.0000     4.0000 </r>
       <r>   -10.2900     0.0000     4.0000 </r>
       <r>   -10.2800     0.0000     4.0000 </r>
       <r>   -10.2700     0.0000     4.0000 </r>
       <r>   -10.2600     0.0000     4.0000 </r>
       <r>   -10.2500     0.0000     4.0000 </r>
       <r>   -10.2400     0.0000     4.0000 </r>
       <r>   -10.2300     0.0000     4.0000 </r>
       <r>   -10.2200     0.0000     4.0000 </r>
       <r>   -10.2100     0.0000     4.0000 </r>
       <r>   -10.2000     0.0000     4.0000 </r>
       <r>   -10.1900     0.0000     4.0000 </r>
       <r>   -10.1800     0.0000     4.0000 </r>
       <r>   -10.1700     0.0000     4.0000 </r>
       <r>   -10.1600     0.0000     4.0000 </r>
       <r>   -10.1500     0.0000     4.0000 </r>
       <r>   -10.1400     0.0000     4.0000 </r>
       <r>   -10.1300     0.0000     4.0000 </r>
       <r>   -10.1200     0.0000     4.0000 </r>
       <r>   -10.1100     0.0000     4.0000 </r>
       <r>   -10.1000     0.0000     4.0000 </r>
       <r>   -10.0900     0.0000     4.0000 </r>
       <r>   -10.0800     0.0000     4.0000 </r>
       <r>   -10.0700     0.0000     4.0000 </r>
       <r>   -10.0600     0.0000     4.0000 </r>
       <r>   -10.0500     0.0000     4.0000 </r>
       <r>   -10.0400     0.0000     4.0000 </r>
       <r>   -10.0300     0.0000     4.0000 </r>
       <r>   -10.0200     0.0000     4.0000 </r>
       <r>   -10.0100     0.0000     4.0000 </r>
       <r>   -10.0000     0.0000     4.0000 </r>
       <r>    -9.9900     0.0000     4.0000 </r>
       <r>    -9.9800     0.0000     4.0000 </r>
       <r>    -9.9700     0.0000     4.0000 </r>
       <r>    -9.9600     0.0000     4.0000 </r>
       <r>    -9.9500     0.0000     4.0000 </r>
       <r>    -9.9400     0.0000     4.0000 </r>
       <r>    -9.9300     0.0000     4.0000 </r>
       <r>    -9.9200     0.0000     4.0000 </r>
       <r>    -9.9100     0.0000     4.0000 </r>
       <r>    -9.9000     0.0000     4.0000 </r>
       <r>    -9.8900     0.0000     4.0000 </r>
       <r>    -9.8800     0.0000     4.0000 </r>
       <r>    -9.8700     0.0000     4.0000 </r>
       <r>    -9.8600     0.0000     4.0000 </r>
       <r>    -9.8500     0.0000     4.0000 </r>
       <r>    -9.8400     0.0000     4.0000 </r>
       <r>    -9.8300     0.0000     4.0000 </r>
       <r>    -9.8200     0.0000     4.0000 </r>
       <r>    -9.8100     0.0000     4.0000 </r>
       <r>    -9.8000     0.0000     4.0000 </r>
       <r>    -9.7900     0.0000     4.0000 </r>
       <r>    -9.7800     0.0000     4.0000 </r>
       <r>    -9.7700     0.0000     4.0000 </r>
       <r>    -9.7600     0.0000     4.0000 </r>
       <r>    -9.7500     0.0000     4.0000 </r>
       <r>    -9.7400     0.0000     4.0000 </r>
       <r>    -9.7300     0.0000     4.0000 </r>
       <r>    -9.7200     0.0000     4.0000 </r>
       <r>    -9.7100     0.0000     4.0000 </r>
       <r>    -9.7000     0.0000     4.0000 </r>
       <r>    -9.6900     0.0000     4.0000 </r>
       <r>    -9.6800     0.0000     4.0000 </r>
       <r>    -9.6700     0.0000     4.0000 </r>
       <r>    -9.6600     0.0000     4.0000 </r>
       <r>    -9.6500     0.0000     4.0000 </r>
       <r>    -9.6400     0.0000     4.0000 </r>
       <r>    -9.6300     0.0000     4.0000 </r>
       <r>    -9.6200     0.0000     4.0000 </r>
       <r>    -9.6100     0.0000     4.0000 </r>
       <r>    -9.6000     0.0000     4.0000 </r>
       <r>    -9.5900     0.0000     4.0000 </r>
       <r>    -9.5800     0.0000     4.0000 </r>
       <r>    -9.5700     0.0000     4.0000 </r>
       <r>    -9.5600     0.0000     4.0000 </r>
       <r>    -9.5500     0.0000     4.0000 </r>
       <r>    -9.5400     0.0000     4.0000 </r>
       <r>    -9.5300     0.0000     4.0000 </r>
       <r>    -9.5200     0.0000     4.0000 </r>
       <r>    -9.5100     0.0000     4.0000 </r>
       <r>    -9.5000     0.0000     4.0000 </r>
       <r>    -9.4900     0.0000     4.0000 </r>
       <r>    -9.4800     0.0000     4.0000 </r>
       <r>    -9.4700     0.0000     4.0000 </r>
       <r>    -9.4600     0.0000     4.0000 </r>
       <r>    -9.4500     0.0000     4.0000 </r>
       <r>    -9.4400     0.0000     4.0000 </r>
       <r>    -9.4300     0.0000     4.0000 </r>
       <r>    -9.4200     0.0000     4.0000 </r>
       <r>    -9.4100     0.0000     4.0000 </r>
       <r>    -9.4000     0.0000     4.0000 </r>
       <r>    -9.3900     0.0000     4.0000 </r>
       <r>    -9.3800     0.0000     4.0000 </r>
       <r>    -9.3700     0.0000     4.0000 </r>
       <r>    -9.3600     0.0000     4.0000 </r>
       <r>    -9.3500     0.0000     4.0000 </r>
       <r>    -9.3400     0.0000     4.0000 </r>
       <r>    -9.3300     0.0000     4.0000 </r>
       <r>    -9.3200     0.0000     4.0000 </r>
       <r>    -9.3100     0.0000     4.0000 </r>
       <r>    -9.3000     0.0000     4.0000 </r>
       <r>    -9.2900     0.0000     4.0000 </r>
       <r>    -9.2800     0.0001     4.0000 </r>
       <r>    -9.2700     0.0001     4.0000 </r>
       <r>    -9.2600     0.0001     4.0000 </r>
       <r>    -9.2500     0.0001     4.0000 </r>
       <r>    -9.2400     0.0002     4.0000 </r>
       <r>    -9.2300     0.0002     4.0000 </r>
       <r>    -9.2200     0.0003     4.0000 </r>
       <r>    -9.2100     0.0004     4.0000 </r>
       <r>    -9.2000     0.0005     4.0000 </r>
       <r>    -9.1900     0.0007     4.0000 </r>
       <r>    -9.1800     0.0009     4.0000 </r>
       <r>    -9.1700     0.0011     4.0000 </r>
       <r>    -9.1600     0.0014     4.0001 </r>
       <r>    -9.1500     0.0017     4.0001 </r>
       <r>    -9.1400     0.0022     4.0001 </r>
       <r>    -9.1300     0.0027     4.0001 </r>
       <r>    -9.1200     0.0033     4.0002 </r>
       <r>    -9.1100     0.0041     4.0002 </r>
       <r>    -9.1000     0.0050     4.0003 </r>
       <r>    -9.0900     0.0061     4.0003 </r>
       <r>    -9.0800     0.0074     4.0004 </r>
       <r>    -9.0700     0.0090     4.0005 </r>
       <r>    -9.0600     0.0108     4.0006 </r>
       <r>    -9.0500     0.0129     4.0007 </r>
       <r>    -9.0400     0.0153     4.0009 </r>
       <r>    -9.0300     0.0181     4.0011 </r>
       <r>    -9.0200     0.0213     4.0013 </r>
       <r>    -9.0100     0.0250     4.0015 </r>
       <r>    -9.0000     0.0292     4.0018 </r>
       <r>    -8.9900     0.0339     4.0021 </r>
       <r>    -8.9800     0.0391     4.0025 </r>
       <r>    -8.9700     0.0450     4.0030 </r>
       <r>    -8.9600     0.0515     4.0035 </r>
       <r>    -8.9500     0.0587     4.0041 </r>
       <r>    -8.9400     0.0666     4.0048 </r>
       <r>    -8.9300     0.0752     4.0055 </r>
       <r>    -8.9200     0.0845     4.0063 </r>
       <r>    -8.9100     0.0946     4.0073 </r>
       <r>    -8.9000     0.1055     4.0084 </r>
       <r>    -8.8900     0.1171     4.0095 </r>
       <r>    -8.8800     0.1295     4.0108 </r>
       <r>    -8.8700     0.1426     4.0122 </r>
       <r>    -8.8600     0.1565     4.0138 </r>
       <r>    -8.8500     0.1711     4.0155 </r>
       <r>    -8.8400     0.1864     4.0174 </r>
       <r>    -8.8300     0.2024     4.0194 </r>
       <r>    -8.8200     0.2192     4.0216 </r>
       <r>    -8.8100     0.2366     4.0240 </r>
       <r>    -8.8000     0.2548     4.0265 </r>
       <r>    -8.7900     0.2737     4.0293 </r>
       <r>    -8.7800     0.2935     4.0322 </r>
       <r>    -8.7700     0.3140     4.0353 </r>
       <r>    -8.7600     0.3355     4.0387 </r>
       <r>    -8.7500     0.3580     4.0423 </r>
       <r>    -8.7400     0.3817     4.0461 </r>
       <r>    -8.7300     0.4067     4.0501 </r>
       <r>    -8.7200     0.4331     4.0545 </r>
       <r>    -8.7100     0.4611     4.0591 </r>
       <r>    -8.7000     0.4910     4.0640 </r>
       <r>    -8.6900     0.5229     4.0692 </r>
       <r>    -8.6800     0.5571     4.0748 </r>
       <r>    -8.6700     0.5937     4.0807 </r>
       <r>    -8.6600     0.6331     4.0871 </r>
       <r>    -8.6500     0.6753     4.0938 </r>
       <r>    -8.6400     0.7207     4.1010 </r>
       <r>    -8.6300     0.7693     4.1087 </r>
       <r>    -8.6200     0.8213     4.1169 </r>
       <r>    -8.6100     0.8767     4.1257 </r>
       <r>    -8.6000     0.9357     4.1351 </r>
       <r>    -8.5900     0.9981     4.1450 </r>
       <r>    -8.5800     1.0639     4.1557 </r>
       <r>    -8.5700     1.1330     4.1670 </r>
       <r>    -8.5600     1.2050     4.1791 </r>
       <r>    -8.5500     1.2798     4.1919 </r>
       <r>    -8.5400     1.3569     4.2054 </r>
       <r>    -8.5300     1.4359     4.2198 </r>
       <r>    -8.5200     1.5164     4.2349 </r>
       <r>    -8.5100     1.5978     4.2509 </r>
       <r>    -8.5000     1.6794     4.2677 </r>
       <r>    -8.4900     1.7606     4.2853 </r>
       <r>    -8.4800     1.8409     4.3037 </r>
       <r>    -8.4700     1.9194     4.3229 </r>
       <r>    -8.4600     1.9956     4.3429 </r>
       <r>    -8.4500     2.0688     4.3636 </r>
       <r>    -8.4400     2.1383     4.3850 </r>
       <r>    -8.4300     2.2036     4.4070 </r>
       <r>    -8.4200     2.2642     4.4296 </r>
       <r>    -8.4100     2.3197     4.4528 </r>
       <r>    -8.4000     2.3696     4.4765 </r>
       <r>    -8.3900     2.4138     4.5007 </r>
       <r>    -8.3800     2.4520     4.5252 </r>
       <r>    -8.3700     2.4843     4.5500 </r>
       <r>    -8.3600     2.5106     4.5751 </r>
       <r>    -8.3500     2.5313     4.6004 </r>
       <r>    -8.3400     2.5467     4.6259 </r>
       <r>    -8.3300     2.5570     4.6515 </r>
       <r>    -8.3200     2.5629     4.6771 </r>
       <r>    -8.3100     2.5650     4.7028 </r>
       <r>    -8.3000     2.5639     4.7284 </r>
       <r>    -8.2900     2.5605     4.7540 </r>
       <r>    -8.2800     2.5556     4.7796 </r>
       <r>    -8.2700     2.5500     4.8051 </r>
       <r>    -8.2600     2.5446     4.8305 </r>
       <r>    -8.2500     2.5404     4.8559 </r>
       <r>    -8.2400     2.5382     4.8813 </r>
       <r>    -8.2300     2.5388     4.9067 </r>
       <r>    -8.2200     2.5430     4.9321 </r>
       <r>    -8.2100     2.5517     4.9576 </r>
       <r>    -8.2000     2.5653     4.9833 </r>
       <r>    -8.1900     2.5845     5.0091 </r>
       <r>    -8.1800     2.6096     5.0352 </r>
       <r>    -8.1700     2.6411     5.0616 </r>
       <r>    -8.1600     2.6790     5.0884 </r>
       <r>    -8.1500     2.7235     5.1157 </r>
       <r>    -8.1400     2.7744     5.1434 </r>
       <r>    -8.1300     2.8315     5.1717 </r>
       <r>    -8.1200     2.8945     5.2007 </r>
       <r>    -8.1100     2.9629     5.2303 </r>
       <r>    -8.1000     3.0361     5.2606 </r>
       <r>    -8.0900     3.1133     5.2918 </r>
       <r>    -8.0800     3.1938     5.3237 </r>
       <r>    -8.0700     3.2768     5.3565 </r>
       <r>    -8.0600     3.3611     5.3901 </r>
       <r>    -8.0500     3.4459     5.4246 </r>
       <r>    -8.0400     3.5301     5.4599 </r>
       <r>    -8.0300     3.6127     5.4960 </r>
       <r>    -8.0200     3.6925     5.5329 </r>
       <r>    -8.0100     3.7685     5.5706 </r>
       <r>    -8.0000     3.8398     5.6090 </r>
       <r>    -7.9900     3.9053     5.6480 </r>
       <r>    -7.9800     3.9641     5.6877 </r>
       <r>    -7.9700     4.0154     5.7278 </r>
       <r>    -7.9600     4.0584     5.7684 </r>
       <r>    -7.9500     4.0923     5.8093 </r>
       <r>    -7.9400     4.1167     5.8505 </r>
       <r>    -7.9300     4.1310     5.8918 </r>
       <r>    -7.9200     4.1348     5.9332 </r>
       <r>    -7.9100     4.1278     5.9745 </r>
       <r>    -7.9000     4.1099     6.0156 </r>
       <r>    -7.8900     4.0809     6.0564 </r>
       <r>    -7.8800     4.0410     6.0968 </r>
       <r>    -7.8700     3.9902     6.1367 </r>
       <r>    -7.8600     3.9289     6.1760 </r>
       <r>    -7.8500     3.8574     6.2145 </r>
       <r>    -7.8400     3.7760     6.2523 </r>
       <r>    -7.8300     3.6855     6.2891 </r>
       <r>    -7.8200     3.5863     6.3250 </r>
       <r>    -7.8100     3.4793     6.3598 </r>
       <r>    -7.8000     3.3652     6.3935 </r>
       <r>    -7.7900     3.2447     6.4259 </r>
       <r>    -7.7800     3.1189     6.4571 </r>
       <r>    -7.7700     2.9887     6.4870 </r>
       <r>    -7.7600     2.8550     6.5155 </r>
       <r>    -7.7500     2.7188     6.5427 </r>
       <r>    -7.7400     2.5810     6.5685 </r>
       <r>    -7.7300     2.4428     6.5930 </r>
       <r>    -7.7200     2.3050     6.6160 </r>
       <r>    -7.7100     2.1687     6.6377 </r>
       <r>    -7.7000     2.0346     6.6580 </r>
       <r>    -7.6900     1.9037     6.6771 </r>
       <r>    -7.6800     1.7767     6.6948 </r>
       <r>    -7.6700     1.6545     6.7114 </r>
       <r>    -7.6600     1.5376     6.7268 </r>
       <r>    -7.6500     1.4266     6.7410 </r>
       <r>    -7.6400     1.3221     6.7543 </r>
       <r>    -7.6300     1.2243     6.7665 </r>
       <r>    -7.6200     1.1337     6.7778 </r>
       <r>    -7.6100     1.0504     6.7883 </r>
       <r>    -7.6000     0.9745     6.7981 </r>
       <r>    -7.5900     0.9061     6.8071 </r>
       <r>    -7.5800     0.8451     6.8156 </r>
       <r>    -7.5700     0.7913     6.8235 </r>
       <r>    -7.5600     0.7446     6.8310 </r>
       <r>    -7.5500     0.7046     6.8380 </r>
       <r>    -7.5400     0.6710     6.8447 </r>
       <r>    -7.5300     0.6434     6.8511 </r>
       <r>    -7.5200     0.6213     6.8574 </r>
       <r>    -7.5100     0.6043     6.8634 </r>
       <r>    -7.5000     0.5918     6.8693 </r>
       <r>    -7.4900     0.5834     6.8752 </r>
       <r>    -7.4800     0.5785     6.8809 </r>
       <r>    -7.4700     0.5765     6.8867 </r>
       <r>    -7.4600     0.5771     6.8925 </r>
       <r>    -7.4500     0.5797     6.8983 </r>
       <r>    -7.4400     0.5839     6.9041 </r>
       <r>    -7.4300     0.5894     6.9100 </r>
       <r>    -7.4200     0.5958     6.9160 </r>
       <r>    -7.4100     0.6028     6.9220 </r>
       <r>    -7.4000     0.6104     6.9281 </r>
       <r>    -7.3900     0.6182     6.9343 </r>
       <r>    -7.3800     0.6263     6.9405 </r>
       <r>    -7.3700     0.6348     6.9469 </r>
       <r>    -7.3600     0.6436     6.9533 </r>
       <r>    -7.3500     0.6531     6.9599 </r>
       <r>    -7.3400     0.6633     6.9665 </r>
       <r>    -7.3300     0.6747     6.9732 </r>
       <r>    -7.3200     0.6875     6.9801 </r>
       <r>    -7.3100     0.7021     6.9871 </r>
       <r>    -7.3000     0.7191     6.9943 </r>
       <r>    -7.2900     0.7388     7.0017 </r>
       <r>    -7.2800     0.7617     7.0093 </r>
       <r>    -7.2700     0.7883     7.0172 </r>
       <r>    -7.2600     0.8190     7.0254 </r>
       <r>    -7.2500     0.8543     7.0339 </r>
       <r>    -7.2400     0.8947     7.0429 </r>
       <r>    -7.2300     0.9404     7.0523 </r>
       <r>    -7.2200     0.9918     7.0622 </r>
       <r>    -7.2100     1.0492     7.0727 </r>
       <r>    -7.2000     1.1127     7.0838 </r>
       <r>    -7.1900     1.1825     7.0957 </r>
       <r>    -7.1800     1.2586     7.1082 </r>
       <r>    -7.1700     1.3410     7.1216 </r>
       <r>    -7.1600     1.4294     7.1359 </r>
       <r>    -7.1500     1.5238     7.1512 </r>
       <r>    -7.1400     1.6238     7.1674 </r>
       <r>    -7.1300     1.7290     7.1847 </r>
       <r>    -7.1200     1.8391     7.2031 </r>
       <r>    -7.1100     1.9534     7.2226 </r>
       <r>    -7.1000     2.0715     7.2433 </r>
       <r>    -7.0900     2.1926     7.2653 </r>
       <r>    -7.0800     2.3161     7.2884 </r>
       <r>    -7.0700     2.4413     7.3128 </r>
       <r>    -7.0600     2.5675     7.3385 </r>
       <r>    -7.0500     2.6938     7.3655 </r>
       <r>    -7.0400     2.8194     7.3937 </r>
       <r>    -7.0300     2.9436     7.4231 </r>
       <r>    -7.0200     3.0656     7.4537 </r>
       <r>    -7.0100     3.1846     7.4856 </r>
       <r>    -7.0000     3.2998     7.5186 </r>
       <r>    -6.9900     3.4104     7.5527 </r>
       <r>    -6.9800     3.5158     7.5879 </r>
       <r>    -6.9700     3.6153     7.6240 </r>
       <r>    -6.9600     3.7082     7.6611 </r>
       <r>    -6.9500     3.7940     7.6990 </r>
       <r>    -6.9400     3.8720     7.7378 </r>
       <r>    -6.9300     3.9419     7.7772 </r>
       <r>    -6.9200     4.0033     7.8172 </r>
       <r>    -6.9100     4.0558     7.8578 </r>
       <r>    -6.9000     4.0992     7.8988 </r>
       <r>    -6.8900     4.1333     7.9401 </r>
       <r>    -6.8800     4.1580     7.9817 </r>
       <r>    -6.8700     4.1733     8.0234 </r>
       <r>    -6.8600     4.1794     8.0652 </r>
       <r>    -6.8500     4.1763     8.1070 </r>
       <r>    -6.8400     4.1644     8.1486 </r>
       <r>    -6.8300     4.1440     8.1900 </r>
       <r>    -6.8200     4.1154     8.2312 </r>
       <r>    -6.8100     4.0791     8.2720 </r>
       <r>    -6.8000     4.0358     8.3123 </r>
       <r>    -6.7900     3.9859     8.3522 </r>
       <r>    -6.7800     3.9300     8.3915 </r>
       <r>    -6.7700     3.8688     8.4302 </r>
       <r>    -6.7600     3.8030     8.4682 </r>
       <r>    -6.7500     3.7332     8.5056 </r>
       <r>    -6.7400     3.6600     8.5422 </r>
       <r>    -6.7300     3.5841     8.5780 </r>
       <r>    -6.7200     3.5061     8.6131 </r>
       <r>    -6.7100     3.4265     8.6473 </r>
       <r>    -6.7000     3.3458     8.6808 </r>
       <r>    -6.6900     3.2645     8.7134 </r>
       <r>    -6.6800     3.1829     8.7453 </r>
       <r>    -6.6700     3.1014     8.7763 </r>
       <r>    -6.6600     3.0202     8.8065 </r>
       <r>    -6.6500     2.9396     8.8359 </r>
       <r>    -6.6400     2.8598     8.8645 </r>
       <r>    -6.6300     2.7808     8.8923 </r>
       <r>    -6.6200     2.7028     8.9193 </r>
       <r>    -6.6100     2.6258     8.9456 </r>
       <r>    -6.6000     2.5500     8.9711 </r>
       <r>    -6.5900     2.4754     8.9958 </r>
       <r>    -6.5800     2.4021     9.0198 </r>
       <r>    -6.5700     2.3303     9.0431 </r>
       <r>    -6.5600     2.2600     9.0657 </r>
       <r>    -6.5500     2.1917     9.0876 </r>
       <r>    -6.5400     2.1254     9.1089 </r>
       <r>    -6.5300     2.0617     9.1295 </r>
       <r>    -6.5200     2.0009     9.1495 </r>
       <r>    -6.5100     1.9436     9.1690 </r>
       <r>    -6.5000     1.8902     9.1879 </r>
       <r>    -6.4900     1.8415     9.2063 </r>
       <r>    -6.4800     1.7981     9.2243 </r>
       <r>    -6.4700     1.7607     9.2419 </r>
       <r>    -6.4600     1.7302     9.2592 </r>
       <r>    -6.4500     1.7073     9.2762 </r>
       <r>    -6.4400     1.6928     9.2932 </r>
       <r>    -6.4300     1.6875     9.3100 </r>
       <r>    -6.4200     1.6922     9.3270 </r>
       <r>    -6.4100     1.7073     9.3440 </r>
       <r>    -6.4000     1.7337     9.3614 </r>
       <r>    -6.3900     1.7717     9.3791 </r>
       <r>    -6.3800     1.8217     9.3973 </r>
       <r>    -6.3700     1.8839     9.4162 </r>
       <r>    -6.3600     1.9585     9.4357 </r>
       <r>    -6.3500     2.0452     9.4562 </r>
       <r>    -6.3400     2.1438     9.4776 </r>
       <r>    -6.3300     2.2539     9.5002 </r>
       <r>    -6.3200     2.3747     9.5239 </r>
       <r>    -6.3100     2.5054     9.5490 </r>
       <r>    -6.3000     2.6450     9.5754 </r>
       <r>    -6.2900     2.7923     9.6033 </r>
       <r>    -6.2800     2.9460     9.6328 </r>
       <r>    -6.2700     3.1044     9.6638 </r>
       <r>    -6.2600     3.2661     9.6965 </r>
       <r>    -6.2500     3.4293     9.7308 </r>
       <r>    -6.2400     3.5922     9.7667 </r>
       <r>    -6.2300     3.7530     9.8043 </r>
       <r>    -6.2200     3.9099     9.8434 </r>
       <r>    -6.2100     4.0611     9.8840 </r>
       <r>    -6.2000     4.2049     9.9260 </r>
       <r>    -6.1900     4.3397     9.9694 </r>
       <r>    -6.1800     4.4639    10.0140 </r>
       <r>    -6.1700     4.5762    10.0598 </r>
       <r>    -6.1600     4.6754    10.1066 </r>
       <r>    -6.1500     4.7604    10.1542 </r>
       <r>    -6.1400     4.8305    10.2025 </r>
       <r>    -6.1300     4.8849    10.2513 </r>
       <r>    -6.1200     4.9234    10.3006 </r>
       <r>    -6.1100     4.9457    10.3500 </r>
       <r>    -6.1000     4.9519    10.3995 </r>
       <r>    -6.0900     4.9420    10.4490 </r>
       <r>    -6.0800     4.9167    10.4981 </r>
       <r>    -6.0700     4.8764    10.5469 </r>
       <r>    -6.0600     4.8218    10.5951 </r>
       <r>    -6.0500     4.7538    10.6426 </r>
       <r>    -6.0400     4.6734    10.6894 </r>
       <r>    -6.0300     4.5816    10.7352 </r>
       <r>    -6.0200     4.4795    10.7800 </r>
       <r>    -6.0100     4.3684    10.8237 </r>
       <r>    -6.0000     4.2493    10.8662 </r>
       <r>    -5.9900     4.1235    10.9074 </r>
       <r>    -5.9800     3.9922    10.9473 </r>
       <r>    -5.9700     3.8565    10.9859 </r>
       <r>    -5.9600     3.7176    11.0231 </r>
       <r>    -5.9500     3.5767    11.0588 </r>
       <r>    -5.9400     3.4347    11.0932 </r>
       <r>    -5.9300     3.2926    11.1261 </r>
       <r>    -5.9200     3.1515    11.1576 </r>
       <r>    -5.9100     3.0122    11.1877 </r>
       <r>    -5.9000     2.8756    11.2165 </r>
       <r>    -5.8900     2.7424    11.2439 </r>
       <r>    -5.8800     2.6133    11.2700 </r>
       <r>    -5.8700     2.4892    11.2949 </r>
       <r>    -5.8600     2.3705    11.3186 </r>
       <r>    -5.8500     2.2578    11.3412 </r>
       <r>    -5.8400     2.1516    11.3627 </r>
       <r>    -5.8300     2.0524    11.3833 </r>
       <r>    -5.8200     1.9605    11.4029 </r>
       <r>    -5.8100     1.8762    11.4216 </r>
       <r>    -5.8000     1.7999    11.4396 </r>
       <r>    -5.7900     1.7316    11.4569 </r>
       <r>    -5.7800     1.6714    11.4737 </r>
       <r>    -5.7700     1.6195    11.4899 </r>
       <r>    -5.7600     1.5757    11.5056 </r>
       <r>    -5.7500     1.5399    11.5210 </r>
       <r>    -5.7400     1.5119    11.5361 </r>
       <r>    -5.7300     1.4915    11.5510 </r>
       <r>    -5.7200     1.4783    11.5658 </r>
       <r>    -5.7100     1.4718    11.5805 </r>
       <r>    -5.7000     1.4717    11.5953 </r>
       <r>    -5.6900     1.4773    11.6100 </r>
       <r>    -5.6800     1.4882    11.6249 </r>
       <r>    -5.6700     1.5035    11.6400 </r>
       <r>    -5.6600     1.5228    11.6552 </r>
       <r>    -5.6500     1.5453    11.6706 </r>
       <r>    -5.6400     1.5704    11.6863 </r>
       <r>    -5.6300     1.5972    11.7023 </r>
       <r>    -5.6200     1.6252    11.7186 </r>
       <r>    -5.6100     1.6537    11.7351 </r>
       <r>    -5.6000     1.6820    11.7519 </r>
       <r>    -5.5900     1.7094    11.7690 </r>
       <r>    -5.5800     1.7354    11.7864 </r>
       <r>    -5.5700     1.7595    11.8040 </r>
       <r>    -5.5600     1.7812    11.8218 </r>
       <r>    -5.5500     1.7999    11.8398 </r>
       <r>    -5.5400     1.8154    11.8579 </r>
       <r>    -5.5300     1.8273    11.8762 </r>
       <r>    -5.5200     1.8354    11.8946 </r>
       <r>    -5.5100     1.8394    11.9129 </r>
       <r>    -5.5000     1.8392    11.9313 </r>
       <r>    -5.4900     1.8346    11.9497 </r>
       <r>    -5.4800     1.8258    11.9679 </r>
       <r>    -5.4700     1.8127    11.9861 </r>
       <r>    -5.4600     1.7953    12.0040 </r>
       <r>    -5.4500     1.7739    12.0218 </r>
       <r>    -5.4400     1.7485    12.0392 </r>
       <r>    -5.4300     1.7195    12.0564 </r>
       <r>    -5.4200     1.6872    12.0733 </r>
       <r>    -5.4100     1.6518    12.0898 </r>
       <r>    -5.4000     1.6137    12.1060 </r>
       <r>    -5.3900     1.5733    12.1217 </r>
       <r>    -5.3800     1.5311    12.1370 </r>
       <r>    -5.3700     1.4876    12.1519 </r>
       <r>    -5.3600     1.4433    12.1663 </r>
       <r>    -5.3500     1.3988    12.1803 </r>
       <r>    -5.3400     1.3546    12.1939 </r>
       <r>    -5.3300     1.3114    12.2070 </r>
       <r>    -5.3200     1.2698    12.2197 </r>
       <r>    -5.3100     1.2305    12.2320 </r>
       <r>    -5.3000     1.1942    12.2439 </r>
       <r>    -5.2900     1.1614    12.2555 </r>
       <r>    -5.2800     1.1331    12.2669 </r>
       <r>    -5.2700     1.1097    12.2780 </r>
       <r>    -5.2600     1.0920    12.2889 </r>
       <r>    -5.2500     1.0807    12.2997 </r>
       <r>    -5.2400     1.0763    12.3104 </r>
       <r>    -5.2300     1.0794    12.3212 </r>
       <r>    -5.2200     1.0907    12.3321 </r>
       <r>    -5.2100     1.1105    12.3433 </r>
       <r>    -5.2000     1.1393    12.3546 </r>
       <r>    -5.1900     1.1775    12.3664 </r>
       <r>    -5.1800     1.2254    12.3787 </r>
       <r>    -5.1700     1.2831    12.3915 </r>
       <r>    -5.1600     1.3507    12.4050 </r>
       <r>    -5.1500     1.4283    12.4193 </r>
       <r>    -5.1400     1.5158    12.4345 </r>
       <r>    -5.1300     1.6130    12.4506 </r>
       <r>    -5.1200     1.7195    12.4678 </r>
       <r>    -5.1100     1.8351    12.4861 </r>
       <r>    -5.1000     1.9591    12.5057 </r>
       <r>    -5.0900     2.0909    12.5266 </r>
       <r>    -5.0800     2.2300    12.5489 </r>
       <r>    -5.0700     2.3754    12.5727 </r>
       <r>    -5.0600     2.5263    12.5979 </r>
       <r>    -5.0500     2.6817    12.6248 </r>
       <r>    -5.0400     2.8407    12.6532 </r>
       <r>    -5.0300     3.0022    12.6832 </r>
       <r>    -5.0200     3.1650    12.7148 </r>
       <r>    -5.0100     3.3280    12.7481 </r>
       <r>    -5.0000     3.4901    12.7830 </r>
       <r>    -4.9900     3.6501    12.8195 </r>
       <r>    -4.9800     3.8068    12.8576 </r>
       <r>    -4.9700     3.9590    12.8972 </r>
       <r>    -4.9600     4.1058    12.9382 </r>
       <r>    -4.9500     4.2459    12.9807 </r>
       <r>    -4.9400     4.3783    13.0245 </r>
       <r>    -4.9300     4.5022    13.0695 </r>
       <r>    -4.9200     4.6166    13.1157 </r>
       <r>    -4.9100     4.7206    13.1629 </r>
       <r>    -4.9000     4.8136    13.2110 </r>
       <r>    -4.8900     4.8950    13.2600 </r>
       <r>    -4.8800     4.9640    13.3096 </r>
       <r>    -4.8700     5.0204    13.3598 </r>
       <r>    -4.8600     5.0637    13.4104 </r>
       <r>    -4.8500     5.0937    13.4614 </r>
       <r>    -4.8400     5.1101    13.5125 </r>
       <r>    -4.8300     5.1131    13.5636 </r>
       <r>    -4.8200     5.1025    13.6146 </r>
       <r>    -4.8100     5.0786    13.6654 </r>
       <r>    -4.8000     5.0415    13.7158 </r>
       <r>    -4.7900     4.9917    13.7658 </r>
       <r>    -4.7800     4.9295    13.8151 </r>
       <r>    -4.7700     4.8556    13.8636 </r>
       <r>    -4.7600     4.7704    13.9113 </r>
       <r>    -4.7500     4.6746    13.9581 </r>
       <r>    -4.7400     4.5692    14.0037 </r>
       <r>    -4.7300     4.4548    14.0483 </r>
       <r>    -4.7200     4.3324    14.0916 </r>
       <r>    -4.7100     4.2030    14.1336 </r>
       <r>    -4.7000     4.0675    14.1743 </r>
       <r>    -4.6900     3.9271    14.2136 </r>
       <r>    -4.6800     3.7828    14.2514 </r>
       <r>    -4.6700     3.6357    14.2878 </r>
       <r>    -4.6600     3.4870    14.3227 </r>
       <r>    -4.6500     3.3377    14.3560 </r>
       <r>    -4.6400     3.1890    14.3879 </r>
       <r>    -4.6300     3.0420    14.4183 </r>
       <r>    -4.6200     2.8977    14.4473 </r>
       <r>    -4.6100     2.7573    14.4749 </r>
       <r>    -4.6000     2.6216    14.5011 </r>
       <r>    -4.5900     2.4916    14.5260 </r>
       <r>    -4.5800     2.3682    14.5497 </r>
       <r>    -4.5700     2.2522    14.5722 </r>
       <r>    -4.5600     2.1442    14.5937 </r>
       <r>    -4.5500     2.0449    14.6141 </r>
       <r>    -4.5400     1.9549    14.6337 </r>
       <r>    -4.5300     1.8744    14.6524 </r>
       <r>    -4.5200     1.8040    14.6704 </r>
       <r>    -4.5100     1.7437    14.6879 </r>
       <r>    -4.5000     1.6937    14.7048 </r>
       <r>    -4.4900     1.6541    14.7214 </r>
       <r>    -4.4800     1.6246    14.7376 </r>
       <r>    -4.4700     1.6051    14.7537 </r>
       <r>    -4.4600     1.5952    14.7696 </r>
       <r>    -4.4500     1.5945    14.7856 </r>
       <r>    -4.4400     1.6025    14.8016 </r>
       <r>    -4.4300     1.6186    14.8178 </r>
       <r>    -4.4200     1.6420    14.8342 </r>
       <r>    -4.4100     1.6720    14.8509 </r>
       <r>    -4.4000     1.7078    14.8680 </r>
       <r>    -4.3900     1.7484    14.8855 </r>
       <r>    -4.3800     1.7929    14.9034 </r>
       <r>    -4.3700     1.8404    14.9218 </r>
       <r>    -4.3600     1.8899    14.9407 </r>
       <r>    -4.3500     1.9405    14.9601 </r>
       <r>    -4.3400     1.9912    14.9800 </r>
       <r>    -4.3300     2.0413    15.0004 </r>
       <r>    -4.3200     2.0898    15.0213 </r>
       <r>    -4.3100     2.1360    15.0427 </r>
       <r>    -4.3000     2.1793    15.0645 </r>
       <r>    -4.2900     2.2192    15.0867 </r>
       <r>    -4.2800     2.2550    15.1092 </r>
       <r>    -4.2700     2.2866    15.1321 </r>
       <r>    -4.2600     2.3137    15.1552 </r>
       <r>    -4.2500     2.3361    15.1786 </r>
       <r>    -4.2400     2.3540    15.2021 </r>
       <r>    -4.2300     2.3674    15.2258 </r>
       <r>    -4.2200     2.3766    15.2496 </r>
       <r>    -4.2100     2.3818    15.2734 </r>
       <r>    -4.2000     2.3837    15.2972 </r>
       <r>    -4.1900     2.3825    15.3210 </r>
       <r>    -4.1800     2.3790    15.3448 </r>
       <r>    -4.1700     2.3737    15.3686 </r>
       <r>    -4.1600     2.3672    15.3922 </r>
       <r>    -4.1500     2.3603    15.4159 </r>
       <r>    -4.1400     2.3534    15.4394 </r>
       <r>    -4.1300     2.3473    15.4629 </r>
       <r>    -4.1200     2.3425    15.4863 </r>
       <r>    -4.1100     2.3396    15.5097 </r>
       <r>    -4.1000     2.3390    15.5331 </r>
       <r>    -4.0900     2.3411    15.5565 </r>
       <r>    -4.0800     2.3463    15.5799 </r>
       <r>    -4.0700     2.3546    15.6035 </r>
       <r>    -4.0600     2.3664    15.6272 </r>
       <r>    -4.0500     2.3815    15.6510 </r>
       <r>    -4.0400     2.4000    15.6750 </r>
       <r>    -4.0300     2.4218    15.6992 </r>
       <r>    -4.0200     2.4465    15.7237 </r>
       <r>    -4.0100     2.4739    15.7484 </r>
       <r>    -4.0000     2.5037    15.7734 </r>
       <r>    -3.9900     2.5353    15.7988 </r>
       <r>    -3.9800     2.5684    15.8245 </r>
       <r>    -3.9700     2.6024    15.8505 </r>
       <r>    -3.9600     2.6368    15.8769 </r>
       <r>    -3.9500     2.6710    15.9036 </r>
       <r>    -3.9400     2.7046    15.9306 </r>
       <r>    -3.9300     2.7369    15.9580 </r>
       <r>    -3.9200     2.7676    15.9857 </r>
       <r>    -3.9100     2.7961    16.0136 </r>
       <r>    -3.9000     2.8219    16.0418 </r>
       <r>    -3.8900     2.8449    16.0703 </r>
       <r>    -3.8800     2.8645    16.0989 </r>
       <r>    -3.8700     2.8807    16.1277 </r>
       <r>    -3.8600     2.8933    16.1567 </r>
       <r>    -3.8500     2.9021    16.1857 </r>
       <r>    -3.8400     2.9073    16.2148 </r>
       <r>    -3.8300     2.9088    16.2439 </r>
       <r>    -3.8200     2.9069    16.2729 </r>
       <r>    -3.8100     2.9018    16.3019 </r>
       <r>    -3.8000     2.8937    16.3309 </r>
       <r>    -3.7900     2.8830    16.3597 </r>
       <r>    -3.7800     2.8702    16.3884 </r>
       <r>    -3.7700     2.8557    16.4170 </r>
       <r>    -3.7600     2.8399    16.4454 </r>
       <r>    -3.7500     2.8234    16.4736 </r>
       <r>    -3.7400     2.8067    16.5017 </r>
       <r>    -3.7300     2.7902    16.5296 </r>
       <r>    -3.7200     2.7744    16.5573 </r>
       <r>    -3.7100     2.7598    16.5849 </r>
       <r>    -3.7000     2.7467    16.6124 </r>
       <r>    -3.6900     2.7353    16.6397 </r>
       <r>    -3.6800     2.7260    16.6670 </r>
       <r>    -3.6700     2.7188    16.6942 </r>
       <r>    -3.6600     2.7138    16.7213 </r>
       <r>    -3.6500     2.7109    16.7484 </r>
       <r>    -3.6400     2.7101    16.7755 </r>
       <r>    -3.6300     2.7109    16.8026 </r>
       <r>    -3.6200     2.7132    16.8298 </r>
       <r>    -3.6100     2.7164    16.8569 </r>
       <r>    -3.6000     2.7200    16.8841 </r>
       <r>    -3.5900     2.7235    16.9114 </r>
       <r>    -3.5800     2.7262    16.9386 </r>
       <r>    -3.5700     2.7274    16.9659 </r>
       <r>    -3.5600     2.7265    16.9932 </r>
       <r>    -3.5500     2.7229    17.0204 </r>
       <r>    -3.5400     2.7159    17.0476 </r>
       <r>    -3.5300     2.7048    17.0746 </r>
       <r>    -3.5200     2.6893    17.1015 </r>
       <r>    -3.5100     2.6688    17.1282 </r>
       <r>    -3.5000     2.6430    17.1546 </r>
       <r>    -3.4900     2.6118    17.1807 </r>
       <r>    -3.4800     2.5750    17.2065 </r>
       <r>    -3.4700     2.5326    17.2318 </r>
       <r>    -3.4600     2.4849    17.2567 </r>
       <r>    -3.4500     2.4321    17.2810 </r>
       <r>    -3.4400     2.3747    17.3047 </r>
       <r>    -3.4300     2.3132    17.3279 </r>
       <r>    -3.4200     2.2483    17.3503 </r>
       <r>    -3.4100     2.1806    17.3722 </r>
       <r>    -3.4000     2.1110    17.3933 </r>
       <r>    -3.3900     2.0403    17.4137 </r>
       <r>    -3.3800     1.9693    17.4334 </r>
       <r>    -3.3700     1.8990    17.4523 </r>
       <r>    -3.3600     1.8301    17.4706 </r>
       <r>    -3.3500     1.7634    17.4883 </r>
       <r>    -3.3400     1.6997    17.5053 </r>
       <r>    -3.3300     1.6396    17.5217 </r>
       <r>    -3.3200     1.5837    17.5375 </r>
       <r>    -3.3100     1.5323    17.5528 </r>
       <r>    -3.3000     1.4858    17.5677 </r>
       <r>    -3.2900     1.4444    17.5821 </r>
       <r>    -3.2800     1.4080    17.5962 </r>
       <r>    -3.2700     1.3767    17.6100 </r>
       <r>    -3.2600     1.3502    17.6235 </r>
       <r>    -3.2500     1.3283    17.6368 </r>
       <r>    -3.2400     1.3104    17.6499 </r>
       <r>    -3.2300     1.2962    17.6628 </r>
       <r>    -3.2200     1.2849    17.6757 </r>
       <r>    -3.2100     1.2761    17.6884 </r>
       <r>    -3.2000     1.2690    17.7011 </r>
       <r>    -3.1900     1.2630    17.7138 </r>
       <r>    -3.1800     1.2574    17.7263 </r>
       <r>    -3.1700     1.2515    17.7389 </r>
       <r>    -3.1600     1.2447    17.7513 </r>
       <r>    -3.1500     1.2364    17.7637 </r>
       <r>    -3.1400     1.2262    17.7759 </r>
       <r>    -3.1300     1.2136    17.7881 </r>
       <r>    -3.1200     1.1982    17.8000 </r>
       <r>    -3.1100     1.1798    17.8118 </r>
       <r>    -3.1000     1.1582    17.8234 </r>
       <r>    -3.0900     1.1333    17.8348 </r>
       <r>    -3.0800     1.1052    17.8458 </r>
       <r>    -3.0700     1.0739    17.8566 </r>
       <r>    -3.0600     1.0395    17.8669 </r>
       <r>    -3.0500     1.0024    17.8770 </r>
       <r>    -3.0400     0.9627    17.8866 </r>
       <r>    -3.0300     0.9208    17.8958 </r>
       <r>    -3.0200     0.8771    17.9046 </r>
       <r>    -3.0100     0.8321    17.9129 </r>
       <r>    -3.0000     0.7860    17.9208 </r>
       <r>    -2.9900     0.7393    17.9281 </r>
       <r>    -2.9800     0.6924    17.9351 </r>
       <r>    -2.9700     0.6457    17.9415 </r>
       <r>    -2.9600     0.5995    17.9475 </r>
       <r>    -2.9500     0.5543    17.9531 </r>
       <r>    -2.9400     0.5103    17.9582 </r>
       <r>    -2.9300     0.4678    17.9628 </r>
       <r>    -2.9200     0.4270    17.9671 </r>
       <r>    -2.9100     0.3881    17.9710 </r>
       <r>    -2.9000     0.3513    17.9745 </r>
       <r>    -2.8900     0.3166    17.9777 </r>
       <r>    -2.8800     0.2841    17.9805 </r>
       <r>    -2.8700     0.2539    17.9831 </r>
       <r>    -2.8600     0.2260    17.9853 </r>
       <r>    -2.8500     0.2003    17.9873 </r>
       <r>    -2.8400     0.1769    17.9891 </r>
       <r>    -2.8300     0.1555    17.9906 </r>
       <r>    -2.8200     0.1362    17.9920 </r>
       <r>    -2.8100     0.1187    17.9932 </r>
       <r>    -2.8000     0.1031    17.9942 </r>
       <r>    -2.7900     0.0892    17.9951 </r>
       <r>    -2.7800     0.0769    17.9959 </r>
       <r>    -2.7700     0.0660    17.9965 </r>
       <r>    -2.7600     0.0564    17.9971 </r>
       <r>    -2.7500     0.0481    17.9976 </r>
       <r>    -2.7400     0.0408    17.9980 </r>
       <r>    -2.7300     0.0345    17.9983 </r>
       <r>    -2.7200     0.0290    17.9986 </r>
       <r>    -2.7100     0.0243    17.9989 </r>
       <r>    -2.7000     0.0203    17.9991 </r>
       <r>    -2.6900     0.0169    17.9993 </r>
       <r>    -2.6800     0.0140    17.9994 </r>
       <r>    -2.6700     0.0116    17.9995 </r>
       <r>    -2.6600     0.0095    17.9996 </r>
       <r>    -2.6500     0.0078    17.9997 </r>
       <r>    -2.6400     0.0064    17.9997 </r>
       <r>    -2.6300     0.0052    17.9998 </r>
       <r>    -2.6200     0.0042    17.9998 </r>
       <r>    -2.6100     0.0034    17.9999 </r>
       <r>    -2.6000     0.0027    17.9999 </r>
       <r>    -2.5900     0.0022    17.9999 </r>
       <r>    -2.5800     0.0017    17.9999 </r>
       <r>    -2.5700     0.0014    18.0000 </r>
       <r>    -2.5600     0.0011    18.0000 </r>
       <r>    -2.5500     0.0009    18.0000 </r>
       <r>    -2.5400     0.0007    18.0000 </r>
       <r>    -2.5300     0.0005    18.0000 </r>
       <r>    -2.5200     0.0004    18.0000 </r>
[...]
        <r>  0.0072  0.0713  0.0134  0.0405  0.0000  0.0000  0.0000  0.0000  0.0000 </r>
        <r>  0.0072  0.0713  0.0134  0.0405  0.0000  0.0000  0.0000  0.0000  0.0000 </r>
       </set>
       <set comment="band 11">
        <r>  0.0059  0.0061  0.0000  0.0055  0.2851  0.0000  0.0991  0.0000  0.1013 </r>
        <r>  0.0007  0.0397  0.0049  0.0955  0.0000  0.0000  0.0000  0.0000  0.0000 </r>
        <r>  0.0007  0.0397  0.0049  0.0955  0.0000  0.0000  0.0000  0.0000  0.0000 </r>
       </set>
       <set comment="band 12">
        <r>  0.0000  0.0000  0.0002  0.0000  0.0000  0.2433  0.0000  0.3035  0.0000 </r>
        <r>  0.0257  0.0395  0.0135  0.0145  0.0000  0.0000  0.0000  0.0000  0.0000 </r>
        <r>  0.0257  0.0395  0.0134  0.0145  0.0000  0.0000  0.0000  0.0000  0.0000 </r>
       </set>
       <set comment="band 13">
        <r>  0.0000  0.0000  0.0027  0.0000  0.0000  0.2525  0.0000  0.1916  0.0000 </r>
        <r>  0.0025  0.0406  0.0086  0.1195  0.0000  0.0000  0.0000  0.0000  0.0000 </r>
        <r>  0.0025  0.0406  0.0086  0.1195  0.0000  0.0000  0.0000  0.0000  0.0000 </r>
       </set>
       <set comment="band 14">
        <r>  0.0076  0.0037  0.0000  0.0018  0.0014  0.0000  0.0207  0.0000  0.0034 </r>
        <r>  0.0069  0.0053  0.0044  0.0018  0.0000  0.0000  0.0000  0.0000  0.0000 </r>
        <r>  0.0070  0.0054  0.0051  0.0019  0.0000  0.0000  0.0000  0.0000  0.0000 </r>
       </set>
      </set>
      <set comment="kpoint 7">
       <set comment="band 1">
        <r>  0.0576  0.0184  0.0000  0.0166  0.0142  0.0000  0.0008  0.0000  0.0116 </r>
        <r>  0.3024  0.0013  0.0053  0.0010  0.0000  0.0000  0.0000  0.0000  0.0000 </r>
        <r>  0.3025  0.0013  0.0053  0.0010  0.0000  0.0000  0.0000  0.0000  0.0000 </r>
       </set>
       <set comment="band 2">
        <r>  0.0000  0.0000  0.0239  0.0000  0.0000  0.0400  0.0000  0.0372  0.0000 </r>
        <r>  0.3250  0.0007  0.0018  0.0006  0.0000  0.0000  0.0000  0.0000  0.0000 </r>
        <r>  0.3249  0.0007  0.0018  0.0006  0.0000  0.0000  0.0000  0.0000  0.0000 </r>
       </set>
       <set comment="band 3">
        <r>  0.0219  0.0058  0.0000  0.0251  0.1217  0.0000  0.0656  0.0000  0.1287 </r>
        <r>  0.0017  0.0523  0.0478  0.0482  0.0000  0.0000  0.0000  0.0000  0.0000 </r>
        <r>  0.0017  0.0523  0.0478  0.0482  0.0000  0.0000  0.0000  0.0000  0.0000 </r>
       </set>
       <set comment="band 4">
        <r>  0.0000  0.0000  0.0208  0.0000  0.0000  0.0062  0.0000  0.2845  0.0000 </r>
        <r>  0.0062  0.0662  0.0150  0.0979  0.0000  0.0000  0.0000  0.0000  0.0000 </r>
        <r>  0.0062  0.0662  0.0150  0.0979  0.0000  0.0000  0.0000  0.0000  0.0000 </r>
       </set>
       <set comment="band 5">
        <r>  0.1216  0.0191  0.0000  0.0235  0.0287  0.0000  0.0521  0.0000  0.0057 </r>
        <r>  0.0328  0.0238  0.1106  0.0311  0.0000  0.0000  0.0000  0.0000  0.0000 </r>
        <r>  0.0328  0.0238  0.1106  0.0311  0.0000  0.0000  0.0000  0.0000  0.0000 </r>
       </set>
       <set comment="band 6">
        <r>  0.0000  0.0000  0.0056  0.0000  0.0000  0.3936  0.0000  0.0047  0.0000 </r>
        <r>  0.0029  0.0869  0.0506  0.0342  0.0000  0.0000  0.0000  0.0000  0.0000 </r>
        <r>  0.0029  0.0869  0.0506  0.0342  0.0000  0.0000  0.0000  0.0000  0.0000 </r>
       </set>
       <set comment="band 7">
        <r>  0.0135  0.0434  0.0000  0.0225  0.0265  0.0000  0.1134  0.0000  0.1178 </r>
        <r>  0.0016  0.0793  0.0035  0.0967  0.0000  0.0000  0.0000  0.0000  0.0000 </r>
        <r>  0.0016  0.0793  0.0035  0.0967  0.0000  0.0000  0.0000  0.0000  0.0000 </r>
       </set>
       <set comment="band 8">
        <r>  0.0000  0.0000  0.0647  0.0000  0.0000  0.0064  0.0000  0.0674  0.0000 </r>
        <r>  0.0087  0.0384  0.1533  0.0652  0.0000  0.0000  0.0000  0.0000  0.0000 </r>
        <r>  0.0087  0.0383  0.1533  0.0652  0.0000  0.0000  0.0000  0.0000  0.0000 </r>
       </set>
       <set comment="band 9">
        <r>  0.0025  0.0077  0.0000  0.0016  0.2465  0.0000  0.2342  0.0000  0.1593 </r>
        <r>  0.0043  0.0375  0.0216  0.0220  0.0000  0.0000  0.0000  0.0000  0.0000 </r>
        <r>  0.0043  0.0375  0.0216  0.0220  0.0000  0.0000  0.0000  0.0000  0.0000 </r>
       </set>
       <set comment="band 10">
        <r>  0.0080  0.0088  0.0000  0.0051  0.1225  0.0000  0.0882  0.0000  0.3460 </r>
        <r>  0.0034  0.0445  0.0233  0.0137  0.0000  0.0000  0.0000  0.0000  0.0000 </r>
        <r>  0.0034  0.0445  0.0233  0.0137  0.0000  0.0000  0.0000  0.0000  0.0000 </r>
       </set>
       <set comment="band 11">
        <r>  0.0114  0.0028  0.0000  0.0006  0.3143  0.0000  0.3114  0.0000  0.0884 </r>
        <r>  0.0004  0.0205  0.0071  0.0398  0.0000  0.0000  0.0000  0.0000  0.0000 </r>
        <r>  0.0004  0.0205  0.0071  0.0399  0.0000  0.0000  0.0000  0.0000  0.0000 </r>
       </set>
       <set comment="band 12">
        <r>  0.0000  0.0000  0.0065  0.0000  0.0000  0.1057  0.0000  0.4326  0.0000 </r>
        <r>  0.0211  0.0366  0.0268  0.0058  0.0000  0.0000  0.0000  0.0000  0.0000 </r>
        <r>  0.0211  0.0366  0.0268  0.0058  0.0000  0.0000  0.0000  0.0000  0.0000 </r>
       </set>
       <set comment="band 13">
        <r>  0.0000  0.0000  0.0026  0.0000  0.0000  0.3983  0.0000  0.0885  0.0000 </r>
        <r>  0.0083  0.0430  0.0288  0.0703  0.0000  0.0000  0.0000  0.0000  0.0000 </r>
        <r>  0.0083  0.0430  0.0288  0.0703  0.0000  0.0000  0.0000  0.0000  0.0000 </r>
       </set>
       <set comment="band 14">
        <r>  0.0019  0.0106  0.0000  0.0156  0.0050  0.0000  0.0141  0.0000  0.0087 </r>
        <r>  0.0087  0.0052  0.0061  0.0012  0.0000  0.0000  0.0000  0.0000  0.0000 </r>
        <r>  0.0088  0.0052  0.0060  0.0013  0.0000  0.0000  0.0000  0.0000  0.0000 </r>
       </set>
      </set>
      <set comment="kpoint 8">
       <set comment="band 1">
        <r>  0.0208  0.0185  0.0000  0.0307  0.0314  0.0000  0.0003  0.0000  0.0158 </r>
        <r>  0.3194  0.0004  0.0059  0.0003  0.0000  0.0000  0.0000  0.0000  0.0000 </r>
        <r>  0.3196  0.0004  0.0059  0.0003  0.0000  0.0000  0.0000  0.0000  0.0000 </r>
       </set>
       <set comment="band 2">
        <r>  0.0000  0.0000  0.0071  0.0000  0.0000  0.0407  0.0000  0.0721  0.0000 </r>
        <r>  0.3312  0.0003  0.0027  0.0003  0.0000  0.0000  0.0000  0.0000  0.0000 </r>
        <r>  0.3309  0.0003  0.0027  0.0003  0.0000  0.0000  0.0000  0.0000  0.0000 </r>
       </set>
       <set comment="band 3">
        <r>  0.1026  0.0024  0.0000  0.0266  0.0645  0.0000  0.0342  0.0000  0.0434 </r>
        <r>  0.0043  0.0508  0.0087  0.1020  0.0000  0.0000  0.0000  0.0000  0.0000 </r>
        <r>  0.0043  0.0508  0.0087  0.1020  0.0000  0.0000  0.0000  0.0000  0.0000 </r>
       </set>
       <set comment="band 4">
        <r>  0.0000  0.0000  0.0350  0.0000  0.0000  0.0693  0.0000  0.1795  0.0000 </r>
        <r>  0.0071  0.0573  0.0054  0.1113  0.0000  0.0000  0.0000  0.0000  0.0000 </r>
        <r>  0.0071  0.0573  0.0054  0.1112  0.0000  0.0000  0.0000  0.0000  0.0000 </r>
       </set>
       <set comment="band 5">
        <r>  0.0162  0.0240  0.0000  0.0179  0.1402  0.0000  0.0903  0.0000  0.0526 </r>
        <r>  0.0206  0.0058  0.1295  0.0199  0.0000  0.0000  0.0000  0.0000  0.0000 </r>
        <r>  0.0206  0.0058  0.1295  0.0199  0.0000  0.0000  0.0000  0.0000  0.0000 </r>
       </set>
       <set comment="band 6">
        <r>  0.0000  0.0000  0.0257  0.0000  0.0000  0.3185  0.0000  0.0261  0.0000 </r>
        <r>  0.0020  0.1085  0.0279  0.0475  0.0000  0.0000  0.0000  0.0000  0.0000 </r>
        <r>  0.0020  0.1085  0.0279  0.0475  0.0000  0.0000  0.0000  0.0000  0.0000 </r>
       </set>
       <set comment="band 7">
        <r>  0.0233  0.0416  0.0000  0.0489  0.0014  0.0000  0.0710  0.0000  0.0229 </r>
        <r>  0.0063  0.1215  0.0320  0.0561  0.0000  0.0000  0.0000  0.0000  0.0000 </r>
        <r>  0.0063  0.1215  0.0320  0.0561  0.0000  0.0000  0.0000  0.0000  0.0000 </r>
       </set>
       <set comment="band 8">
        <r>  0.0000  0.0000  0.0363  0.0000  0.0000  0.0160  0.0000  0.1501  0.0000 </r>
        <r>  0.0118  0.0171  0.1757  0.0390  0.0000  0.0000  0.0000  0.0000  0.0000 </r>
        <r>  0.0118  0.0171  0.1757  0.0390  0.0000  0.0000  0.0000  0.0000  0.0000 </r>
       </set>
       <set comment="band 9">
        <r>  0.0034  0.0196  0.0000  0.0198  0.1840  0.0000  0.1602  0.0000  0.1971 </r>
        <r>  0.0008  0.0478  0.0257  0.0262  0.0000  0.0000  0.0000  0.0000  0.0000 </r>
        <r>  0.0008  0.0478  0.0257  0.0262  0.0000  0.0000  0.0000  0.0000  0.0000 </r>
       </set>
       <set comment="band 10">
        <r>  0.0051  0.0091  0.0000  0.0018  0.0649  0.0000  0.3341  0.0000  0.3775 </r>
        <r>  0.0002  0.0266  0.0149  0.0068  0.0000  0.0000  0.0000  0.0000  0.0000 </r>
        <r>  0.0002  0.0266  0.0149  0.0068  0.0000  0.0000  0.0000  0.0000  0.0000 </r>
       </set>
       <set comment="band 11">
        <r>  0.0154  0.0057  0.0000  0.0107  0.3789  0.0000  0.2183  0.0000  0.1807 </r>
        <r>  0.0021  0.0014  0.0171  0.0181  0.0000  0.0000  0.0000  0.0000  0.0000 </r>
        <r>  0.0021  0.0014  0.0171  0.0181  0.0000  0.0000  0.0000  0.0000  0.0000 </r>
       </set>
       <set comment="band 12">
        <r>  0.0000  0.0000  0.0063  0.0000  0.0000  0.1641  0.0000  0.3324  0.0000 </r>
        <r>  0.0091  0.0683  0.0151  0.0162  0.0000  0.0000  0.0000  0.0000  0.0000 </r>
        <r>  0.0091  0.0683  0.0151  0.0162  0.0000  0.0000  0.0000  0.0000  0.0000 </r>
       </set>
       <set comment="band 13">
        <r>  0.0000  0.0000  0.0004  0.0000  0.0000  0.3332  0.0000  0.1444  0.0000 </r>
        <r>  0.0189  0.0144  0.0665  0.0290  0.0000  0.0000  0.0000  0.0000  0.0000 </r>
        <r>  0.0189  0.0144  0.0665  0.0291  0.0000  0.0000  0.0000  0.0000  0.0000 </r>
       </set>
       <set comment="band 14">
        <r>  0.1877  0.0089  0.0000  0.0533  0.0403  0.0000  0.0061  0.0000  0.0387 </r>
        <r>  0.0001  0.0013  0.0115  0.0051  0.0000  0.0000  0.0000  0.0000  0.0000 </r>
        <r>  0.0001  0.0013  0.0115  0.0051  0.0000  0.0000  0.0000  0.0000  0.0000 </r>
       </set>
      </set>
      <set comment="kpoint 9">
       <set comment="band 1">
        <r>  0.0218  0.0321  0.0000  0.0178  0.0177  0.0000  0.0004  0.0000  0.0266 </r>
        <r>  0.3182  0.0009  0.0058  0.0003  0.0000  0.0000  0.0000  0.0000  0.0000 </r>
        <r>  0.3184  0.0009  0.0058  0.0003  0.0000  0.0000  0.0000  0.0000  0.0000 </r>
       </set>
       <set comment="band 2">
        <r>  0.0000  0.0000  0.0084  0.0000  0.0000  0.0705  0.0000  0.0375  0.0000 </r>
        <r>  0.3320  0.0005  0.0027  0.0002  0.0000  0.0000  0.0000  0.0000  0.0000 </r>
        <r>  0.3318  0.0005  0.0027  0.0002  0.0000  0.0000  0.0000  0.0000  0.0000 </r>
       </set>
       <set comment="band 3">
        <r>  0.0649  0.0098  0.0000  0.0293  0.0359  0.0000  0.0616  0.0000  0.1071 </r>
        <r>  0.0004  0.1066  0.0171  0.0360  0.0000  0.0000  0.0000  0.0000  0.0000 </r>
        <r>  0.0004  0.1067  0.0171  0.0360  0.0000  0.0000  0.0000  0.0000  0.0000 </r>
       </set>
       <set comment="band 4">
        <r>  0.0000  0.0000  0.0084  0.0000  0.0000  0.1284  0.0000  0.2208  0.0000 </r>
        <r>  0.0041  0.0958  0.0001  0.0665  0.0000  0.0000  0.0000  0.0000  0.0000 </r>
        <r>  0.0041  0.0958  0.0001  0.0665  0.0000  0.0000  0.0000  0.0000  0.0000 </r>
       </set>
       <set comment="band 5">
        <r>  0.0785  0.0205  0.0000  0.0103  0.0692  0.0000  0.0001  0.0000  0.0673 </r>
        <r>  0.0340  0.0203  0.1495  0.0150  0.0000  0.0000  0.0000  0.0000  0.0000 </r>
        <r>  0.0340  0.0203  0.1495  0.0150  0.0000  0.0000  0.0000  0.0000  0.0000 </r>
       </set>
       <set comment="band 6">
        <r>  0.0000  0.0000  0.0470  0.0000  0.0000  0.1650  0.0000  0.0582  0.0000 </r>
        <r>  0.0039  0.0671  0.0535  0.0781  0.0000  0.0000  0.0000  0.0000  0.0000 </r>
        <r>  0.0039  0.0671  0.0535  0.0781  0.0000  0.0000  0.0000  0.0000  0.0000 </r>
       </set>
       <set comment="band 7">
        <r>  0.0102  0.0636  0.0000  0.0362  0.0089  0.0000  0.1207  0.0000  0.0185 </r>
        <r>  0.0005  0.0419  0.0089  0.1234  0.0000  0.0000  0.0000  0.0000  0.0000 </r>
        <r>  0.0005  0.0419  0.0089  0.1233  0.0000  0.0000  0.0000  0.0000  0.0000 </r>
       </set>
       <set comment="band 8">
        <r>  0.0000  0.0000  0.0523  0.0000  0.0000  0.0593  0.0000  0.0754  0.0000 </r>
        <r>  0.0130  0.0383  0.1560  0.0459  0.0000  0.0000  0.0000  0.0000  0.0000 </r>
        <r>  0.0130  0.0383  0.1560  0.0459  0.0000  0.0000  0.0000  0.0000  0.0000 </r>
       </set>
       <set comment="band 9">
        <r>  0.0074  0.0001  0.0000  0.0000  0.2536  0.0000  0.1474  0.0000  0.2691 </r>
        <r>  0.0010  0.0277  0.0016  0.0449  0.0000  0.0000  0.0000  0.0000  0.0000 </r>
        <r>  0.0010  0.0277  0.0016  0.0449  0.0000  0.0000  0.0000  0.0000  0.0000 </r>
       </set>
       <set comment="band 10">
        <r>  0.0074  0.0139  0.0000  0.0052  0.0463  0.0000  0.5213  0.0000  0.1099 </r>
        <r>  0.0006  0.0275  0.0274  0.0128  0.0000  0.0000  0.0000  0.0000  0.0000 </r>
        <r>  0.0006  0.0275  0.0274  0.0128  0.0000  0.0000  0.0000  0.0000  0.0000 </r>
       </set>
       <set comment="band 11">
        <r>  0.0246  0.0117  0.0000  0.0045  0.4757  0.0000  0.0544  0.0000  0.2306 </r>
        <r>  0.0023  0.0029  0.0261  0.0081  0.0000  0.0000  0.0000  0.0000  0.0000 </r>
        <r>  0.0023  0.0029  0.0261  0.0081  0.0000  0.0000  0.0000  0.0000  0.0000 </r>
       </set>
       <set comment="band 12">
        <r>  0.0000  0.0000  0.0020  0.0000  0.0000  0.1394  0.0000  0.3939  0.0000 </r>
        <r>  0.0076  0.0257  0.0088  0.0394  0.0000  0.0000  0.0000  0.0000  0.0000 </r>
        <r>  0.0076  0.0257  0.0088  0.0394  0.0000  0.0000  0.0000  0.0000  0.0000 </r>
       </set>
       <set comment="band 13">
        <r>  0.0000  0.0000  0.0016  0.0000  0.0000  0.3945  0.0000  0.1490  0.0000 </r>
        <r>  0.0208  0.0094  0.0755  0.0247  0.0000  0.0000  0.0000  0.0000  0.0000 </r>
        <r>  0.0208  0.0094  0.0755  0.0247  0.0000  0.0000  0.0000  0.0000  0.0000 </r>
       </set>
       <set comment="band 14">
        <r>  0.1321  0.0177  0.0000  0.0490  0.0233  0.0000  0.0104  0.0000  0.0693 </r>
        <r>  0.0001  0.0023  0.0278  0.0034  0.0000  0.0000  0.0000  0.0000  0.0000 </r>
        <r>  0.0001  0.0023  0.0278  0.0034  0.0000  0.0000  0.0000  0.0000  0.0000 </r>
       </set>
      </set>
      <set comment="kpoint 10">
       <set comment="band 1">
        <r>  0.0037  0.0239  0.0000  0.0333  0.0320  0.0000  0.0001  0.0000  0.0232 </r>
        <r>  0.3266  0.0001  0.0062  0.0000  0.0000  0.0000  0.0000  0.0000  0.0000 </r>
        <r>  0.3270  0.0001  0.0062  0.0000  0.0000  0.0000  0.0000  0.0000  0.0000 </r>
       </set>
       <set comment="band 2">
        <r>  0.0000  0.0000  0.0012  0.0000  0.0000  0.0490  0.0000  0.0725  0.0000 </r>
        <r>  0.3363  0.0001  0.0031  0.0001  0.0000  0.0000  0.0000  0.0000  0.0000 </r>
        <r>  0.3359  0.0001  0.0031  0.0001  0.0000  0.0000  0.0000  0.0000  0.0000 </r>
       </set>
       <set comment="band 3">
        <r>  0.0000  0.0000  0.0052  0.0000  0.0000  0.1909  0.0000  0.1715  0.0000 </r>
        <r>  0.0014  0.0682  0.0002  0.0892  0.0000  0.0000  0.0000  0.0000  0.0000 </r>
        <r>  0.0014  0.0682  0.0002  0.0892  0.0000  0.0000  0.0000  0.0000  0.0000 </r>
       </set>
       <set comment="band 4">
        <r>  0.1158  0.0140  0.0000  0.0182  0.0234  0.0000  0.0696  0.0000  0.0119 </r>
        <r>  0.0010  0.0456  0.0008  0.1278  0.0000  0.0000  0.0000  0.0000  0.0000 </r>
        <r>  0.0010  0.0456  0.0008  0.1277  0.0000  0.0000  0.0000  0.0000  0.0000 </r>
       </set>
       <set comment="band 5">
        <r>  0.0099  0.0426  0.0000  0.0147  0.1350  0.0000  0.0570  0.0000  0.0583 </r>
        <r>  0.0128  0.0514  0.0919  0.0171  0.0000  0.0000  0.0000  0.0000  0.0000 </r>
        <r>  0.0128  0.0514  0.0918  0.0171  0.0000  0.0000  0.0000  0.0000  0.0000 </r>
       </set>
       <set comment="band 6">
        <r>  0.0254  0.0245  0.0000  0.0604  0.0232  0.0000  0.0165  0.0000  0.0498 </r>
        <r>  0.0174  0.0805  0.0843  0.0297  0.0000  0.0000  0.0000  0.0000  0.0000 </r>
        <r>  0.0174  0.0805  0.0843  0.0297  0.0000  0.0000  0.0000  0.0000  0.0000 </r>
       </set>
       <set comment="band 7">
        <r>  0.0000  0.0000  0.0880  0.0000  0.0000  0.0673  0.0000  0.0296  0.0000 </r>
        <r>  0.0021  0.1084  0.0205  0.0916  0.0000  0.0000  0.0000  0.0000  0.0000 </r>
        <r>  0.0021  0.1084  0.0206  0.0916  0.0000  0.0000  0.0000  0.0000  0.0000 </r>
       </set>
       <set comment="band 8">
        <r>  0.0000  0.0000  0.0202  0.0000  0.0000  0.0929  0.0000  0.1433  0.0000 </r>
        <r>  0.0174  0.0142  0.1843  0.0176  0.0000  0.0000  0.0000  0.0000  0.0000 </r>
        <r>  0.0174  0.0143  0.1843  0.0176  0.0000  0.0000  0.0000  0.0000  0.0000 </r>
       </set>
       <set comment="band 9">
        <r>  0.0039  0.0023  0.0000  0.0065  0.3005  0.0000  0.0598  0.0000  0.3202 </r>
        <r>  0.0000  0.0394  0.0037  0.0253  0.0000  0.0000  0.0000  0.0000  0.0000 </r>
        <r>  0.0000  0.0394  0.0037  0.0253  0.0000  0.0000  0.0000  0.0000  0.0000 </r>
       </set>
       <set comment="band 10">
        <r>  0.0367  0.0018  0.0000  0.0007  0.0402  0.0000  0.7005  0.0000  0.0491 </r>
        <r>  0.0000  0.0133  0.0025  0.0204  0.0000  0.0000  0.0000  0.0000  0.0000 </r>
        <r>  0.0000  0.0133  0.0025  0.0204  0.0000  0.0000  0.0000  0.0000  0.0000 </r>
       </set>
       <set comment="band 11">
        <r>  0.0000  0.0000  0.0013  0.0000  0.0000  0.3131  0.0000  0.1959  0.0000 </r>
        <r>  0.0008  0.0487  0.0001  0.0299  0.0000  0.0000  0.0000  0.0000  0.0000 </r>
        <r>  0.0008  0.0487  0.0001  0.0299  0.0000  0.0000  0.0000  0.0000  0.0000 </r>
       </set>
       <set comment="band 12">
        <r>  0.0025  0.0104  0.0000  0.0214  0.2945  0.0000  0.0103  0.0000  0.3826 </r>
        <r>  0.0037  0.0009  0.0672  0.0012  0.0000  0.0000  0.0000  0.0000  0.0000 </r>
        <r>  0.0037  0.0009  0.0672  0.0012  0.0000  0.0000  0.0000  0.0000  0.0000 </r>
       </set>
       <set comment="band 13">
        <r>  0.0000  0.0000  0.0003  0.0000  0.0000  0.2357  0.0000  0.3392  0.0000 </r>
        <r>  0.0266  0.0010  0.0995  0.0019  0.0000  0.0000  0.0000  0.0000  0.0000 </r>
        <r>  0.0266  0.0010  0.0995  0.0020  0.0000  0.0000  0.0000  0.0000  0.0000 </r>
       </set>
       <set comment="band 14">
        <r>  0.1174  0.0534  0.0000  0.0641  0.0537  0.0000  0.0084  0.0000  0.0326 </r>
        <r>  0.0003  0.0020  0.0027  0.0043  0.0000  0.0000  0.0000  0.0000  0.0000 </r>
        <r>  0.0003  0.0020  0.0027  0.0043  0.0000  0.0000  0.0000  0.0000  0.0000 </r>
       </set>
      </set>
     </set>
    </set>
   </array>
  </projected>
 </calculation>
 <structure name="finalpos" >
  <crystal>
   <varray name="basis" >
    <v>       3.19031573       0.00000000       0.00000000 </v>
    <v>      -1.59515786       2.76289447       0.00000000 </v>
    <v>       0.00000000       0.00000000      22.87900430 </v>
   </varray>
   <i name="volume">    201.66711341 </i>
   <varray name="rec_basis" >
    <v>       0.31344860       0.18096963       0.00000000 </v>
    <v>       0.00000000       0.36193927       0.00000000 </v>
    <v>       0.00000000       0.00000000       0.04370820 </v>
   </varray>
  </crystal>
  <varray name="positions" >
   <v>       0.33333300       0.66666700       0.16258361 </v>
   <v>       0.66666700       0.33333300       0.09418533 </v>
   <v>       0.66666600       0.33333300       0.23098188 </v>
  </varray>
 </structure>
</modeling>
