unknown system                          
   1.00000000000000     
     3.190316    0.000000    0.000000
    -1.595158    2.762894    0.000000
     0.000000    0.000000   44.879004
   Mo   S 
     1     2
Direct
  0.333333  0.666667  0.082884
  0.666667  0.333333  0.048015
  0.666666  0.333333  0.117753
 
   24   24  360
 0.61759     0.62662     0.65095     0.69332     0.75819     0.84453     0.94495      1.0505      1.1537      1.2478    
  1.3269      1.3816      1.3982      1.3693      1.3060      1.2307      1.1536      1.0658     0.96012     0.85019    
 0.75816     0.69320     0.65050     0.62530     0.62615     0.62703     0.64940     0.69431     0.76497     0.86250    
 0.98393      1.1223      1.2653      1.3970      1.5066      1.5907      1.6431      1.6470      1.5902      1.4855    
  1.3625      1.2405      1.1185     0.99274     0.87198     0.77057     0.69603     0.64848     0.65116     0.63664    
 0.65038     0.69511     0.77059     0.87418      1.0056      1.1644      1.3411      1.5154      1.6663      1.7835    
  1.8645      1.9038      1.8876      1.8051      1.6641      1.4924      1.3195      1.1594      1.0121     0.87924    
 0.77029     0.69427     0.69592     0.66094     0.65601     0.69185     0.77081     0.88154      1.0191      1.1895    
  1.3886      1.5950      1.7861      1.9463      2.0612      2.1209      2.1282      2.0857      1.9819      1.8096    
  1.5946      1.3811      1.1915      1.0218     0.87390     0.76348     0.75816     0.70353     0.67422     0.68618    
 0.75816     0.87522      1.0177      1.1944      1.4129      1.6469      1.8659      2.0639      2.2292      2.3267    
  2.3414      2.3022      2.2292      2.0975      1.8898      1.6445      1.4129      1.2040      1.0115     0.85596    
 0.83160     0.75717     0.70957     0.68838     0.73439     0.84917     0.99368      1.1650      1.3922      1.6583    
  1.9069      2.1244      2.3306      2.4958      2.5572      2.5167      2.4342      2.3232      2.1433      1.8963    
  1.6411      1.4077      1.1806     0.97330     0.91815     0.81112     0.75462     0.70812     0.71275     0.80836    
 0.95425      1.1120      1.3198      1.6021      1.8927      2.1305      2.3445      2.5591      2.7056      2.7193    
  2.6399      2.5283      2.3654      2.1221      1.8478      1.5999      1.3621      1.1167      1.0268     0.86641    
 0.79529     0.74149     0.70640     0.76137     0.90309      1.0588      1.2311      1.4875      1.8070      2.0863    
  2.3021      2.5158      2.7180      2.8166      2.7888      2.6997      2.5646      2.3383      2.0435      1.7680    
  1.5287      1.2750      1.1536     0.93487     0.82632     0.77212     0.71678     0.71842     0.83206     0.99685    
  1.1536      1.3585      1.6609      1.9815      2.2292      2.4322      2.6371      2.7876      2.8192      2.7691    
  2.6819      2.5114      2.2292      1.9206      1.6634      1.4202      1.2720      1.0198     0.85746     0.78808    
 0.73297     0.69303     0.74929     0.90178      1.0667      1.2369      1.4863      1.8073      2.0989      2.3237    
  2.5273      2.6998      2.7703      2.7416      2.6806      2.5766      2.3587      2.0523      1.7664      1.5260    
  1.3535      1.1046     0.90020     0.79474     0.74115     0.68932     0.68776     0.78920     0.94785      1.1090    
  1.3089      1.5871      1.8880      2.1434      2.3651      2.5660      2.6847      2.6817      2.6161      2.5360    
  2.3889      2.1335      1.8408      1.5885      1.3919      1.1646     0.95028     0.80655     0.73737     0.69112    
 0.66365     0.70553     0.82326     0.97051      1.1398      1.3658      1.6356      1.8912      2.1183      2.3372    
  2.5134      2.5773      2.5339      2.4495      2.3341      2.1408      1.8787      1.6201      1.3982      1.1882    
 0.98852     0.82785     0.73143     0.68078     0.65278     0.66300     0.73142     0.84396     0.98553      1.1698    
  1.3982      1.6315      1.8404      2.0392      2.2292      2.3594      2.3864      2.3308      2.2292      2.0769    
  1.8639      1.6239      1.3796      1.1807     0.99961     0.84670     0.73442     0.66479     0.63118     0.63220    
 0.67104     0.74497     0.85123     0.99736      1.1863      1.3954      1.5916      1.7641      1.9210      2.0546    
  2.1350      2.1411      2.0771      1.9562      1.7880      1.5880      1.3326      1.1528     0.98542     0.84893    
 0.74319     0.66196     0.61113     0.59971     0.62270     0.66915     0.74034     0.84669     0.99126      1.1650    
  1.3507      1.5250      1.6666      1.7707      1.8450      1.8857      1.8717      1.7915      1.6612      1.5048    
  1.2549      1.1086     0.95799     0.83345     0.74385     0.67151     0.61235     0.58402     0.59082     0.61716    
 0.65945     0.73073     0.83266     0.95506      1.0993      1.2659      1.4242      1.5335      1.5924      1.6274    
  1.6388      1.5994      1.5057      1.3856      1.1537      1.0469     0.92419     0.81072     0.73145     0.67569    
 0.62571     0.59154     0.58628     0.59802     0.61698     0.65868     0.73142     0.81501     0.90032      1.0111    
  1.1536      1.2843      1.3618      1.3965      1.4129      1.4002      1.3405      1.2501      1.0420     0.96927    
 0.88239     0.78919     0.71696     0.67118     0.63447     0.60524     0.59730     0.60487     0.61085     0.62560    
 0.67285     0.74183     0.80034     0.85192     0.92970      1.0336      1.1232      1.1750      1.2011      1.2060    
  1.1756      1.1129     0.93323     0.88533     0.83197     0.76865     0.71155     0.67387     0.64690     0.62332    
 0.61400     0.62205     0.62857     0.62663     0.64106     0.68880     0.74701     0.78800     0.82035     0.86678    
 0.92399     0.97248      1.0060      1.0245      1.0180     0.98217     0.83723     0.80793     0.77951     0.74641    
 0.71356     0.69168     0.67855     0.66472     0.65410     0.65712     0.66665     0.66494     0.65509     0.66128    
 0.69401     0.73643     0.76975     0.79299     0.81305     0.83266     0.85275     0.87152     0.87887     0.86543    
 0.75819     0.74461     0.73387     0.72456     0.71675     0.71594     0.72326     0.73041     0.73145     0.73185    
 0.73747     0.74126     0.73143     0.70992     0.69362     0.69656     0.71678     0.74041     0.75473     0.75788    
 0.75816     0.76318     0.76992     0.76903     0.69587     0.69549     0.69896     0.70813     0.72220     0.74178    
 0.76871     0.80028     0.82757     0.84321     0.84898     0.85119     0.84879     0.83176     0.79480     0.74931    
 0.71605     0.70524     0.70817     0.70952     0.70390     0.69724     0.69517     0.69602     0.65071     0.65905    
 0.67405     0.69890     0.73363     0.77483     0.82049     0.87124     0.92395     0.96769     0.99138     0.99506    
 0.98828     0.97543     0.94798     0.89618     0.82608     0.75898     0.71288     0.68837     0.67399     0.66134    
 0.65129     0.64764     0.62481     0.63617     0.65825     0.69462     0.74771     0.81341     0.88453     0.95732    
  1.0308      1.0997      1.1520      1.1754      1.1680      1.1402      1.1037      1.0577     0.99168     0.90352    
 0.81031     0.73516     0.68655     0.65641     0.63583     0.62447     0.81983     0.83534     0.87901     0.95380    
  1.0641      1.2076      1.3740      1.5497      1.7217      1.8774      2.0051      2.0910      2.1182      2.0781    
  1.9831      1.8593      1.7217      1.5658      1.3900      1.2136      1.0641     0.95370     0.87854     0.83394    
 0.83484     0.83574     0.87607     0.95638      1.0789      1.2431      1.4428      1.6667      1.8964      2.1088    
  2.2860      2.4193      2.4978      2.5019      2.4188      2.2638      2.0724      1.8704      1.6628      1.4521    
  1.2530      1.0848     0.95822     0.87516     0.87921     0.85314     0.87842     0.95722      1.0876      1.2643    
  1.4838      1.7413      2.0214      2.2962      2.5363      2.7239      2.8505      2.9060      2.8748      2.7467    
  2.5341      2.2720      1.9987      1.7359      1.4905      1.2695      1.0873     0.95634     0.95652     0.89399    
 0.88884     0.95229      1.0850      1.2719      1.5041      1.7834      2.1002      2.4255      2.7277      2.9822    
  3.1656      3.2615      3.2691      3.1914      3.0196      2.7525      2.4250      2.0923      1.7855      1.5070    
  1.2639      1.0773      1.0641     0.96292     0.91712     0.94468      1.0641      1.2563      1.4962      1.7885    
  2.1356      2.5039      2.8537      3.1693      3.4292      3.5875      3.6222      3.5616      3.4292      3.2047    
  2.8787      2.5013      2.1356      1.7986      1.4898      1.2361      1.1941      1.0527     0.96965     0.94736    
  1.0287      1.2126      1.4531      1.7417      2.1039      2.5158      2.9111      3.2665      3.5922      3.8462    
  3.9534      3.9107      3.7812      3.5843      3.2863      2.8999      2.4977      2.1202      1.7582      1.4317    
  1.3458      1.1512      1.0396     0.97272     0.99553      1.1483      1.3839      1.6561      1.9990      2.4329    
  2.8816      3.2728      3.6262      3.9556      4.1774      4.2153      4.1082      3.9232      3.6483      3.2640    
  2.8345      2.4306      2.0435      1.6609      1.5248      1.2572      1.1117      1.0181     0.98110      1.0759    
  1.2959      1.5586      1.8606      2.2670      2.7496      3.1929      3.5621      3.9100      4.2140      4.3665    
  4.3373      4.1948      3.9614      3.6002      3.1478      2.7086      2.3103      1.9067      1.7217      1.3795    
  1.1786      1.0663     0.98906      1.0097      1.1845      1.4446      1.7217      2.0683      2.5308      3.0192    
  3.4292      3.7792      4.1053      4.3360      4.3944      4.3166      4.1524      3.8625      3.4292      2.9551    
  2.5334      2.1332      1.9028      1.5169      1.2473      1.1036      1.0087     0.96665      1.0628      1.2938    
  1.5660      1.8657      2.2648      2.7492      3.2054      3.5843      3.9219      4.1949      4.3178      4.2875    
  4.1746      3.9738      3.6211      3.1563      2.7059      2.3064      2.0331      1.6471      1.3262      1.1333    
  1.0249     0.95250     0.96878      1.1276      1.3764      1.6517      1.9860      2.4154      2.8751      3.2852    
  3.6472      3.9626      4.1554      4.1758      4.0832      3.9311      3.6722      3.2747      2.8254      2.4169    
  2.1018      1.7402      1.4068      1.1675      1.0319     0.95033     0.92145     0.99847      1.1853      1.4282    
  1.7141      2.0743      2.4898      2.8927      3.2587      3.5986      3.8646      3.9748      3.9291      3.7974    
  3.5953      3.2824      2.8795      2.4735      2.1182      1.7808      1.4655      1.2071      1.0370     0.94024    
 0.89579     0.92146      1.0370      1.2242      1.4624      1.7615      2.1182      2.4855      2.8251      3.1425    
  3.4292      3.6225      3.6704      3.5923      3.4292      3.1822      2.8498      2.4775      2.0889      1.7730    
  1.4836      1.2365      1.0488     0.92639     0.86539     0.86630     0.93269      1.0598      1.2413      1.4812    
  1.7788      2.1056      2.4203      2.7036      2.9554      3.1595      3.2776      3.2840      3.1832      2.9926    
  2.7288      2.4163      2.0110      1.7278      1.4623      1.2388      1.0611     0.92562     0.84092     0.81812    
 0.85286     0.93308      1.0581      1.2364      1.4683      1.7406      2.0302      2.3055      2.5367      2.7114    
  2.8315      2.8888      2.8595      2.7333      2.5311      2.2842      1.8847      1.6513      1.4150      1.2131    
  1.0586     0.93548     0.84115     0.79499     0.80210     0.84623     0.92299      1.0449      1.2121      1.4118    
  1.6416      1.8964      2.1373      2.3153      2.4228      2.4834      2.4952      2.4300      2.2861      2.0968    
  1.7217      1.5452      1.3514      1.1721      1.0371     0.93757     0.85601     0.80285     0.79153     0.80961    
 0.84698     0.91996      1.0370      1.1764      1.3263      1.5077      1.7217      1.9164      2.0432      2.1086    
  2.1356      2.1122      2.0208      1.8807      1.5409      1.4156      1.2734      1.1276      1.0105     0.93012    
 0.86875     0.82395     0.80885     0.81667     0.82971     0.85957     0.93204      1.0366      1.1392      1.2415    
  1.3741      1.5320      1.6677      1.7524      1.7956      1.8006      1.7529      1.6570      1.3618      1.2771    
  1.1844      1.0831     0.99383     0.93229     0.88970     0.85716     0.84386     0.85124     0.85895     0.86054    
 0.88364     0.94795      1.0310      1.1035      1.1724      1.2576      1.3519      1.4307      1.4841      1.5097    
  1.4966      1.4409      1.2000      1.1479      1.0950      1.0391     0.98821     0.95496     0.93711     0.92336    
 0.91514     0.92057     0.93045     0.92637     0.91324     0.91900     0.95733      1.0122      1.0639      1.1093    
  1.1532      1.1951      1.2328      1.2615      1.2691      1.2460      1.0641      1.0395      1.0178      1.0002    
 0.98904     0.99072      1.0060      1.0244      1.0371      1.0462      1.0552      1.0559      1.0370      1.0031    
 0.97486     0.97025     0.98906      1.0170      1.0397      1.0534      1.0641      1.0771      1.0869      1.0831    
 0.95648     0.95446     0.95852     0.97278     0.99783      1.0344      1.0832      1.1391      1.1896      1.2233    
  1.2389      1.2412      1.2292      1.1941      1.1334      1.0628      1.0073     0.97997     0.97282     0.96957    
 0.96329     0.95799     0.95732     0.95816     0.87875     0.89204     0.91694     0.95842      1.0175      1.0902    
  1.1725      1.2618      1.3512      1.4251      1.4685      1.4788      1.4652      1.4333      1.3765      1.2880    
  1.1783      1.0735     0.99566     0.94733     0.91685     0.89444     0.87935     0.87419     0.83341     0.85271    
 0.89118     0.95350      1.0427      1.1536      1.2763      1.4031      1.5285      1.6421      1.7270      1.7673    
  1.7595      1.7146      1.6462      1.5568      1.4393      1.2963      1.1503      1.0295     0.94507     0.88925    
 0.85228     0.83301      1.0871      1.1138      1.1903      1.3180      1.4992      1.7282      1.9899      2.2656    
  2.5351      2.7784      2.9758      3.1068      3.1495      3.0932      2.9524      2.7591      2.5351      2.2827    
  2.0070      1.7345      1.4993      1.3180      1.1898      1.1123      1.1132      1.1142      1.1837      1.3203    
  1.5230      1.7868      2.1007      2.4479      2.8032      3.1346      3.4141      3.6230      3.7424      3.7467    
  3.6225      3.3905      3.0961      2.7758      2.4439      2.1105      1.7971      1.5292      1.3223      1.1828    
  1.1905      1.1464      1.1897      1.3212      1.5351      1.8205      2.1687      2.5697      3.0020      3.4287    
  3.8090      4.1111      4.3136      4.3965      4.3393      4.1353      3.8067      3.4034      2.9779      2.5639    
  2.1756      1.8260      1.5348      1.3203      1.3209      1.2168      1.2114      1.3165      1.5294      1.8285    
  2.1986      2.6367      3.1283      3.6365      4.1182      4.5323      4.8368      4.9983      5.0064      4.8642    
  4.5719      4.1443      3.6359      3.1197      2.6387      2.2016      1.8201      1.5212      1.4993      1.3297    
  1.2596      1.3104      1.4993      1.8007      2.1816      2.6418      3.1803      3.7571      4.3218      4.8426    
  5.2758      5.5501      5.6247      5.5228      5.2758      4.8800      4.3481      3.7543      3.1803      2.6526    
  2.1750      1.7794      1.7139      1.4760      1.3418      1.3183      1.4507      1.7335      2.1115      2.5699    
  3.1319      3.7695      4.4070      5.0062      5.5559      5.9840      6.1849      6.1398      5.9152      5.5476    
  5.0272      4.3952      3.7505      3.1492      2.5875      2.0890      1.9603      1.6408      1.4506      1.3550    
  1.4041      1.6379      2.0007      2.4369      2.9783      3.6442      4.3511      5.0128      5.6300      6.1875    
  6.5646      6.6554      6.4915      6.1533      5.6533      5.0036      4.3014      3.6419      3.0253      2.4419    
  2.2393      1.8195      1.5685      1.4185      1.3794      1.5306      1.8604      2.2753      2.7657      3.3981    
  4.1413      4.8674      5.5240      6.1392      6.6540      6.9220      6.8912      6.6339      6.1937      5.5644    
  4.8198      4.0980      3.4437      2.8142      2.5351      2.0165      1.6846      1.4899      1.3820      1.4300    
  1.6907      2.0853      2.5351      3.0919      3.8034      4.5716      5.2758      5.9130      6.4884      6.8899    
  7.0078      6.8693      6.5382      6.0011      5.2758      4.5037      3.8061      3.1604      2.8052      2.2252    
  1.8024      1.5524      1.4006      1.3563      1.5093      1.8514      2.2768      2.7658      3.3916      4.1380    
  4.8789      5.5467      6.1516      6.6339      6.8707      6.8385      6.6124      6.2064      5.5857      4.8270    
  4.0922      3.4356      3.0053      2.4162      1.9263      1.6066      1.4181      1.3161      1.3589      1.6007    
  1.9793      2.4210      2.9554      3.6189      4.3397      5.0234      5.6512      6.1946      6.5413      6.6136    
  6.4650      6.1613      5.6776      5.0123      4.2871      3.6205      3.1182      2.5533      2.0436      1.6625    
  1.4269      1.2919      1.2614      1.3916      1.6815      2.0665      2.5258      3.0890      3.7339      4.3824    
  4.9954      5.5617      6.0033      6.2077      6.1594      5.9323      5.5583      5.0205      4.3684      3.7166    
  3.1495      2.6166      2.1262      1.7188      1.4337      1.2632      1.1924      1.2432      1.4337      1.7369    
  2.1230      2.5962      3.1495      3.7293      4.2868      4.8123      5.2758      5.5880      5.6767      5.5560    
  5.2758      4.8545      4.3129      3.7208      3.1045      2.6084      2.1525      1.7572      1.4467      1.2352    
  1.1267      1.1275      1.2415      1.4583      1.7624      2.1498      2.6145      3.1223      3.6241      4.0897    
  4.5041      4.8323      5.0180      5.0246      4.8572      4.5434      4.1164      3.6198      2.9819      2.5403    
  2.1229      1.7597      1.4598      1.2270      1.0787      1.0339      1.0910      1.2347      1.4568      1.7571    
  2.1290      2.5538      3.0023      3.4347      3.8094      4.1009      4.2984      4.3834      4.3278      4.1241    
  3.8037      3.4121      2.7859      2.4205      2.0524      1.7251      1.4569      1.2372      1.0710     0.98643    
 0.99384      1.0763      1.2242      1.4426      1.7239      2.0489      2.4105      2.7984      3.1647      3.4489    
  3.6337      3.7355      3.7478      3.6411      3.4183      3.1221      2.5351      2.2549      1.9530      1.6675    
  1.4336      1.2467      1.0944     0.99464     0.96731      1.0017      1.0850      1.2284      1.4337      1.6718    
  1.9264      2.2154      2.5351      2.8244      3.0250      3.1371      3.1803      3.1407      3.0013      2.7869    
  2.2565      2.0546      1.8299      1.6008      1.4045      1.2524      1.1301      1.0400      1.0009      1.0090    
  1.0460      1.1206      1.2546      1.4317      1.6127      1.7963      2.0110      2.2470      2.4490      2.5814    
  2.6495      2.6547      2.5817      2.4379      1.9773      1.8407      1.6906      1.5307      1.3854      1.2729    
  1.1861      1.1181      1.0817      1.0815      1.0974      1.1215      1.1797      1.2894      1.4244      1.5523    
  1.6781      1.8200      1.9666      2.0879      2.1690      2.2045      2.1820      2.0987      1.7202      1.6375    
  1.5508      1.4611      1.3790      1.3186      1.2779      1.2453      1.2233      1.2217      1.2320      1.2349    
  1.2346      1.2589      1.3211      1.4043      1.4873      1.5660      1.6429      1.7149      1.7759      1.8176    
  1.8255      1.7897      1.4992      1.4621      1.4275      1.3996      1.3820      1.3816      1.3980      1.4189    
  1.4336      1.4441      1.4538      1.4543      1.4337      1.3965      1.3652      1.3599      1.3820      1.4174    
  1.4508      1.4767      1.4993      1.5211      1.5344      1.5274      1.3209      1.3207      1.3301      1.3551    
  1.3971      1.4562      1.5309      1.6127      1.6857      1.7358      1.7598      1.7623      1.7421      1.6907    
  1.6068      1.5092      1.4275      1.3783      1.3552      1.3418      1.3300      1.3225      1.3214      1.3222    
  1.1900      1.2148      1.2595      1.3300      1.4273      1.5458      1.6782      1.8178      1.9528      2.0629    
  2.1292      2.1472      2.1259      2.0716      1.9795      1.8454      1.6843      1.5281      1.4042      1.3182    
  1.2594      1.2173      1.1906      1.1817      1.1117      1.1460      1.2138      1.3196      1.4653      1.6434    
  1.8397      2.0416      2.2375      2.4110      2.5394      2.6023      2.5940      2.5262      2.4153      2.2673    
  2.0798      1.8608      1.6399      1.4515      1.3108      1.2118      1.1454      1.1112      1.4515      1.4947    
  1.6191      1.8227      2.1036      2.4516      2.8474      3.2662      3.6799      4.0568      4.3637      4.5667    
  4.6344      4.5522      4.3387      4.0363      3.6799      3.2845      2.8655      2.4584      2.1036      1.8227    
  1.6186      1.4931      1.4942      1.4952      1.6057      1.8211      2.1353      2.5381      3.0141      3.5414    
  4.0863      4.6035      5.0471      5.3797      5.5661      5.5706      5.3791      5.0221      4.5627      4.0574    
  3.5373      3.0246      2.5491      2.1417      1.8231      1.6047      1.6193      1.5505      1.6184      1.8220    
  2.1503      2.5870      3.1186      3.7317      4.3977      5.0660      5.6745      6.1662      6.4951      6.6230    
  6.5223      6.1918      5.6722      5.0391      4.3722      3.7255      3.1259      2.5927      2.1499      1.8210    
  1.8258      1.6660      1.6602      1.8210      2.1419      2.5953      3.1616      3.8354      4.5980      5.4002    
  6.1768      6.8564      7.3633      7.6344      7.6430      7.3924      6.8987      6.2045      5.3994      4.5887    
  3.8375      3.1647      2.5864      2.1333      2.1036      1.8433      1.7416      1.8228      2.1036      2.5527    
  3.1321      3.8406      4.6761      5.5893      6.5090      7.3720      8.0937      8.5609      8.7023      8.5320    
  8.0937      7.4116      6.5368      5.5862      4.6761      3.8522      3.1252      2.5302      2.4365      2.0699    
  1.8691      1.8442      2.0432      2.4574      3.0255      3.7317      4.6014      5.6023      6.6401      7.6467    
  8.5689      9.2838      9.6391      9.5912      9.2107      8.5600      7.6689      6.6276      5.5822      4.6200    
  3.7505      3.0017      2.8160      2.3271      2.0337      1.9013      1.9843      2.3240      2.8590      3.5299    
  4.3725      5.4080      6.5399      7.6535      8.7102      9.6429      10.273      10.450      10.195      9.6065    
  8.7350      7.6439      6.4873      5.4057      4.4225      3.5351      3.2385      2.6067      2.2150      1.9924    
  1.9507      2.1747      2.6501      3.2768      4.0468      5.0336      6.2013      7.3983      8.5350      9.5916    
  10.449      10.903      10.871      10.428      9.6493      8.5777      7.3477      6.1554      5.0819      4.0981    
  3.6799      2.9090      2.3991      2.0969      1.9502      2.0334      2.4056      2.9819      3.6799      4.5583    
  5.6687      6.8984      8.0938      9.2084      10.192      10.870      11.084      10.848      10.245      9.3018    
  8.0937      6.8263      5.6714      4.6309      4.0851      3.2204      2.5858      2.1955      1.9712      1.9243    
  2.1499      2.6377      3.2749      4.0432      5.0232      6.1947      7.4080      8.5573      9.6038      10.428    
  10.849      10.815      10.405      9.6619      8.5987      7.3530      6.1461      5.0699      4.3948      3.5017    
  2.7744      2.2859      1.9948      1.8559      1.9321      2.2797      2.8307      3.5067      4.3417      5.3751    
  6.5227      7.6611      8.7304      9.6494      10.248      10.406      10.167      9.6141      8.7584      7.6493    
  6.4670      5.3769      4.5788      3.7058      2.9456      2.3748      2.0111      1.8097      1.7773      1.9738    
  2.3951      2.9700      3.6766      4.5477      5.5570      6.6082      7.6313      8.5732      9.3042      9.6642    
  9.6131      9.2290      8.5697      7.6579      6.5933      5.5387      4.6344      3.8044      3.0639      2.4568    
  2.0253      1.7640      1.6614      1.7427      2.0252      2.4763      3.0607      3.7827      4.6344      5.5523    
  6.4666      7.3373      8.0938      8.6029      8.7598      8.5689      8.0937      7.3820      6.4943      5.5431    
  4.5642      3.7958      3.1027      2.5096      2.0440      1.7241      1.5593      1.5599      1.7306      2.0563    
  2.5152      3.0997      3.8021      4.5832      5.3808      6.1434      6.8266      7.3612      7.6592      7.6660    
  7.3873      6.8684      6.1719      5.3762      4.3698      3.6920      3.0606      2.5122      2.0595      1.7101    
  1.4879      1.4178      1.5006      1.7182      2.0564      2.5095      3.0668      3.7064      4.3917      5.0689    
  5.6748      6.1585      6.4842      6.6151      6.5151      6.1831      5.6691      5.0450      4.0645      3.5061    
  2.9550      2.4636      2.0546      1.7207      1.4725      1.3448      1.3525      1.4780      1.7073      2.0397    
  2.4621      2.9511      3.4958      4.0779      4.6353      5.0873      5.3971      5.5663      5.5792      5.4048    
  5.0551      4.5904      3.6799      3.2516      2.8028      2.3803      2.0252      1.7360      1.5041      1.3533    
  1.3086      1.3607      1.4945      1.7172      2.0252      2.3845      2.7746      3.2102      3.6799      4.1088    
  4.4221      4.6074      4.6761      4.6108      4.3969      4.0693      3.2568      2.9493      2.6149      2.2799    
  1.9875      1.7526      1.5628      1.4242      1.3599      1.3683      1.4304      1.5530      1.7551      2.0162    
  2.2923      2.5794      2.9032      3.2465      3.5425      3.7441      3.8490      3.8543      3.7443      3.5309    
  2.8342      2.6292      2.4054      2.1726      1.9602      1.7897      1.6548      1.5502      1.4910      1.4834    
  1.5072      1.5536      1.6482      1.8071      2.0014      2.1956      2.3924      2.6073      2.8226      3.0005    
  3.1190      3.1679      3.1325      3.0120      2.4433      2.3236      2.1962      2.0663      1.9482      1.8584    
  1.7948      1.7452      1.7117      1.7047      1.7153      1.7236      1.7338      1.7748      1.8611      1.9751    
  2.0942      2.2123      2.3292      2.4375      2.5265      2.5839      2.5921      2.5411      2.1036      2.0552    
  2.0092      1.9722      1.9502      1.9510      1.9733      2.0025      2.0252      2.0413      2.0534      2.0520    
  2.0253      1.9790      1.9387      1.9280      1.9502      1.9912      2.0338      2.0706      2.1036      2.1332    
  2.1496      2.1398      1.8257      1.8338      1.8567      1.9013      1.9697      2.0613      2.1728      2.2923    
  2.3993      2.4747      2.5124      2.5151      2.4817      2.4047      2.2861      2.1497      2.0307      1.9497    
  1.9015      1.8691      1.8437      1.8275      1.8222      1.8230      1.6188      1.6639      1.7415      1.8565    
  2.0089      2.1910      2.3926      2.6023      2.8025      2.9659      3.0670      3.0970      3.0637      2.9753    
  2.8308      2.6314      2.3989      2.1722      1.9844      1.8441      1.7413      1.6665      1.6194      1.6035    
  1.4925      1.5501      1.6629      1.8326      2.0586      2.3298      2.6282      2.9357      3.2335      3.4962    
  3.6910      3.7891      3.7804      3.6770      3.5007      3.2651      2.9761      2.6505      2.3261      2.0438    
  1.8233      1.6607      1.5495      1.4920      1.9510      2.0157      2.2027      2.5062      2.9206      3.4333    
  4.0224      4.6578      5.2993      5.8947      6.3852      6.7113      6.8220      6.6957      6.3585      5.8727    
  5.2993      4.6775      4.0418      3.4405      2.9206      2.5062      2.2021      2.0140      2.0151      2.0162    
  2.1791      2.4963      2.9587      3.5546      4.2678      5.0725      5.9228      6.7495      7.4734      8.0203    
  8.3234      8.3281      8.0194      7.4467      6.7064      5.8923      5.0682      4.2790      3.5663      2.9656    
  2.4984      2.1779      2.2030      2.1033      2.2020      2.4972      2.9762      3.6225      4.4246      5.3685    
  6.4158      7.4912      8.4926      9.3148      9.8653      10.072      9.8943      9.3421      8.4903      7.4627    
  6.3887      5.3617      4.4323      3.6286      2.9758      2.4961      2.5095      2.2798      2.2736      2.5043    
  2.9656      3.6313      4.4861      5.5295      6.7375      8.0385      9.3248      10.468      11.329      11.792    
  11.801      11.360      10.513      9.3543      8.0374      6.7273      5.5316      4.4894      3.6218      2.9565    
  2.9206      2.5437      2.4026      2.5219      2.9206      3.5701      4.4387      5.5348      6.8585      8.3436    
  9.8780      11.337      12.563      13.367      13.625      13.336      12.563      11.379      9.9075      8.3402    
  6.8585      5.5472      4.4315      3.5462      3.4172      2.8786      2.5933      2.5668      2.8503      3.4395    
  4.2800      5.3683      6.7407      8.3571      10.088      11.804      13.375      14.587      15.211      15.160    
  14.509      13.365      11.828      10.074      8.3359      6.7608      5.3884      4.2546      3.9891      3.2627    