unknown system                          
   1.00000000000000     
     3.190316    0.000000    0.000000
    -1.595158    2.762894    0.000000
     0.000000    0.000000   44.879004
   Mo   S 
     1     2
Direct
  0.333333  0.666667  0.082884
  0.666667  0.333333  0.048015
  0.666666  0.333333  0.117753
 
   24   24  360
 0.61759167193E+00 0.62661694188E+00 0.65095159007E+00 0.69331559141E+00 0.75818644436E+00
 0.84453387233E+00 0.94494657812E+00 0.10505344867E+01 0.11536509920E+01 0.12478410201E+01
 0.13269193518E+01 0.13815520671E+01 0.13981927083E+01 0.13693218423E+01 0.13060048746E+01
 0.12306998544E+01 0.11536441756E+01 0.10657574458E+01 0.96012102169E+00 0.85018907075E+00
 0.75815741707E+00 0.69320057828E+00 0.65049671076E+00 0.62530076525E+00 0.62615262767E+00
 0.62703334306E+00 0.64940215035E+00 0.69431210674E+00 0.76497467239E+00 0.86250294622E+00
 0.98392708053E+00 0.11223019494E+01 0.12652909392E+01 0.13970305638E+01 0.15065653351E+01
 0.15907352495E+01 0.16431418773E+01 0.16469708670E+01 0.15902239490E+01 0.14854812002E+01
 0.13624644662E+01 0.12404666733E+01 0.11184668185E+01 0.99274092628E+00 0.87198445008E+00
 0.77057333885E+00 0.69603405424E+00 0.64847925605E+00 0.65116373078E+00 0.63663765873E+00
 0.65038015618E+00 0.69510846133E+00 0.77058767620E+00 0.87418490468E+00 0.10056013286E+01
 0.11644069221E+01 0.13411212799E+01 0.15153556084E+01 0.16662960946E+01 0.17834596019E+01
 0.18645348885E+01 0.19038391023E+01 0.18876283383E+01 0.18050866316E+01 0.16641106436E+01
 0.14923544402E+01 0.13194507082E+01 0.11593637558E+01 0.10121353353E+01 0.87923529636E+00
 0.77029480050E+00 0.69427259730E+00 0.69592169975E+00 0.66094360494E+00 0.65600712518E+00
 0.69185000707E+00 0.77081185711E+00 0.88154333204E+00 0.10191381698E+01 0.11894939325E+01
 0.13885999376E+01 0.15950409902E+01 0.17861349994E+01 0.19463381245E+01 0.20612208394E+01
 0.21209391939E+01 0.21281566006E+01 0.20856893466E+01 0.19819024712E+01 0.18096056909E+01
 0.15945595546E+01 0.13811248144E+01 0.11915234827E+01 0.10218311205E+01 0.87390085464E+00
 0.76347743440E+00 0.75815740263E+00 0.70352729651E+00 0.67422418391E+00 0.68617716621E+00
 0.75816426937E+00 0.87521862164E+00 0.10176665075E+01 0.11944311856E+01 0.14129037143E+01
 0.16468749499E+01 0.18659469256E+01 0.20638913429E+01 0.22292200335E+01 0.23267222892E+01
 0.23413638049E+01 0.23021612586E+01 0.22292177370E+01 0.20975491509E+01 0.18897909168E+01
 0.16445423227E+01 0.14129067080E+01 0.12039721200E+01 0.10114683290E+01 0.85596282850E+00
 0.83160219941E+00 0.75716603570E+00 0.70956990674E+00 0.68837602301E+00 0.73438639187E+00
 0.84917402548E+00 0.99367948211E+00 0.11649666547E+01 0.13922276038E+01 0.16582796755E+01
 0.19069169186E+01 0.21244364766E+01 0.23306403068E+01 0.24958488441E+01 0.25572313160E+01
 0.25167324148E+01 0.24341738591E+01 0.23232284687E+01 0.21433256981E+01 0.18962725764E+01
 0.16411252123E+01 0.14076594290E+01 0.11805639482E+01 0.97330221897E+00 0.91814521685E+00
 0.81111710249E+00 0.75461725028E+00 0.70811509420E+00 0.71275050079E+00 0.80835903266E+00
 0.95425338707E+00 0.11120047883E+01 0.13197799745E+01 0.16020791351E+01 0.18926641007E+01
 0.21304716985E+01 0.23444656632E+01 0.25590553629E+01 0.27056432423E+01 0.27193189444E+01
 0.26398978144E+01 0.25283170532E+01 0.23654373182E+01 0.21221255320E+01 0.18478151032E+01
 0.15998939807E+01 0.13620935381E+01 0.11167053851E+01 0.10268375221E+01 0.86640906044E+00
 0.79528645489E+00 0.74148912790E+00 0.70639596612E+00 0.76137002986E+00 0.90308829237E+00
 0.10587921511E+01 0.12310939437E+01 0.14875394299E+01 0.18069667544E+01 0.20863446407E+01
 0.23020846380E+01 0.25158057140E+01 0.27179716523E+01 0.28165802765E+01 0.27888419529E+01
 0.26996695445E+01 0.25646236835E+01 0.23383349414E+01 0.20434594771E+01 0.17679646236E+01
 0.15286610536E+01 0.12750118509E+01 0.11536441832E+01 0.93486546246E+00 0.82632049065E+00
 0.77211506686E+00 0.71678476760E+00 0.71842403232E+00 0.83206236979E+00 0.99685353343E+00
 0.11536492881E+01 0.13584988589E+01 0.16609185235E+01 0.19815104478E+01 0.22292218841E+01
 0.24322022898E+01 0.26371228168E+01 0.27876427166E+01 0.28191696587E+01 0.27691411516E+01
 0.26818736218E+01 0.25113814703E+01 0.22292177703E+01 0.19205606363E+01 0.16634436318E+01
 0.14202333400E+01 0.12720245053E+01 0.10198256228E+01 0.85746483498E+00 0.78808428662E+00
 0.73297211301E+00 0.69302965375E+00 0.74929361977E+00 0.90177533646E+00 0.10666700207E+01
 0.12368984115E+01 0.14863329921E+01 0.18073426005E+01 0.20989162105E+01 0.23236889132E+01
 0.25272817548E+01 0.26998237444E+01 0.27703466344E+01 0.27415623167E+01 0.26806076083E+01
 0.25766439299E+01 0.23586556821E+01 0.20523124818E+01 0.17663753264E+01 0.15259540046E+01
 0.13535404541E+01 0.11045511779E+01 0.90020323514E+00 0.79474043784E+00 0.74115072327E+00
 0.68932387956E+00 0.68776226019E+00 0.78919655667E+00 0.94785173122E+00 0.11089913413E+01
 0.13088639025E+01 0.15870782600E+01 0.18879750732E+01 0.21434138659E+01 0.23651415458E+01
 0.25659931040E+01 0.26846583973E+01 0.26816650377E+01 0.26161318838E+01 0.25360311660E+01
 0.23888993859E+01 0.21334910514E+01 0.18407598164E+01 0.15884625305E+01 0.13918617554E+01
 0.11645942388E+01 0.95027876000E+00 0.80655245779E+00 0.73737392334E+00 0.69111891873E+00
 0.66364624535E+00 0.70552789593E+00 0.82325781734E+00 0.97051338382E+00 0.11398001765E+01
 0.13657531283E+01 0.16356024836E+01 0.18912429466E+01 0.21182606747E+01 0.23372470798E+01
 0.25133629320E+01 0.25772655436E+01 0.25339021905E+01 0.24494955273E+01 0.23340924603E+01
 0.21407579609E+01 0.18786859168E+01 0.16200562543E+01 0.13981927501E+01 0.11881671205E+01
 0.98852117079E+00 0.82784673988E+00 0.73142877100E+00 0.68077654880E+00 0.65277849647E+00
 0.66299882663E+00 0.73141874876E+00 0.84395852855E+00 0.98553134898E+00 0.11698349744E+01
 0.13981963443E+01 0.16314523686E+01 0.18404394930E+01 0.20392018051E+01 0.22292219246E+01
 0.23593943685E+01 0.23864414774E+01 0.23308374344E+01 0.22292201072E+01 0.20768895339E+01
 0.18638678810E+01 0.16239002643E+01 0.13796224095E+01 0.11807195907E+01 0.99960738019E+00
 0.84670104403E+00 0.73442441271E+00 0.66479326895E+00 0.63117652318E+00 0.63220336168E+00
 0.67104046916E+00 0.74497301198E+00 0.85123361037E+00 0.99735806249E+00 0.11862950751E+01
 0.13954493379E+01 0.15916212506E+01 0.17640882594E+01 0.19209600633E+01 0.20545810640E+01
 0.21350147108E+01 0.21410936554E+01 0.20771314618E+01 0.19562156353E+01 0.17880026374E+01
 0.15879537122E+01 0.13326446560E+01 0.11527973230E+01 0.98541970155E+00 0.84892589882E+00
 0.74319231297E+00 0.66195914679E+00 0.61113049755E+00 0.59970574264E+00 0.62270444910E+00
 0.66914985069E+00 0.74033717489E+00 0.84669060417E+00 0.99125665596E+00 0.11649534076E+01
 0.13506741993E+01 0.15250443239E+01 0.16666438305E+01 0.17706601834E+01 0.18449630454E+01
 0.18857167554E+01 0.18716722310E+01 0.17914694861E+01 0.16612378674E+01 0.15048038991E+01
 0.12549297876E+01 0.11086278495E+01 0.95799036315E+00 0.83345237900E+00 0.74385222161E+00
 0.67150972529E+00 0.61235066001E+00 0.58401872638E+00 0.59082174885E+00 0.61716447040E+00
 0.65944777626E+00 0.73072792185E+00 0.83265750031E+00 0.95506227712E+00 0.10992893040E+01
 0.12659076923E+01 0.14242083519E+01 0.15335481489E+01 0.15923771156E+01 0.16273774727E+01
 0.16387939693E+01 0.15994086414E+01 0.15056535712E+01 0.13855670652E+01 0.11536510098E+01
 0.10468941188E+01 0.92418547897E+00 0.81071910333E+00 0.73145307681E+00 0.67568849650E+00
 0.62571058696E+00 0.59154190895E+00 0.58627905977E+00 0.59802481803E+00 0.61697916656E+00
 0.65867833218E+00 0.73141872852E+00 0.81500974129E+00 0.90031617094E+00 0.10110535714E+01
 0.11536492983E+01 0.12843057023E+01 0.13617557992E+01 0.13965226806E+01 0.14129037523E+01
 0.14001706565E+01 0.13404542826E+01 0.12501472808E+01 0.10419995340E+01 0.96927223030E+00
 0.88238849004E+00 0.78918938133E+00 0.71696069875E+00 0.67118489615E+00 0.63447290626E+00
 0.60524206422E+00 0.59729875729E+00 0.60486908212E+00 0.61085403532E+00 0.62559809360E+00
 0.67285363727E+00 0.74182936821E+00 0.80034482921E+00 0.85191572039E+00 0.92969784872E+00
 0.10336338239E+01 0.11231530682E+01 0.11750185456E+01 0.12010659949E+01 0.12059766881E+01
 0.11755552265E+01 0.11129151326E+01 0.93323296877E+00 0.88532799909E+00 0.83196684721E+00
 0.76865493423E+00 0.71154540953E+00 0.67386793055E+00 0.64690262092E+00 0.62332461674E+00
 0.61399696323E+00 0.62205272332E+00 0.62856939566E+00 0.62663351930E+00 0.64106489540E+00
 0.68879946263E+00 0.74701145178E+00 0.78800494946E+00 0.82034876169E+00 0.86678169699E+00
 0.92399121266E+00 0.97247930216E+00 0.10059528857E+01 0.10244726253E+01 0.10179819826E+01
 0.98216563531E+00 0.83723452098E+00 0.80792568619E+00 0.77951269341E+00 0.74641255334E+00
 0.71355558146E+00 0.69168114321E+00 0.67855396728E+00 0.66472264107E+00 0.65409731432E+00
 0.65712161137E+00 0.66664517158E+00 0.66493627845E+00 0.65508740650E+00 0.66127969690E+00
 0.69400994007E+00 0.73642703226E+00 0.76974540800E+00 0.79299062762E+00 0.81304510129E+00
 0.83265990837E+00 0.85274951221E+00 0.87152285406E+00 0.87887095351E+00 0.86542753778E+00
 0.75818644564E+00 0.74461422894E+00 0.73386953540E+00 0.72455807525E+00 0.71674963899E+00
 0.71594443456E+00 0.72325903003E+00 0.73040616377E+00 0.73145306403E+00 0.73185296056E+00
 0.73746702555E+00 0.74126458805E+00 0.73142873802E+00 0.70992351772E+00 0.69361515870E+00
 0.69655797625E+00 0.71678476431E+00 0.74040539263E+00 0.75472631598E+00 0.75788377323E+00
 0.75816428509E+00 0.76318023671E+00 0.76992066593E+00 0.76903331999E+00 0.69587048571E+00
 0.69548607222E+00 0.69895694490E+00 0.70813102752E+00 0.72220246012E+00 0.74178493347E+00
 0.76871335828E+00 0.80027924058E+00 0.82756580080E+00 0.84321285796E+00 0.84898432383E+00
 0.85118563403E+00 0.84879140026E+00 0.83176405519E+00 0.79479884468E+00 0.74931452985E+00
 0.71604923217E+00 0.70524092498E+00 0.70817350597E+00 0.70951776895E+00 0.70390181997E+00
 0.69724288171E+00 0.69516689419E+00 0.69601514443E+00 0.65071313921E+00 0.65905203983E+00
 0.67405454970E+00 0.69889852054E+00 0.73363107541E+00 0.77482664294E+00 0.82049167252E+00
 0.87124019979E+00 0.92394701475E+00 0.96769241082E+00 0.99138342264E+00 0.99506437404E+00
 0.98828272952E+00 0.97543196363E+00 0.94797725215E+00 0.89617616412E+00 0.82608204301E+00
 0.75897984572E+00 0.71287990045E+00 0.68836972450E+00 0.67398571993E+00 0.66134156380E+00
 0.65128563218E+00 0.64764070175E+00 0.62480658152E+00 0.63616513549E+00 0.65824908601E+00
 0.69462469554E+00 0.74771436783E+00 0.81341467018E+00 0.88452503074E+00 0.95732097745E+00
 0.10307919269E+01 0.10997287171E+01 0.11519943397E+01 0.11753735998E+01 0.11679669675E+01
 0.11402439996E+01 0.11037482326E+01 0.10577340032E+01 0.99167582915E+00 0.90351864198E+00
 0.81031416629E+00 0.73516292116E+00 0.68654717808E+00 0.65641211003E+00 0.63583470168E+00
 0.62446893642E+00 0.81983072470E+00 0.83533987213E+00 0.87900987445E+00 0.95379565002E+00
 0.10641160751E+01 0.12076324358E+01 0.13739501291E+01 0.15497111757E+01 0.17217012999E+01
 0.18774323816E+01 0.20051286610E+01 0.20909521834E+01 0.21182018952E+01 0.20780940200E+01
 0.19830568260E+01 0.18592740779E+01 0.17216510052E+01 0.15658099795E+01 0.13900177205E+01
 0.12136252927E+01 0.10641035960E+01 0.95370083178E+00 0.87853730909E+00 0.83393721583E+00
 0.83484178427E+00 0.83574432502E+00 0.87607371871E+00 0.95637966943E+00 0.10789313886E+01
 0.12430714312E+01 0.14428197443E+01 0.16667358093E+01 0.18964091486E+01 0.21088140565E+01
 0.22860319049E+01 0.24192551267E+01 0.24978110024E+01 0.25018853754E+01 0.24187667837E+01
 0.22638074562E+01 0.20724003926E+01 0.18703587921E+01 0.16628142933E+01 0.14521025483E+01
 0.12529574316E+01 0.10847636916E+01 0.95821995394E+00 0.87515926543E+00 0.87920845009E+00
 0.85313779394E+00 0.87841776657E+00 0.95722027487E+00 0.10875862227E+01 0.12642858737E+01
 0.14837594868E+01 0.17412858597E+01 0.20214261634E+01 0.22961527914E+01 0.25363398496E+01
 0.27238978839E+01 0.28504538537E+01 0.29060419576E+01 0.28747776800E+01 0.27466911506E+01
 0.25341060829E+01 0.22720441146E+01 0.19986641086E+01 0.17358955477E+01 0.14904956411E+01
 0.12695338668E+01 0.10872906689E+01 0.95633885966E+00 0.95651712687E+00 0.89398979897E+00
 0.88883782848E+00 0.95229054814E+00 0.10849794443E+01 0.12719167481E+01 0.15041475534E+01
 0.17834337736E+01 0.21002318457E+01 0.24255121798E+01 0.27277225201E+01 0.29821516194E+01
 0.31656400927E+01 0.32615246115E+01 0.32691216640E+01 0.31914019145E+01 0.30196124290E+01
 0.27524648669E+01 0.24250033561E+01 0.20922866411E+01 0.17854759212E+01 0.15069683551E+01
 0.12639319081E+01 0.10772806328E+01 0.10641035816E+01 0.96292274698E+00 0.91711632682E+00
 0.94467538005E+00 0.10640963162E+01 0.12563217378E+01 0.14962433493E+01 0.17884630689E+01
 0.21355802235E+01 0.25038618011E+01 0.28536587898E+01 0.31693400309E+01 0.34291984166E+01
 0.35874739248E+01 0.36221940487E+01 0.35616461817E+01 0.34291922115E+01 0.32047018781E+01
 0.28786603485E+01 0.25013437623E+01 0.21355948749E+01 0.17985862753E+01 0.14898245138E+01
 0.12361262135E+01 0.11940942187E+01 0.10526895853E+01 0.96965133517E+00 0.94735740645E+00
 0.10287365216E+01 0.12125839346E+01 0.14530550406E+01 0.17417012267E+01 0.21038888226E+01
 0.25157800089E+01 0.29111296741E+01 0.32665049821E+01 0.35921828171E+01 0.38461678081E+01
 0.39533791438E+01 0.39107445759E+01 0.37812301096E+01 0.35843453549E+01 0.32863404589E+01
 0.28998926340E+01 0.24977393398E+01 0.21202053187E+01 0.17582122860E+01 0.14316669323E+01
 0.13458295259E+01 0.11511808197E+01 0.10395840163E+01 0.97271973404E+00 0.99553246481E+00
 0.11483372905E+01 0.13839335891E+01 0.16560656450E+01 0.19989986192E+01 0.24328568363E+01
 0.28816106297E+01 0.32727567870E+01 0.36261830660E+01 0.39555807098E+01 0.41774463316E+01
 0.42153427071E+01 0.41082313067E+01 0.39232203598E+01 0.36482780142E+01 0.32640237468E+01
 0.28344721450E+01 0.24306052992E+01 0.20435234492E+01 0.16609332224E+01 0.15248061680E+01
 0.12571853913E+01 0.11117029736E+01 0.10180865444E+01 0.98110288888E+00 0.10759481045E+01
 0.12958550087E+01 0.15586110171E+01 0.18606086677E+01 0.22669921496E+01 0.27496280839E+01
 0.31928541429E+01 0.35620709609E+01 0.39100320842E+01 0.42140115582E+01 0.43664858537E+01
 0.43373113942E+01 0.41947872083E+01 0.39614385345E+01 0.36002468260E+01 0.31477714259E+01
 0.27086447382E+01 0.23102622724E+01 0.19066958768E+01 0.17216510129E+01 0.13794524210E+01
 0.11785579600E+01 0.10663197553E+01 0.98906434562E+00 0.10097267182E+01 0.11844992052E+01
 0.14446368166E+01 0.17216578428E+01 0.20683009772E+01 0.25308309266E+01 0.30192448670E+01
 0.34292035163E+01 0.37791500911E+01 0.41053073664E+01 0.43360470290E+01 0.43944281859E+01
 0.43165761009E+01 0.41524195039E+01 0.38625003033E+01 0.34291922447E+01 0.29550570406E+01
 0.25334349502E+01 0.21332349402E+01 0.19028085465E+01 0.15168839837E+01 0.12472882618E+01
 0.11036375711E+01 0.10086831834E+01 0.96664952461E+00 0.10627852523E+01 0.12938076324E+01
 0.15660090131E+01 0.18657212582E+01 0.22647615927E+01 0.27491681756E+01 0.32053737947E+01
 0.35843028898E+01 0.39218556131E+01 0.41948587373E+01 0.43178423846E+01 0.42875188751E+01
 0.41745938966E+01 0.39738101112E+01 0.36211073133E+01 0.31562550923E+01 0.27059423711E+01
 0.23064373722E+01 0.20331049901E+01 0.16470960215E+01 0.13261825998E+01 0.11333415447E+01
 0.10249054598E+01 0.95249963919E+00 0.96878267365E+00 0.11275924146E+01 0.13763568580E+01
 0.16517020990E+01 0.19859917645E+01 0.24154002423E+01 0.28751251666E+01 0.32851902072E+01
 0.36472338605E+01 0.39626044366E+01 0.41553555314E+01 0.41757933992E+01 0.40832099987E+01
 0.39310624478E+01 0.36722422142E+01 0.32747236318E+01 0.28254006944E+01 0.24168857279E+01
 0.21018085723E+01 0.17402143987E+01 0.14068127610E+01 0.11675113052E+01 0.10318687329E+01
 0.95033270008E+00 0.92144806061E+00 0.99846682772E+00 0.11852813754E+01 0.14282489798E+01
 0.17141243013E+01 0.20742665286E+01 0.24898279615E+01 0.28927290614E+01 0.32586900336E+01
 0.35985515482E+01 0.38646037522E+01 0.39747504406E+01 0.39290805549E+01 0.37973509627E+01
 0.35952618445E+01 0.32824228440E+01 0.28795417896E+01 0.24735041428E+01 0.21182019371E+01
 0.17808257256E+01 0.14654869306E+01 0.12071197472E+01 0.10370463862E+01 0.94024405106E+00
 0.89578842940E+00 0.92145688339E+00 0.10370428636E+01 0.12241870392E+01 0.14624066664E+01
 0.17615186985E+01 0.21182176902E+01 0.24855017635E+01 0.28250770019E+01 0.31424510156E+01
 0.34292035567E+01 0.36224631352E+01 0.36703712699E+01 0.35923255912E+01 0.34291984902E+01
 0.31822121697E+01 0.28497827252E+01 0.24775181273E+01 0.20888813748E+01 0.17730298125E+01
 0.14836241818E+01 0.12364509288E+01 0.10487683351E+01 0.92639496549E+00 0.86539329593E+00
 0.86630358438E+00 0.93269490755E+00 0.10597999953E+01 0.12412685753E+01 0.14812091802E+01
 0.17788362042E+01 0.21056232151E+01 0.24202567274E+01 0.27035628658E+01 0.29554349515E+01
 0.31594925161E+01 0.32776132936E+01 0.32839652125E+01 0.31831958892E+01 0.29926101416E+01
 0.27287544137E+01 0.24162797323E+01 0.20110097490E+01 0.17278360927E+01 0.14623045470E+01
 0.12387913569E+01 0.10610787729E+01 0.92562386539E+00 0.84091955297E+00 0.81811820518E+00
 0.85286008740E+00 0.93307537605E+00 0.10581475882E+01 0.12364120747E+01 0.14682877572E+01
 0.17406245148E+01 0.20301588621E+01 0.23055103989E+01 0.25367120174E+01 0.27114099685E+01
 0.28315414007E+01 0.28888129649E+01 0.28595398790E+01 0.27333245238E+01 0.25311299595E+01
 0.22841508315E+01 0.18847328546E+01 0.16513002100E+01 0.14150268083E+01 0.12130855027E+01
 0.10585550768E+01 0.93548055456E+00 0.84115483074E+00 0.79499195705E+00 0.80209620146E+00
 0.84623246477E+00 0.92298925278E+00 0.10448573619E+01 0.12120991603E+01 0.14118349394E+01
 0.16416160129E+01 0.18963839643E+01 0.21373405556E+01 0.23152964619E+01 0.24227707680E+01
 0.24833772112E+01 0.24952356356E+01 0.24299963628E+01 0.22860667054E+01 0.20968468717E+01
 0.17217013177E+01 0.15452152174E+01 0.13514424520E+01 0.11720673541E+01 0.10370604648E+01
 0.93756775967E+00 0.85600822418E+00 0.80284854081E+00 0.79153132694E+00 0.80960619406E+00
 0.84697902099E+00 0.91995529272E+00 0.10370428433E+01 0.11763772891E+01 0.13263087131E+01
 0.15076641174E+01 0.17216578530E+01 0.19164229430E+01 0.20431868337E+01 0.21086094731E+01
 0.21355802615E+01 0.21122260199E+01 0.20207550452E+01 0.18806941553E+01 0.15409034355E+01
 0.14155896005E+01 0.12734245328E+01 0.11276226171E+01 0.10105360295E+01 0.93012354693E+00
 0.86875491267E+00 0.82395210009E+00 0.80885123052E+00 0.81667149252E+00 0.82971162875E+00
 0.85956667984E+00 0.93203746259E+00 0.10365604134E+01 0.11391858180E+01 0.12414654111E+01
 0.13740899645E+01 0.15319862763E+01 0.16676590557E+01 0.17524245327E+01 0.17955819811E+01
 0.18006291772E+01 0.17528792949E+01 0.16570234989E+01 0.13618025351E+01 0.12771429680E+01
 0.11843663993E+01 0.10831356256E+01 0.99383087338E+00 0.93228646642E+00 0.88970344813E+00
 0.85716149225E+00 0.84386061574E+00 0.85124094288E+00 0.85894821966E+00 0.86053679763E+00
 0.88364084361E+00 0.94794826039E+00 0.10309784346E+01 0.11035340563E+01 0.11723516123E+01
 0.12576368689E+01 0.13518930097E+01 0.14307383147E+01 0.14840957428E+01 0.15097495259E+01
 0.14965782465E+01 0.14409386618E+01 0.12000189476E+01 0.11478871218E+01 0.10950364040E+01
 0.10391498165E+01 0.98820757796E+00 0.95495794201E+00 0.93711429660E+00 0.92335795442E+00
 0.91514381177E+00 0.92056659835E+00 0.93045168364E+00 0.92636627402E+00 0.91324221584E+00
 0.91900470228E+00 0.95732749316E+00 0.10122261709E+01 0.10638523369E+01 0.11093384532E+01
 0.11531651526E+01 0.11950950650E+01 0.12327816010E+01 0.12614869597E+01 0.12691137160E+01
 0.12460181789E+01 0.10641160763E+01 0.10394904324E+01 0.10177690401E+01 0.10002490858E+01
 0.98904349815E+00 0.99072081206E+00 0.10059784786E+01 0.10244440379E+01 0.10370604520E+01
 0.10461543545E+01 0.10551977016E+01 0.10559394173E+01 0.10370463532E+01 0.10030539323E+01
 0.97485731067E+00 0.97024898483E+00 0.98906434233E+00 0.10170064474E+01 0.10397206698E+01
 0.10533678614E+01 0.10640963319E+01 0.10770628944E+01 0.10869150915E+01 0.10831270860E+01
 0.95648022208E+00 0.95445557144E+00 0.95851839320E+00 0.97278416249E+00 0.99783339259E+00
 0.10344230688E+01 0.10832367153E+01 0.11391149417E+01 0.11895623583E+01 0.12232726961E+01
 0.12388924476E+01 0.12412063476E+01 0.12291926415E+01 0.11941125507E+01 0.11334426172E+01
 0.10627876744E+01 0.10072652185E+01 0.97996946267E+00 0.97282081143E+00 0.96957303276E+00
 0.96328660205E+00 0.95799360539E+00 0.95732137336E+00 0.95815967883E+00 0.87874530864E+00
 0.89203831302E+00 0.91693985557E+00 0.95841730321E+00 0.10175044652E+01 0.10902085600E+01
 0.11724833548E+01 0.12618311117E+01 0.13511778728E+01 0.14251129048E+01 0.14684501669E+01
 0.14787676813E+01 0.14652223743E+01 0.14333129472E+01 0.13764953164E+01 0.12880370652E+01
 0.11782933974E+01 0.10734848200E+01 0.99566039166E+00 0.94733460693E+00 0.91685174789E+00
 0.89443978410E+00 0.87935347849E+00 0.87419263277E+00 0.83341195796E+00 0.85270862509E+00
 0.89118056965E+00 0.95349673960E+00 0.10426627733E+01 0.11535726888E+01 0.12762852101E+01
 0.14031384272E+01 0.15284768428E+01 0.16420718184E+01 0.17269783198E+01 0.17673155376E+01
 0.17595094626E+01 0.17145719665E+01 0.16462382866E+01 0.15567750488E+01 0.14392636137E+01
 0.12962613068E+01 0.11503230940E+01 0.10295151352E+01 0.94506818424E+00 0.88924557661E+00
 0.85228004734E+00 0.83300549150E+00 0.10870688587E+01 0.11137900773E+01 0.11902780259E+01
 0.13180341982E+01 0.14992401371E+01 0.17281817936E+01 0.19899358092E+01 0.22655659815E+01
 0.25351168796E+01 0.27783952557E+01 0.29758414397E+01 0.31067722339E+01 0.31494664080E+01
 0.30931621591E+01 0.29524268525E+01 0.27591037990E+01 0.25350691822E+01 0.22826846006E+01
 0.20069988243E+01 0.17345410352E+01 0.14992713111E+01 0.13180042792E+01 0.11897974203E+01
 0.11122757353E+01 0.11132488057E+01 0.11141838231E+01 0.11836793884E+01 0.13203319667E+01
 0.15230291513E+01 0.17867605669E+01 0.21006871636E+01 0.24479367661E+01 0.28032256176E+01
 0.31346278078E+01 0.34140994250E+01 0.36230169758E+01 0.37423537961E+01 0.37466791573E+01
 0.36225003111E+01 0.33905480059E+01 0.30961203029E+01 0.27758036943E+01 0.24439416091E+01
 0.21105357458E+01 0.17971461493E+01 0.15291555424E+01 0.13223103257E+01 0.11827619939E+01
 0.11904850244E+01 0.11463567234E+01 0.11896682142E+01 0.13212320490E+01 0.15350830975E+01
 0.18205457292E+01 0.21686643086E+01 0.25696510945E+01 0.30019609646E+01 0.34287490529E+01
 0.38090301990E+01 0.41111354280E+01 0.43136155451E+01 0.43964624319E+01 0.43393435411E+01
 0.41352636272E+01 0.38067387455E+01 0.34033578992E+01 0.29779371238E+01 0.25638709832E+01
 0.21756406558E+01 0.18260015583E+01 0.15347550143E+01 0.13202958572E+01 0.13209342146E+01
 0.12167972377E+01 0.12113682144E+01 0.13164877350E+01 0.15293504466E+01 0.18285070231E+01
 0.21986293392E+01 0.26367011470E+01 0.31282502625E+01 0.36365457698E+01 0.41181754459E+01
 0.45322594059E+01 0.48368398010E+01 0.49983364128E+01 0.50064077111E+01 0.48641661752E+01
 0.45719428248E+01 0.41443460525E+01 0.36359337478E+01 0.31197200593E+01 0.26387453948E+01
 0.22015708746E+01 0.18200840831E+01 0.15212235929E+01 0.14992712966E+01 0.13296559041E+01
 0.12596429312E+01 0.13103774296E+01 0.14992514083E+01 0.18006517334E+01 0.21816115339E+01
 0.26418006133E+01 0.31802986899E+01 0.37570973794E+01 0.43217590480E+01 0.48426404020E+01
 0.52757575784E+01 0.55500882708E+01 0.56247173513E+01 0.55228173104E+01 0.52757610712E+01
 0.48799598199E+01 0.43480710543E+01 0.37543466576E+01 0.31803290297E+01 0.26526124562E+01
 0.21749530654E+01 0.17793760816E+01 0.17139343859E+01 0.14759935215E+01 0.13418302643E+01
 0.13183079823E+01 0.14507491196E+01 0.17334822113E+01 0.21114596393E+01 0.25698643809E+01
 0.31318747997E+01 0.37695489233E+01 0.44070110200E+01 0.50062373397E+01 0.55559470149E+01
 0.59839654702E+01 0.61849099761E+01 0.61397746387E+01 0.59151848153E+01 0.55475702017E+01
 0.50271935636E+01 0.43951643522E+01 0.37505370074E+01 0.31492317049E+01 0.25874651730E+01
 0.20889560525E+01 0.19602906602E+01 0.16408428831E+01 0.14506122766E+01 0.13550476766E+01
 0.14040628334E+01 0.16378959324E+01 0.20006742957E+01 0.24368814021E+01 0.29782924184E+01
 0.36441663987E+01 0.43510915549E+01 0.50127644651E+01 0.56299735185E+01 0.61874853647E+01
 0.65646405783E+01 0.66554131492E+01 0.64914623190E+01 0.61532629381E+01 0.56533417481E+01
 0.50035994000E+01 0.43013628814E+01 0.36418512073E+01 0.30253328971E+01 0.24419271641E+01
 0.22393069092E+01 0.18195165008E+01 0.15684793614E+01 0.14185351620E+01 0.13793617440E+01
 0.15305649172E+01 0.18604362056E+01 0.22752678064E+01 0.27656795899E+01 0.33980578743E+01
 0.41413073292E+01 0.48674381112E+01 0.55240489913E+01 0.61392454353E+01 0.66540280221E+01
 0.69219660752E+01 0.68912296362E+01 0.66338881869E+01 0.61936531164E+01 0.55643662249E+01
 0.48197851402E+01 0.40980384035E+01 0.34437480607E+01 0.28141794085E+01 0.25350691898E+01
 0.20165478458E+01 0.16845685801E+01 0.14898915638E+01 0.13820107819E+01 0.14300140666E+01
 0.16907386932E+01 0.20853498032E+01 0.25350714014E+01 0.30918817905E+01 0.38033869762E+01
 0.45716090561E+01 0.52757744851E+01 0.59129755232E+01 0.64883700240E+01 0.68898946051E+01
 0.70077503342E+01 0.68693224173E+01 0.65381704857E+01 0.60010763897E+01 0.52757611044E+01
 0.45037279907E+01 0.38060511497E+01 0.31604321540E+01 0.28051533450E+01 0.22252010372E+01
 0.18023634071E+01 0.15523860901E+01 0.14006220716E+01 0.13562634817E+01 0.15092745800E+01
 0.18513985901E+01 0.22768481876E+01 0.27657853950E+01 0.33916122624E+01 0.41379756113E+01
 0.48789214905E+01 0.55467109011E+01 0.61515836244E+01 0.66339428618E+01 0.68706592327E+01
 0.68385138917E+01 0.66123511374E+01 0.62064308267E+01 0.55856638670E+01 0.48270216682E+01
 0.40922016464E+01 0.34356244973E+01 0.30053330373E+01 0.24162367528E+01 0.19262985835E+01
 0.16066330230E+01 0.14181174989E+01 0.13161164068E+01 0.13588882901E+01 0.16006566169E+01
 0.19793474037E+01 0.24210192483E+01 0.29554224567E+01 0.36188606752E+01 0.43396948521E+01
 0.50234151890E+01 0.56511952031E+01 0.61946456491E+01 0.65412762096E+01 0.66136378594E+01
 0.64650262551E+01 0.61613158285E+01 0.56776235375E+01 0.50123251953E+01 0.42871249979E+01
 0.36204858811E+01 0.31182144457E+01 0.25533069417E+01 0.20435824430E+01 0.16625275899E+01
 0.14268724253E+01 0.12919102574E+01 0.12613701138E+01 0.13916261807E+01 0.16815154569E+01
 0.20664544660E+01 0.25257770829E+01 0.30890281592E+01 0.37338515403E+01 0.43824060735E+01
 0.49953754050E+01 0.55617331503E+01 0.60033127240E+01 0.62076754058E+01 0.61594455992E+01
 0.59323315628E+01 0.55583435772E+01 0.50204587393E+01 0.43684226535E+01 0.37166249400E+01
 0.31494664499E+01 0.26165990610E+01 0.21261593330E+01 0.17187509948E+01 0.14336580140E+01
 0.12631502560E+01 0.11923699140E+01 0.12431753951E+01 0.14336557950E+01 0.17369487938E+01
 0.21230073623E+01 0.25961761168E+01 0.31494955679E+01 0.37293407205E+01 0.42867886667E+01
 0.48123305214E+01 0.52757745256E+01 0.55879681579E+01 0.56766816919E+01 0.55560122518E+01
 0.52757576519E+01 0.48544513501E+01 0.43129279536E+01 0.37208393065E+01 0.31045221098E+01
 0.26084324812E+01 0.21524597356E+01 0.17572141522E+01 0.14467143849E+01 0.12351657573E+01
 0.11267136334E+01 0.11274872741E+01 0.12415342420E+01 0.14583214072E+01 0.17623506432E+01
 0.21498066146E+01 0.26144674195E+01 0.31223056479E+01 0.36240983520E+01 0.40896759085E+01
 0.45040740196E+01 0.48322856724E+01 0.50180021634E+01 0.50245938298E+01 0.48571872923E+01
 0.45434146362E+01 0.41163731495E+01 0.36197937639E+01 0.29818571093E+01 0.25402916629E+01
 0.21229127472E+01 0.17596851653E+01 0.14598003802E+01 0.12269766122E+01 0.10787110800E+01
 0.10339042978E+01 0.10910327476E+01 0.12347135577E+01 0.14567900115E+01 0.17571129509E+01
 0.21290230348E+01 0.25538169069E+01 0.30023129933E+01 0.34346742698E+01 0.38094026486E+01
 0.41009172101E+01 0.42983677747E+01 0.43834168593E+01 0.43277747188E+01 0.41240929660E+01
 0.38037021904E+01 0.34120849775E+01 0.27858992328E+01 0.24205399667E+01 0.20523907615E+01
 0.17251240676E+01 0.14569101037E+01 0.12371827650E+01 0.10709891775E+01 0.98642748896E+00
 0.99383804812E+00 0.10763228943E+01 0.12242220541E+01 0.14425922018E+01 0.17239113066E+01
 0.20489061954E+01 0.24105277818E+01 0.27983559222E+01 0.31646706784E+01 0.34489395706E+01
 0.36336749501E+01 0.37354632939E+01 0.37478043704E+01 0.36411198167E+01 0.34182575865E+01
 0.31221218685E+01 0.25351168973E+01 0.22548823008E+01 0.19530256007E+01 0.16675407072E+01
 0.14336447478E+01 0.12466547804E+01 0.10943504946E+01 0.99463880067E+00 0.96731263036E+00
 0.10016889186E+01 0.10850170996E+01 0.12284295607E+01 0.14336557748E+01 0.16718180183E+01
 0.19264412381E+01 0.22154438324E+01 0.25350714116E+01 0.28244121271E+01 0.30250006024E+01
 0.31371266436E+01 0.31802987279E+01 0.31406751784E+01 0.30012733833E+01 0.27868977404E+01
 0.22564743732E+01 0.20546110254E+01 0.18299041462E+01 0.16007812933E+01 0.14044689424E+01
 0.12524157771E+01 0.11301435803E+01 0.10400469057E+01 0.10009020043E+01 0.10089981490E+01
 0.10459834657E+01 0.11206458170E+01 0.12546252187E+01 0.14317451211E+01 0.16127357646E+01
 0.17962574234E+01 0.20109732776E+01 0.22469568061E+01 0.24489605570E+01 0.25813793941E+01
 0.26495060051E+01 0.26546978112E+01 0.25817302740E+01 0.24378720857E+01 0.19773095263E+01
 0.18406766792E+01 0.16905814222E+01 0.15307436197E+01 0.13853650009E+01 0.12729187995E+01
 0.11860718263E+01 0.11180644156E+01 0.10817241973E+01 0.10814806699E+01 0.10973530172E+01
 0.11214759434E+01 0.11797436394E+01 0.12894099241E+01 0.14244207605E+01 0.15523365853E+01
 0.16781124116E+01 0.18200460621E+01 0.19665924355E+01 0.20878654619E+01 0.21689852386E+01
 0.22045468281E+01 0.21819782201E+01 0.20986727068E+01 0.17202053851E+01 0.16374677738E+01
 0.15507787789E+01 0.14610811442E+01 0.13789544033E+01 0.13186247904E+01 0.12779076738E+01
 0.12453254845E+01 0.12233235302E+01 0.12217023844E+01 0.12319654746E+01 0.12349169183E+01
 0.12346323880E+01 0.12588816050E+01 0.13211053049E+01 0.14043143733E+01 0.14873225704E+01
 0.15659662256E+01 0.16428848386E+01 0.17148769343E+01 0.17758783288E+01 0.18176006741E+01