    3    3    1    1
  0.1318621E+03  0.3190316E-09  0.3190316E-09  0.4487900E-08  0.5000000E-15
  1.000000000000000E-004
  CAR 
 unknown system                          
     18     10     14
 
  0.0000000E+00  0.0000000E+00  0.0000000E+00  0.1562500E-01
    1      -18.479103   1.000000
    2      -17.270724   1.000000
    3       -9.988439   1.000000
    4       -7.026987   1.000000
    5       -7.026730   1.000000
    6       -6.166898   1.000000
    7       -5.919488   1.000000
    8       -5.919023   1.000000
    9       -4.444623   1.000000
   10       -1.670508   0.000000
   11       -1.669727   0.000000
   12       -1.447861   0.000000
   13       -1.447182   0.000000
   14        0.956115   0.000000
 
  0.1250000E+00  0.2081668E-16  0.0000000E+00  0.9375000E-01
    1      -18.265067   1.000000
    2      -17.168308   1.000000
    3       -9.744099   1.000000
    4       -7.491512   1.000000
    5       -6.974290   1.000000
    6       -6.792854   1.000000
    7       -6.255976   1.000000
    8       -5.488449   1.000000
    9       -4.583801   1.000000
   10       -1.953370   0.000000
   11       -1.886780   0.000000
   12       -1.685424   0.000000
   13       -1.316365   0.000000
   14        1.321347   0.000000
 
  0.2500000E+00  0.4163336E-16  0.0000000E+00  0.9375000E-01
    1      -17.696515   1.000000
    2      -16.899395   1.000000
    3       -9.378178   1.000000
    4       -8.219680   1.000000
    5       -7.955793   1.000000
    6       -6.892455   1.000000
    7       -6.206860   1.000000
    8       -5.740401   1.000000
    9       -5.152273   1.000000
   10       -2.277607   0.000000
   11       -2.102282   0.000000
   12       -1.559184   0.000000
   13       -0.701228   0.000000
   14        2.149371   0.000000
 
  0.3750000E+00  0.5551115E-16  0.0000000E+00  0.9375000E-01
    1      -17.021609   1.000000
    2      -16.590844   1.000000
    3       -9.817540   1.000000
    4       -8.824762   1.000000
    5       -8.351067   1.000000
    6       -7.391061   1.000000
    7       -6.149681   1.000000
    8       -5.617159   1.000000
    9       -5.346499   1.000000
   10       -2.285020   0.000000
   11       -2.005387   0.000000
   12       -0.840674   0.000000
   13       -0.308694   0.000000
   14        2.715429   0.000000
 
  0.5000000E+00  0.8326673E-16  0.0000000E+00  0.4687500E-01
    1      -16.693303   1.000000
    2      -16.447488   1.000000
    3      -10.150316   1.000000
    4       -9.190875   1.000000
    5       -8.476394   1.000000
    6       -7.571993   1.000000
    7       -6.287868   1.000000
    8       -5.389935   1.000000
    9       -5.064775   1.000000
   10       -2.263362   0.000000
   11       -1.748866   0.000000
   12       -0.540647   0.000000
   13       -0.193218   0.000000
   14        1.761475   0.000000
 
  0.1250000E+00  0.1250000E+00  0.0000000E+00  0.9375000E-01
    1      -17.872383   1.000000
    2      -16.981203   1.000000
    3       -9.396703   1.000000
    4       -8.056792   1.000000
    5       -7.537117   1.000000
    6       -7.070480   1.000000
    7       -6.454363   1.000000
    8       -5.353743   1.000000
    9       -4.956492   1.000000
   10       -2.352750   0.000000
   11       -1.975373   0.000000
   12       -1.962882   0.000000
   13       -0.722188   0.000000
   14        1.923742   0.000000
 
  0.2500000E+00  0.1250000E+00  0.0000000E+00  0.1875000E+00
    1      -17.239010   1.000000
    2      -16.682576   1.000000
    3       -9.460773   1.000000
    4       -8.483196   1.000000
    5       -8.220016   1.000000
    6       -7.575822   1.000000
    7       -6.355204   1.000000
    8       -5.716542   1.000000
    9       -5.240214   1.000000
   10       -2.436392   0.000000
   11       -1.989734   0.000000
   12       -1.492678   0.000000
   13       -0.216821   0.000000
   14        2.902280   0.000000
 
  0.3750000E+00  0.1250000E+00  0.0000000E+00  0.1875000E+00
    1      -16.708580   1.000000
    2      -16.438601   1.000000
    3       -9.862686   1.000000
    4       -9.246742   1.000000
    5       -8.348696   1.000000
    6       -7.593278   1.000000
    7       -6.340136   1.000000
    8       -6.197754   1.000000
    9       -4.913308   1.000000
   10       -2.244439   0.000000
   11       -1.734244   0.000000
   12       -0.868821   0.000000
   13       -0.182717   0.000000
   14        2.287232   0.000000
 
  0.2500000E+00  0.2500000E+00  0.0000000E+00  0.9375000E-01
    1      -16.723610   1.000000
    2      -16.429701   1.000000
    3       -9.502074   1.000000
    4       -9.296751   1.000000
    5       -8.022623   1.000000
    6       -7.641715   1.000000
    7       -7.322452   1.000000
    8       -6.064919   1.000000
    9       -4.943152   1.000000
   10       -2.295340   0.000000
   11       -1.683563   0.000000
   12       -1.366970   0.000000
   13        0.101453   0.000000
   14        3.117515   0.000000
 
  0.3750000E+00  0.2500000E+00  0.0000000E+00  0.9375000E-01
    1      -16.488657   1.000000
    2      -16.310653   1.000000
    3       -9.681476   1.000000
    4       -9.332945   1.000000
    5       -8.305987   1.000000
    6       -7.643988   1.000000
    7       -7.415661   1.000000
    8       -6.450511   1.000000
    9       -4.575876   1.000000
   10       -2.621792   0.000000
   11       -1.306168   0.000000
   12       -1.134143   0.000000
   13        0.244516   0.000000
   14        2.530589   0.000000
