unknown system                          
   1.00000000000000     
     3.190316    0.000000    0.000000
    -1.595158    2.762894    0.000000
     0.000000    0.000000   44.879004
   Mo   S 
     1     2
Direct
  0.333333  0.666667  0.082884
  0.666667  0.333333  0.048015
  0.666666  0.333333  0.117753
 
   12   12  180
 0.22022E-02 0.12216E-01 0.96676     0.49980E-03 0.98130     0.11455E-01 0.42585E-02 0.23262E-02 0.90137E-02 0.36225E-03
 0.12137E-01 0.63659E-02 0.33164E-02 0.14392E-02 0.13300E-02 0.21282E-02 0.15735E-01 0.65200E-02 0.56351E-01 0.34915E-02
 0.15817     0.26605E-02 0.19575E-02 0.31306E-02 0.60129E-03 0.23481E-02 0.21954E-02 0.14732E-02 0.21828E-01 0.11375E-01
 0.63987E-02 0.11786E-01 0.12871E-01 0.85189E-02 0.44333E-01 0.77942E-02 0.94580E-03 0.13537E-03 0.91048E-03 0.34121E-02
 0.34835E-02 0.16932E-02 0.92581E-02 0.26211E-02 0.63350E-01 0.82545E-01 0.33244E-01 0.11859E-02 0.15749E-01 0.80567E-02
 0.12725E-02 0.55150E-03 0.32662E-01 0.11066E-01 0.12163E-01 0.84545E-01 0.66990E-01 0.58411E-02 0.91635E-01 0.27879E-01
 0.11154E-02 0.83631E-03 0.91007E-04 0.83003E-04 0.31450E-03 0.14685E-01 0.10643E-01 0.82092E-01 0.62328E-02 0.82836E-02
 0.36683E-02 0.82320E-02 0.25832E-01 0.23438E-02 0.59198E-03 0.68479E-04 0.77753E-03 0.23973E-01 0.54372E-01 0.72446E-01
 0.61060E-01 0.32505E-02 0.43657E-01 0.13411E-01 0.80880E-02 0.35892     0.51291E-03 0.11842E-03 0.16122E-02 0.16479E-02
 0.29507E-01 0.21141E-02 0.10239E-01 0.46219E-02 0.86237E-02 0.59587     0.85194E-02 0.10505     0.27813     0.25091E-03
 0.18056E-02 0.35428E-03 0.46554E-03 0.65909E-03 0.25808     0.14685E-02 0.81575     0.80278     0.77144E-02 0.54341E-03
 0.81657     0.39406E-02 0.72798E-03 0.10470E-03 0.17904E-03 0.74247E-04 0.42169E-02 0.58676E-02 0.94280     0.11794E-02
 0.14400E-02 0.51798E-01 0.69214E-02 0.33718E-03 0.75810E-02 0.52381E-03 0.28870E-03 0.20150E-03 0.47249E-02 0.22242E-03
 0.16209E-01 0.40469     0.28282E-02 0.16596E-02 0.10340E-02 0.10500E-02 0.37784E-02 0.12343E-02 0.58851E-02 0.34972E-03
 0.17838E-01 0.38838E-03 0.53865E-03 0.22034E-02 0.35341E-02 0.80648E-02 0.27379E-01 0.34871E-02 0.19371     0.58336    
 0.26837E-01 0.51042E-01 0.26193E-01 0.25335E-02 0.18924     0.65177E-02 0.48065E-02 0.31053E-02 0.52406E-02 0.57010E-01
 0.61902E-01 0.52592E-01 0.78501     0.35063E-01 0.88219     0.54526E-01 0.10749E-01 0.85902E-02 0.24144E-02 0.55346    
 0.58435E-02 0.92331E-02 0.78828E-01 0.21100     0.91899E-01 0.10808     0.15704     0.75131E-01 0.11372     0.42928    
 0.18473E-01 0.65242E-03 0.45836E-01 0.12191E-01 0.80898E-01 0.19330E-01 0.91778E-01 0.61546E-01 0.19373     0.83319    
 0.53470     0.10150E-01 0.99181     0.71164E-02 0.11580     0.25584E-02 0.50508E-01 0.29892     0.15188     0.21724    
 0.87176     0.15602     0.51177     0.10810     0.91629E-02 0.21131E-01 0.41619E-03 0.11611E-02 0.19772E-02 0.60984    
 0.86361E-01 0.84470     0.16820     0.62119E-01 0.62072E-01 0.14172     0.99830     0.93065E-02 0.12972     0.23634E-03
 0.94793     0.23549E-01 0.10352     0.83617     0.42847     0.54917E-01 0.36040     0.10771     0.40994E-01 0.64141E-01
 0.13783E-02 0.72131E-02 0.76864E-03 0.24634E-02 0.16982     0.14872E-01 0.62133E-01 0.77666E-01 0.78585E-01 0.64892    
 0.33168E-01 0.84576E-01 0.75979E-02 0.38658E-03 0.12681E-02 0.35743E-01 0.12572E-02 0.15441E-01 0.26824     0.12048E-01
 0.33158     0.36092     0.89698     0.26253E-02 0.81386E-02 0.62097E-02 0.56607E-02 0.24012E-03 0.10806E-01 0.35786E-03
 0.10964     0.40087     0.14783     0.77749E-02 0.47255E-02 0.22206E-01 0.45862E-02 0.11095E-02 0.43898E-02 0.80958E-01
 0.10013E-02 0.44895E-02 0.30643E-02 0.94090E-03 0.13559E-01 0.52236E-01 0.44436E-02 0.30020E-02 0.27881E-02 0.41247E-01
 0.99421E-02 0.62975E-02 0.89382     0.21932E-02 0.82014E-01 0.85536E-02 0.15201E-02 0.38704E-02 0.39834E-02 0.79408E-02
 0.26772E-01 0.16297E-01 0.22404     0.71671     0.13285     0.76475     0.79091E-01 0.12290E-01 0.47364E-01 0.73702E-02
 0.63986E-02 0.52105E-02 0.15378E-01 0.99088     0.17641     0.21819     0.78139     0.17794     0.63415     0.82975    
 0.42719E-01 0.20244E-01 0.77639E-02 0.18627E-01 0.13343E-01 0.40136E-01 0.22874     0.97860     0.31755     0.99539    
 0.36990     0.27038     0.26271     0.51465     0.80695     0.25636E-02 0.66499E-01 0.33972E-01 0.97182     0.12601    
 0.98103     0.26127     0.95414     0.62187     0.86905     0.58321E-01 0.43141     0.15214E-01 0.14943E-01 0.91868E-02
 0.11385     0.94469     0.36775     0.94046     0.68102     0.36871     0.87549     0.27399     0.55575E-01 0.77926    
 0.19856E-02 0.33156E-01 0.10667E-01 0.79775     0.28582     0.61588     0.37822     0.94991     0.26293     0.99792    
 0.61982     0.47882E-01 0.27195     0.13122E-02 0.13295     0.82653E-01 0.26906     0.79084     0.89760     0.25090    
 0.90400     0.32403     0.15693     0.15202     0.88617E-02 0.29036     0.41131E-02 0.14657E-01 0.25663     0.76932E-01
 0.21692     0.90968     0.28443     0.53632     0.99205E-01 0.10026     0.22641E-01 0.23432E-02 0.54606E-02 0.42247E-01
 0.63700E-02 0.53874     0.25540     0.65991E-01 0.37366     0.37668     0.19794     0.95574E-02 0.12187E-01 0.11495E-01
 0.16580E-01 0.15588E-02 0.34143     0.17686E-02 0.39229E-01 0.30083     0.16470     0.35478E-01 0.12081E-01 0.15336E-01
 0.71880E-02 0.41763E-02 0.16377E-01 0.94418     0.54809E-02 0.87054     0.55488E-02 0.32566E-02 0.20521E-01 0.45348E-01
 0.61794E-02 0.52596E-02 0.65248E-02 0.21645     0.33863E-01 0.36607E-01 0.40625     0.11602E-01 0.41512E-01 0.29862    
 0.36029E-02 0.57450E-02 0.57348E-02 0.11000E-01 0.35865E-01 0.50057E-01 0.29845     0.57274     0.36181     0.83014    
 0.17617     0.40194E-01 0.47222E-01 0.10684E-01 0.98803E-02 0.88498E-02 0.31690E-01 0.43481     0.36529     0.51854    
 0.79139     0.52489     0.71419     0.82105     0.11322     0.36118E-01 0.18309E-01 0.19151E-01 0.25148E-01 0.11315    
 0.45573     0.85130     0.70613     0.94922     0.72270     0.60317     0.47042     0.34619     0.35727     0.77551E-02
 0.41345E-01 0.71821E-01 0.75745     0.46488     0.95388     0.73509     0.94131     0.83442     0.81865     0.21720    
 0.39300     0.29421E-01 0.19308E-01 0.24030E-01 0.21209     0.79623     0.72554     0.93773     0.89898     0.79074    
 0.88235     0.53371     0.20882     0.32529     0.62994E-02 0.28030     0.35165E-01 0.63302     0.61190     0.83324    
 0.79560     0.97970     0.69218     0.89296     0.59651     0.11138     0.53459E-01 0.38142E-02 0.46255E-01 0.13590    
 0.46587     0.80329     0.88504     0.68370     0.88199     0.64228     0.35233     0.18013     0.17847E-01 0.21817E-01
 0.55871E-02 0.23028E-01 0.22701     0.24488     0.49978     0.92776     0.61709     0.66372     0.20760     0.11587    
 0.26092E-01 0.42528E-02 0.41422E-02 0.11641E-01 0.14005E-01 0.36985     0.32447     0.23214     0.52139     0.49245    
 0.15701     0.24401E-01 0.18522E-01 0.11918E-01 0.92654E-02 0.34413E-02 0.26750E-01 0.58199E-02 0.46049E-01 0.19356    
 0.22106     0.10452     0.24373E-01 0.22188E-01 0.13756E-01 0.10545E-01 0.23087E-01 0.72983E-01 0.13067E-01 0.75427E-01
 0.11723E-01 0.90005E-02 0.32187E-01 0.53536E-01 0.97041E-02 0.10184E-01 0.14332E-01 0.84988E-01 0.69389E-01 0.97452E-01
 0.24716     0.37090E-01 0.51828E-01 0.60185E-01 0.80968E-02 0.92527E-02 0.97910E-02 0.16678E-01 0.52437E-01 0.11811    
 0.41913     0.62993     0.58339     0.72717     0.32728     0.10107     0.62263E-01 0.16538E-01 0.15739E-01 0.14806E-01
 0.54502E-01 0.39397     0.55303     0.71324     0.82787     0.74431     0.78026     0.72943     0.22439     0.57886E-01
 0.35467E-01 0.25178E-01 0.43176E-01 0.23127     0.63152     0.84814     0.84378     0.91816     0.84529     0.77657    
 0.63703     0.37670     0.28854     0.17509E-01 0.47837E-01 0.13611     0.70945     0.72688     0.91992     0.87899    
 0.92961     0.88649     0.84128     0.45390     0.47404     0.56195E-01 0.28227E-01 0.54588E-01 0.35719     0.79938    
 0.84797     0.92826     0.92432     0.89173     0.89125     0.71011     0.44473     0.28390     0.16340E-01 0.10052    
 0.95503E-01 0.66956     0.77362     0.88528     0.89314     0.94221     0.84883     0.86123     0.67398     0.23201    
 0.72017E-01 0.11115E-01 0.68969E-01 0.24499     0.62899     0.83491     0.89053     0.84849     0.88878     0.78730    
 0.54657     0.28337     0.45637E-01 0.34108E-01 0.15500E-01 0.53210E-01 0.31841     0.46989     0.70119     0.87483    
 0.78262     0.75728     0.36136     0.18209     0.50444E-01 0.12858E-01 0.12708E-01 0.24048E-01 0.34833E-01 0.29578    
 0.43861     0.46668     0.65706     0.61286     0.20200     0.53696E-01 0.32345E-01 0.23197E-01 0.21243E-01 0.11199E-01
 0.35795E-01 0.15508E-01 0.71620E-01 0.23055     0.30694     0.22081     0.43181E-01 0.33254E-01 0.23551E-01 0.23630E-01
 0.47732E-01 0.92346E-01 0.34033E-01 0.65788E-01 0.21291E-01 0.19192E-01 0.50203E-01 0.70793E-01 0.15569E-01 0.17455E-01
 0.26393E-01 0.98410E-01 0.14102     0.21977     0.31843     0.98614E-01 0.83050E-01 0.55830E-01 0.14931E-01 0.15085E-01
 0.15072E-01 0.24050E-01 0.79500E-01 0.22380     0.54410     0.70664     0.71234     0.75167     0.48485     0.19994    
 0.90181E-01 0.24020E-01 0.23264E-01 0.22441E-01 0.89400E-01 0.45141     0.67637     0.81111     0.87296     0.84554    
 0.83574     0.75180     0.34905     0.92276E-01 0.61597E-01 0.31745E-01 0.70477E-01 0.36301     0.72833     0.87881    
 0.90608     0.93482     0.90511     0.85617     0.73106     0.45359     0.35615     0.31821E-01 0.62875E-01 0.22999    
 0.74722     0.83885     0.93476     0.93487     0.94864     0.92451     0.87829     0.62298     0.58052     0.10268    
 0.39556E-01 0.10783     0.50536     0.83988     0.90676     0.94802     0.95141     0.93815     0.92055     0.80536    
 0.61916     0.35924     0.32674E-01 0.95481E-01 0.19586     0.73500     0.85416     0.92521     0.93845     0.95197    
 0.91430     0.88670     0.74566     0.36347     0.10177     0.21966E-01 0.10157     0.36501     0.73009     0.87719    
 0.91965     0.91431     0.91875     0.86110     0.67650     0.39404     0.88439E-01 0.41292E-01 0.27702E-01 0.95695E-01
 0.42119     0.63153     0.80495     0.88868     0.85856     0.82401     0.51281     0.28162     0.84585E-01 0.24644E-01
 0.21552E-01 0.34618E-01 0.67976E-01 0.36182     0.55844     0.63180     0.74052     0.70197     0.29026     0.10462    
 0.51151E-01 0.34024E-01 0.32625E-01 0.22764E-01 0.42812E-01 0.31971E-01 0.11917     0.31962     0.40474     0.35233    
 0.71543E-01 0.48521E-01 0.35525E-01 0.43109E-01 0.82403E-01 0.12483     0.68328E-01 0.77647E-01 0.33317E-01 0.33971E-01
 0.78576E-01 0.10320     0.23129E-01 0.25117E-01 0.42750E-01 0.14370     0.24884     0.35705     0.41355     0.20113    
 0.13737     0.66781E-01 0.22446E-01 0.22571E-01 0.20067E-01 0.33130E-01 0.11784     0.33863     0.64207     0.76964    
 0.78809     0.79657     0.59770     0.30991     0.13219     0.33177E-01 0.32177E-01 0.31731E-01 0.13614     0.51970    
 0.74267     0.85086     0.88986     0.87882     0.86322     0.78250     0.44827     0.14000     0.97428E-01 0.40985E-01
 0.10883     0.46733     0.77527     0.88558     0.91345     0.92911     0.91171     0.87680     0.77676     0.52883    
 0.46200     0.50297E-01 0.92080E-01 0.32539     0.78501     0.86819     0.92667     0.93056     0.93772     0.92115    
 0.88817     0.70543     0.66205     0.17565     0.56279E-01 0.19185     0.60687     0.86511     0.91243     0.93738    
 0.93858     0.93273     0.91897     0.84742     0.71948     0.47987     0.59076E-01 0.13118     0.31853     0.79174    
 0.88180     0.92460     0.93260     0.93886     0.91953     0.89877     0.80320     0.49430     0.17281     0.42545E-01
 0.17607     0.48703     0.79760     0.89344     0.91886     0.91711     0.91882     0.88525     0.75850     0.51646    
 0.17321     0.73955E-01 0.58648E-01 0.18031     0.54150     0.72545     0.84764     0.89149     0.87769     0.85457    
 0.62485     0.40210     0.15015     0.53768E-01 0.46565E-01 0.66544E-01 0.12938     0.47959     0.65056     0.71556    
 0.78197     0.75583     0.38868     0.17695     0.84368E-01 0.58379E-01 0.64714E-01 0.50987E-01 0.67807E-01 0.58678E-01
 0.19144     0.42444     0.48808     0.45860     0.11029     0.71788E-01 0.54493E-01 0.76099E-01 0.14766     0.20903    
 0.13263     0.11575     0.51054E-01 0.54424E-01 0.11918     0.15006     0.32364E-01 0.34481E-01 0.66364E-01 0.21256    
 0.37734     0.49696     0.52877     0.32434     0.21966     0.91040E-01 0.31417E-01 0.31460E-01 0.26028E-01 0.45084E-01
 0.16099     0.42403     0.69516     0.79862     0.82158     0.81566     0.64935     0.40475     0.18386     0.44877E-01
 0.43216E-01 0.44280E-01 0.18459     0.57148     0.76516     0.85173     0.87773     0.87328     0.86155     0.78845    
 0.50578     0.19507     0.14288     0.52671E-01 0.15792     0.52443     0.78861     0.86182     0.87860     0.88409    
 0.87536     0.85836     0.79113     0.56951     0.54698     0.73035E-01 0.12999     0.40444     0.79373     0.85301    
 0.87476     0.85352     0.86129     0.86983     0.86654     0.73403     0.68895     0.27467     0.75960E-01 0.29792    
 0.64951     0.86381     0.87552     0.86112     0.83419     0.85713     0.87979     0.85316     0.76658     0.55975    
 0.99284E-01 0.17427     0.43363     0.81084     0.87478     0.88022     0.85678     0.86103     0.87708     0.88562    
 0.83049     0.57457     0.26036     0.72006E-01 0.26524     0.56362     0.83018     0.88183     0.88046     0.86727    
 0.88233     0.87504     0.79377     0.60130     0.26195     0.11758     0.99813E-01 0.27493     0.61005     0.76706    
 0.85189     0.86814     0.85762     0.85280     0.68369     0.49376     0.22371     0.95222E-01 0.79684E-01 0.10786    
 0.20766     0.57284     0.68687     0.74600     0.79158     0.77443     0.46293     0.25043     0.13092     0.95270E-01
 0.10779     0.92534E-01 0.10210     0.95233E-01 0.28350     0.50069     0.53954     0.52672     0.15290     0.10292    
 0.83674E-01 0.12198     0.22132     0.29192     0.21387     0.16881     0.73308E-01 0.81610E-01 0.16856     0.20083    
 0.44480E-01 0.47702E-01 0.97122E-01 0.28264     0.47525     0.59095     0.60053     0.42793     0.31729     0.12110    
 0.42813E-01 0.43177E-01 0.34892E-01 0.60215E-01 0.19789     0.47116     0.71916     0.81294     0.83861     0.81891    
 0.67229     0.48326     0.22586     0.58490E-01 0.57117E-01 0.59819E-01 0.22263     0.59537     0.76387     0.83534    
 0.85233     0.85255     0.84535     0.77226     0.53289     0.24286     0.19389     0.65160E-01 0.20837     0.54131    
 0.78116     0.81777     0.80190     0.78175     0.79652     0.81784     0.78565     0.56971     0.57184     0.10528    
 0.15722     0.47369     0.77867     0.81449     0.75312     0.60834     0.61698     0.74873     0.82289     0.74172    
 0.68845     0.38196     0.10119     0.38779     0.66970     0.84788     0.79648     0.61694     0.44753     0.61422    
 0.79879     0.84214     0.79558     0.59182     0.16741     0.21339     0.54556     0.81055     0.85332     0.77803    
 0.61390     0.61393     0.77700     0.85898     0.84421     0.63514     0.35974     0.12168     0.35770     0.63025    
 0.84716     0.85656     0.79990     0.74747     0.80480     0.85037     0.80827     0.66834     0.35507     0.19690    
 0.16530     0.38345     0.64996     0.79248     0.83983     0.82443     0.81439     0.83697     0.71031     0.56092    
 0.31058     0.16386     0.14299     0.17866     0.31262     0.62155     0.69042     0.75309     0.78172     0.77062    
 0.50507     0.31271     0.19269     0.15628     0.18068     0.16103     0.15398     0.15171     0.38488     0.52295    
 0.55908     0.55926     0.18885     0.13806     0.12388     0.18207     0.30742     0.38787     0.31588     0.22374    
 0.10008     0.12014     0.21392     0.23798     0.59655E-01 0.64939E-01 0.13127     0.34366     0.54641     0.65734    
 0.65249     0.52242     0.40187     0.14299     0.57365E-01 0.58903E-01 0.47801E-01 0.77728E-01 0.22254     0.48928    
 0.73197     0.82714     0.85315     0.82122     0.69354     0.53780     0.24047     0.73532E-01 0.74284E-01 0.76088E-01
 0.24282     0.59382     0.76091     0.83102     0.84800     0.85202     0.84108     0.75481     0.54540     0.26497    
 0.23461     0.80777E-01 0.24222     0.53467     0.77136     0.79542     0.76170     0.72299     0.75515     0.79817    
 0.77597     0.54894     0.54707     0.14983     0.16893     0.52942     0.76181     0.79588     0.67395     0.44032    
 0.44553     0.67171     0.79853     0.75225     0.69137     0.44107     0.13339     0.41582     0.69271     0.84367    
 0.75526     0.44540     0.21865     0.44535     0.75525     0.84144     0.82200     0.58472     0.23874     0.23209    
 0.61655     0.81021     0.85202     0.72099     0.44535     0.44055     0.72282     0.85191     0.85603     0.67086    
 0.39326     0.16829     0.38305     0.67716     0.86013     0.85093     0.75618     0.67283     0.76278     0.84670    
 0.81965     0.70091     0.39364     0.24180     0.20420     0.42520     0.66431     0.81884     0.83903     0.79997    
 0.79172     0.83519     0.72458     0.59391     0.35733     0.20522     0.18301     0.22260     0.37451     0.61650    
 0.69233     0.76140     0.76985     0.76500     0.52331     0.35311     0.23934     0.20015     0.22289     0.20108    
 0.18978     0.21366     0.44779     0.50425     0.56026     0.56277     0.21259     0.17152     0.16234     0.22735    
 0.35249     0.43123     0.36975     0.24551     0.13040     0.17039     0.23712     0.25254     0.76730E-01 0.85315E-01
 0.16302     0.38563     0.58208     0.68454     0.67803     0.58854     0.43427     0.15590     0.77800E-01 0.77887E-01
 0.67095E-01 0.98229E-01 0.23244     0.46691     0.71167     0.81831     0.84427     0.80160     0.68809     0.53247    
 0.23298     0.92468E-01 0.95404E-01 0.93789E-01 0.24448     0.56796     0.74856     0.83207     0.86005     0.86640    
 0.84172     0.73334     0.53660     0.25952     0.24582     0.10150     0.24885     0.50514     0.75757     0.80550    
 0.79862     0.77593     0.79321     0.80893     0.75892     0.51748     0.49001     0.18154     0.16742     0.53674    
 0.73974     0.80602     0.72953     0.58683     0.58799     0.72956     0.80477     0.75362     0.67716     0.39513    
 0.14926     0.35868     0.68980     0.84540     0.79343     0.58748     0.40768     0.59032     0.79139     0.84419    
 0.81972     0.51567     0.23297     0.20983     0.57368     0.78952     0.86558     0.77665     0.59053     0.58157    
 0.78043     0.86055     0.84523     0.63279     0.33107     0.17736     0.32350     0.64663     0.84884     0.86037    
 0.79208     0.73296     0.79792     0.85918     0.80590     0.65143     0.35244     0.24026     0.21269     0.36996    
 0.61538     0.82016     0.84150     0.80581     0.80028     0.84027     0.70433     0.54453     0.31978     0.21228    
 0.20909     0.22931     0.33021     0.53474     0.67587     0.76061     0.75284     0.75140     0.50582     0.33428    
 0.22167     0.19479     0.22655     0.20799     0.18792     0.21752     0.40655     0.45696     0.54468     0.53409    
 0.22121     0.18648     0.16529     0.21100     0.31450     0.38392     0.32424     0.21221     0.14371     0.20117    
 0.23321     0.25109     0.96272E-01 0.10613     0.17613     0.36820     0.53463     0.63047     0.63201     0.55833    
 0.38053     0.16011     0.10381     0.98846E-01 0.10135     0.12857     0.22596     0.37710     0.60142     0.73204    
 0.76192     0.70578     0.59018     0.43386     0.21710     0.12195     0.12540     0.12033     0.23700     0.51214    
 0.68359     0.78996     0.84078     0.84826     0.80147     0.66966     0.48308     0.24626     0.23003     0.12461    
 0.23415     0.43814     0.70890     0.79738     0.81846     0.81307     0.81589     0.79764     0.70375     0.46203    
 0.39306     0.16497     0.14729     0.45589     0.67185     0.79079     0.77988     0.73842     0.73431     0.78106    
 0.79040     0.69883     0.58030     0.26450     0.12326     0.23981     0.59414     0.81027     0.81526     0.73331    
 0.66150     0.73909     0.81227     0.80503     0.73170     0.37864     0.16986     0.16255     0.41105     0.69218    
 0.84701     0.81683     0.73931     0.72841     0.82147     0.83728     0.76299     0.50858     0.26169     0.16860    
 0.26017     0.52185     0.76450     0.83663     0.81344     0.78564     0.81741     0.83909     0.71089     0.51649    
 0.30460     0.23944     0.22095     0.31173     0.49417     0.73915     0.79933     0.79258     0.78653     0.80656    
 0.59297     0.39923     0.26107     0.21955     0.23387     0.23359     0.26142     0.38428     0.57929     0.70385    
 0.69875     0.68862     0.42236     0.23936     0.16508     0.17856     0.22998     0.21672     0.17684     0.16533    
 0.27272     0.36917     0.49530     0.46400     0.21306     0.16629     0.12572     0.15757     0.25705     0.32595    
 0.25831     0.15803     0.11907     0.17736     0.21468     0.24630     0.12480     0.12456     0.15547     0.26805    
 0.39207     0.49606     0.50632     0.41163     0.25634     0.14610     0.12794     0.12754     0.17049     0.18863    
 0.21888     0.25212     0.39876     0.52946     0.56352     0.50197     0.39001     0.29091     0.21091     0.17780    
 0.18147     0.17148     0.24571     0.43903     0.52226     0.62845     0.71425     0.71944     0.64701     0.52376    
 0.39493     0.25242     0.21765     0.15706     0.22188     0.34388     0.60084     0.71259     0.74548     0.75316    
 0.74919     0.70181     0.58315     0.38252     0.27361     0.13456     0.12753     0.32119     0.51314     0.68444    
 0.73821     0.73946     0.72930     0.73725     0.69325     0.54609     0.38525     0.16803     0.10114     0.15361    
 0.39893     0.66782     0.74327     0.72770     0.70340     0.73699     0.74344     0.65060     0.52176     0.25382    
 0.12478     0.12526     0.26211     0.48735     0.72184     0.76116     0.73726     0.72336     0.76742     0.70341    
 0.56769     0.36420     0.17786     0.11256     0.17946     0.37284     0.56453     0.70117     0.74662     0.74226    
 0.74796     0.70788     0.50151     0.36722     0.20755     0.13928     0.12968     0.21069     0.35634     0.53484    
 0.63590     0.70313     0.68379     0.66268     0.39058     0.26232     0.17901     0.12896     0.12925     0.13592    
 0.17680     0.25504     0.38768     0.54571     0.58226     0.53318     0.29639     0.15659     0.12404     0.11828    
 0.13360     0.12836     0.11863     0.12247     0.17209     0.25649     0.41673     0.36969     0.20389     0.14122    
 0.10037     0.11854     0.17748     0.21973     0.17439     0.12098     0.99121E-01 0.14321     0.20338     0.26038    
 0.17994     0.14974     0.13051     0.17753     0.25714     0.35162     0.36454     0.26838     0.16400     0.12825    
 0.15587     0.18344     0.28882     0.30177     0.24154     0.18750     0.25248     0.31066     0.32449     0.29470    
 0.24022     0.21677     0.24316     0.27807     0.28294     0.26157     0.31092     0.39564     0.32650     0.36722    
 0.43318     0.42758     0.38491     0.34969     0.33522     0.30595     0.24588     0.22264     0.24123     0.28098    
 0.47666     0.51648     0.50511     0.52048     0.52296     0.49411     0.43169     0.32890     0.21088     0.14872    
 0.15139     0.24552     0.32051     0.46962     0.56125     0.56587     0.55052     0.54809     0.48770     0.36028    
 0.23830     0.14928     0.11686     0.13751     0.25529     0.40600     0.50314     0.54989     0.54983     0.56075    
 0.51671     0.38689     0.30310     0.16448     0.88686E-01 0.89855E-01 0.16390     0.28517     0.44067     0.52765    
 0.56201     0.54432     0.53764     0.41589     0.33006     0.19499     0.66662E-01 0.33196E-01 0.68289E-01 0.19800    
 0.32368     0.41604     0.52036     0.55337     0.51789     0.42178     0.29029     0.19530     0.62518E-01 0.20509E-01
 0.18735E-01 0.63437E-01 0.19162     0.31350     0.36737     0.51169     0.46710     0.40521     0.24577     0.16724    
 0.67399E-01 0.18692E-01 0.13396E-01 0.19598E-01 0.66735E-01 0.16427     0.24436     0.34841     0.44651     0.34110    
 0.22545     0.14042     0.88819E-01 0.34883E-01 0.19145E-01 0.18914E-01 0.35125E-01 0.86576E-01 0.15157     0.19814    
 0.36108     0.31089     0.22554     0.16438     0.11482     0.84999E-01 0.67884E-01 0.65704E-01 0.64878E-01 0.87785E-01
 0.11597     0.16028     0.22602     0.32970     0.28293     0.20072     0.15196     0.15846     0.16281     0.18782    
 0.19660     0.17013     0.14602     0.14863     0.21405     0.28360     0.41095     0.42879     0.28873     0.20210    
 0.21495     0.18776     0.17378     0.18312     0.19636     0.22795     0.31490     0.39245     0.39462     0.36503    
 0.44790     0.40626     0.21997     0.20531     0.20919     0.19965     0.21117     0.25842     0.34503     0.40232    
 0.31675     0.30800     0.28651     0.29595     0.41466     0.30340     0.23763     0.23905     0.25676     0.29399    
 0.33284     0.34198     0.22540     0.20795     0.22527     0.25003     0.21659     0.28582     0.31731     0.27929    
 0.27426     0.29487     0.29190     0.26197     0.19562     0.18067     0.16181     0.17046     0.21762     0.21630    
 0.23688     0.27745     0.27609     0.27899     0.25408     0.21198     0.18506     0.12491     0.77390E-01 0.77557E-01
 0.12130     0.18022     0.21290     0.23576     0.28104     0.27111     0.24437     0.19693     0.17762     0.94126E-01
 0.21922E-01 0.79761E-02 0.23010E-01 0.94098E-01 0.17227     0.20117     0.25214     0.30181     0.24964     0.20175    
 0.17913     0.93477E-01 0.11884E-01 0.65281E-03 0.54819E-03 0.12050E-01 0.92948E-01 0.19036     0.19912     0.31470    
 0.27338     0.22288     0.20744     0.12498     0.22392E-01 0.55326E-03 0.70996E-04 0.57077E-03 0.22400E-01 0.12360    
 0.20605     0.23898     0.37304     0.23523     0.22963     0.17386     0.77289E-01 0.83723E-02 0.54602E-03 0.60319E-03
 0.84122E-02 0.75243E-01 0.18061     0.21803     0.35949     0.33459     0.28516     0.23497     0.15805     0.74616E-01
 0.23042E-01 0.12218E-01 0.21372E-01 0.77046E-01 0.16283     0.22597     0.28527     0.44929     0.40521     0.26722    
 0.22666     0.18801     0.12105     0.91475E-01 0.95307E-01 0.12689     0.17786     0.21049     0.29678     0.38802    
 0.45623     0.46716     0.30036     0.23769     0.21821     0.15432     0.13554     0.15719     0.19450     0.24786    
 0.35075     0.44046     0.43417     0.41669     0.54051     0.38485     0.19618     0.17274     0.14936     0.14032    
 0.16791     0.24213     0.36600     0.44922     0.35478     0.33719     0.30075     0.35524     0.40605     0.21619    
 0.15781     0.15347     0.17055     0.22679     0.30794     0.36588     0.24661     0.24255     0.26989     0.24914    
 0.19658     0.24097     0.21785     0.17048     0.17381     0.20038     0.22726     0.24167     0.19472     0.20211    
 0.18549     0.19994     0.21808     0.16093     0.15801     0.17872     0.17104     0.17425     0.16983     0.16853    
 0.15600     0.12010     0.80563E-01 0.78603E-01 0.11465     0.15925     0.15041     0.14583     0.17576     0.17287    
 0.15189     0.14128     0.13801     0.72230E-01 0.15427E-01 0.54694E-02 0.16722E-01 0.70806E-01 0.13383     0.14782    
 0.16449     0.20840     0.16367     0.14553     0.15441     0.71105E-01 0.63393E-02 0.11731E-03 0.84981E-04 0.63759E-02
 0.71806E-01 0.15738     0.16229     0.23742     0.21927     0.17144     0.20857     0.11809     0.16109E-01 0.89130E-04
 0.11739E-03 0.89502E-04 0.16149E-01 0.11804     0.20869     0.21252     0.36356     0.21293     0.23457     0.20278    
 0.79387E-01 0.55875E-02 0.84995E-04 0.11872E-03 0.55501E-02 0.78420E-01 0.19811     0.25307     0.34907     0.39015    
 0.32784     0.26468     0.18184     0.78540E-01 0.16668E-01 0.61961E-02 0.15475E-01 0.79727E-01 0.18978     0.25825    
 0.32398     0.49320     0.45655     0.29822     0.27588     0.20254     0.11501     0.71488E-01 0.72952E-01 0.11975    
 0.20146     0.24325     0.33584     0.41986     0.39687     0.38724     0.25678     0.23395     0.21701     0.18787    
 0.19135     0.19878     0.19747     0.22051     0.30199     0.38396     0.37352     0.37624     0.46632     0.31058    
 0.23094     0.24832     0.22969     0.21776     0.23018     0.27099     0.33781     0.38480     0.30504     0.28218    
 0.25876     0.37565     0.40962     0.28658     0.27665     0.28500     0.28735     0.31608     0.34262     0.34097    
 0.22155     0.20136     0.22243     0.20456     0.23474     0.35377     0.34465     0.30449     0.31784     0.33019    
 0.31914     0.26647     0.19850     0.17123     0.15147     0.17834     0.21453     0.21117     0.27819     0.32657    
 0.31413     0.31356     0.28881     0.23049     0.19430     0.13050     0.78024E-01 0.74583E-01 0.12439     0.20616    
 0.22839     0.26765     0.31559     0.31919     0.27471     0.22318     0.19287     0.10379     0.24555E-01 0.10011E-01
 0.26385E-01 0.10032     0.18893     0.23483     0.27779     0.34007     0.27825     0.22860     0.19708     0.10164    
 0.15627E-01 0.10849E-02 0.10152E-02 0.15558E-01 0.10401     0.19152     0.23158     0.31659     0.32237     0.22640    
 0.20885     0.12689     0.25645E-01 0.10493E-02 0.21549E-03 0.10178E-02 0.25726E-01 0.12820     0.21050     0.24067    
 0.38756     0.24511     0.20200     0.17896     0.76160E-01 0.98274E-02 0.10106E-02 0.11758E-02 0.97003E-02 0.76572E-01
 0.16578     0.23943     0.30275     0.38159     0.29995     0.20592     0.15012     0.77387E-01 0.26318E-01 0.14763E-01
 0.25236E-01 0.77076E-01 0.15668     0.20507     0.29475     0.39894     0.39282     0.26598     0.22861     0.16558    
 0.12511     0.10479     0.10423     0.12791     0.17278     0.20057     0.28910     0.36048     0.26999     0.25742    