       N       E                     dE             d eps       ncg     rms          rms(c)
DAV:   1     0.931231477773E+02    0.93123E+02   -0.42468E+03   336   0.488E+02
DAV:   2    -0.108239562227E+02   -0.10395E+03   -0.96100E+02   482   0.126E+02
DAV:   3    -0.231388343188E+02   -0.12315E+02   -0.12197E+02   402   0.590E+01
DAV:   4    -0.233633363089E+02   -0.22450E+00   -0.22333E+00   374   0.947E+00
DAV:   5    -0.233696553553E+02   -0.63190E-02   -0.63102E-02   374   0.143E+00    0.691E+00
RMM:   6    -0.222094876423E+02    0.11602E+01   -0.54341E+00   295   0.116E+01    0.262E+00
RMM:   7    -0.218282926392E+02    0.38120E+00   -0.58491E-01   294   0.335E+00    0.155E+00
RMM:   8    -0.217676106992E+02    0.60682E-01   -0.23488E-01   306   0.247E+00    0.346E-01
RMM:   9    -0.217628742028E+02    0.47365E-02   -0.84110E-03   334   0.552E-01    0.915E-02
RMM:  10    -0.217622049559E+02    0.66925E-03   -0.15427E-03   338   0.203E-01    0.430E-02
RMM:  11    -0.217621622988E+02    0.42657E-04   -0.14795E-03   319   0.169E-01    0.472E-02
RMM:  12    -0.217621084798E+02    0.53819E-04   -0.40558E-04   310   0.108E-01    0.142E-02
RMM:  13    -0.217626186980E+02   -0.51022E-03   -0.14141E-04   308   0.593E-02    0.172E-02
RMM:  14    -0.217627268350E+02   -0.10814E-03   -0.27479E-05   330   0.257E-02    0.501E-03
RMM:  15    -0.217629128769E+02   -0.18604E-03   -0.18731E-05   287   0.166E-02    0.387E-03
RMM:  16    -0.217629603970E+02   -0.47520E-04   -0.28780E-06   246   0.684E-03    0.224E-03
RMM:  17    -0.217630029973E+02   -0.42600E-04   -0.20160E-06   202   0.667E-03    0.197E-03
RMM:  18    -0.217630058603E+02   -0.28630E-05   -0.19789E-07   157   0.274E-03    0.160E-03
RMM:  19    -0.217630115728E+02   -0.57125E-05   -0.50229E-07   178   0.346E-03    0.157E-03
RMM:  20    -0.217630123338E+02   -0.76100E-06   -0.78943E-08   135   0.184E-03
   1 F= -.22353696E+02 E0= -.22353696E+02  d E =-.752852E-10
