<?xml version="1.0" encoding="ISO-8859-1"?>
<modeling>
 <generator>
  <i name="program" type="string">vasp </i>
  <i name="version" type="string">5.4.4.18Apr17-6-g9f103f2a35  </i>
  <i name="subversion" type="string">(build Jun 30 2017 11:15:00) complex            parallel </i>
  <i name="platform" type="string">STALLO_VASP_5.4.4 </i>
  <i name="date" type="string">2019 11 08 </i>
  <i name="time" type="string">11:48:47 </i>
 </generator>
 <incar>
  <i type="string" name="PREC">normal    ! low/normal/accurate</i>
  <i type="string" name="ALGO"> Fast      ! Algorithm for electronic re</i>
  <i type="int" name="ISPIN">     1</i>
  <i type="int" name="NELMIN">     4</i>
  <i name="EDIFF">      0.00000100</i>
  <i type="int" name="NSW">     0</i>
  <i name="ENCUT">    250.00000000</i>
  <i type="int" name="NEDOS">  2401</i>
  <i type="string" name="LREAL"> Auto      ! Projection in reciprocal sp</i>
  <i name="EMIN">    -12.00000000</i>
  <i name="EMAX">     12.00000000</i>
  <i type="int" name="ISMEAR">     0</i>
  <i name="SIGMA">      0.20000000</i>
  <i type="logical" name="LWAVE"> F  </i>
  <i type="int" name="LORBIT">    11</i>
  <i type="logical" name="LELF"> T  </i>
  <v type="int" name="KPOINT_BSE">    -1     0     0     0</v>
 </incar>
 <structure name="primitive_cell" >
  <crystal>
   <varray name="basis" >
    <v>       3.19031573       0.00000000       0.00000000 </v>
    <v>      -1.59515786       2.76289447       0.00000000 </v>
    <v>       0.00000000       0.00000000      44.87900430 </v>
   </varray>
   <i name="volume">    395.58623843 </i>
   <varray name="rec_basis" >
    <v>       0.31344860       0.18096963       0.00000000 </v>
    <v>       0.00000000       0.36193927       0.00000000 </v>
    <v>       0.00000000       0.00000000       0.02228213 </v>
   </varray>
  </crystal>
  <varray name="positions" >
   <v>       0.33333300      -0.33333300       0.08288399 </v>
   <v>      -0.33333400       0.33333300       0.11775296 </v>
   <v>      -0.33333300       0.33333300       0.04801503 </v>
  </varray>
 </structure>
 <varray name="primitive_index" >
  <v type="int" >        1 </v>
  <v type="int" >        3 </v>
  <v type="int" >        2 </v>
 </varray>
 <kpoints>
  <generation param="Gamma">
   <v type="int" name="divisions">       8        8        1 </v>
   <v name="usershift">      0.00000000       0.00000000       0.00000000 </v>
   <v name="genvec1">      0.12500000       0.00000000       0.00000000 </v>
   <v name="genvec2">      0.00000000       0.12500000       0.00000000 </v>
   <v name="genvec3">      0.00000000       0.00000000       1.00000000 </v>
   <v name="shift">      0.00000000       0.00000000       0.00000000 </v>
  </generation>
  <varray name="kpointlist" >
   <v>       0.00000000       0.00000000       0.00000000 </v>
   <v>       0.12500000       0.00000000       0.00000000 </v>
   <v>       0.25000000       0.00000000       0.00000000 </v>
   <v>       0.37500000       0.00000000       0.00000000 </v>
   <v>       0.50000000       0.00000000       0.00000000 </v>
   <v>       0.12500000       0.12500000       0.00000000 </v>
   <v>       0.25000000       0.12500000       0.00000000 </v>
   <v>       0.37500000       0.12500000       0.00000000 </v>
   <v>       0.25000000       0.25000000       0.00000000 </v>
   <v>       0.37500000       0.25000000       0.00000000 </v>
  </varray>
  <varray name="weights" >
   <v>       0.01562500 </v>
   <v>       0.09375000 </v>
   <v>       0.09375000 </v>
   <v>       0.09375000 </v>
   <v>       0.04687500 </v>
   <v>       0.09375000 </v>
   <v>       0.18750000 </v>
   <v>       0.18750000 </v>
   <v>       0.09375000 </v>
   <v>       0.09375000 </v>
  </varray>
 </kpoints>
 <parameters>
  <separator name="general" >
   <i type="string" name="SYSTEM">unknown system</i>
   <i type="logical" name="LCOMPAT"> F  </i>
  </separator>
  <separator name="electronic" >
   <i type="string" name="PREC">normal</i>
   <i name="ENMAX">    250.00000000</i>
   <i name="ENAUG">    345.27800000</i>
   <i name="EDIFF">      0.00000100</i>
   <i type="int" name="IALGO">    68</i>
   <i type="int" name="IWAVPR">    10</i>
   <i type="int" name="NBANDS">    14</i>
   <i name="NELECT">     18.00000000</i>
   <i type="int" name="TURBO">     0</i>
   <i type="int" name="IRESTART">     0</i>
   <i type="int" name="NREBOOT">     0</i>
   <i type="int" name="NMIN">     0</i>
   <i name="EREF">      0.00000000</i>
   <separator name="electronic smearing" >
    <i type="int" name="ISMEAR">     0</i>
    <i name="SIGMA">      0.20000000</i>
    <i name="KSPACING">      0.50000000</i>
    <i type="logical" name="KGAMMA"> T  </i>
   </separator>
   <separator name="electronic projectors" >
    <i type="logical" name="LREAL"> T  </i>
    <v name="ROPT">     -0.00050000     -0.00050000</v>
    <i type="int" name="LMAXPAW">  -100</i>
    <i type="int" name="LMAXMIX">     2</i>
    <i type="logical" name="NLSPLINE"> F  </i>
   </separator>
   <separator name="electronic startup" >
    <i type="int" name="ISTART">     0</i>
    <i type="int" name="ICHARG">     2</i>
    <i type="int" name="INIWAV">     1</i>
   </separator>
   <separator name="electronic spin" >
    <i type="int" name="ISPIN">     1</i>
    <i type="logical" name="LNONCOLLINEAR"> F  </i>
    <v name="MAGMOM">      1.00000000      1.00000000      1.00000000</v>
    <i name="NUPDOWN">     -1.00000000</i>
    <i type="logical" name="LSORBIT"> F  </i>
    <v name="SAXIS">      0.00000000      0.00000000      1.00000000</v>
    <i type="logical" name="LSPIRAL"> F  </i>
    <v name="QSPIRAL">      0.00000000      0.00000000      0.00000000</v>
    <i type="logical" name="LZEROZ"> F  </i>
   </separator>
   <separator name="electronic exchange-correlation" >
    <i type="logical" name="LASPH"> F  </i>
    <i type="logical" name="LMETAGGA"> F  </i>
   </separator>
   <separator name="electronic convergence" >
    <i type="int" name="NELM">    60</i>
    <i type="int" name="NELMDL">    -5</i>
    <i type="int" name="NELMIN">     4</i>
    <i name="ENINI">    250.00000000</i>
    <separator name="electronic convergence detail" >
     <i type="logical" name="LDIAG"> T  </i>
     <i type="logical" name="LSUBROT"> F  </i>
     <i name="WEIMIN">      0.00000000</i>
     <i name="EBREAK">      0.00000002</i>
     <i name="DEPER">      0.30000000</i>
     <i type="int" name="NRMM">     4</i>
     <i name="TIME">      0.40000000</i>
    </separator>
   </separator>
   <separator name="electronic mixer" >
    <i name="AMIX">      0.40000000</i>
    <i name="BMIX">      1.00000000</i>
    <i name="AMIN">      0.10000000</i>
    <i name="AMIX_MAG">      1.60000000</i>
    <i name="BMIX_MAG">      1.00000000</i>
    <separator name="electronic mixer details" >
     <i type="int" name="IMIX">     4</i>
     <i type="logical" name="MIXFIRST"> F  </i>
     <i type="int" name="MAXMIX">   -45</i>
     <i name="WC">    100.00000000</i>
     <i type="int" name="INIMIX">     1</i>
     <i type="int" name="MIXPRE">     1</i>
     <i type="int" name="MREMOVE">     5</i>
    </separator>
   </separator>
   <separator name="electronic dipolcorrection" >
    <i type="logical" name="LDIPOL"> F  </i>
    <i type="logical" name="LMONO"> F  </i>
    <i type="int" name="IDIPOL">     0</i>
    <i name="EPSILON">      1.00000000</i>
    <v name="DIPOL">   -100.00000000   -100.00000000   -100.00000000</v>
    <i name="EFIELD">      0.00000000</i>
   </separator>
  </separator>
  <separator name="grids" >
   <i type="int" name="NGX">    12</i>
   <i type="int" name="NGY">    12</i>
   <i type="int" name="NGZ">   180</i>
   <i type="int" name="NGXF">    24</i>
   <i type="int" name="NGYF">    24</i>
   <i type="int" name="NGZF">   360</i>
   <i type="logical" name="ADDGRID"> F  </i>
  </separator>
  <separator name="ionic" >
   <i type="int" name="NSW">     0</i>
   <i type="int" name="IBRION">    -1</i>
   <i type="int" name="MDALGO">     0</i>
   <i type="int" name="ISIF">     2</i>
   <i name="PSTRESS">      0.00000000</i>
   <i name="EDIFFG">      0.00001000</i>
   <i type="int" name="NFREE">     0</i>
   <i name="POTIM">      0.50000000</i>
   <i name="SMASS">     -3.00000000</i>
   <i name="SCALEE">      1.00000000</i>
  </separator>
  <separator name="ionic md" >
   <i name="TEBEG">      0.00010000</i>
   <i name="TEEND">      0.00010000</i>
   <i type="int" name="NBLOCK">     1</i>
   <i type="int" name="KBLOCK">     1</i>
   <i type="int" name="NPACO">   256</i>
   <i name="APACO">     16.00000000</i>
  </separator>
  <separator name="symmetry" >
   <i type="int" name="ISYM">     2</i>
   <i name="SYMPREC">      0.00001000</i>
  </separator>
  <separator name="dos" >
   <i type="int" name="LORBIT">    11</i>
   <v name="RWIGS">     -1.00000000     -1.00000000</v>
   <i type="int" name="NEDOS">  2401</i>
   <i name="EMIN">    -12.00000000</i>
   <i name="EMAX">     12.00000000</i>
   <i name="EFERMI">      0.00000000</i>
  </separator>
  <separator name="writing" >
   <i type="int" name="NWRITE">     2</i>
   <i type="logical" name="LWAVE"> F  </i>
   <i type="logical" name="LDOWNSAMPLE"> F  </i>
   <i type="logical" name="LCHARG"> T  </i>
   <i type="logical" name="LPARD"> F  </i>
   <i type="logical" name="LVTOT"> F  </i>
   <i type="logical" name="LVHAR"> F  </i>
   <i type="logical" name="LELF"> T  </i>
   <i type="logical" name="LOPTICS"> F  </i>
   <v name="STM">      0.00000000      0.00000000      0.00000000      0.00000000      0.00000000      0.00000000      0.00000000</v>
  </separator>
  <separator name="performance" >
   <i type="int" name="NPAR">     2</i>
   <i type="int" name="NSIM">     4</i>
   <i type="int" name="NBLK">    -1</i>
   <i type="logical" name="LPLANE"> T  </i>
   <i type="logical" name="LSCALAPACK"> T  </i>
   <i type="logical" name="LSCAAWARE"> F  </i>
   <i type="logical" name="LSCALU"> F  </i>
   <i type="logical" name="LASYNC"> F  </i>
   <i type="logical" name="LORBITALREAL"> F  </i>
  </separator>
  <separator name="miscellaneous" >
   <i type="int" name="IDIOT">     3</i>
   <i type="int" name="ISPECIAL">     0</i>
   <i type="logical" name="LMUSIC"> F  </i>
   <v name="POMASS">     95.94000000     32.06600000</v>
   <v name="DARWINR">      0.00000000      0.00000000</v>
   <v name="DARWINV">      1.00000000      1.00000000</v>
   <i type="logical" name="LCORR"> T  </i>
  </separator>
  <i type="logical" name="GGA_COMPAT"> T  </i>
  <i type="logical" name="LBERRY"> F  </i>
  <i type="int" name="ICORELEVEL">     0</i>
  <i type="logical" name="LDAU"> F  </i>
  <i type="int" name="I_CONSTRAINED_M">     0</i>
  <separator name="electronic exchange-correlation" >
   <i type="string" name="GGA">--</i>
   <i type="int" name="VOSKOWN">     0</i>
   <i type="logical" name="LHFCALC"> F  </i>
   <i type="string" name="PRECFOCK"></i>
   <i type="logical" name="LSYMGRAD"> F  </i>
   <i type="logical" name="LHFONE"> F  </i>
   <i type="logical" name="LRHFCALC"> F  </i>
   <i type="logical" name="LTHOMAS"> F  </i>
   <i type="logical" name="LMODELHF"> F  </i>
   <i name="ENCUT4O">     -1.00000000</i>
   <i type="int" name="EXXOEP">     0</i>
   <i type="int" name="FOURORBIT">     0</i>
   <i name="AEXX">      0.00000000</i>
   <i name="HFALPHA">      0.00000000</i>
   <i name="MCALPHA">      0.00000000</i>
   <i name="ALDAX">      1.00000000</i>
   <i name="AGGAX">      1.00000000</i>
   <i name="ALDAC">      1.00000000</i>
   <i name="AGGAC">      1.00000000</i>
   <i type="int" name="NKREDX">     1</i>
   <i type="int" name="NKREDY">     1</i>
   <i type="int" name="NKREDZ">     1</i>
   <i type="logical" name="SHIFTRED"> F  </i>
   <i type="logical" name="ODDONLY"> F  </i>
   <i type="logical" name="EVENONLY"> F  </i>
   <i type="int" name="LMAXFOCK">     0</i>
   <i type="int" name="NMAXFOCKAE">     0</i>
   <i type="logical" name="LFOCKAEDFT"> F  </i>
   <i name="HFSCREEN">      0.00000000</i>
   <i name="HFSCREENC">      0.00000000</i>
   <i type="int" name="NBANDSGWLOW">     0</i>
  </separator>
  <separator name="vdW DFT" >
   <i type="logical" name="LUSE_VDW"> F  </i>
   <i name="Zab_VDW">     -0.84910000</i>
   <i name="PARAM1">      0.12340000</i>
   <i name="PARAM2">      1.00000000</i>
   <i name="PARAM3">      0.00000000</i>
  </separator>
  <separator name="model GW" >
   <i type="int" name="MODEL_GW">     0</i>
   <i name="MODEL_EPS0">     79.11724769</i>
   <i name="MODEL_ALPHA">      1.00000000</i>
  </separator>
  <separator name="linear response parameters" >
   <i type="logical" name="LEPSILON"> F  </i>
   <i type="logical" name="LRPA"> F  </i>
   <i type="logical" name="LNABLA"> F  </i>
   <i type="logical" name="LVEL"> F  </i>
   <i type="int" name="KINTER">     0</i>
   <i name="CSHIFT">      0.10000000</i>
   <i name="OMEGAMAX">     -1.00000000</i>
   <i name="DEG_THRESHOLD">      0.00200000</i>
   <i name="RTIME">     -0.10000000</i>
   <i name="WPLASMAI">      0.00000000</i>
   <v name="DFIELD">      0.00000000      0.00000000      0.00000000</v>
   <v name="WPLASMA">      0.00000000      0.00000000      0.00000000      0.00000000      0.00000000      0.00000000      0.00000000      0.00000000      0.00000000</v>
  </separator>
  <separator name="orbital magnetization" >
   <i type="logical" name="NUCIND"> F  </i>
   <v name="MAGPOS">      0.00000000      0.00000000      0.00000000</v>
   <i type="logical" name="LNICSALL"> T  </i>
   <i type="logical" name="ORBITALMAG"> F  </i>
   <i type="logical" name="LMAGBLOCH"> F  </i>
   <i type="logical" name="LCHIMAG"> F  </i>
   <i type="logical" name="LGAUGE"> T  </i>
   <i type="int" name="MAGATOM">     0</i>
   <v name="MAGDIPOL">      0.00000000      0.00000000      0.00000000</v>
   <v name="AVECCONST">      0.00000000      0.00000000      0.00000000</v>
  </separator>
  <separator name="response functions" >
   <i type="logical" name="LADDER"> F  </i>
   <i type="logical" name="LRPAFORCE"> F  </i>
   <i type="logical" name="LFXC"> F  </i>
   <i type="logical" name="LHARTREE"> T  </i>
   <i type="int" name="IBSE">     0</i>
   <v type="int" name="KPOINT">    -1     0     0     0</v>
   <i type="logical" name="LTCTE"> F  </i>
   <i type="logical" name="LTETE"> F  </i>
   <i type="logical" name="LTRIPLET"> F  </i>
   <i type="logical" name="LFXCEPS"> F  </i>
   <i type="logical" name="LFXHEG"> F  </i>
   <i type="int" name="NATURALO">     2</i>
   <i type="logical" name="L2ORDER"> F  </i>
   <i type="logical" name="LMP2LT"> F  </i>
   <i type="logical" name="LUSEW"> F  </i>
   <i name="ENCUTGW">     -2.00000000</i>
   <i name="ENCUTGWSOFT">     -2.00000000</i>
   <i name="ENCUTLF">     -1.00000000</i>
   <i type="int" name="LMAXMP2">    -1</i>
   <i name="SCISSOR">      0.00000000</i>
   <i type="int" name="NOMEGA">     0</i>
   <i type="int" name="NOMEGAR">     0</i>
   <i type="int" name="NBANDSGW">    -1</i>
   <i type="int" name="NBANDSO">    -1</i>
   <i type="int" name="NBANDSV">    -1</i>
   <i type="int" name="NELM">     1</i>
   <i type="int" name="NELMHF">     1</i>
   <i type="int" name="DIM">     3</i>
   <i type="int" name="ANTIRES">     0</i>
   <i name="OMEGAMAX">    -30.00000000</i>
   <i name="OMEGAMIN">    -30.00000000</i>
   <i name="OMEGATL">   -200.00000000</i>
   <i type="int" name="OMEGAGRID">   140</i>
   <i name="CSHIFT">     -0.10000000</i>
   <i type="logical" name="SELFENERGY"> F  </i>
   <i type="logical" name="LSPECTRAL"> F  </i>
   <i type="logical" name="LSPECTRALGW"> F  </i>
   <i type="logical" name="LSINGLES"> F  </i>
   <i type="logical" name="LFERMIGW"> F  </i>
   <i type="logical" name="ODDONLYGW"> F  </i>
   <i type="logical" name="EVENONLYGW"> F  </i>
   <i type="int" name="NKREDLFX">     1</i>
   <i type="int" name="NKREDLFY">     1</i>
   <i type="int" name="NKREDLFZ">     1</i>
   <i type="int" name="MAXMEM">  2800</i>
   <i type="int" name="TELESCOPE">     0</i>
   <i type="int" name="TAUPAR">     1</i>
   <i type="int" name="OMEGAPAR">    -1</i>
   <i name="LAMBDA">      1.00000000</i>
  </separator>
  <separator name="External order field" >
   <i name="OFIELD_KAPPA">      0.00000000</i>
   <v name="OFIELD_K">      0.00000000      0.00000000      0.00000000</v>
   <i name="OFIELD_Q6_NEAR">      0.00000000</i>
   <i name="OFIELD_Q6_FAR">      0.00000000</i>
   <i name="OFIELD_A">      0.00000000</i>
  </separator>
 </parameters>
 <atominfo>
  <atoms>       3 </atoms>
  <types>       2 </types>
  <array name="atoms" >
   <dimension dim="1">ion</dimension>
   <field type="string">element</field>
   <field type="int">atomtype</field>
   <set>
    <rc><c>Mo</c><c>   1</c></rc>
    <rc><c>S </c><c>   2</c></rc>
    <rc><c>S </c><c>   2</c></rc>
   </set>
  </array>
  <array name="atomtypes" >
   <dimension dim="1">type</dimension>
   <field type="int">atomspertype</field>
   <field type="string">element</field>
   <field>mass</field>
   <field>valence</field>
   <field type="string">pseudopotential</field>
   <set>
    <rc><c>   1</c><c>Mo</c><c>     95.94000000</c><c>      6.00000000</c><c> PAW_PBE Mo 08Apr2002                   </c></rc>
    <rc><c>   2</c><c>S </c><c>     32.06600000</c><c>      6.00000000</c><c>  PAW_PBE S 17Jan2003                   </c></rc>
   </set>
  </array>
 </atominfo>
 <structure name="initialpos" >
  <crystal>
   <varray name="basis" >
    <v>       3.19031573       0.00000000       0.00000000 </v>
    <v>      -1.59515786       2.76289447       0.00000000 </v>
    <v>       0.00000000       0.00000000      44.87900430 </v>
   </varray>
   <i name="volume">    395.58623843 </i>
   <varray name="rec_basis" >
    <v>       0.31344860       0.18096963       0.00000000 </v>
    <v>       0.00000000       0.36193927       0.00000000 </v>
    <v>       0.00000000       0.00000000       0.02228213 </v>
   </varray>
  </crystal>
  <varray name="positions" >
   <v>       0.33333300       0.66666700       0.08288399 </v>
   <v>       0.66666700       0.33333300       0.04801503 </v>
   <v>       0.66666600       0.33333300       0.11775296 </v>
  </varray>
 </structure>
 <calculation>
  <scstep>
   <time name="dav">    0.18    0.18</time>
   <time name="total">    0.21    0.29</time>
   <energy>
    <i name="alphaZ">      7.49484938 </i>
    <i name="ewald">   9193.78907479 </i>
    <i name="hartreedc">  -9850.75048635 </i>
    <i name="XCdc">    -36.31055263 </i>
    <i name="pawpsdc">    406.88651198 </i>
    <i name="pawaedc">   -329.34073203 </i>
    <i name="eentropy">     -0.05688632 </i>
    <i name="bandstr">    -69.65720679 </i>
    <i name="atom">    771.06857575 </i>
    <i name="e_fr_energy">     93.12314778 </i>
    <i name="e_wo_entrp">     93.18003409 </i>
    <i name="e_0_energy">     93.15159094 </i>
   </energy>
  </scstep>
  <scstep>
   <time name="dav">    0.23    0.23</time>
   <time name="total">    0.23    0.23</time>
   <energy>
    <i name="e_fr_energy">    -10.82395622 </i>
    <i name="e_wo_entrp">    -10.82395622 </i>
    <i name="e_0_energy">    -10.82395622 </i>
   </energy>
  </scstep>
  <scstep>
   <time name="dav">    0.20    0.20</time>
   <time name="total">    0.20    0.20</time>
   <energy>
    <i name="e_fr_energy">    -23.13883432 </i>
    <i name="e_wo_entrp">    -23.13883432 </i>
    <i name="e_0_energy">    -23.13883432 </i>
   </energy>
  </scstep>
  <scstep>
   <time name="dav">    0.19    0.19</time>
   <time name="total">    0.19    0.19</time>
   <energy>
    <i name="e_fr_energy">    -23.36333631 </i>
    <i name="e_wo_entrp">    -23.36333631 </i>
    <i name="e_0_energy">    -23.36333631 </i>
   </energy>
  </scstep>
  <scstep>
   <time name="dav">    0.19    0.19</time>
   <time name="total">    0.20    0.21</time>
   <energy>
    <i name="e_fr_energy">    -23.36965536 </i>
    <i name="e_wo_entrp">    -23.36965536 </i>
    <i name="e_0_energy">    -23.36965536 </i>
   </energy>
  </scstep>
  <scstep>
   <time name="diag">    0.03    0.03</time>
   <time name="diis">    0.10    0.10</time>
   <time name="orth">    0.00    0.00</time>
   <time name="total">    0.17    0.17</time>
   <energy>
    <i name="e_fr_energy">    -22.20948764 </i>
    <i name="e_wo_entrp">    -22.20948761 </i>
    <i name="e_0_energy">    -22.20948763 </i>
   </energy>
  </scstep>
  <scstep>
   <time name="diag">    0.03    0.03</time>
   <time name="diis">    0.10    0.10</time>
   <time name="orth">    0.00    0.00</time>
   <time name="total">    0.17    0.17</time>
   <energy>
    <i name="e_fr_energy">    -21.82829264 </i>
    <i name="e_wo_entrp">    -21.82829264 </i>
    <i name="e_0_energy">    -21.82829264 </i>
   </energy>
  </scstep>
  <scstep>
   <time name="diag">    0.03    0.03</time>
   <time name="diis">    0.10    0.10</time>
   <time name="orth">    0.00    0.00</time>
   <time name="total">    0.17    0.17</time>
   <energy>
    <i name="e_fr_energy">    -21.76761070 </i>
    <i name="e_wo_entrp">    -21.76761070 </i>
    <i name="e_0_energy">    -21.76761070 </i>
   </energy>
  </scstep>
  <scstep>
   <time name="diag">    0.03    0.03</time>
   <time name="diis">    0.11    0.11</time>
   <time name="orth">    0.00    0.00</time>
   <time name="total">    0.18    0.19</time>
   <energy>
    <i name="e_fr_energy">    -21.76287420 </i>
    <i name="e_wo_entrp">    -21.76287420 </i>
    <i name="e_0_energy">    -21.76287420 </i>
   </energy>
  </scstep>
  <scstep>
   <time name="diag">    0.03    0.03</time>
   <time name="diis">    0.11    0.11</time>
   <time name="orth">    0.00    0.00</time>
   <time name="total">    0.19    0.19</time>
   <energy>
    <i name="e_fr_energy">    -21.76220496 </i>
    <i name="e_wo_entrp">    -21.76220496 </i>
    <i name="e_0_energy">    -21.76220496 </i>
   </energy>
  </scstep>
  <scstep>
   <time name="diag">    0.03    0.03</time>
   <time name="diis">    0.11    0.11</time>
   <time name="orth">    0.00    0.00</time>
   <time name="total">    0.18    0.18</time>
   <energy>
    <i name="e_fr_energy">    -21.76216230 </i>
    <i name="e_wo_entrp">    -21.76216230 </i>
    <i name="e_0_energy">    -21.76216230 </i>
   </energy>
  </scstep>
  <scstep>
   <time name="diag">    0.03    0.03</time>
   <time name="diis">    0.10    0.11</time>
   <time name="orth">    0.00    0.00</time>
   <time name="total">    0.18    0.18</time>
   <energy>
    <i name="e_fr_energy">    -21.76210848 </i>
    <i name="e_wo_entrp">    -21.76210848 </i>
    <i name="e_0_energy">    -21.76210848 </i>
   </energy>
  </scstep>
  <scstep>
   <time name="diag">    0.03    0.03</time>
   <time name="diis">    0.10    0.10</time>
   <time name="orth">    0.00    0.00</time>
   <time name="total">    0.17    0.17</time>
   <energy>
    <i name="e_fr_energy">    -21.76261870 </i>
    <i name="e_wo_entrp">    -21.76261870 </i>
    <i name="e_0_energy">    -21.76261870 </i>
   </energy>
  </scstep>
  <scstep>
   <time name="diag">    0.03    0.03</time>
   <time name="diis">    0.11    0.11</time>
   <time name="orth">    0.00    0.00</time>
   <time name="total">    0.18    0.18</time>
   <energy>
    <i name="e_fr_energy">    -21.76272683 </i>
    <i name="e_wo_entrp">    -21.76272683 </i>
    <i name="e_0_energy">    -21.76272683 </i>
   </energy>
  </scstep>
  <scstep>
   <time name="diag">    0.03    0.03</time>
   <time name="diis">    0.09    0.09</time>
   <time name="orth">    0.00    0.00</time>
   <time name="total">    0.17    0.17</time>
   <energy>
    <i name="e_fr_energy">    -21.76291288 </i>
    <i name="e_wo_entrp">    -21.76291288 </i>
    <i name="e_0_energy">    -21.76291288 </i>
   </energy>
  </scstep>
  <scstep>
   <time name="diag">    0.03    0.03</time>
   <time name="diis">    0.09    0.09</time>
   <time name="orth">    0.00    0.00</time>
   <time name="total">    0.16    0.16</time>
   <energy>
    <i name="e_fr_energy">    -21.76296040 </i>
    <i name="e_wo_entrp">    -21.76296040 </i>
    <i name="e_0_energy">    -21.76296040 </i>
   </energy>
  </scstep>
  <scstep>
   <time name="diag">    0.03    0.03</time>
   <time name="diis">    0.07    0.07</time>
   <time name="orth">    0.00    0.00</time>
   <time name="total">    0.15    0.15</time>
   <energy>
    <i name="e_fr_energy">    -21.76300300 </i>
    <i name="e_wo_entrp">    -21.76300300 </i>
    <i name="e_0_energy">    -21.76300300 </i>
   </energy>
  </scstep>
  <scstep>
   <time name="diag">    0.03    0.03</time>
   <time name="diis">    0.07    0.07</time>
   <time name="orth">    0.00    0.00</time>
   <time name="total">    0.14    0.14</time>
   <energy>
    <i name="e_fr_energy">    -21.76300586 </i>
    <i name="e_wo_entrp">    -21.76300586 </i>
    <i name="e_0_energy">    -21.76300586 </i>
   </energy>
  </scstep>
  <scstep>
   <time name="diag">    0.03    0.03</time>
   <time name="diis">    0.07    0.07</time>
   <time name="orth">    0.00    0.00</time>
   <time name="total">    0.14    0.14</time>
   <energy>
    <i name="e_fr_energy">    -21.76301157 </i>
    <i name="e_wo_entrp">    -21.76301157 </i>
    <i name="e_0_energy">    -21.76301157 </i>
   </energy>
  </scstep>
  <scstep>
   <time name="diag">    0.03    0.03</time>
   <time name="diis">    0.06    0.07</time>
   <time name="orth">    0.00    0.00</time>
   <time name="total">    0.12    0.12</time>
   <energy>
    <i name="alphaZ">      7.49484938 </i>
    <i name="ewald">   9193.78907479 </i>
    <i name="hartreedc">  -9864.98297341 </i>
    <i name="XCdc">    -35.17189765 </i>
    <i name="pawpsdc">    478.70083265 </i>
    <i name="pawaedc">   -402.89186705 </i>
    <i name="eentropy">     -0.00000000 </i>
    <i name="bandstr">   -169.76960678 </i>
    <i name="atom">    771.06857575 </i>
    <i name="e_fr_energy">    -21.76301233 </i>
    <i name="e_wo_entrp">    -21.76301233 </i>
    <i name="e_0_energy">    -21.76301233 </i>
   </energy>
  </scstep>
  <structure>
   <crystal>
    <varray name="basis" >
     <v>       3.19031573       0.00000000       0.00000000 </v>
     <v>      -1.59515786       2.76289447       0.00000000 </v>
     <v>       0.00000000       0.00000000      44.87900430 </v>
    </varray>
    <i name="volume">    395.58623843 </i>
    <varray name="rec_basis" >
     <v>       0.31344860       0.18096963       0.00000000 </v>
     <v>       0.00000000       0.36193927       0.00000000 </v>
     <v>       0.00000000       0.00000000       0.02228213 </v>
    </varray>
   </crystal>
   <varray name="positions" >
    <v>       0.33333300       0.66666700       0.08288399 </v>
    <v>       0.66666700       0.33333300       0.04801503 </v>
    <v>       0.66666600       0.33333300       0.11775296 </v>
   </varray>
  </structure>
  <varray name="forces" >
   <v>       0.00000000      -0.00000000       0.00000000 </v>
   <v>       0.00000000       0.00000000       0.10490693 </v>
   <v>      -0.00000000       0.00000000      -0.10490693 </v>
  </varray>
  <varray name="stress" >
   <v>      -2.39211920      -0.00000000       0.00000000 </v>
   <v>       0.00000000      -2.39211920       0.00000000 </v>
   <v>       0.00000000       0.00000000      -3.53390141 </v>
  </varray>
  <energy>
   <i name="e_fr_energy">    -22.35369612 </i>
   <i name="e_wo_entrp">    -22.35369612 </i>
   <i name="e_0_energy">     -0.00000000 </i>
  </energy>
  <time name="totalsc">    4.01    4.16</time>
  <eigenvalues>
   <array>
    <dimension dim="1">band</dimension>
    <dimension dim="2">kpoint</dimension>
    <dimension dim="3">spin</dimension>
    <field>eigene</field>
    <field>occ</field>
    <set>
     <set comment="spin 1">
      <set comment="kpoint 1">
       <r>  -18.4791    1.0000 </r>
       <r>  -17.2707    1.0000 </r>
       <r>   -9.9884    1.0000 </r>
       <r>   -7.0270    1.0000 </r>
       <r>   -7.0267    1.0000 </r>
       <r>   -6.1669    1.0000 </r>
       <r>   -5.9195    1.0000 </r>
       <r>   -5.9190    1.0000 </r>
       <r>   -4.4446    1.0000 </r>
       <r>   -1.6705    0.0000 </r>
       <r>   -1.6697    0.0000 </r>
       <r>   -1.4479    0.0000 </r>
       <r>   -1.4472    0.0000 </r>
       <r>    0.9561    0.0000 </r>
      </set>
      <set comment="kpoint 2">
       <r>  -18.2651    1.0000 </r>
       <r>  -17.1683    1.0000 </r>
       <r>   -9.7441    1.0000 </r>
       <r>   -7.4915    1.0000 </r>
       <r>   -6.9743    1.0000 </r>
       <r>   -6.7929    1.0000 </r>
       <r>   -6.2560    1.0000 </r>
       <r>   -5.4884    1.0000 </r>
       <r>   -4.5838    1.0000 </r>
       <r>   -1.9534    0.0000 </r>
       <r>   -1.8868    0.0000 </r>
       <r>   -1.6854    0.0000 </r>
       <r>   -1.3164    0.0000 </r>
       <r>    1.3213    0.0000 </r>
      </set>
      <set comment="kpoint 3">
       <r>  -17.6965    1.0000 </r>
       <r>  -16.8994    1.0000 </r>
       <r>   -9.3782    1.0000 </r>
       <r>   -8.2197    1.0000 </r>
       <r>   -7.9558    1.0000 </r>
       <r>   -6.8925    1.0000 </r>
       <r>   -6.2069    1.0000 </r>
       <r>   -5.7404    1.0000 </r>
       <r>   -5.1523    1.0000 </r>
       <r>   -2.2776    0.0000 </r>
       <r>   -2.1023    0.0000 </r>
       <r>   -1.5592    0.0000 </r>
       <r>   -0.7012    0.0000 </r>
       <r>    2.1494    0.0000 </r>
      </set>
      <set comment="kpoint 4">
       <r>  -17.0216    1.0000 </r>
       <r>  -16.5908    1.0000 </r>
       <r>   -9.8175    1.0000 </r>
       <r>   -8.8248    1.0000 </r>
       <r>   -8.3511    1.0000 </r>
       <r>   -7.3911    1.0000 </r>
       <r>   -6.1497    1.0000 </r>
       <r>   -5.6172    1.0000 </r>
       <r>   -5.3465    1.0000 </r>
       <r>   -2.2850    0.0000 </r>
       <r>   -2.0054    0.0000 </r>
       <r>   -0.8407    0.0000 </r>
       <r>   -0.3087    0.0000 </r>
       <r>    2.7154    0.0000 </r>
      </set>
      <set comment="kpoint 5">
       <r>  -16.6933    1.0000 </r>
       <r>  -16.4475    1.0000 </r>
       <r>  -10.1503    1.0000 </r>
       <r>   -9.1909    1.0000 </r>
       <r>   -8.4764    1.0000 </r>
       <r>   -7.5720    1.0000 </r>
       <r>   -6.2879    1.0000 </r>
       <r>   -5.3899    1.0000 </r>
       <r>   -5.0648    1.0000 </r>
       <r>   -2.2634    0.0000 </r>
       <r>   -1.7489    0.0000 </r>
       <r>   -0.5406    0.0000 </r>
       <r>   -0.1932    0.0000 </r>
       <r>    1.7615    0.0000 </r>
      </set>
      <set comment="kpoint 6">
       <r>  -17.8724    1.0000 </r>
       <r>  -16.9812    1.0000 </r>
       <r>   -9.3967    1.0000 </r>
       <r>   -8.0568    1.0000 </r>
       <r>   -7.5371    1.0000 </r>
       <r>   -7.0705    1.0000 </r>
       <r>   -6.4544    1.0000 </r>
       <r>   -5.3537    1.0000 </r>
       <r>   -4.9565    1.0000 </r>
       <r>   -2.3528    0.0000 </r>
       <r>   -1.9754    0.0000 </r>
       <r>   -1.9629    0.0000 </r>
       <r>   -0.7222    0.0000 </r>
       <r>    1.9237    0.0000 </r>
      </set>
      <set comment="kpoint 7">
       <r>  -17.2390    1.0000 </r>
       <r>  -16.6826    1.0000 </r>
       <r>   -9.4608    1.0000 </r>
       <r>   -8.4832    1.0000 </r>
       <r>   -8.2200    1.0000 </r>
       <r>   -7.5758    1.0000 </r>
       <r>   -6.3552    1.0000 </r>
       <r>   -5.7165    1.0000 </r>
       <r>   -5.2402    1.0000 </r>
       <r>   -2.4364    0.0000 </r>
       <r>   -1.9897    0.0000 </r>
       <r>   -1.4927    0.0000 </r>
       <r>   -0.2168    0.0000 </r>
       <r>    2.9023    0.0000 </r>
      </set>
      <set comment="kpoint 8">
       <r>  -16.7086    1.0000 </r>
       <r>  -16.4386    1.0000 </r>
       <r>   -9.8627    1.0000 </r>
       <r>   -9.2467    1.0000 </r>
       <r>   -8.3487    1.0000 </r>
       <r>   -7.5933    1.0000 </r>
       <r>   -6.3401    1.0000 </r>
       <r>   -6.1978    1.0000 </r>
       <r>   -4.9133    1.0000 </r>
       <r>   -2.2444    0.0000 </r>
       <r>   -1.7342    0.0000 </r>
       <r>   -0.8688    0.0000 </r>
       <r>   -0.1827    0.0000 </r>
       <r>    2.2872    0.0000 </r>
      </set>
      <set comment="kpoint 9">
       <r>  -16.7236    1.0000 </r>
       <r>  -16.4297    1.0000 </r>
       <r>   -9.5021    1.0000 </r>
       <r>   -9.2968    1.0000 </r>
       <r>   -8.0226    1.0000 </r>
       <r>   -7.6417    1.0000 </r>
       <r>   -7.3225    1.0000 </r>
       <r>   -6.0649    1.0000 </r>
       <r>   -4.9432    1.0000 </r>
       <r>   -2.2953    0.0000 </r>
       <r>   -1.6836    0.0000 </r>
       <r>   -1.3670    0.0000 </r>
       <r>    0.1015    0.0000 </r>
       <r>    3.1175    0.0000 </r>
      </set>
      <set comment="kpoint 10">
       <r>  -16.4887    1.0000 </r>
       <r>  -16.3107    1.0000 </r>
       <r>   -9.6815    1.0000 </r>
       <r>   -9.3329    1.0000 </r>
       <r>   -8.3060    1.0000 </r>
       <r>   -7.6440    1.0000 </r>
       <r>   -7.4157    1.0000 </r>
       <r>   -6.4505    1.0000 </r>
       <r>   -4.5759    1.0000 </r>
       <r>   -2.6218    0.0000 </r>
       <r>   -1.3062    0.0000 </r>
       <r>   -1.1341    0.0000 </r>
       <r>    0.2445    0.0000 </r>
       <r>    2.5306    0.0000 </r>
      </set>
     </set>
    </set>
   </array>
  </eigenvalues>
  <separator name="orbital magnetization" >
   <v name="MAGDIPOLOUT">      0.00000000      0.00000000      0.00000000</v>
  </separator>
  <dos>
   <i name="efermi">     -3.62000000 </i>
   <total>
    <array>
     <dimension dim="1">gridpoints</dimension>
     <dimension dim="2">spin</dimension>
     <field>energy</field>
     <field>total</field>
     <field>integrated</field>
     <set>
      <set comment="spin 1">
       <r>   -12.0000   400.0000     4.0000 </r>
       <r>   -11.9900     0.0000     4.0000 </r>
       <r>   -11.9800     0.0000     4.0000 </r>
       <r>   -11.9700     0.0000     4.0000 </r>
       <r>   -11.9600     0.0000     4.0000 </r>
       <r>   -11.9500     0.0000     4.0000 </r>
       <r>   -11.9400     0.0000     4.0000 </r>
       <r>   -11.9300     0.0000     4.0000 </r>
       <r>   -11.9200     0.0000     4.0000 </r>
       <r>   -11.9100     0.0000     4.0000 </r>
       <r>   -11.9000     0.0000     4.0000 </r>
       <r>   -11.8900     0.0000     4.0000 </r>
       <r>   -11.8800     0.0000     4.0000 </r>
       <r>   -11.8700     0.0000     4.0000 </r>
       <r>   -11.8600     0.0000     4.0000 </r>
       <r>   -11.8500     0.0000     4.0000 </r>
       <r>   -11.8400     0.0000     4.0000 </r>
       <r>   -11.8300     0.0000     4.0000 </r>
       <r>   -11.8200     0.0000     4.0000 </r>
       <r>   -11.8100     0.0000     4.0000 </r>
       <r>   -11.8000     0.0000     4.0000 </r>
       <r>   -11.7900     0.0000     4.0000 </r>
       <r>   -11.7800     0.0000     4.0000 </r>
       <r>   -11.7700     0.0000     4.0000 </r>
       <r>   -11.7600     0.0000     4.0000 </r>
       <r>   -11.7500     0.0000     4.0000 </r>
       <r>   -11.7400     0.0000     4.0000 </r>
       <r>   -11.7300     0.0000     4.0000 </r>
       <r>   -11.7200     0.0000     4.0000 </r>
       <r>   -11.7100     0.0000     4.0000 </r>
       <r>   -11.7000     0.0000     4.0000 </r>
       <r>   -11.6900     0.0000     4.0000 </r>
       <r>   -11.6800     0.0000     4.0000 </r>
       <r>   -11.6700     0.0000     4.0000 </r>
       <r>   -11.6600     0.0000     4.0000 </r>
       <r>   -11.6500     0.0000     4.0000 </r>
       <r>   -11.6400     0.0000     4.0000 </r>
       <r>   -11.6300     0.0000     4.0000 </r>
       <r>   -11.6200     0.0000     4.0000 </r>
       <r>   -11.6100     0.0000     4.0000 </r>
       <r>   -11.6000     0.0000     4.0000 </r>
       <r>   -11.5900     0.0000     4.0000 </r>
       <r>   -11.5800     0.0000     4.0000 </r>
       <r>   -11.5700     0.0000     4.0000 </r>
       <r>   -11.5600     0.0000     4.0000 </r>
       <r>   -11.5500     0.0000     4.0000 </r>
       <r>   -11.5400     0.0000     4.0000 </r>
       <r>   -11.5300     0.0000     4.0000 </r>
       <r>   -11.5200     0.0000     4.0000 </r>
       <r>   -11.5100     0.0000     4.0000 </r>
       <r>   -11.5000     0.0000     4.0000 </r>
       <r>   -11.4900     0.0000     4.0000 </r>
       <r>   -11.4800     0.0000     4.0000 </r>
       <r>   -11.4700     0.0000     4.0000 </r>
       <r>   -11.4600     0.0000     4.0000 </r>
       <r>   -11.4500     0.0000     4.0000 </r>
       <r>   -11.4400     0.0000     4.0000 </r>
       <r>   -11.4300     0.0000     4.0000 </r>
       <r>   -11.4200     0.0000     4.0000 </r>
       <r>   -11.4100     0.0000     4.0000 </r>
       <r>   -11.4000     0.0000     4.0000 </r>
       <r>   -11.3900     0.0000     4.0000 </r>
       <r>   -11.3800     0.0000     4.0000 </r>
       <r>   -11.3700     0.0000     4.0000 </r>
       <r>   -11.3600     0.0000     4.0000 </r>
       <r>   -11.3500     0.0000     4.0000 </r>
       <r>   -11.3400     0.0000     4.0000 </r>
       <r>   -11.3300     0.0000     4.0000 </r>
       <r>   -11.3200     0.0000     4.0000 </r>
       <r>   -11.3100     0.0000     4.0000 </r>
       <r>   -11.3000     0.0000     4.0000 </r>
       <r>   -11.2900     0.0000     4.0000 </r>
       <r>   -11.2800     0.0000     4.0000 </r>
       <r>   -11.2700     0.0000     4.0000 </r>
       <r>   -11.2600     0.0000     4.0000 </r>
       <r>   -11.2500     0.0000     4.0000 </r>
       <r>   -11.2400     0.0000     4.0000 </r>
       <r>   -11.2300     0.0000     4.0000 </r>
       <r>   -11.2200     0.0000     4.0000 </r>
       <r>   -11.2100     0.0000     4.0000 </r>
       <r>   -11.2000     0.0000     4.0000 </r>
       <r>   -11.1900     0.0000     4.0000 </r>
       <r>   -11.1800     0.0000     4.0000 </r>
       <r>   -11.1700     0.0000     4.0000 </r>
       <r>   -11.1600     0.0000     4.0000 </r>
       <r>   -11.1500     0.0000     4.0000 </r>
       <r>   -11.1400     0.0000     4.0000 </r>
       <r>   -11.1300     0.0000     4.0000 </r>
       <r>   -11.1200     0.0000     4.0000 </r>
       <r>   -11.1100     0.0000     4.0000 </r>
       <r>   -11.1000     0.0000     4.0000 </r>
       <r>   -11.0900     0.0000     4.0000 </r>
       <r>   -11.0800     0.0000     4.0000 </r>
       <r>   -11.0700     0.0000     4.0000 </r>
       <r>   -11.0600     0.0000     4.0000 </r>
       <r>   -11.0500     0.0000     4.0000 </r>
       <r>   -11.0400     0.0000     4.0000 </r>
       <r>   -11.0300     0.0000     4.0000 </r>
       <r>   -11.0200     0.0000     4.0000 </r>
       <r>   -11.0100     0.0000     4.0000 </r>
       <r>   -11.0000     0.0000     4.0000 </r>
       <r>   -10.9900     0.0000     4.0000 </r>
       <r>   -10.9800     0.0000     4.0000 </r>
       <r>   -10.9700     0.0000     4.0000 </r>
       <r>   -10.9600     0.0000     4.0000 </r>
       <r>   -10.9500     0.0000     4.0000 </r>
       <r>   -10.9400     0.0000     4.0000 </r>
       <r>   -10.9300     0.0000     4.0000 </r>
       <r>   -10.9200     0.0000     4.0000 </r>
       <r>   -10.9100     0.0000     4.0000 </r>
       <r>   -10.9000     0.0000     4.0000 </r>
       <r>   -10.8900     0.0000     4.0000 </r>
       <r>   -10.8800     0.0000     4.0000 </r>
       <r>   -10.8700     0.0000     4.0000 </r>
       <r>   -10.8600     0.0000     4.0000 </r>
       <r>   -10.8500     0.0000     4.0000 </r>
       <r>   -10.8400     0.0000     4.0000 </r>
       <r>   -10.8300     0.0000     4.0000 </r>
       <r>   -10.8200     0.0000     4.0000 </r>
       <r>   -10.8100     0.0000     4.0000 </r>
       <r>   -10.8000     0.0000     4.0000 </r>
       <r>   -10.7900     0.0000     4.0000 </r>
       <r>   -10.7800     0.0000     4.0000 </r>
       <r>   -10.7700     0.0000     4.0000 </r>
       <r>   -10.7600     0.0000     4.0000 </r>
       <r>   -10.7500     0.0000     4.0000 </r>
       <r>   -10.7400     0.0000     4.0000 </r>
       <r>   -10.7300     0.0001     4.0000 </r>
       <r>   -10.7200     0.0001     4.0000 </r>
       <r>   -10.7100     0.0001     4.0000 </r>
       <r>   -10.7000     0.0001     4.0000 </r>
       <r>   -10.6900     0.0002     4.0000 </r>
       <r>   -10.6800     0.0002     4.0000 </r>
       <r>   -10.6700     0.0003     4.0000 </r>
       <r>   -10.6600     0.0004     4.0000 </r>
       <r>   -10.6500     0.0005     4.0000 </r>
       <r>   -10.6400     0.0006     4.0000 </r>
       <r>   -10.6300     0.0007     4.0000 </r>
       <r>   -10.6200     0.0010     4.0000 </r>
       <r>   -10.6100     0.0012     4.0001 </r>
       <r>   -10.6000     0.0015     4.0001 </r>
       <r>   -10.5900     0.0019     4.0001 </r>
       <r>   -10.5800     0.0024     4.0001 </r>
       <r>   -10.5700     0.0029     4.0001 </r>
       <r>   -10.5600     0.0036     4.0002 </r>
       <r>   -10.5500     0.0045     4.0002 </r>
       <r>   -10.5400     0.0054     4.0003 </r>
       <r>   -10.5300     0.0066     4.0003 </r>
       <r>   -10.5200     0.0080     4.0004 </r>
       <r>   -10.5100     0.0096     4.0005 </r>
       <r>   -10.5000     0.0116     4.0006 </r>
       <r>   -10.4900     0.0138     4.0008 </r>
       <r>   -10.4800     0.0164     4.0009 </r>
       <r>   -10.4700     0.0193     4.0011 </r>
       <r>   -10.4600     0.0227     4.0014 </r>
       <r>   -10.4500     0.0266     4.0016 </r>
       <r>   -10.4400     0.0309     4.0019 </r>
       <r>   -10.4300     0.0358     4.0023 </r>
       <r>   -10.4200     0.0413     4.0027 </r>
       <r>   -10.4100     0.0474     4.0032 </r>
       <r>   -10.4000     0.0542     4.0037 </r>
       <r>   -10.3900     0.0617     4.0043 </r>
       <r>   -10.3800     0.0698     4.0050 </r>
       <r>   -10.3700     0.0787     4.0058 </r>
       <r>   -10.3600     0.0884     4.0067 </r>
       <r>   -10.3500     0.0988     4.0077 </r>
       <r>   -10.3400     0.1100     4.0088 </r>
       <r>   -10.3300     0.1219     4.0100 </r>
       <r>   -10.3200     0.1346     4.0114 </r>
       <r>   -10.3100     0.1480     4.0128 </r>
       <r>   -10.3000     0.1622     4.0145 </r>
       <r>   -10.2900     0.1771     4.0162 </r>
       <r>   -10.2800     0.1928     4.0182 </r>
       <r>   -10.2700     0.2091     4.0203 </r>
       <r>   -10.2600     0.2262     4.0225 </r>
       <r>   -10.2500     0.2439     4.0250 </r>
       <r>   -10.2400     0.2625     4.0276 </r>
       <r>   -10.2300     0.2818     4.0304 </r>
       <r>   -10.2200     0.3019     4.0334 </r>
       <r>   -10.2100     0.3229     4.0366 </r>
       <r>   -10.2000     0.3448     4.0401 </r>
       <r>   -10.1900     0.3679     4.0438 </r>
       <r>   -10.1800     0.3922     4.0477 </r>
       <r>   -10.1700     0.4178     4.0519 </r>
       <r>   -10.1600     0.4449     4.0563 </r>
       <r>   -10.1500     0.4738     4.0611 </r>
       <r>   -10.1400     0.5046     4.0661 </r>
       <r>   -10.1300     0.5375     4.0715 </r>
       <r>   -10.1200     0.5728     4.0772 </r>
       <r>   -10.1100     0.6107     4.0833 </r>
       <r>   -10.1000     0.6513     4.0898 </r>
       <r>   -10.0900     0.6950     4.0968 </r>
       <r>   -10.0800     0.7418     4.1042 </r>
       <r>   -10.0700     0.7919     4.1121 </r>
       <r>   -10.0600     0.8454     4.1206 </r>
       <r>   -10.0500     0.9024     4.1296 </r>
       <r>   -10.0400     0.9629     4.1392 </r>
       <r>   -10.0300     1.0268     4.1495 </r>
       <r>   -10.0200     1.0941     4.1604 </r>
       <r>   -10.0100     1.1644     4.1721 </r>
       <r>   -10.0000     1.2377     4.1844 </r>
       <r>    -9.9900     1.3135     4.1976 </r>
       <r>    -9.9800     1.3915     4.2115 </r>
       <r>    -9.9700     1.4712     4.2262 </r>
       <r>    -9.9600     1.5521     4.2417 </r>
       <r>    -9.9500     1.6336     4.2581 </r>
       <r>    -9.9400     1.7151     4.2752 </r>
       <r>    -9.9300     1.7960     4.2932 </r>
       <r>    -9.9200     1.8755     4.3119 </r>
       <r>    -9.9100     1.9531     4.3315 </r>
       <r>    -9.9000     2.0280     4.3517 </r>
       <r>    -9.8900     2.0996     4.3727 </r>
       <r>    -9.8800     2.1673     4.3944 </r>
       <r>    -9.8700     2.2306     4.4167 </r>
       <r>    -9.8600     2.2889     4.4396 </r>
       <r>    -9.8500     2.3419     4.4630 </r>
       <r>    -9.8400     2.3893     4.4869 </r>
       <r>    -9.8300     2.4308     4.5112 </r>
       <r>    -9.8200     2.4664     4.5359 </r>
       <r>    -9.8100     2.4960     4.5609 </r>
       <r>    -9.8000     2.5198     4.5861 </r>
       <r>    -9.7900     2.5381     4.6114 </r>
       <r>    -9.7800     2.5511     4.6369 </r>
       <r>    -9.7700     2.5594     4.6625 </r>
       <r>    -9.7600     2.5635     4.6882 </r>
       <r>    -9.7500     2.5641     4.7138 </r>
       <r>    -9.7400     2.5618     4.7394 </r>
       <r>    -9.7300     2.5576     4.7650 </r>
       <r>    -9.7200     2.5522     4.7905 </r>
       <r>    -9.7100     2.5466     4.8160 </r>
       <r>    -9.7000     2.5416     4.8414 </r>
       <r>    -9.6900     2.5381     4.8668 </r>
       <r>    -9.6800     2.5369     4.8922 </r>
       <r>    -9.6700     2.5390     4.9176 </r>
       <r>    -9.6600     2.5450     4.9430 </r>
       <r>    -9.6500     2.5557     4.9686 </r>
       <r>    -9.6400     2.5717     4.9943 </r>
       <r>    -9.6300     2.5934     5.0202 </r>
       <r>    -9.6200     2.6212     5.0464 </r>
       <r>    -9.6100     2.6555     5.0730 </r>
       <r>    -9.6000     2.6962     5.0999 </r>
       <r>    -9.5900     2.7435     5.1274 </r>
       <r>    -9.5800     2.7971     5.1553 </r>
       <r>    -9.5700     2.8568     5.1839 </r>
       <r>    -9.5600     2.9222     5.2131 </r>
       <r>    -9.5500     2.9928     5.2431 </r>
       <r>    -9.5400     3.0678     5.2737 </r>
       <r>    -9.5300     3.1466     5.3052 </r>
       <r>    -9.5200     3.2283     5.3375 </r>
       <r>    -9.5100     3.3120     5.3706 </r>
       <r>    -9.5000     3.3968     5.4046 </r>
       <r>    -9.4900     3.4815     5.4394 </r>
       <r>    -9.4800     3.5651     5.4750 </r>
       <r>    -9.4700     3.6467     5.5115 </r>
       <r>    -9.4600     3.7251     5.5488 </r>
       <r>    -9.4500     3.7993     5.5868 </r>
       <r>    -9.4400     3.8682     5.6254 </r>
       <r>    -9.4300     3.9310     5.6647 </r>
       <r>    -9.4200     3.9868     5.7046 </r>
       <r>    -9.4100     4.0347     5.7450 </r>
       <r>    -9.4000     4.0739     5.7857 </r>
       <r>    -9.3900     4.1039     5.8267 </r>
       <r>    -9.3800     4.1241     5.8680 </r>
       <r>    -9.3700     4.1339     5.9093 </r>
       <r>    -9.3600     4.1332     5.9506 </r>
       <r>    -9.3500     4.1216     5.9919 </r>
       <r>    -9.3400     4.0990     6.0329 </r>
       <r>    -9.3300     4.0654     6.0735 </r>
       <r>    -9.3200     4.0208     6.1137 </r>
       <r>    -9.3100     3.9655     6.1534 </r>
       <r>    -9.3000     3.8998     6.1924 </r>
       <r>    -9.2900     3.8240     6.2306 </r>
       <r>    -9.2800     3.7387     6.2680 </r>
       <r>    -9.2700     3.6444     6.3044 </r>
       <r>    -9.2600     3.5419     6.3399 </r>
       <r>    -9.2500     3.4317     6.3742 </r>
       <r>    -9.2400     3.3148     6.4073 </r>
       <r>    -9.2300     3.1920     6.4392 </r>
       <r>    -9.2200     3.0642     6.4699 </r>
       <r>    -9.2100     2.9324     6.4992 </r>
       <r>    -9.2000     2.7975     6.5272 </r>
       <r>    -9.1900     2.6605     6.5538 </r>
       <r>    -9.1800     2.5225     6.5790 </r>
       <r>    -9.1700     2.3843     6.6029 </r>
       <r>    -9.1600     2.2470     6.6253 </r>
       <r>    -9.1500     2.1115     6.6464 </r>
       <r>    -9.1400     1.9787     6.6662 </r>
       <r>    -9.1300     1.8494     6.6847 </r>
       <r>    -9.1200     1.7244     6.7020 </r>
       <r>    -9.1100     1.6044     6.7180 </r>
       <r>    -9.1000     1.4900     6.7329 </r>
       <r>    -9.0900     1.3817     6.7467 </r>
       <r>    -9.0800     1.2800     6.7595 </r>
       <r>    -9.0700     1.1852     6.7714 </r>
       <r>    -9.0600     1.0977     6.7824 </r>
       <r>    -9.0500     1.0175     6.7925 </r>
       <r>    -9.0400     0.9448     6.8020 </r>
       <r>    -9.0300     0.8795     6.8108 </r>
       <r>    -9.0200     0.8216     6.8190 </r>
       <r>    -9.0100     0.7709     6.8267 </r>
       <r>    -9.0000     0.7270     6.8340 </r>
       <r>    -8.9900     0.6898     6.8409 </r>
       <r>    -8.9800     0.6588     6.8475 </r>
       <r>    -8.9700     0.6336     6.8538 </r>
       <r>    -8.9600     0.6137     6.8599 </r>
       <r>    -8.9500     0.5987     6.8659 </r>
       <r>    -8.9400     0.5880     6.8718 </r>
       <r>    -8.9300     0.5811     6.8776 </r>
       <r>    -8.9200     0.5775     6.8834 </r>
       <r>    -8.9100     0.5767     6.8892 </r>
       <r>    -8.9000     0.5782     6.8949 </r>
       <r>    -8.8900     0.5815     6.9008 </r>
       <r>    -8.8800     0.5863     6.9066 </r>
       <r>    -8.8700     0.5922     6.9125 </r>
       <r>    -8.8600     0.5989     6.9185 </r>
       <r>    -8.8500     0.6061     6.9246 </r>
       <r>    -8.8400     0.6138     6.9307 </r>
       <r>    -8.8300     0.6217     6.9369 </r>
       <r>    -8.8200     0.6300     6.9432 </r>
       <r>    -8.8100     0.6386     6.9496 </r>
       <r>    -8.8000     0.6477     6.9561 </r>
       <r>    -8.7900     0.6575     6.9627 </r>
       <r>    -8.7800     0.6682     6.9694 </r>
       <r>    -8.7700     0.6801     6.9762 </r>
       <r>    -8.7600     0.6937     6.9831 </r>
       <r>    -8.7500     0.7093     6.9902 </r>
       <r>    -8.7400     0.7273     6.9975 </r>
       <r>    -8.7300     0.7484     7.0049 </r>
       <r>    -8.7200     0.7728     7.0127 </r>
       <r>    -8.7100     0.8011     7.0207 </r>
       <r>    -8.7000     0.8338     7.0290 </r>
       <r>    -8.6900     0.8712     7.0377 </r>
       <r>    -8.6800     0.9139     7.0469 </r>
       <r>    -8.6700     0.9620     7.0565 </r>
       <r>    -8.6600     1.0160     7.0667 </r>
       <r>    -8.6500     1.0760     7.0774 </r>
       <r>    -8.6400     1.1422     7.0888 </r>
       <r>    -8.6300     1.2147     7.1010 </r>
       <r>    -8.6200     1.2935     7.1139 </r>
       <r>    -8.6100     1.3785     7.1277 </r>
       <r>    -8.6000     1.4696     7.1424 </r>
       <r>    -8.5900     1.5664     7.1581 </r>
       <r>    -8.5800     1.6687     7.1748 </r>
       <r>    -8.5700     1.7761     7.1925 </r>
       <r>    -8.5600     1.8881     7.2114 </r>
       <r>    -8.5500     2.0041     7.2314 </r>
       <r>    -8.5400     2.1236     7.2527 </r>
       <r>    -8.5300     2.2458     7.2751 </r>
       <r>    -8.5200     2.3702     7.2988 </r>
       <r>    -8.5100     2.4959     7.3238 </r>
       <r>    -8.5000     2.6222     7.3500 </r>
       <r>    -8.4900     2.7483     7.3775 </r>
       <r>    -8.4800     2.8734     7.4062 </r>
       <r>    -8.4700     2.9968     7.4362 </r>
       <r>    -8.4600     3.1176     7.4674 </r>
       <r>    -8.4500     3.2350     7.4997 </r>
       <r>    -8.4400     3.3484     7.5332 </r>
       <r>    -8.4300     3.4568     7.5678 </r>
       <r>    -8.4200     3.5598     7.6034 </r>
       <r>    -8.4100     3.6565     7.6399 </r>
       <r>    -8.4000     3.7463     7.6774 </r>
       <r>    -8.3900     3.8288     7.7157 </r>
       <r>    -8.3800     3.9034     7.7547 </r>
       <r>    -8.3700     3.9696     7.7944 </r>
       <r>    -8.3600     4.0272     7.8347 </r>
       <r>    -8.3500     4.0758     7.8754 </r>
       <r>    -8.3400     4.1151     7.9166 </r>
       <r>    -8.3300     4.1451     7.9581 </r>
       <r>    -8.3200     4.1657     7.9997 </r>
       <r>    -8.3100     4.1770     8.0415 </r>
       <r>    -8.3000     4.1790     8.0833 </r>
       <r>    -8.2900     4.1720     8.1250 </r>
       <r>    -8.2800     4.1563     8.1666 </r>
       <r>    -8.2700     4.1322     8.2079 </r>
       <r>    -8.2600     4.1002     8.2489 </r>
       <r>    -8.2500     4.0607     8.2895 </r>
       <r>    -8.2400     4.0143     8.3296 </r>
       <r>    -8.2300     3.9617     8.3692 </r>
       <r>    -8.2200     3.9034     8.4083 </r>
       <r>    -8.2100     3.8400     8.4467 </r>
       <r>    -8.2000     3.7723     8.4844 </r>
       <r>    -8.1900     3.7009     8.5214 </r>
       <r>    -8.1800     3.6265     8.5577 </r>
       <r>    -8.1700     3.5495     8.5932 </r>
       <r>    -8.1600     3.4707     8.6279 </r>
       <r>    -8.1500     3.3905     8.6618 </r>
       <r>    -8.1400     3.3095     8.6949 </r>
       <r>    -8.1300     3.2280     8.7272 </r>
       <r>    -8.1200     3.1464     8.7586 </r>
       <r>    -8.1100     3.0650     8.7893 </r>
       <r>    -8.1000     2.9841     8.8191 </r>
       <r>    -8.0900     2.9039     8.8482 </r>
       <r>    -8.0800     2.8244     8.8764 </r>
       <r>    -8.0700     2.7459     8.9039 </r>
       <r>    -8.0600     2.6684     8.9305 </r>
       <r>    -8.0500     2.5921     8.9565 </r>
       <r>    -8.0400     2.5168     8.9816 </r>
       <r>    -8.0300     2.4429     9.0061 </r>
       <r>    -8.0200     2.3703     9.0298 </r>
       <r>    -8.0100     2.2992     9.0528 </r>
       <r>    -8.0000     2.2299     9.0751 </r>
       <r>    -7.9900     2.1625     9.0967 </r>
       <r>    -7.9800     2.0974     9.1177 </r>
       <r>    -7.9700     2.0350     9.1380 </r>
       <r>    -7.9600     1.9757     9.1578 </r>
       <r>    -7.9500     1.9200     9.1770 </r>
       <r>    -7.9400     1.8686     9.1956 </r>
       <r>    -7.9300     1.8221     9.2139 </r>
       <r>    -7.9200     1.7813     9.2317 </r>
       <r>    -7.9100     1.7468     9.2491 </r>
       <r>    -7.9000     1.7195     9.2663 </r>
       <r>    -7.8900     1.7001     9.2833 </r>
       <r>    -7.8800     1.6894     9.3002 </r>
       <r>    -7.8700     1.6883     9.3171 </r>
       <r>    -7.8600     1.6973     9.3341 </r>
       <r>    -7.8500     1.7172     9.3513 </r>
       <r>    -7.8400     1.7484     9.3687 </r>
       <r>    -7.8300     1.7914     9.3867 </r>
       <r>    -7.8200     1.8466     9.4051 </r>
       <r>    -7.8100     1.9140     9.4243 </r>
       <r>    -7.8000     1.9937     9.4442 </r>
       <r>    -7.7900     2.0855     9.4651 </r>
       <r>    -7.7800     2.1889     9.4869 </r>
       <r>    -7.7700     2.3036     9.5100 </r>
       <r>    -7.7600     2.4287     9.5343 </r>
       <r>    -7.7500     2.5633     9.5599 </r>
       <r>    -7.7400     2.7063     9.5870 </r>
       <r>    -7.7300     2.8564     9.6155 </r>
       <r>    -7.7200     3.0123     9.6457 </r>
       <r>    -7.7100     3.1723     9.6774 </r>
       <r>    -7.7000     3.3348     9.7107 </r>
       <r>    -7.6900     3.4980     9.7457 </r>
       <r>    -7.6800     3.6603     9.7823 </r>
       <r>    -7.6700     3.8196     9.8205 </r>
       <r>    -7.6600     3.9744     9.8602 </r>
       <r>    -7.6500     4.1227     9.9015 </r>
       <r>    -7.6400     4.2629     9.9441 </r>
       <r>    -7.6300     4.3934     9.9880 </r>
       <r>    -7.6200     4.5128    10.0332 </r>
       <r>    -7.6100     4.6197    10.0794 </r>
       <r>    -7.6000     4.7130    10.1265 </r>
       <r>    -7.5900     4.7918    10.1744 </r>
       <r>    -7.5800     4.8554    10.2230 </r>
       <r>    -7.5700     4.9032    10.2720 </r>
       <r>    -7.5600     4.9349    10.3213 </r>
       <r>    -7.5500     4.9504    10.3708 </r>
       <r>    -7.5400     4.9498    10.4203 </r>
       <r>    -7.5300     4.9334    10.4697 </r>
       <r>    -7.5200     4.9017    10.5187 </r>
       <r>    -7.5100     4.8553    10.5673 </r>
       <r>    -7.5000     4.7950    10.6152 </r>
       <r>    -7.4900     4.7216    10.6624 </r>
       <r>    -7.4800     4.6363    10.7088 </r>
       <r>    -7.4700     4.5401    10.7542 </r>
       <r>    -7.4600     4.4340    10.7985 </r>
       <r>    -7.4500     4.3194    10.8417 </r>
       <r>    -7.4400     4.1973    10.8837 </r>
       <r>    -7.4300     4.0691    10.9244 </r>
       <r>    -7.4200     3.9358    10.9637 </r>
       <r>    -7.4100     3.7986    11.0017 </r>
       <r>    -7.4000     3.6587    11.0383 </r>
       <r>    -7.3900     3.5172    11.0735 </r>
       <r>    -7.3800     3.3750    11.1072 </r>
       <r>    -7.3700     3.2332    11.1396 </r>
       <r>    -7.3600     3.0928    11.1705 </r>
       <r>    -7.3500     2.9545    11.2000 </r>
       <r>    -7.3400     2.8191    11.2282 </r>
       <r>    -7.3300     2.6876    11.2551 </r>
       <r>    -7.3200     2.5605    11.2807 </r>
       <r>    -7.3100     2.4385    11.3051 </r>
       <r>    -7.3000     2.3222    11.3283 </r>
       <r>    -7.2900     2.2122    11.3504 </r>
       <r>    -7.2800     2.1089    11.3715 </r>
       <r>    -7.2700     2.0126    11.3917 </r>
       <r>    -7.2600     1.9239    11.4109 </r>
       <r>    -7.2500     1.8429    11.4293 </r>
       <r>    -7.2400     1.7699    11.4470 </r>
       <r>    -7.2300     1.7050    11.4641 </r>
       <r>    -7.2200     1.6483    11.4806 </r>
       <r>    -7.2100     1.5998    11.4966 </r>
       <r>    -7.2000     1.5594    11.5121 </r>
       <r>    -7.1900     1.5269    11.5274 </r>
       <r>    -7.1800     1.5021    11.5424 </r>
       <r>    -7.1700     1.4847    11.5573 </r>
       <r>    -7.1600     1.4744    11.5720 </r>
       <r>    -7.1500     1.4707    11.5867 </r>
       <r>    -7.1400     1.4730    11.6015 </r>
       <r>    -7.1300     1.4809    11.6163 </r>
       <r>    -7.1200     1.4937    11.6312 </r>
       <r>    -7.1100     1.5108    11.6463 </r>
       <r>    -7.1000     1.5315    11.6616 </r>
       <r>    -7.0900     1.5552    11.6772 </r>
       <r>    -7.0800     1.5811    11.6930 </r>
       <r>    -7.0700     1.6085    11.7091 </r>
       <r>    -7.0600     1.6368    11.7254 </r>
       <r>    -7.0500     1.6652    11.7421 </r>
       <r>    -7.0400     1.6932    11.7590 </r>
       <r>    -7.0300     1.7202    11.7762 </r>
       <r>    -7.0200     1.7455    11.7937 </r>
       <r>    -7.0100     1.7686    11.8114 </r>
       <r>    -7.0000     1.7891    11.8293 </r>
       <r>    -6.9900     1.8065    11.8473 </r>
       <r>    -6.9800     1.8206    11.8655 </r>
       <r>    -6.9700     1.8309    11.8838 </r>
       <r>    -6.9600     1.8373    11.9022 </r>
       <r>    -6.9500     1.8396    11.9206 </r>
       <r>    -6.9400     1.8376    11.9390 </r>
       <r>    -6.9300     1.8313    11.9573 </r>
       <r>    -6.9200     1.8207    11.9755 </r>
       <r>    -6.9100     1.8059    11.9936 </r>
       <r>    -6.9000     1.7868    12.0114 </r>
       <r>    -6.8900     1.7638    12.0291 </r>
       <r>    -6.8800     1.7369    12.0464 </r>
       <r>    -6.8700     1.7065    12.0635 </r>
       <r>    -6.8600     1.6729    12.0802 </r>
       <r>    -6.8500     1.6363    12.0966 </r>
       <r>    -6.8400     1.5972    12.1126 </r>
       <r>    -6.8300     1.5561    12.1281 </r>
       <r>    -6.8200     1.5133    12.1433 </r>
       <r>    -6.8100     1.4694    12.1580 </r>
       <r>    -6.8000     1.4250    12.1722 </r>
       <r>    -6.7900     1.3805    12.1860 </r>
       <r>    -6.7800     1.3367    12.1994 </r>
       <r>    -6.7700     1.2941    12.2123 </r>
       <r>    -6.7600     1.2534    12.2249 </r>
       <r>    -6.7500     1.2152    12.2370 </r>
       <r>    -6.7400     1.1803    12.2488 </r>
       <r>    -6.7300     1.1493    12.2603 </r>
       <r>    -6.7200     1.1229    12.2715 </r>
       <r>    -6.7100     1.1018    12.2826 </r>
       <r>    -6.7000     1.0867    12.2934 </r>
       <r>    -6.6900     1.0782    12.3042 </r>
       <r>    -6.6800     1.0769    12.3150 </r>
       <r>    -6.6700     1.0833    12.3258 </r>
       <r>    -6.6600     1.0981    12.3368 </r>
       <r>    -6.6500     1.1217    12.3480 </r>
       <r>    -6.6400     1.1544    12.3595 </r>
       <r>    -6.6300     1.1966    12.3715 </r>
       <r>    -6.6200     1.2486    12.3840 </r>
       <r>    -6.6100     1.3104    12.3971 </r>
       <r>    -6.6000     1.3823    12.4109 </r>
       <r>    -6.5900     1.4641    12.4256 </r>
       <r>    -6.5800     1.5556    12.4411 </r>
       <r>    -6.5700     1.6568    12.4577 </r>
       <r>    -6.5600     1.7672    12.4754 </r>
       <r>    -6.5500     1.8863    12.4942 </r>
       <r>    -6.5400     2.0137    12.5144 </r>
       <r>    -6.5300     2.1487    12.5359 </r>
       <r>    -6.5200     2.2906    12.5588 </r>
       <r>    -6.5100     2.4384    12.5831 </r>
       <r>    -6.5000     2.5914    12.6091 </r>
       <r>    -6.4900     2.7485    12.6365 </r>
       <r>    -6.4800     2.9086    12.6656 </r>
       <r>    -6.4700     3.0708    12.6963 </r>
       <r>    -6.4600     3.2339    12.7287 </r>
       <r>    -6.4500     3.3967    12.7626 </r>
       <r>    -6.4400     3.5580    12.7982 </r>
       <r>    -6.4300     3.7168    12.8354 </r>
       <r>    -6.4200     3.8717    12.8741 </r>
       <r>    -6.4100     4.0218    12.9143 </r>
       <r>    -6.4000     4.1658    12.9560 </r>
       <r>    -6.3900     4.3028    12.9990 </r>
       <r>    -6.3800     4.4318    13.0433 </r>
       <r>    -6.3700     4.5518    13.0888 </r>
       <r>    -6.3600     4.6619    13.1355 </r>
       <r>    -6.3500     4.7614    13.1831 </r>
       <r>    -6.3400     4.8495    13.2316 </r>
       <r>    -6.3300     4.9257    13.2808 </r>
       <r>    -6.3200     4.9895    13.3307 </r>
       <r>    -6.3100     5.0403    13.3811 </r>
       <r>    -6.3000     5.0780    13.4319 </r>
       <r>    -6.2900     5.1023    13.4829 </r>
       <r>    -6.2800     5.1131    13.5341 </r>
       <r>    -6.2700     5.1103    13.5852 </r>
       <r>    -6.2600     5.0941    13.6361 </r>
       <r>    -6.2500     5.0646    13.6868 </r>
       <r>    -6.2400     5.0221    13.7370 </r>
       <r>    -6.2300     4.9670    13.7866 </r>
       <r>    -6.2200     4.8998    13.8356 </r>
       <r>    -6.2100     4.8210    13.8839 </r>
       <r>    -6.2000     4.7313    13.9312 </r>
       <r>    -6.1900     4.6314    13.9775 </r>
       <r>    -6.1800     4.5220    14.0227 </r>
       <r>    -6.1700     4.4042    14.0667 </r>
       <r>    -6.1600     4.2787    14.1095 </r>
       <r>    -6.1500     4.1466    14.1510 </r>
       <r>    -6.1400     4.0089    14.1911 </r>
       <r>    -6.1300     3.8667    14.2298 </r>
       <r>    -6.1200     3.7211    14.2670 </r>
       <r>    -6.1100     3.5732    14.3027 </r>
       <r>    -6.1000     3.4241    14.3369 </r>
       <r>    -6.0900     3.2749    14.3697 </r>
       <r>    -6.0800     3.1268    14.4010 </r>
       <r>    -6.0700     2.9808    14.4308 </r>
       <r>    -6.0600     2.8380    14.4591 </r>
       <r>    -6.0500     2.6995    14.4861 </r>
       <r>    -6.0400     2.5661    14.5118 </r>
       <r>    -6.0300     2.4388    14.5362 </r>
       <r>    -6.0200     2.3183    14.5594 </r>
       <r>    -6.0100     2.2056    14.5814 </r>
       <r>    -6.0000     2.1012    14.6024 </r>
       <r>    -5.9900     2.0057    14.6225 </r>
       <r>    -5.9800     1.9196    14.6417 </r>
       <r>    -5.9700     1.8434    14.6601 </r>
       <r>    -5.9600     1.7772    14.6779 </r>
       <r>    -5.9500     1.7212    14.6951 </r>
       <r>    -5.9400     1.6756    14.7119 </r>
       <r>    -5.9300     1.6402    14.7283 </r>
       <r>    -5.9200     1.6149    14.7444 </r>
       <r>    -5.9100     1.5995    14.7604 </r>
       <r>    -5.9000     1.5936    14.7763 </r>
       <r>    -5.8900     1.5966    14.7923 </r>
       <r>    -5.8800     1.6081    14.8084 </r>
       <r>    -5.8700     1.6274    14.8247 </r>
       <r>    -5.8600     1.6537    14.8412 </r>
       <r>    -5.8500     1.6862    14.8581 </r>
       <r>    -5.8400     1.7241    14.8753 </r>
       <r>    -5.8300     1.7665    14.8930 </r>
       <r>    -5.8200     1.8125    14.9111 </r>
       <r>    -5.8100     1.8610    14.9297 </r>
       <r>    -5.8000     1.9111    14.9488 </r>
       <r>    -5.7900     1.9619    14.9684 </r>
       <r>    -5.7800     2.0125    14.9886 </r>
       <r>    -5.7700     2.0620    15.0092 </r>
       <r>    -5.7600     2.1097    15.0303 </r>
       <r>    -5.7500     2.1548    15.0518 </r>
       <r>    -5.7400     2.1968    15.0738 </r>
       <r>    -5.7300     2.2350    15.0961 </r>
       <r>    -5.7200     2.2691    15.1188 </r>
       <r>    -5.7100     2.2989    15.1418 </r>
       <r>    -5.7000     2.3240    15.1651 </r>
       <r>    -5.6900     2.3445    15.1885 </r>
       <r>    -5.6800     2.3605    15.2121 </r>
       <r>    -5.6700     2.3721    15.2358 </r>
       <r>    -5.6600     2.3796    15.2596 </r>
       <r>    -5.6500     2.3833    15.2835 </r>
       <r>    -5.6400     2.3838    15.3073 </r>
       <r>    -5.6300     2.3816    15.3311 </r>
       <r>    -5.6200     2.3772    15.3549 </r>
       <r>    -5.6100     2.3713    15.3786 </r>
       <r>    -5.6000     2.3645    15.4022 </r>
       <r>    -5.5900     2.3575    15.4258 </r>
       <r>    -5.5800     2.3509    15.4493 </r>
       <r>    -5.5700     2.3453    15.4728 </r>
       <r>    -5.5600     2.3412    15.4962 </r>
       <r>    -5.5500     2.3392    15.5196 </r>
       <r>    -5.5400     2.3397    15.5430 </r>
       <r>    -5.5300     2.3431    15.5664 </r>
       <r>    -5.5200     2.3496    15.5899 </r>
       <r>    -5.5100     2.3594    15.6135 </r>
       <r>    -5.5000     2.3726    15.6372 </r>
       <r>    -5.4900     2.3892    15.6611 </r>
       <r>    -5.4800     2.4092    15.6852 </r>
       <r>    -5.4700     2.4323    15.7095 </r>
       <r>    -5.4600     2.4582    15.7341 </r>
       <r>    -5.4500     2.4868    15.7590 </r>
       <r>    -5.4400     2.5174    15.7842 </r>
       <r>    -5.4300     2.5498    15.8097 </r>
       <r>    -5.4200     2.5834    15.8355 </r>
       <r>    -5.4100     2.6177    15.8617 </r>
       <r>    -5.4000     2.6522    15.8882 </r>
       <r>    -5.3900     2.6863    15.9151 </r>
       <r>    -5.3800     2.7195    15.9423 </r>
       <r>    -5.3700     2.7512    15.9698 </r>
       <r>    -5.3600     2.7810    15.9976 </r>
       <r>    -5.3500     2.8084    16.0257 </r>
       <r>    -5.3400     2.8331    16.0540 </r>
       <r>    -5.3300     2.8547    16.0825 </r>
       <r>    -5.3200     2.8729    16.1113 </r>
       <r>    -5.3100     2.8875    16.1401 </r>
       <r>    -5.3000     2.8985    16.1691 </r>
       <r>    -5.2900     2.9057    16.1982 </r>
       <r>    -5.2800     2.9092    16.2273 </r>
       <r>    -5.2700     2.9092    16.2564 </r>
       <r>    -5.2600     2.9057    16.2854 </r>
       <r>    -5.2500     2.8992    16.3144 </r>
       <r>    -5.2400     2.8898    16.3433 </r>
       <r>    -5.2300     2.8781    16.3721 </r>
       <r>    -5.2200     2.8644    16.4007 </r>
       <r>    -5.2100     2.8491    16.4292 </r>
       <r>    -5.2000     2.8329    16.4576 </r>
       <r>    -5.1900     2.8161    16.4857 </r>
       <r>    -5.1800     2.7993    16.5137 </r>
       <r>    -5.1700     2.7830    16.5415 </r>
       <r>    -5.1600     2.7675    16.5692 </r>
       <r>    -5.1500     2.7534    16.5968 </r>
       <r>    -5.1400     2.7409    16.6242 </r>
       <r>    -5.1300     2.7303    16.6515 </r>
       <r>    -5.1200     2.7218    16.6787 </r>
       <r>    -5.1100     2.7156    16.7058 </r>
       <r>    -5.1000     2.7115    16.7330 </r>
       <r>    -5.0900     2.7095    16.7600 </r>
       <r>    -5.0800     2.7094    16.7871 </r>
       <r>    -5.0700     2.7109    16.8143 </r>
       <r>    -5.0600     2.7137    16.8414 </r>
       <r>    -5.0500     2.7172    16.8686 </r>
       <r>    -5.0400     2.7208    16.8958 </r>
       <r>    -5.0300     2.7241    16.9230 </r>
       <r>    -5.0200     2.7263    16.9503 </r>
       <r>    -5.0100     2.7268    16.9775 </r>
       <r>    -5.0000     2.7249    17.0048 </r>
       <r>    -4.9900     2.7200    17.0320 </r>
       <r>    -4.9800     2.7114    17.0591 </r>
       <r>    -4.9700     2.6986    17.0861 </r>
       <r>    -4.9600     2.6810    17.1129 </r>
       <r>    -4.9500     2.6584    17.1395 </r>
       <r>    -4.9400     2.6303    17.1658 </r>
       <r>    -4.9300     2.5968    17.1918 </r>
       <r>    -4.9200     2.5576    17.2173 </r>
       <r>    -4.9100     2.5130    17.2425 </r>
       <r>    -4.9000     2.4631    17.2671 </r>
       <r>    -4.8900     2.4084    17.2912 </r>
       <r>    -4.8800     2.3492    17.3147 </r>
       <r>    -4.8700     2.2861    17.3375 </r>
       <r>    -4.8600     2.2199    17.3597 </r>
       <r>    -4.8500     2.1513    17.3812 </r>
       <r>    -4.8400     2.0812    17.4021 </r>
       <r>    -4.8300     2.0103    17.4222 </r>
       <r>    -4.8200     1.9395    17.4416 </r>
       <r>    -4.8100     1.8696    17.4602 </r>
       <r>    -4.8000     1.8016    17.4783 </r>
       <r>    -4.7900     1.7361    17.4956 </r>
       <r>    -4.7800     1.6739    17.5124 </r>
       <r>    -4.7700     1.6155    17.5285 </r>
       <r>    -4.7600     1.5615    17.5441 </r>
       <r>    -4.7500     1.5122    17.5593 </r>
       <r>    -4.7400     1.4678    17.5739 </r>
       <r>    -4.7300     1.4286    17.5882 </r>
       <r>    -4.7200     1.3944    17.6022 </r>
       <r>    -4.7100     1.3651    17.6158 </r>
       <r>    -4.7000     1.3406    17.6292 </r>
       <r>    -4.6900     1.3205    17.6424 </r>
       <r>    -4.6800     1.3042    17.6555 </r>
       <r>    -4.6700     1.2913    17.6684 </r>
       <r>    -4.6600     1.2812    17.6812 </r>
       <r>    -4.6500     1.2731    17.6939 </r>
       <r>    -4.6400     1.2666    17.7066 </r>
       <r>    -4.6300     1.2608    17.7192 </r>
       <r>    -4.6200     1.2551    17.7318 </r>
       <r>    -4.6100     1.2489    17.7442 </r>
       <r>    -4.6000     1.2415    17.7567 </r>
       <r>    -4.5900     1.2324    17.7690 </r>
       <r>    -4.5800     1.2212    17.7812 </r>
       <r>    -4.5700     1.2074    17.7933 </r>
       <r>    -4.5600     1.1907    17.8052 </r>
       <r>    -4.5500     1.1710    17.8169 </r>
       <r>    -4.5400     1.1480    17.8284 </r>
       <r>    -4.5300     1.1217    17.8396 </r>
       <r>    -4.5200     1.0921    17.8505 </r>
       <r>    -4.5100     1.0594    17.8611 </r>
       <r>    -4.5000     1.0238    17.8713 </r>
       <r>    -4.4900     0.9855    17.8812 </r>
       <r>    -4.4800     0.9449    17.8906 </r>
       <r>    -4.4700     0.9022    17.8997 </r>
       <r>    -4.4600     0.8578    17.9082 </r>
       <r>    -4.4500     0.8122    17.9164 </r>
       <r>    -4.4400     0.7658    17.9240 </r>
       <r>    -4.4300     0.7190    17.9312 </r>
       <r>    -4.4200     0.6721    17.9379 </r>
       <r>    -4.4100     0.6256    17.9442 </r>
       <r>    -4.4000     0.5799    17.9500 </r>
       <r>    -4.3900     0.5351    17.9553 </r>
       <r>    -4.3800     0.4917    17.9603 </r>
       <r>    -4.3700     0.4499    17.9648 </r>
       <r>    -4.3600     0.4099    17.9688 </r>
       <r>    -4.3500     0.3719    17.9726 </r>
       <r>    -4.3400     0.3360    17.9759 </r>
       <r>    -4.3300     0.3023    17.9790 </r>
       <r>    -4.3200     0.2708    17.9817 </r>
       <r>    -4.3100     0.2416    17.9841 </r>
       <r>    -4.3000     0.2146    17.9862 </r>
       <r>    -4.2900     0.1899    17.9881 </r>
       <r>    -4.2800     0.1673    17.9898 </r>
       <r>    -4.2700     0.1469    17.9913 </r>
       <r>    -4.2600     0.1284    17.9925 </r>
       <r>    -4.2500     0.1117    17.9937 </r>
       <r>    -4.2400     0.0969    17.9946 </r>
       <r>    -4.2300     0.0837    17.9955 </r>
       <r>    -4.2200     0.0720    17.9962 </r>
       <r>    -4.2100     0.0617    17.9968 </r>
       <r>    -4.2000     0.0527    17.9973 </r>
       <r>    -4.1900     0.0448    17.9978 </r>
       <r>    -4.1800     0.0379    17.9982 </r>
       <r>    -4.1700     0.0320    17.9985 </r>
       <r>    -4.1600     0.0269    17.9987 </r>
       <r>    -4.1500     0.0225    17.9990 </r>
       <r>    -4.1400     0.0188    17.9992 </r>
       <r>    -4.1300     0.0156    17.9993 </r>
       <r>    -4.1200     0.0129    17.9994 </r>
       <r>    -4.1100     0.0106    17.9996 </r>
       <r>    -4.1000     0.0087    17.9996 </r>
       <r>    -4.0900     0.0071    17.9997 </r>
       <r>    -4.0800     0.0058    17.9998 </r>
       <r>    -4.0700     0.0047    17.9998 </r>
       <r>    -4.0600     0.0038    17.9999 </r>
       <r>    -4.0500     0.0031    17.9999 </r>
       <r>    -4.0400     0.0025    17.9999 </r>
       <r>    -4.0300     0.0020    17.9999 </r>
       <r>    -4.0200     0.0016    17.9999 </r>
       <r>    -4.0100     0.0012    18.0000 </r>
       <r>    -4.0000     0.0010    18.0000 </r>
       <r>    -3.9900     0.0008    18.0000 </r>
       <r>    -3.9800     0.0006    18.0000 </r>
       <r>    -3.9700     0.0005    18.0000 </r>
       <r>    -3.9600     0.0004    18.0000 </r>
       <r>    -3.9500     0.0003    18.0000 </r>
       <r>    -3.9400     0.0002    18.0000 </r>
       <r>    -3.9300     0.0002    18.0000 </r>
       <r>    -3.9200     0.0001    18.0000 </r>
       <r>    -3.9100     0.0001    18.0000 </r>
       <r>    -3.9000     0.0001    18.0000 </r>
       <r>    -3.8900     0.0001    18.0000 </r>
       <r>    -3.8800     0.0000    18.0000 </r>
       <r>    -3.8700     0.0000    18.0000 </r>
       <r>    -3.8600     0.0000    18.0000 </r>
       <r>    -3.8500     0.0000    18.0000 </r>
       <r>    -3.8400     0.0000    18.0000 </r>
       <r>    -3.8300     0.0000    18.0000 </r>
       <r>    -3.8200     0.0000    18.0000 </r>
       <r>    -3.8100     0.0000    18.0000 </r>
       <r>    -3.8000     0.0000    18.0000 </r>
       <r>    -3.7900     0.0000    18.0000 </r>
       <r>    -3.7800     0.0000    18.0000 </r>
       <r>    -3.7700     0.0000    18.0000 </r>
       <r>    -3.7600     0.0000    18.0000 </r>
       <r>    -3.7500     0.0000    18.0000 </r>
       <r>    -3.7400     0.0000    18.0000 </r>
       <r>    -3.7300     0.0000    18.0000 </r>
       <r>    -3.7200     0.0000    18.0000 </r>
       <r>    -3.7100     0.0000    18.0000 </r>
       <r>    -3.7000     0.0000    18.0000 </r>
       <r>    -3.6900     0.0000    18.0000 </r>
       <r>    -3.6800     0.0000    18.0000 </r>
       <r>    -3.6700     0.0000    18.0000 </r>
       <r>    -3.6600     0.0000    18.0000 </r>
       <r>    -3.6500     0.0000    18.0000 </r>
       <r>    -3.6400     0.0000    18.0000 </r>
       <r>    -3.6300     0.0000    18.0000 </r>
       <r>    -3.6200     0.0000    18.0000 </r>
       <r>    -3.6100     0.0000    18.0000 </r>
       <r>    -3.6000     0.0000    18.0000 </r>
       <r>    -3.5900     0.0000    18.0000 </r>
       <r>    -3.5800     0.0000    18.0000 </r>
       <r>    -3.5700     0.0000    18.0000 </r>
       <r>    -3.5600     0.0000    18.0000 </r>
       <r>    -3.5500     0.0000    18.0000 </r>
       <r>    -3.5400     0.0000    18.0000 </r>
       <r>    -3.5300     0.0000    18.0000 </r>
       <r>    -3.5200     0.0000    18.0000 </r>
       <r>    -3.5100     0.0000    18.0000 </r>
       <r>    -3.5000     0.0000    18.0000 </r>
       <r>    -3.4900     0.0000    18.0000 </r>
       <r>    -3.4800     0.0000    18.0000 </r>
       <r>    -3.4700     0.0000    18.0000 </r>
       <r>    -3.4600     0.0000    18.0000 </r>
       <r>    -3.4500     0.0000    18.0000 </r>
       <r>    -3.4400     0.0000    18.0000 </r>
       <r>    -3.4300     0.0000    18.0000 </r>
       <r>    -3.4200     0.0000    18.0000 </r>
       <r>    -3.4100     0.0000    18.0000 </r>
       <r>    -3.4000     0.0000    18.0000 </r>
       <r>    -3.3900     0.0000    18.0000 </r>
       <r>    -3.3800     0.0000    18.0000 </r>
       <r>    -3.3700     0.0000    18.0000 </r>
       <r>    -3.3600     0.0000    18.0000 </r>
       <r>    -3.3500     0.0000    18.0000 </r>
       <r>    -3.3400     0.0000    18.0000 </r>
       <r>    -3.3300     0.0000    18.0000 </r>
       <r>    -3.3200     0.0000    18.0000 </r>
       <r>    -3.3100     0.0000    18.0000 </r>
       <r>    -3.3000     0.0000    18.0000 </r>
       <r>    -3.2900     0.0000    18.0000 </r>
       <r>    -3.2800     0.0000    18.0000 </r>
       <r>    -3.2700     0.0000    18.0000 </r>
       <r>    -3.2600     0.0000    18.0000 </r>
       <r>    -3.2500     0.0000    18.0000 </r>
       <r>    -3.2400     0.0000    18.0000 </r>
       <r>    -3.2300     0.0000    18.0000 </r>
       <r>    -3.2200     0.0001    18.0000 </r>
       <r>    -3.2100     0.0001    18.0000 </r>
       <r>    -3.2000     0.0001    18.0000 </r>
       <r>    -3.1900     0.0001    18.0000 </r>
       <r>    -3.1800     0.0002    18.0000 </r>
       <r>    -3.1700     0.0003    18.0000 </r>
       <r>    -3.1600     0.0003    18.0000 </r>
       <r>    -3.1500     0.0004    18.0000 </r>
       <r>    -3.1400     0.0006    18.0000 </r>
       <r>    -3.1300     0.0007    18.0000 </r>
       <r>    -3.1200     0.0010    18.0000 </r>
       <r>    -3.1100     0.0012    18.0001 </r>
       <r>    -3.1000     0.0016    18.0001 </r>
       <r>    -3.0900     0.0020    18.0001 </r>
       <r>    -3.0800     0.0025    18.0001 </r>
       <r>    -3.0700     0.0032    18.0001 </r>
       <r>    -3.0600     0.0040    18.0002 </r>
       <r>    -3.0500     0.0049    18.0002 </r>
       <r>    -3.0400     0.0061    18.0003 </r>
       <r>    -3.0300     0.0076    18.0004 </r>
       <r>    -3.0200     0.0093    18.0005 </r>
       <r>    -3.0100     0.0114    18.0006 </r>
       <r>    -3.0000     0.0138    18.0007 </r>
       <r>    -2.9900     0.0167    18.0009 </r>
       <r>    -2.9800     0.0202    18.0011 </r>
       <r>    -2.9700     0.0242    18.0013 </r>
       <r>    -2.9600     0.0289    18.0016 </r>
       <r>    -2.9500     0.0344    18.0020 </r>
       <r>    -2.9400     0.0406    18.0024 </r>
       <r>    -2.9300     0.0479    18.0028 </r>
       <r>    -2.9200     0.0561    18.0034 </r>
       <r>    -2.9100     0.0655    18.0041 </r>
       <r>    -2.9000     0.0760    18.0048 </r>
       <r>    -2.8900     0.0879    18.0057 </r>
       <r>    -2.8800     0.1013    18.0067 </r>
       <r>    -2.8700     0.1161    18.0079 </r>
       <r>    -2.8600     0.1326    18.0092 </r>
       <r>    -2.8500     0.1507    18.0107 </r>
       <r>    -2.8400     0.1707    18.0124 </r>
       <r>    -2.8300     0.1925    18.0143 </r>
       <r>    -2.8200     0.2162    18.0165 </r>
       <r>    -2.8100     0.2419    18.0189 </r>
       <r>    -2.8000     0.2697    18.0216 </r>
       <r>    -2.7900     0.2996    18.0246 </r>
       <r>    -2.7800     0.3317    18.0279 </r>
       <r>    -2.7700     0.3660    18.0316 </r>
       <r>    -2.7600     0.4024    18.0356 </r>
       <r>    -2.7500     0.4412    18.0400 </r>
       <r>    -2.7400     0.4822    18.0448 </r>
       <r>    -2.7300     0.5256    18.0501 </r>
       <r>    -2.7200     0.5714    18.0558 </r>
       <r>    -2.7100     0.6195    18.0620 </r>
       <r>    -2.7000     0.6702    18.0687 </r>
       <r>    -2.6900     0.7234    18.0759 </r>
       <r>    -2.6800     0.7793    18.0837 </r>
       <r>    -2.6700     0.8379    18.0921 </r>
       <r>    -2.6600     0.8993    18.1011 </r>
       <r>    -2.6500     0.9637    18.1107 </r>
       <r>    -2.6400     1.0311    18.1211 </r>
       <r>    -2.6300     1.1018    18.1321 </r>
       <r>    -2.6200     1.1759    18.1438 </r>
       <r>    -2.6100     1.2534    18.1564 </r>
       <r>    -2.6000     1.3346    18.1697 </r>
       <r>    -2.5900     1.4196    18.1839 </r>
       <r>    -2.5800     1.5085    18.1990 </r>
       <r>    -2.5700     1.6013    18.2150 </r>
       <r>    -2.5600     1.6981    18.2320 </r>
       <r>    -2.5500     1.7990    18.2500 </r>
       <r>    -2.5400     1.9038    18.2690 </r>
       <r>    -2.5300     2.0126    18.2891 </r>
       <r>    -2.5200     2.1250    18.3104 </r>
[...]
        <r>  0.0072  0.0713  0.0134  0.0405  0.0000  0.0000  0.0000  0.0000  0.0000 </r>
        <r>  0.0072  0.0713  0.0134  0.0405  0.0000  0.0000  0.0000  0.0000  0.0000 </r>
       </set>
       <set comment="band 11">
        <r>  0.0059  0.0061  0.0000  0.0055  0.2851  0.0000  0.0991  0.0000  0.1012 </r>
        <r>  0.0007  0.0397  0.0049  0.0955  0.0000  0.0000  0.0000  0.0000  0.0000 </r>
        <r>  0.0007  0.0397  0.0049  0.0955  0.0000  0.0000  0.0000  0.0000  0.0000 </r>
       </set>
       <set comment="band 12">
        <r>  0.0000  0.0000  0.0002  0.0000  0.0000  0.2432  0.0000  0.3034  0.0000 </r>
        <r>  0.0257  0.0395  0.0135  0.0145  0.0000  0.0000  0.0000  0.0000  0.0000 </r>
        <r>  0.0257  0.0395  0.0135  0.0145  0.0000  0.0000  0.0000  0.0000  0.0000 </r>
       </set>
       <set comment="band 13">
        <r>  0.0000  0.0000  0.0027  0.0000  0.0000  0.2525  0.0000  0.1916  0.0000 </r>
        <r>  0.0025  0.0406  0.0086  0.1196  0.0000  0.0000  0.0000  0.0000  0.0000 </r>
        <r>  0.0025  0.0406  0.0086  0.1196  0.0000  0.0000  0.0000  0.0000  0.0000 </r>
       </set>
       <set comment="band 14">
        <r>  0.0067  0.0033  0.0001  0.0016  0.0013  0.0004  0.0187  0.0002  0.0031 </r>
        <r>  0.0074  0.0060  0.0112  0.0019  0.0000  0.0000  0.0000  0.0000  0.0000 </r>
        <r>  0.0051  0.0038  0.0016  0.0016  0.0000  0.0000  0.0000  0.0000  0.0000 </r>
       </set>
      </set>
      <set comment="kpoint 7">
       <set comment="band 1">
        <r>  0.0576  0.0184  0.0000  0.0166  0.0142  0.0000  0.0008  0.0000  0.0116 </r>
        <r>  0.3024  0.0013  0.0053  0.0010  0.0000  0.0000  0.0000  0.0000  0.0000 </r>
        <r>  0.3024  0.0013  0.0053  0.0010  0.0000  0.0000  0.0000  0.0000  0.0000 </r>
       </set>
       <set comment="band 2">
        <r>  0.0000  0.0000  0.0239  0.0000  0.0000  0.0400  0.0000  0.0372  0.0000 </r>
        <r>  0.3250  0.0007  0.0018  0.0006  0.0000  0.0000  0.0000  0.0000  0.0000 </r>
        <r>  0.3250  0.0007  0.0018  0.0006  0.0000  0.0000  0.0000  0.0000  0.0000 </r>
       </set>
       <set comment="band 3">
        <r>  0.0219  0.0058  0.0000  0.0251  0.1216  0.0000  0.0656  0.0000  0.1287 </r>
        <r>  0.0017  0.0523  0.0478  0.0482  0.0000  0.0000  0.0000  0.0000  0.0000 </r>
        <r>  0.0017  0.0523  0.0478  0.0482  0.0000  0.0000  0.0000  0.0000  0.0000 </r>
       </set>
       <set comment="band 4">
        <r>  0.0000  0.0000  0.0208  0.0000  0.0000  0.0062  0.0000  0.2846  0.0000 </r>
        <r>  0.0062  0.0662  0.0150  0.0979  0.0000  0.0000  0.0000  0.0000  0.0000 </r>
        <r>  0.0062  0.0662  0.0150  0.0979  0.0000  0.0000  0.0000  0.0000  0.0000 </r>
       </set>
       <set comment="band 5">
        <r>  0.1216  0.0191  0.0000  0.0235  0.0287  0.0000  0.0522  0.0000  0.0057 </r>
        <r>  0.0328  0.0238  0.1106  0.0311  0.0000  0.0000  0.0000  0.0000  0.0000 </r>
        <r>  0.0328  0.0238  0.1106  0.0311  0.0000  0.0000  0.0000  0.0000  0.0000 </r>
       </set>
       <set comment="band 6">
        <r>  0.0000  0.0000  0.0056  0.0000  0.0000  0.3935  0.0000  0.0047  0.0000 </r>
        <r>  0.0029  0.0868  0.0506  0.0342  0.0000  0.0000  0.0000  0.0000  0.0000 </r>
        <r>  0.0029  0.0869  0.0506  0.0342  0.0000  0.0000  0.0000  0.0000  0.0000 </r>
       </set>
       <set comment="band 7">
        <r>  0.0135  0.0434  0.0000  0.0225  0.0265  0.0000  0.1134  0.0000  0.1178 </r>
        <r>  0.0016  0.0793  0.0035  0.0967  0.0000  0.0000  0.0000  0.0000  0.0000 </r>
        <r>  0.0016  0.0793  0.0035  0.0967  0.0000  0.0000  0.0000  0.0000  0.0000 </r>
       </set>
       <set comment="band 8">
        <r>  0.0000  0.0000  0.0647  0.0000  0.0000  0.0064  0.0000  0.0674  0.0000 </r>
        <r>  0.0087  0.0383  0.1534  0.0651  0.0000  0.0000  0.0000  0.0000  0.0000 </r>
        <r>  0.0087  0.0383  0.1534  0.0651  0.0000  0.0000  0.0000  0.0000  0.0000 </r>
       </set>
       <set comment="band 9">
        <r>  0.0025  0.0077  0.0000  0.0016  0.2466  0.0000  0.2342  0.0000  0.1593 </r>
        <r>  0.0043  0.0375  0.0216  0.0219  0.0000  0.0000  0.0000  0.0000  0.0000 </r>
        <r>  0.0043  0.0375  0.0216  0.0219  0.0000  0.0000  0.0000  0.0000  0.0000 </r>
       </set>
       <set comment="band 10">
        <r>  0.0080  0.0088  0.0000  0.0051  0.1225  0.0000  0.0882  0.0000  0.3459 </r>
        <r>  0.0034  0.0445  0.0233  0.0137  0.0000  0.0000  0.0000  0.0000  0.0000 </r>
        <r>  0.0034  0.0445  0.0233  0.0137  0.0000  0.0000  0.0000  0.0000  0.0000 </r>
       </set>
       <set comment="band 11">
        <r>  0.0114  0.0028  0.0000  0.0006  0.3143  0.0000  0.3114  0.0000  0.0885 </r>
        <r>  0.0004  0.0205  0.0071  0.0399  0.0000  0.0000  0.0000  0.0000  0.0000 </r>
        <r>  0.0004  0.0205  0.0071  0.0399  0.0000  0.0000  0.0000  0.0000  0.0000 </r>
       </set>
       <set comment="band 12">
        <r>  0.0000  0.0000  0.0065  0.0000  0.0000  0.1058  0.0000  0.4326  0.0000 </r>
        <r>  0.0211  0.0366  0.0268  0.0058  0.0000  0.0000  0.0000  0.0000  0.0000 </r>
        <r>  0.0211  0.0366  0.0268  0.0058  0.0000  0.0000  0.0000  0.0000  0.0000 </r>
       </set>
       <set comment="band 13">
        <r>  0.0000  0.0000  0.0026  0.0000  0.0000  0.3983  0.0000  0.0885  0.0000 </r>
        <r>  0.0083  0.0430  0.0288  0.0702  0.0000  0.0000  0.0000  0.0000  0.0000 </r>
        <r>  0.0083  0.0430  0.0288  0.0702  0.0000  0.0000  0.0000  0.0000  0.0000 </r>
       </set>
       <set comment="band 14">
        <r>  0.0019  0.0108  0.0000  0.0159  0.0051  0.0000  0.0143  0.0000  0.0089 </r>
        <r>  0.0088  0.0052  0.0059  0.0012  0.0000  0.0000  0.0000  0.0000  0.0000 </r>
        <r>  0.0089  0.0053  0.0064  0.0013  0.0000  0.0000  0.0000  0.0000  0.0000 </r>
       </set>
      </set>
      <set comment="kpoint 8">
       <set comment="band 1">
        <r>  0.0208  0.0185  0.0000  0.0307  0.0314  0.0000  0.0003  0.0000  0.0158 </r>
        <r>  0.3194  0.0004  0.0059  0.0003  0.0000  0.0000  0.0000  0.0000  0.0000 </r>
        <r>  0.3195  0.0004  0.0059  0.0003  0.0000  0.0000  0.0000  0.0000  0.0000 </r>
       </set>
       <set comment="band 2">
        <r>  0.0000  0.0000  0.0071  0.0000  0.0000  0.0407  0.0000  0.0721  0.0000 </r>
        <r>  0.3311  0.0003  0.0027  0.0003  0.0000  0.0000  0.0000  0.0000  0.0000 </r>
        <r>  0.3310  0.0003  0.0027  0.0003  0.0000  0.0000  0.0000  0.0000  0.0000 </r>
       </set>
       <set comment="band 3">
        <r>  0.1026  0.0024  0.0000  0.0266  0.0645  0.0000  0.0342  0.0000  0.0433 </r>
        <r>  0.0043  0.0508  0.0087  0.1020  0.0000  0.0000  0.0000  0.0000  0.0000 </r>
        <r>  0.0043  0.0508  0.0087  0.1020  0.0000  0.0000  0.0000  0.0000  0.0000 </r>
       </set>
       <set comment="band 4">
        <r>  0.0000  0.0000  0.0350  0.0000  0.0000  0.0692  0.0000  0.1795  0.0000 </r>
        <r>  0.0071  0.0573  0.0054  0.1113  0.0000  0.0000  0.0000  0.0000  0.0000 </r>
        <r>  0.0071  0.0573  0.0054  0.1113  0.0000  0.0000  0.0000  0.0000  0.0000 </r>
       </set>
       <set comment="band 5">
        <r>  0.0162  0.0240  0.0000  0.0179  0.1402  0.0000  0.0904  0.0000  0.0527 </r>
        <r>  0.0206  0.0058  0.1295  0.0199  0.0000  0.0000  0.0000  0.0000  0.0000 </r>
        <r>  0.0206  0.0058  0.1295  0.0199  0.0000  0.0000  0.0000  0.0000  0.0000 </r>
       </set>
       <set comment="band 6">
        <r>  0.0000  0.0000  0.0256  0.0000  0.0000  0.3184  0.0000  0.0261  0.0000 </r>
        <r>  0.0020  0.1085  0.0279  0.0475  0.0000  0.0000  0.0000  0.0000  0.0000 </r>
        <r>  0.0020  0.1085  0.0279  0.0475  0.0000  0.0000  0.0000  0.0000  0.0000 </r>
       </set>
       <set comment="band 7">
        <r>  0.0233  0.0416  0.0000  0.0489  0.0014  0.0000  0.0710  0.0000  0.0230 </r>
        <r>  0.0063  0.1215  0.0320  0.0561  0.0000  0.0000  0.0000  0.0000  0.0000 </r>
        <r>  0.0063  0.1215  0.0320  0.0561  0.0000  0.0000  0.0000  0.0000  0.0000 </r>
       </set>
       <set comment="band 8">
        <r>  0.0000  0.0000  0.0363  0.0000  0.0000  0.0160  0.0000  0.1501  0.0000 </r>
        <r>  0.0118  0.0171  0.1757  0.0390  0.0000  0.0000  0.0000  0.0000  0.0000 </r>
        <r>  0.0118  0.0171  0.1757  0.0390  0.0000  0.0000  0.0000  0.0000  0.0000 </r>
       </set>
       <set comment="band 9">
        <r>  0.0034  0.0196  0.0000  0.0198  0.1839  0.0000  0.1603  0.0000  0.1971 </r>
        <r>  0.0008  0.0478  0.0257  0.0262  0.0000  0.0000  0.0000  0.0000  0.0000 </r>
        <r>  0.0008  0.0478  0.0257  0.0262  0.0000  0.0000  0.0000  0.0000  0.0000 </r>
       </set>
       <set comment="band 10">
        <r>  0.0051  0.0091  0.0000  0.0018  0.0649  0.0000  0.3343  0.0000  0.3774 </r>
        <r>  0.0002  0.0266  0.0149  0.0068  0.0000  0.0000  0.0000  0.0000  0.0000 </r>
        <r>  0.0002  0.0266  0.0149  0.0068  0.0000  0.0000  0.0000  0.0000  0.0000 </r>
       </set>
       <set comment="band 11">
        <r>  0.0154  0.0057  0.0000  0.0107  0.3790  0.0000  0.2182  0.0000  0.1808 </r>
        <r>  0.0021  0.0014  0.0171  0.0181  0.0000  0.0000  0.0000  0.0000  0.0000 </r>
        <r>  0.0021  0.0014  0.0171  0.0181  0.0000  0.0000  0.0000  0.0000  0.0000 </r>
       </set>
       <set comment="band 12">
        <r>  0.0000  0.0000  0.0063  0.0000  0.0000  0.1640  0.0000  0.3324  0.0000 </r>
        <r>  0.0091  0.0683  0.0151  0.0162  0.0000  0.0000  0.0000  0.0000  0.0000 </r>
        <r>  0.0091  0.0683  0.0151  0.0162  0.0000  0.0000  0.0000  0.0000  0.0000 </r>
       </set>
       <set comment="band 13">
        <r>  0.0000  0.0000  0.0004  0.0000  0.0000  0.3331  0.0000  0.1445  0.0000 </r>
        <r>  0.0189  0.0144  0.0666  0.0290  0.0000  0.0000  0.0000  0.0000  0.0000 </r>
        <r>  0.0190  0.0144  0.0665  0.0290  0.0000  0.0000  0.0000  0.0000  0.0000 </r>
       </set>
       <set comment="band 14">
        <r>  0.1877  0.0089  0.0000  0.0533  0.0403  0.0000  0.0061  0.0000  0.0387 </r>
        <r>  0.0001  0.0013  0.0115  0.0051  0.0000  0.0000  0.0000  0.0000  0.0000 </r>
        <r>  0.0001  0.0013  0.0115  0.0051  0.0000  0.0000  0.0000  0.0000  0.0000 </r>
       </set>
      </set>
      <set comment="kpoint 9">
       <set comment="band 1">
        <r>  0.0218  0.0321  0.0000  0.0178  0.0177  0.0000  0.0004  0.0000  0.0266 </r>
        <r>  0.3182  0.0009  0.0058  0.0003  0.0000  0.0000  0.0000  0.0000  0.0000 </r>
        <r>  0.3183  0.0009  0.0058  0.0003  0.0000  0.0000  0.0000  0.0000  0.0000 </r>
       </set>
       <set comment="band 2">
        <r>  0.0000  0.0000  0.0084  0.0000  0.0000  0.0705  0.0000  0.0375  0.0000 </r>
        <r>  0.3319  0.0005  0.0027  0.0002  0.0000  0.0000  0.0000  0.0000  0.0000 </r>
        <r>  0.3318  0.0005  0.0027  0.0002  0.0000  0.0000  0.0000  0.0000  0.0000 </r>
       </set>
       <set comment="band 3">
        <r>  0.0650  0.0098  0.0000  0.0293  0.0359  0.0000  0.0616  0.0000  0.1071 </r>
        <r>  0.0004  0.1066  0.0171  0.0360  0.0000  0.0000  0.0000  0.0000  0.0000 </r>
        <r>  0.0004  0.1067  0.0171  0.0360  0.0000  0.0000  0.0000  0.0000  0.0000 </r>
       </set>
       <set comment="band 4">
        <r>  0.0000  0.0000  0.0084  0.0000  0.0000  0.1284  0.0000  0.2208  0.0000 </r>
        <r>  0.0041  0.0958  0.0001  0.0665  0.0000  0.0000  0.0000  0.0000  0.0000 </r>
        <r>  0.0041  0.0958  0.0001  0.0665  0.0000  0.0000  0.0000  0.0000  0.0000 </r>
       </set>
       <set comment="band 5">
        <r>  0.0785  0.0205  0.0000  0.0103  0.0692  0.0000  0.0001  0.0000  0.0673 </r>
        <r>  0.0340  0.0203  0.1496  0.0150  0.0000  0.0000  0.0000  0.0000  0.0000 </r>
        <r>  0.0340  0.0203  0.1496  0.0150  0.0000  0.0000  0.0000  0.0000  0.0000 </r>
       </set>
       <set comment="band 6">
        <r>  0.0000  0.0000  0.0470  0.0000  0.0000  0.1650  0.0000  0.0582  0.0000 </r>
        <r>  0.0039  0.0671  0.0535  0.0781  0.0000  0.0000  0.0000  0.0000  0.0000 </r>
        <r>  0.0039  0.0671  0.0535  0.0781  0.0000  0.0000  0.0000  0.0000  0.0000 </r>
       </set>
       <set comment="band 7">
        <r>  0.0102  0.0636  0.0000  0.0362  0.0089  0.0000  0.1207  0.0000  0.0185 </r>
        <r>  0.0005  0.0419  0.0089  0.1233  0.0000  0.0000  0.0000  0.0000  0.0000 </r>
        <r>  0.0005  0.0419  0.0089  0.1233  0.0000  0.0000  0.0000  0.0000  0.0000 </r>
       </set>
       <set comment="band 8">
        <r>  0.0000  0.0000  0.0523  0.0000  0.0000  0.0593  0.0000  0.0754  0.0000 </r>
        <r>  0.0130  0.0383  0.1560  0.0459  0.0000  0.0000  0.0000  0.0000  0.0000 </r>
        <r>  0.0130  0.0383  0.1560  0.0459  0.0000  0.0000  0.0000  0.0000  0.0000 </r>
       </set>
       <set comment="band 9">
        <r>  0.0074  0.0001  0.0000  0.0000  0.2536  0.0000  0.1475  0.0000  0.2690 </r>
        <r>  0.0010  0.0277  0.0016  0.0449  0.0000  0.0000  0.0000  0.0000  0.0000 </r>
        <r>  0.0010  0.0277  0.0016  0.0449  0.0000  0.0000  0.0000  0.0000  0.0000 </r>
       </set>
       <set comment="band 10">
        <r>  0.0074  0.0139  0.0000  0.0052  0.0464  0.0000  0.5215  0.0000  0.1099 </r>
        <r>  0.0006  0.0275  0.0274  0.0128  0.0000  0.0000  0.0000  0.0000  0.0000 </r>
        <r>  0.0006  0.0275  0.0274  0.0128  0.0000  0.0000  0.0000  0.0000  0.0000 </r>
       </set>
       <set comment="band 11">
        <r>  0.0246  0.0117  0.0000  0.0045  0.4757  0.0000  0.0544  0.0000  0.2307 </r>
        <r>  0.0023  0.0029  0.0261  0.0081  0.0000  0.0000  0.0000  0.0000  0.0000 </r>
        <r>  0.0023  0.0029  0.0261  0.0081  0.0000  0.0000  0.0000  0.0000  0.0000 </r>
       </set>
       <set comment="band 12">
        <r>  0.0000  0.0000  0.0020  0.0000  0.0000  0.1394  0.0000  0.3940  0.0000 </r>
        <r>  0.0076  0.0257  0.0088  0.0394  0.0000  0.0000  0.0000  0.0000  0.0000 </r>
        <r>  0.0076  0.0257  0.0088  0.0394  0.0000  0.0000  0.0000  0.0000  0.0000 </r>
       </set>
       <set comment="band 13">
        <r>  0.0000  0.0000  0.0016  0.0000  0.0000  0.3945  0.0000  0.1490  0.0000 </r>
        <r>  0.0208  0.0094  0.0755  0.0247  0.0000  0.0000  0.0000  0.0000  0.0000 </r>
        <r>  0.0208  0.0094  0.0755  0.0247  0.0000  0.0000  0.0000  0.0000  0.0000 </r>
       </set>
       <set comment="band 14">
        <r>  0.1320  0.0178  0.0000  0.0490  0.0233  0.0000  0.0105  0.0000  0.0694 </r>
        <r>  0.0001  0.0023  0.0278  0.0034  0.0000  0.0000  0.0000  0.0000  0.0000 </r>
        <r>  0.0001  0.0023  0.0278  0.0034  0.0000  0.0000  0.0000  0.0000  0.0000 </r>
       </set>
      </set>
      <set comment="kpoint 10">
       <set comment="band 1">
        <r>  0.0037  0.0239  0.0000  0.0333  0.0320  0.0000  0.0001  0.0000  0.0232 </r>
        <r>  0.3267  0.0001  0.0062  0.0000  0.0000  0.0000  0.0000  0.0000  0.0000 </r>
        <r>  0.3268  0.0001  0.0062  0.0000  0.0000  0.0000  0.0000  0.0000  0.0000 </r>
       </set>
       <set comment="band 2">
        <r>  0.0000  0.0000  0.0012  0.0000  0.0000  0.0490  0.0000  0.0724  0.0000 </r>
        <r>  0.3361  0.0001  0.0031  0.0001  0.0000  0.0000  0.0000  0.0000  0.0000 </r>
        <r>  0.3360  0.0001  0.0031  0.0001  0.0000  0.0000  0.0000  0.0000  0.0000 </r>
       </set>
       <set comment="band 3">
        <r>  0.0000  0.0000  0.0052  0.0000  0.0000  0.1909  0.0000  0.1716  0.0000 </r>
        <r>  0.0014  0.0682  0.0002  0.0892  0.0000  0.0000  0.0000  0.0000  0.0000 </r>
        <r>  0.0014  0.0682  0.0002  0.0892  0.0000  0.0000  0.0000  0.0000  0.0000 </r>
       </set>
       <set comment="band 4">
        <r>  0.1158  0.0140  0.0000  0.0182  0.0234  0.0000  0.0697  0.0000  0.0119 </r>
        <r>  0.0010  0.0456  0.0008  0.1277  0.0000  0.0000  0.0000  0.0000  0.0000 </r>
        <r>  0.0010  0.0456  0.0008  0.1277  0.0000  0.0000  0.0000  0.0000  0.0000 </r>
       </set>
       <set comment="band 5">
        <r>  0.0098  0.0426  0.0000  0.0147  0.1350  0.0000  0.0571  0.0000  0.0583 </r>
        <r>  0.0128  0.0514  0.0918  0.0171  0.0000  0.0000  0.0000  0.0000  0.0000 </r>
        <r>  0.0128  0.0514  0.0918  0.0171  0.0000  0.0000  0.0000  0.0000  0.0000 </r>
       </set>
       <set comment="band 6">
        <r>  0.0254  0.0245  0.0000  0.0604  0.0232  0.0000  0.0166  0.0000  0.0499 </r>
        <r>  0.0174  0.0805  0.0843  0.0297  0.0000  0.0000  0.0000  0.0000  0.0000 </r>
        <r>  0.0174  0.0805  0.0843  0.0297  0.0000  0.0000  0.0000  0.0000  0.0000 </r>
       </set>
       <set comment="band 7">
        <r>  0.0000  0.0000  0.0880  0.0000  0.0000  0.0674  0.0000  0.0296  0.0000 </r>
        <r>  0.0021  0.1084  0.0206  0.0916  0.0000  0.0000  0.0000  0.0000  0.0000 </r>
        <r>  0.0021  0.1084  0.0205  0.0916  0.0000  0.0000  0.0000  0.0000  0.0000 </r>
       </set>
       <set comment="band 8">
        <r>  0.0000  0.0000  0.0202  0.0000  0.0000  0.0930  0.0000  0.1434  0.0000 </r>
        <r>  0.0174  0.0142  0.1843  0.0176  0.0000  0.0000  0.0000  0.0000  0.0000 </r>
        <r>  0.0174  0.0142  0.1843  0.0176  0.0000  0.0000  0.0000  0.0000  0.0000 </r>
       </set>
       <set comment="band 9">
        <r>  0.0039  0.0023  0.0000  0.0065  0.3006  0.0000  0.0598  0.0000  0.3202 </r>
        <r>  0.0000  0.0395  0.0037  0.0253  0.0000  0.0000  0.0000  0.0000  0.0000 </r>
        <r>  0.0000  0.0395  0.0037  0.0253  0.0000  0.0000  0.0000  0.0000  0.0000 </r>
       </set>
       <set comment="band 10">
        <r>  0.0367  0.0018  0.0000  0.0007  0.0402  0.0000  0.7005  0.0000  0.0491 </r>
        <r>  0.0000  0.0133  0.0025  0.0204  0.0000  0.0000  0.0000  0.0000  0.0000 </r>
        <r>  0.0000  0.0133  0.0025  0.0204  0.0000  0.0000  0.0000  0.0000  0.0000 </r>
       </set>
       <set comment="band 11">
        <r>  0.0000  0.0000  0.0013  0.0000  0.0000  0.3129  0.0000  0.1959  0.0000 </r>
        <r>  0.0008  0.0487  0.0001  0.0299  0.0000  0.0000  0.0000  0.0000  0.0000 </r>
        <r>  0.0008  0.0487  0.0001  0.0299  0.0000  0.0000  0.0000  0.0000  0.0000 </r>
       </set>
       <set comment="band 12">
        <r>  0.0025  0.0104  0.0000  0.0214  0.2945  0.0000  0.0103  0.0000  0.3826 </r>
        <r>  0.0037  0.0009  0.0672  0.0012  0.0000  0.0000  0.0000  0.0000  0.0000 </r>
        <r>  0.0037  0.0009  0.0672  0.0012  0.0000  0.0000  0.0000  0.0000  0.0000 </r>
       </set>
       <set comment="band 13">
        <r>  0.0000  0.0000  0.0003  0.0000  0.0000  0.2358  0.0000  0.3392  0.0000 </r>
        <r>  0.0266  0.0010  0.0995  0.0019  0.0000  0.0000  0.0000  0.0000  0.0000 </r>
        <r>  0.0266  0.0010  0.0995  0.0019  0.0000  0.0000  0.0000  0.0000  0.0000 </r>
       </set>
       <set comment="band 14">
        <r>  0.1174  0.0533  0.0000  0.0640  0.0537  0.0000  0.0084  0.0000  0.0326 </r>
        <r>  0.0003  0.0020  0.0027  0.0043  0.0000  0.0000  0.0000  0.0000  0.0000 </r>
        <r>  0.0003  0.0020  0.0027  0.0043  0.0000  0.0000  0.0000  0.0000  0.0000 </r>
       </set>
      </set>
     </set>
    </set>
   </array>
  </projected>
 </calculation>
 <structure name="finalpos" >
  <crystal>
   <varray name="basis" >
    <v>       3.19031573       0.00000000       0.00000000 </v>
    <v>      -1.59515786       2.76289447       0.00000000 </v>
    <v>       0.00000000       0.00000000      44.87900430 </v>
   </varray>
   <i name="volume">    395.58623843 </i>
   <varray name="rec_basis" >
    <v>       0.31344860       0.18096963       0.00000000 </v>
    <v>       0.00000000       0.36193927       0.00000000 </v>
    <v>       0.00000000       0.00000000       0.02228213 </v>
   </varray>
  </crystal>
  <varray name="positions" >
   <v>       0.33333300       0.66666700       0.08288399 </v>
   <v>       0.66666700       0.33333300       0.04801503 </v>
   <v>       0.66666600       0.33333300       0.11775296 </v>
  </varray>
 </structure>
</modeling>
