unknown system                          
           1
     3.190316    0.000000    0.000000
    -1.595158    2.762894    0.000000
     0.000000    0.000000   44.879004
   Mo   S 
   1   2
Direct configuration=     1
   0.33333300  0.66666700  0.08288399
   0.66666700  0.33333300  0.04801503
   0.66666600  0.33333300  0.11775296
