   6   6   0   0
  0.2185851E+02  0.3190316E-09  0.3190316E-09  0.1487900E-08  0.5000000E-15
  1.000000000000000E-004
  CAR 
 unknown system                          
      8.32180893    -12.92996115  301      3.30107825      1.00000000
    -12.930  0.0000E+00  0.0000E+00
    -12.859  0.0000E+00  0.0000E+00
    -12.788  0.0000E+00  0.0000E+00
    -12.717  0.0000E+00  0.0000E+00
    -12.647  0.0000E+00  0.0000E+00
    -12.576  0.0000E+00  0.0000E+00
    -12.505  0.0000E+00  0.0000E+00
    -12.434  0.0000E+00  0.0000E+00
    -12.363  0.0000E+00  0.0000E+00
    -12.292  0.0000E+00  0.0000E+00
    -12.222  0.0000E+00  0.0000E+00
    -12.151  0.0000E+00  0.0000E+00
    -12.080  0.0000E+00  0.0000E+00
    -12.009  0.0000E+00  0.0000E+00
    -11.938  0.0000E+00  0.0000E+00
    -11.867  0.0000E+00  0.0000E+00
    -11.797  0.0000E+00  0.0000E+00
    -11.726  0.0000E+00  0.0000E+00
    -11.655  0.0000E+00  0.0000E+00
    -11.584  0.0000E+00  0.0000E+00
    -11.513  0.0000E+00  0.0000E+00
    -11.442  0.0000E+00  0.0000E+00
    -11.371  0.0000E+00  0.0000E+00
    -11.301  0.0000E+00  0.0000E+00
    -11.230  0.0000E+00  0.0000E+00
    -11.159  0.0000E+00  0.0000E+00
    -11.088  0.0000E+00  0.0000E+00
    -11.017  0.0000E+00  0.0000E+00
    -10.946  0.0000E+00  0.0000E+00
    -10.876  0.3671E+00  0.8364E-02
    -10.805  0.9465E+00  0.5489E-01
    -10.734  0.1526E+01  0.1425E+00
    -10.663  0.9948E+00  0.2297E+00
    -10.592  0.1060E+01  0.3025E+00
    -10.521  0.1126E+01  0.3799E+00
    -10.451  0.1192E+01  0.4620E+00
    -10.380  0.1257E+01  0.5488E+00
    -10.309  0.1319E+01  0.6402E+00
    -10.238  0.1331E+01  0.7340E+00
    -10.167  0.1343E+01  0.8288E+00
    -10.096  0.1380E+01  0.9249E+00
    -10.026  0.1435E+01  0.1025E+01
     -9.955  0.1490E+01  0.1128E+01
     -9.884  0.1545E+01  0.1236E+01
     -9.813  0.1600E+01  0.1347E+01
     -9.742  0.1655E+01  0.1462E+01
     -9.671  0.3326E+01  0.1614E+01
     -9.601  0.4408E+01  0.1927E+01
     -9.530  0.4589E+01  0.2236E+01
     -9.459  0.5086E+01  0.2579E+01
     -9.388  0.5556E+01  0.2957E+01
     -9.317  0.5977E+01  0.3364E+01
     -9.246  0.6540E+01  0.3808E+01
     -9.175  0.7104E+01  0.4291E+01
     -9.105  0.8482E+01  0.5077E+01
     -9.034  0.8339E+01  0.5672E+01
     -8.963  0.8676E+01  0.6275E+01
     -8.892  0.8156E+01  0.6915E+01
     -8.821  0.6288E+01  0.7612E+01
     -8.750  0.0000E+00  0.8000E+01
     -8.680  0.0000E+00  0.8000E+01
     -8.609  0.0000E+00  0.8000E+01
     -8.538  0.0000E+00  0.8000E+01
     -8.467  0.0000E+00  0.8000E+01
     -8.396  0.0000E+00  0.8000E+01
     -8.325  0.0000E+00  0.8000E+01
     -8.255  0.0000E+00  0.8000E+01
     -8.184  0.0000E+00  0.8000E+01
     -8.113  0.0000E+00  0.8000E+01
     -8.042  0.0000E+00  0.8000E+01
     -7.971  0.0000E+00  0.8000E+01
     -7.900  0.0000E+00  0.8000E+01
     -7.830  0.0000E+00  0.8000E+01
     -7.759  0.0000E+00  0.8000E+01
     -7.688  0.0000E+00  0.8000E+01
     -7.617  0.0000E+00  0.8000E+01
     -7.546  0.0000E+00  0.8000E+01
     -7.475  0.0000E+00  0.8000E+01
     -7.405  0.0000E+00  0.8000E+01
     -7.334  0.0000E+00  0.8000E+01
     -7.263  0.0000E+00  0.8000E+01
     -7.192  0.0000E+00  0.8000E+01
     -7.121  0.0000E+00  0.8000E+01
     -7.050  0.0000E+00  0.8000E+01
     -6.979  0.0000E+00  0.8000E+01
     -6.909  0.0000E+00  0.8000E+01
     -6.838  0.0000E+00  0.8000E+01
     -6.767  0.0000E+00  0.8000E+01
     -6.696  0.0000E+00  0.8000E+01
     -6.625  0.0000E+00  0.8000E+01
     -6.554  0.0000E+00  0.8000E+01
     -6.484  0.0000E+00  0.8000E+01
     -6.413  0.0000E+00  0.8000E+01
     -6.342  0.0000E+00  0.8000E+01
     -6.271  0.0000E+00  0.8000E+01
     -6.200  0.0000E+00  0.8000E+01
     -6.129  0.0000E+00  0.8000E+01
     -6.059  0.0000E+00  0.8000E+01
     -5.988  0.0000E+00  0.8000E+01
     -5.917  0.0000E+00  0.8000E+01
     -5.846  0.0000E+00  0.8000E+01
     -5.775  0.0000E+00  0.8000E+01
     -5.704  0.0000E+00  0.8000E+01
     -5.634  0.0000E+00  0.8000E+01
     -5.563  0.0000E+00  0.8000E+01
     -5.492  0.0000E+00  0.8000E+01
     -5.421  0.0000E+00  0.8000E+01
     -5.350  0.0000E+00  0.8000E+01
     -5.279  0.0000E+00  0.8000E+01
     -5.208  0.0000E+00  0.8000E+01
     -5.138  0.0000E+00  0.8000E+01
     -5.067  0.0000E+00  0.8000E+01
     -4.996  0.0000E+00  0.8000E+01
     -4.925  0.0000E+00  0.8000E+01
     -4.854  0.0000E+00  0.8000E+01
     -4.783  0.0000E+00  0.8000E+01
     -4.713  0.0000E+00  0.8000E+01
     -4.642  0.0000E+00  0.8000E+01
     -4.571  0.0000E+00  0.8000E+01
     -4.500  0.0000E+00  0.8000E+01
     -4.429  0.0000E+00  0.8000E+01
     -4.358  0.0000E+00  0.8000E+01
     -4.288  0.0000E+00  0.8000E+01
     -4.217  0.0000E+00  0.8000E+01
     -4.146  0.0000E+00  0.8000E+01
     -4.075  0.0000E+00  0.8000E+01
     -4.004  0.0000E+00  0.8000E+01
     -3.933  0.0000E+00  0.8000E+01
     -3.863  0.0000E+00  0.8000E+01
     -3.792  0.0000E+00  0.8000E+01
     -3.721  0.0000E+00  0.8000E+01
     -3.650  0.0000E+00  0.8000E+01
     -3.579  0.0000E+00  0.8000E+01
     -3.508  0.0000E+00  0.8000E+01
     -3.438  0.0000E+00  0.8000E+01
     -3.367  0.0000E+00  0.8000E+01
     -3.296  0.0000E+00  0.8000E+01
     -3.225  0.0000E+00  0.8000E+01
     -3.154  0.0000E+00  0.8000E+01
     -3.083  0.0000E+00  0.8000E+01
     -3.012  0.0000E+00  0.8000E+01
     -2.942  0.0000E+00  0.8000E+01
     -2.871  0.0000E+00  0.8000E+01
     -2.800  0.0000E+00  0.8000E+01
     -2.729  0.0000E+00  0.8000E+01
     -2.658  0.0000E+00  0.8000E+01
     -2.587  0.1636E+00  0.8001E+01
     -2.517  0.1043E+01  0.8044E+01
     -2.446  0.2043E+01  0.8152E+01
     -2.375  0.3237E+01  0.8338E+01
     -2.304  0.5051E+01  0.8620E+01
     -2.233  0.5528E+01  0.8997E+01
     -2.162  0.5979E+01  0.9405E+01
     -2.092  0.7545E+01  0.9972E+01
     -2.021  0.6431E+01  0.1047E+02
     -1.950  0.7204E+01  0.1089E+02
     -1.879  0.8325E+01  0.1162E+02
     -1.808  0.2153E+01  0.1197E+02
     -1.737  0.9429E+01  0.1255E+02
     -1.667  0.4859E+01  0.1303E+02
     -1.596  0.2686E+01  0.1326E+02
     -1.525  0.2458E+01  0.1344E+02
     -1.454  0.2231E+01  0.1361E+02
     -1.383  0.2004E+01  0.1376E+02
     -1.312  0.1777E+01  0.1389E+02
     -1.241  0.1670E+01  0.1401E+02
     -1.171  0.1678E+01  0.1413E+02
     -1.100  0.1685E+01  0.1425E+02
     -1.029  0.1693E+01  0.1437E+02
     -0.958  0.1749E+01  0.1449E+02
     -0.887  0.5100E+01  0.1471E+02
     -0.816  0.1060E+02  0.1525E+02
     -0.746  0.1213E+02  0.1614E+02
     -0.675  0.9842E+01  0.1685E+02
     -0.604  0.8267E+01  0.1752E+02
     -0.533  0.5064E+01  0.1799E+02
     -0.462  0.2646E+01  0.1825E+02
     -0.391  0.2378E+01  0.1842E+02
     -0.321  0.2205E+01  0.1859E+02
     -0.250  0.2045E+01  0.1874E+02
     -0.179  0.1885E+01  0.1888E+02
     -0.108  0.9204E+01  0.1908E+02
     -0.037  0.2134E+02  0.2045E+02
      0.034  0.7651E+01  0.2129E+02
      0.104  0.5262E+01  0.2175E+02
      0.175  0.5985E+01  0.2223E+02
      0.246  0.3790E+01  0.2255E+02
      0.317  0.3604E+01  0.2282E+02
      0.388  0.3418E+01  0.2307E+02
      0.459  0.3322E+01  0.2330E+02
      0.529  0.5003E+01  0.2360E+02
      0.600  0.5033E+01  0.2396E+02
      0.671  0.4305E+01  0.2431E+02
      0.742  0.2764E+01  0.2456E+02
      0.813  0.1795E+01  0.2470E+02
      0.884  0.1751E+01  0.2483E+02
      0.955  0.1715E+01  0.2495E+02
      1.025  0.1684E+01  0.2507E+02
      1.096  0.3958E+01  0.2523E+02
      1.167  0.1031E+02  0.2572E+02
      1.238  0.1821E+02  0.2676E+02
      1.309  0.1395E+02  0.2793E+02
      1.380  0.5272E+01  0.2861E+02
      1.450  0.3170E+01  0.2888E+02
      1.521  0.2958E+01  0.2910E+02
      1.592  0.2879E+01  0.2930E+02
      1.663  0.2999E+01  0.2951E+02
      1.734  0.3545E+01  0.2973E+02
      1.805  0.6250E+01  0.3006E+02
      1.875  0.8562E+01  0.3061E+02
      1.946  0.4896E+01  0.3111E+02
      2.017  0.4471E+01  0.3144E+02
      2.088  0.3233E+01  0.3172E+02
      2.159  0.1692E+01  0.3189E+02
      2.230  0.2370E+01  0.3201E+02
      2.300  0.5777E+01  0.3229E+02
      2.371  0.7901E+01  0.3287E+02
      2.442  0.7238E+01  0.3340E+02
      2.513  0.6704E+01  0.3389E+02
      2.584  0.6168E+01  0.3435E+02
      2.655  0.4347E+01  0.3474E+02
      2.726  0.3824E+01  0.3503E+02
      2.796  0.3300E+01  0.3528E+02
      2.867  0.2985E+01  0.3550E+02
      2.938  0.2482E+01  0.3570E+02
      3.009  0.9717E+00  0.3588E+02
      3.080  0.8534E+00  0.3594E+02
      3.151  0.3397E+00  0.3598E+02
      3.221  0.9219E-01  0.3600E+02
      3.292  0.5984E-03  0.3600E+02
      3.363  0.0000E+00  0.3600E+02
      3.434  0.0000E+00  0.3600E+02
      3.505  0.0000E+00  0.3600E+02
      3.576  0.0000E+00  0.3600E+02
      3.646  0.0000E+00  0.3600E+02
      3.717  0.0000E+00  0.3600E+02
      3.788  0.0000E+00  0.3600E+02
      3.859  0.0000E+00  0.3600E+02
      3.930  0.0000E+00  0.3600E+02
      4.001  0.0000E+00  0.3600E+02
      4.071  0.0000E+00  0.3600E+02
      4.142  0.0000E+00  0.3600E+02
      4.213  0.0000E+00  0.3600E+02
      4.284  0.0000E+00  0.3600E+02
      4.355  0.0000E+00  0.3600E+02
      4.426  0.0000E+00  0.3600E+02
      4.496  0.0000E+00  0.3600E+02
      4.567  0.0000E+00  0.3600E+02
      4.638  0.0000E+00  0.3600E+02
      4.709  0.0000E+00  0.3600E+02
      4.780  0.0000E+00  0.3600E+02
      4.851  0.0000E+00  0.3600E+02
      4.922  0.0000E+00  0.3600E+02
      4.992  0.1520E+01  0.3615E+02
      5.063  0.4775E+01  0.3636E+02
      5.134  0.8358E+01  0.3683E+02
      5.205  0.1253E+02  0.3757E+02
      5.276  0.2529E+02  0.3860E+02
      5.347  0.2339E+01  0.3944E+02
      5.417  0.1666E+01  0.3958E+02
      5.488  0.6372E+01  0.3981E+02
      5.559  0.6308E+01  0.4046E+02
      5.630  0.7262E+01  0.4095E+02
      5.701  0.7528E+01  0.4147E+02
      5.772  0.7711E+01  0.4202E+02
      5.842  0.7121E+01  0.4265E+02
      5.913  0.4305E+01  0.4299E+02
      5.984  0.4722E+01  0.4330E+02
      6.055  0.2706E+01  0.4360E+02
      6.126  0.1768E+01  0.4374E+02
      6.197  0.1610E+01  0.4387E+02
      6.267  0.1188E+01  0.4396E+02
      6.338  0.0000E+00  0.4400E+02
      6.409  0.0000E+00  0.4400E+02
      6.480  0.0000E+00  0.4400E+02
      6.551  0.0000E+00  0.4400E+02
      6.622  0.0000E+00  0.4400E+02
      6.693  0.0000E+00  0.4400E+02
      6.763  0.0000E+00  0.4400E+02
      6.834  0.0000E+00  0.4400E+02
      6.905  0.0000E+00  0.4400E+02
      6.976  0.0000E+00  0.4400E+02
      7.047  0.0000E+00  0.4400E+02
      7.118  0.0000E+00  0.4400E+02
      7.188  0.0000E+00  0.4400E+02
      7.259  0.0000E+00  0.4400E+02
      7.330  0.0000E+00  0.4400E+02
      7.401  0.0000E+00  0.4400E+02
      7.472  0.0000E+00  0.4400E+02
      7.543  0.0000E+00  0.4400E+02
      7.613  0.0000E+00  0.4400E+02
      7.684  0.0000E+00  0.4400E+02
      7.755  0.0000E+00  0.4400E+02
      7.826  0.0000E+00  0.4400E+02
      7.897  0.0000E+00  0.4400E+02
      7.968  0.0000E+00  0.4400E+02
      8.038  0.0000E+00  0.4400E+02
      8.109  0.0000E+00  0.4400E+02
      8.180  0.0000E+00  0.4400E+02
      8.251  0.0000E+00  0.4400E+02
      8.322  0.0000E+00  0.4400E+02
