perl: warning: Setting locale failed.
perl: warning: Please check that your locale settings:
	LANGUAGE = (unset),
	LC_ALL = (unset),
	LC_CTYPE = "UTF-8",
	LANG = "en_US.iso885915"
    are supported and installed on your system.
perl: warning: Falling back to the standard locale ("C").
Starting job 28525023 ("jobname") on c16-2 at Thu Nov 7 21:13:55 CET 2019
 running on    4 total cores
 distrk:  each k-point on    4 cores,    1 groups
 distr:  one band on    2 cores,    2 groups
 using from now: INCAR     
 vasp.5.4.4.18Apr17-6-g9f103f2a35 (build Jun 30 2017 11:15:00) complex          
  
 POSCAR found type information on POSCAR  Mo S 
 POSCAR found :  2 types and       6 ions
 scaLAPACK will be used
 WARNING: PSMAXN for non-local potential too small
 LDA part: xc-table for Pade appr. of Perdew
 POSCAR, INCAR and KPOINTS ok, starting setup
 FFT: planning ...
 WAVECAR not read
 WARNING: random wavefunctions but no delay for mixing, default for NELMDL
 entering main loop
       N       E                     dE             d eps       ncg     rms          rms(c)
DAV:   1     0.292091159905E+03    0.29209E+03   -0.21836E+04   880   0.227E+03
DAV:   2    -0.175392778407E+02   -0.30963E+03   -0.30083E+03  1172   0.342E+02
DAV:   3    -0.459853186685E+02   -0.28446E+02   -0.28298E+02  1214   0.941E+01
DAV:   4    -0.467988210056E+02   -0.81350E+00   -0.81177E+00  1164   0.172E+01
DAV:   5    -0.468245294298E+02   -0.25708E-01   -0.25702E-01  1258   0.292E+00    0.974E+00
RMM:   6    -0.444304327712E+02    0.23941E+01   -0.24356E+01   981   0.197E+01    0.334E+00
RMM:   7    -0.436990750080E+02    0.73136E+00   -0.18906E+00   967   0.561E+00    0.177E+00
RMM:   8    -0.436385805406E+02    0.60494E-01   -0.93684E-01  1008   0.340E+00    0.855E-01
RMM:   9    -0.436317860400E+02    0.67945E-02   -0.36067E-01  1034   0.249E+00    0.662E-01
RMM:  10    -0.436098541008E+02    0.21932E-01   -0.91932E-02  1039   0.127E+00    0.904E-02
RMM:  11    -0.436098389760E+02    0.15125E-04   -0.36108E-03  1109   0.260E-01    0.316E-02
RMM:  12    -0.436099829925E+02   -0.14402E-03   -0.57602E-04  1127   0.126E-01    0.151E-02
RMM:  13    -0.436099900352E+02   -0.70427E-05   -0.19704E-04  1095   0.514E-02    0.123E-02
RMM:  14    -0.436099857305E+02    0.43047E-05   -0.29998E-05   741   0.281E-02
 Error reading item 'IVDW' from file INCAR
   1 F= -.43609986E+02 E0= -.43609986E+02  d E =0.000000E+00

Currently Loaded Modulefiles:
  1) Anaconda3/5.1.0       3) vesta/3.3.8           5) intel/2016.1
  2) gnuplot/5.0.4         4) imagemagick/6.7.9-0   6) vasp/5.4.1.Feb16

Job script resource usage:
       JobID  MaxVMSize     MaxRSS 
------------ ---------- ---------- 
28525023.ba+    216888K      2390K 

Job step resource usage:
       JobID    JobName  AllocCPUS  MaxVMSize     MaxRSS    Elapsed ExitCode 
------------ ---------- ---------- ---------- ---------- ---------- -------- 
28525023        jobname          4                         00:00:29      0:0 
28525023.0    pmi_proxy          1    279832K       522K   00:00:27      0:0 

Job 28525023 ("jobname") completed on c16-2 at Thu Nov 7 21:14:22 CET 2019
