<?xml version="1.0" encoding="ISO-8859-1"?>
<modeling>
 <generator>
  <i name="program" type="string">vasp </i>
  <i name="version" type="string">5.4.4.18Apr17-6-g9f103f2a35  </i>
  <i name="subversion" type="string">(build Jun 30 2017 11:15:00) complex            parallel </i>
  <i name="platform" type="string">STALLO_VASP_5.4.4 </i>
  <i name="date" type="string">2019 11 08 </i>
  <i name="time" type="string">11:39:37 </i>
 </generator>
 <incar>
  <i type="string" name="PREC">normal    ! low/normal/accurate</i>
  <i type="string" name="ALGO"> Fast      ! Algorithm for electronic re</i>
  <i type="int" name="ISPIN">     1</i>
  <i type="int" name="NELMIN">     4</i>
  <i name="EDIFF">      0.00001000</i>
  <i type="int" name="NSW">     0</i>
  <i name="ENCUT">    950.00000000</i>
  <i type="logical" name="LREAL"> F  </i>
  <i type="int" name="ISMEAR">    -5</i>
  <i name="SIGMA">      0.20000000</i>
  <i type="logical" name="LWAVE"> F  </i>
  <v type="int" name="KPOINT_BSE">    -1     0     0     0</v>
 </incar>
 <structure name="primitive_cell" >
  <crystal>
   <varray name="basis" >
    <v>       3.19031573       0.00000000       0.00000000 </v>
    <v>      -1.59515786       2.76289447       0.00000000 </v>
    <v>       0.00000000       0.00000000      14.87900430 </v>
   </varray>
   <i name="volume">    131.15106795 </i>
   <varray name="rec_basis" >
    <v>       0.31344860       0.18096963       0.00000000 </v>
    <v>       0.00000000       0.36193927       0.00000000 </v>
    <v>       0.00000000       0.00000000       0.06720880 </v>
   </varray>
  </crystal>
  <varray name="positions" >
   <v>       0.33333300      -0.33333300       0.25000000 </v>
   <v>      -0.33333400       0.33333300       0.35517400 </v>
   <v>      -0.33333300       0.33333300       0.14482600 </v>
   <v>       0.33333300      -0.33333300      -0.14482600 </v>
   <v>       0.33333400      -0.33333300      -0.35517400 </v>
   <v>      -0.33333300       0.33333300      -0.25000000 </v>
  </varray>
 </structure>
 <varray name="primitive_index" >
  <v type="int" >        1 </v>
  <v type="int" >        5 </v>
  <v type="int" >        4 </v>
  <v type="int" >        3 </v>
  <v type="int" >        6 </v>
  <v type="int" >        2 </v>
 </varray>
 <kpoints>
  <generation param="Gamma">
   <v type="int" name="divisions">       8        8        2 </v>
   <v name="usershift">      0.00000000       0.00000000       0.00000000 </v>
   <v name="genvec1">      0.12500000       0.00000000       0.00000000 </v>
   <v name="genvec2">      0.00000000       0.12500000       0.00000000 </v>
   <v name="genvec3">      0.00000000       0.00000000       0.50000000 </v>
   <v name="shift">      0.00000000       0.00000000       0.00000000 </v>
  </generation>
  <varray name="kpointlist" >
   <v>       0.00000000       0.00000000       0.00000000 </v>
   <v>       0.12500000      -0.00000000       0.00000000 </v>
   <v>       0.25000000      -0.00000000       0.00000000 </v>
   <v>       0.37500000      -0.00000000       0.00000000 </v>
   <v>       0.50000000      -0.00000000       0.00000000 </v>
   <v>       0.12500000       0.12500000       0.00000000 </v>
   <v>       0.25000000       0.12500000       0.00000000 </v>
   <v>       0.37500000       0.12500000       0.00000000 </v>
   <v>       0.25000000       0.25000000       0.00000000 </v>
   <v>       0.37500000       0.25000000       0.00000000 </v>
   <v>       0.00000000       0.00000000       0.50000000 </v>
   <v>       0.12500000      -0.00000000       0.50000000 </v>
   <v>       0.25000000      -0.00000000       0.50000000 </v>
   <v>       0.37500000      -0.00000000       0.50000000 </v>
   <v>       0.50000000      -0.00000000       0.50000000 </v>
   <v>       0.12500000       0.12500000       0.50000000 </v>
   <v>       0.25000000       0.12500000       0.50000000 </v>
   <v>       0.37500000       0.12500000       0.50000000 </v>
   <v>       0.25000000       0.25000000       0.50000000 </v>
   <v>       0.37500000       0.25000000       0.50000000 </v>
  </varray>
  <varray name="weights" >
   <v>       0.00781250 </v>
   <v>       0.04687500 </v>
   <v>       0.04687500 </v>
   <v>       0.04687500 </v>
   <v>       0.02343750 </v>
   <v>       0.04687500 </v>
   <v>       0.09375000 </v>
   <v>       0.09375000 </v>
   <v>       0.04687500 </v>
   <v>       0.04687500 </v>
   <v>       0.00781250 </v>
   <v>       0.04687500 </v>
   <v>       0.04687500 </v>
   <v>       0.04687500 </v>
   <v>       0.02343750 </v>
   <v>       0.04687500 </v>
   <v>       0.09375000 </v>
   <v>       0.09375000 </v>
   <v>       0.04687500 </v>
   <v>       0.04687500 </v>
  </varray>
  <varray name="tetrahedronlist"  type="int" >
   <v type="int" >        8        2        2        6       12 </v>
   <v type="int" >        8        1        2        2       12 </v>
   <v type="int" >        4        1        2       11       12 </v>
   <v type="int" >        4        2        6       12       16 </v>
   <v type="int" >        8        2       12       12       16 </v>
   <v type="int" >        8        2       11       12       12 </v>
   <v type="int" >        8        3        6        7       16 </v>
   <v type="int" >        8        2        3        6       16 </v>
   <v type="int" >        4        2        3       12       16 </v>
   <v type="int" >        4        3        7       16       17 </v>
   <v type="int" >        8        3       13       16       17 </v>
   <v type="int" >        8        3       12       13       16 </v>
   <v type="int" >        8        4        7        8       17 </v>
   <v type="int" >        8        3        4        7       17 </v>
   <v type="int" >        4        3        4       13       17 </v>
   <v type="int" >        4        4        8       17       18 </v>
   <v type="int" >        8        4       14       17       18 </v>
   <v type="int" >        8        4       13       14       17 </v>
   <v type="int" >        8        5        8        8       18 </v>
   <v type="int" >        8        4        5        8       18 </v>
   <v type="int" >        4        4        5       14       18 </v>
   <v type="int" >        4        5        8       18       18 </v>
   <v type="int" >        4        5       15       18       18 </v>
   <v type="int" >        8        5       14       15       18 </v>
   <v type="int" >        8        4        7        8       18 </v>
   <v type="int" >        4        4        5       15       18 </v>
   <v type="int" >        4        4        7       17       18 </v>
   <v type="int" >        8        4       14       15       18 </v>
   <v type="int" >        8        3        6        7       17 </v>
   <v type="int" >        4        3        4       14       17 </v>
   <v type="int" >        4        3        6       16       17 </v>
   <v type="int" >        8        3       13       14       17 </v>
   <v type="int" >        4        2        2        6       16 </v>
   <v type="int" >        4        2        3       13       16 </v>
   <v type="int" >        4        2        2       12       16 </v>
   <v type="int" >        8        2       12       13       16 </v>
   <v type="int" >        4        1        2       12       12 </v>
   <v type="int" >        4        1       11       12       12 </v>
   <v type="int" >        8        3        6        7       13 </v>
   <v type="int" >        8        2        3        6       13 </v>
   <v type="int" >        4        2        6       12       13 </v>
   <v type="int" >        4        6        7       13       17 </v>
   <v type="int" >        8        6       13       16       17 </v>
   <v type="int" >        8        6       12       13       16 </v>
   <v type="int" >        8        7        7        9       17 </v>
   <v type="int" >        8        6        7        7       17 </v>
   <v type="int" >        4        6        7       16       17 </v>
   <v type="int" >        4        7        9       17       19 </v>
   <v type="int" >        8        7       17       17       19 </v>
   <v type="int" >        8        7       16       17       17 </v>
   <v type="int" >        8        8        9       10       19 </v>
   <v type="int" >        8        7        8        9       19 </v>
   <v type="int" >        4        7        8       17       19 </v>
   <v type="int" >        4        8       10       19       20 </v>
   <v type="int" >        8        8       18       19       20 </v>
   <v type="int" >        8        8       17       18       19 </v>
   <v type="int" >        8        8        9       10       20 </v>
   <v type="int" >        4        8        8       10       20 </v>
   <v type="int" >        4        8        8       18       20 </v>
   <v type="int" >        4        8        9       19       20 </v>
   <v type="int" >        8        8       18       18       20 </v>
   <v type="int" >        4        7        7        9       19 </v>
   <v type="int" >        4        7        8       18       19 </v>
   <v type="int" >        4        7        7       17       19 </v>
   <v type="int" >        8        7       17       18       19 </v>
   <v type="int" >        4        6        7       17       17 </v>
   <v type="int" >        4        3        6       13       17 </v>
   <v type="int" >        4        6       16       17       17 </v>
   <v type="int" >        4        2        6       13       16 </v>
   <v type="int" >        8        4        7        8       14 </v>
   <v type="int" >        8        3        4        7       14 </v>
   <v type="int" >        4        3        7       13       14 </v>
   <v type="int" >        4        7        8       14       18 </v>
   <v type="int" >        8        7       14       17       18 </v>
   <v type="int" >        8        7       13       14       17 </v>
   <v type="int" >        8        8        9       10       18 </v>
   <v type="int" >        8        7        8        9       18 </v>
   <v type="int" >        4        7        9       17       18 </v>
   <v type="int" >        4        9       10       18       20 </v>
   <v type="int" >        8        9       18       19       20 </v>
   <v type="int" >        8        9       17       18       19 </v>
   <v type="int" >        4       10       10       10       20 </v>
   <v type="int" >        8        9       10       10       20 </v>
   <v type="int" >        4        9       10       19       20 </v>
   <v type="int" >        4       10       10       20       20 </v>
   <v type="int" >        4       10       20       20       20 </v>
   <v type="int" >        8       10       19       20       20 </v>
   <v type="int" >        4        9       10       20       20 </v>
   <v type="int" >        4        8        9       18       20 </v>
   <v type="int" >        4        9       19       20       20 </v>
   <v type="int" >        4        7        9       18       19 </v>
   <v type="int" >        4        4        7       14       18 </v>
   <v type="int" >        4        3        7       14       17 </v>
   <v type="int" >        4        5        8        8       15 </v>
   <v type="int" >        8        4        5        8       15 </v>
   <v type="int" >        4        4        8       14       15 </v>
   <v type="int" >        4        8        8       15       18 </v>
   <v type="int" >        8        8       15       18       18 </v>
   <v type="int" >        8        8       14       15       18 </v>
   <v type="int" >        8        8        8       10       18 </v>
   <v type="int" >        4        8       10       18       18 </v>
   <v type="int" >        4        9       10       18       19 </v>
   <v type="int" >        8       10       18       19       20 </v>
   <v type="int" >        4       10       18       18       20 </v>
   <v type="int" >        4        9       10       10       19 </v>
   <v type="int" >        4       10       10       19       20 </v>
   <v type="int" >        4        8       10       18       19 </v>
   <v type="int" >        4        8       10       18       20 </v>
   <v type="int" >        4        5        8       15       18 </v>
   <v type="int" >        4        4        8       15       18 </v>
   <v type="int" >        8        4        5        8       14 </v>
   <v type="int" >        4        5        8       14       15 </v>
   <v type="int" >        4        7        8       14       17 </v>
   <v type="int" >        8        8       14       17       18 </v>
   <v type="int" >        8        7        8        9       17 </v>
   <v type="int" >        4        8        9       17       18 </v>
   <v type="int" >        4        7        9       17       17 </v>
   <v type="int" >        4        9       17       17       19 </v>
   <v type="int" >        4        8        9       17       19 </v>
   <v type="int" >        4        4        8       14       17 </v>
   <v type="int" >        4        5        8       14       18 </v>
   <v type="int" >        8        3        4        7       13 </v>
   <v type="int" >        4        4        7       13       14 </v>
   <v type="int" >        4        6        7       13       16 </v>
   <v type="int" >        8        7       13       16       17 </v>
   <v type="int" >        4        6        7        7       16 </v>
   <v type="int" >        4        7        7       16       17 </v>
   <v type="int" >        4        3        7       13       16 </v>
   <v type="int" >        4        4        7       13       17 </v>
   <v type="int" >        8        2        3        6       12 </v>
   <v type="int" >        4        3        6       12       13 </v>
   <v type="int" >        4        2        6       12       12 </v>
   <v type="int" >        4        6       12       12       16 </v>
   <v type="int" >        4        3        6       12       16 </v>
   <v type="int" >        4        1        2        2       11 </v>
   <v type="int" >        4        2        2       11       12 </v>
  </varray>
  <i name="volumeweight">      0.00130208 </i>
 </kpoints>
 <parameters>
  <separator name="general" >
   <i type="string" name="SYSTEM">unknown system</i>
   <i type="logical" name="LCOMPAT"> F  </i>
  </separator>
  <separator name="electronic" >
   <i type="string" name="PREC">normal</i>
   <i name="ENMAX">    950.00000000</i>
   <i name="ENAUG">    345.27800000</i>
   <i name="EDIFF">      0.00001000</i>
   <i type="int" name="IALGO">    68</i>
   <i type="int" name="IWAVPR">    10</i>
   <i type="int" name="NBANDS">    22</i>
   <i name="NELECT">     36.00000000</i>
   <i type="int" name="TURBO">     0</i>
   <i type="int" name="IRESTART">     0</i>
   <i type="int" name="NREBOOT">     0</i>
   <i type="int" name="NMIN">     0</i>
   <i name="EREF">      0.00000000</i>
   <separator name="electronic smearing" >
    <i type="int" name="ISMEAR">    -5</i>
    <i name="SIGMA">      0.20000000</i>
    <i name="KSPACING">      0.50000000</i>
    <i type="logical" name="KGAMMA"> T  </i>
   </separator>
   <separator name="electronic projectors" >
    <i type="logical" name="LREAL"> F  </i>
    <v name="ROPT">      0.00000000      0.00000000</v>
    <i type="int" name="LMAXPAW">  -100</i>
    <i type="int" name="LMAXMIX">     2</i>
    <i type="logical" name="NLSPLINE"> F  </i>
   </separator>
   <separator name="electronic startup" >
    <i type="int" name="ISTART">     0</i>
    <i type="int" name="ICHARG">     2</i>
    <i type="int" name="INIWAV">     1</i>
   </separator>
   <separator name="electronic spin" >
    <i type="int" name="ISPIN">     1</i>
    <i type="logical" name="LNONCOLLINEAR"> F  </i>
    <v name="MAGMOM">      1.00000000      1.00000000      1.00000000      1.00000000      1.00000000      1.00000000</v>
    <i name="NUPDOWN">     -1.00000000</i>
    <i type="logical" name="LSORBIT"> F  </i>
    <v name="SAXIS">      0.00000000      0.00000000      1.00000000</v>
    <i type="logical" name="LSPIRAL"> F  </i>
    <v name="QSPIRAL">      0.00000000      0.00000000      0.00000000</v>
    <i type="logical" name="LZEROZ"> F  </i>
   </separator>
   <separator name="electronic exchange-correlation" >
    <i type="logical" name="LASPH"> F  </i>
    <i type="logical" name="LMETAGGA"> F  </i>
   </separator>
   <separator name="electronic convergence" >
    <i type="int" name="NELM">    60</i>
    <i type="int" name="NELMDL">     0</i>
    <i type="int" name="NELMIN">     4</i>
    <i name="ENINI">    950.00000000</i>
    <separator name="electronic convergence detail" >
     <i type="logical" name="LDIAG"> T  </i>
     <i type="logical" name="LSUBROT"> F  </i>
     <i name="WEIMIN">      0.00000000</i>
     <i name="EBREAK">      0.00000011</i>
     <i name="DEPER">      0.30000000</i>
     <i type="int" name="NRMM">     4</i>
     <i name="TIME">      0.40000000</i>
    </separator>
   </separator>
   <separator name="electronic mixer" >
    <i name="AMIX">      0.40000000</i>
    <i name="BMIX">      1.00000000</i>
    <i name="AMIN">      0.10000000</i>
    <i name="AMIX_MAG">      1.60000000</i>
    <i name="BMIX_MAG">      1.00000000</i>
    <separator name="electronic mixer details" >
     <i type="int" name="IMIX">     4</i>
     <i type="logical" name="MIXFIRST"> F  </i>
     <i type="int" name="MAXMIX">   -45</i>
     <i name="WC">    100.00000000</i>
     <i type="int" name="INIMIX">     1</i>
     <i type="int" name="MIXPRE">     1</i>
     <i type="int" name="MREMOVE">     5</i>
    </separator>
   </separator>
   <separator name="electronic dipolcorrection" >
    <i type="logical" name="LDIPOL"> F  </i>
    <i type="logical" name="LMONO"> F  </i>
    <i type="int" name="IDIPOL">     0</i>
    <i name="EPSILON">      1.00000000</i>
    <v name="DIPOL">   -100.00000000   -100.00000000   -100.00000000</v>
    <i name="EFIELD">      0.00000000</i>
   </separator>
  </separator>
  <separator name="grids" >
   <i type="int" name="NGX">    24</i>
   <i type="int" name="NGY">    24</i>
   <i type="int" name="NGZ">   112</i>
   <i type="int" name="NGXF">    48</i>
   <i type="int" name="NGYF">    48</i>
   <i type="int" name="NGZF">   224</i>
   <i type="logical" name="ADDGRID"> F  </i>
  </separator>
  <separator name="ionic" >
   <i type="int" name="NSW">     0</i>
   <i type="int" name="IBRION">    -1</i>
   <i type="int" name="MDALGO">     0</i>
   <i type="int" name="ISIF">     2</i>
   <i name="PSTRESS">      0.00000000</i>
   <i name="EDIFFG">      0.00010000</i>
   <i type="int" name="NFREE">     0</i>
   <i name="POTIM">      0.50000000</i>
   <i name="SMASS">     -3.00000000</i>
   <i name="SCALEE">      1.00000000</i>
  </separator>
  <separator name="ionic md" >
   <i name="TEBEG">      0.00010000</i>
   <i name="TEEND">      0.00010000</i>
   <i type="int" name="NBLOCK">     1</i>
   <i type="int" name="KBLOCK">     1</i>
   <i type="int" name="NPACO">   256</i>
   <i name="APACO">     16.00000000</i>
  </separator>
  <separator name="symmetry" >
   <i type="int" name="ISYM">     2</i>
   <i name="SYMPREC">      0.00001000</i>
  </separator>
  <separator name="dos" >
   <i type="int" name="LORBIT">     0</i>
   <v name="RWIGS">     -1.00000000     -1.00000000</v>
   <i type="int" name="NEDOS">   301</i>
   <i name="EMIN">     10.00000000</i>
   <i name="EMAX">    -10.00000000</i>
   <i name="EFERMI">      0.00000000</i>
  </separator>
  <separator name="writing" >
   <i type="int" name="NWRITE">     2</i>
   <i type="logical" name="LWAVE"> F  </i>
   <i type="logical" name="LDOWNSAMPLE"> F  </i>
   <i type="logical" name="LCHARG"> T  </i>
   <i type="logical" name="LPARD"> F  </i>
   <i type="logical" name="LVTOT"> F  </i>
   <i type="logical" name="LVHAR"> F  </i>
   <i type="logical" name="LELF"> F  </i>
   <i type="logical" name="LOPTICS"> F  </i>
   <v name="STM">      0.00000000      0.00000000      0.00000000      0.00000000      0.00000000      0.00000000      0.00000000</v>
  </separator>
  <separator name="performance" >
   <i type="int" name="NPAR">     2</i>
   <i type="int" name="NSIM">     4</i>
   <i type="int" name="NBLK">    -1</i>
   <i type="logical" name="LPLANE"> T  </i>
   <i type="logical" name="LSCALAPACK"> T  </i>
   <i type="logical" name="LSCAAWARE"> F  </i>
   <i type="logical" name="LSCALU"> F  </i>
   <i type="logical" name="LASYNC"> F  </i>
   <i type="logical" name="LORBITALREAL"> F  </i>
  </separator>
  <separator name="miscellaneous" >
   <i type="int" name="IDIOT">     3</i>
   <i type="int" name="ISPECIAL">     0</i>
   <i type="logical" name="LMUSIC"> F  </i>
   <v name="POMASS">     95.94000000     32.06600000</v>
   <v name="DARWINR">      0.00000000      0.00000000</v>
   <v name="DARWINV">      1.00000000      1.00000000</v>
   <i type="logical" name="LCORR"> T  </i>
  </separator>
  <i type="logical" name="GGA_COMPAT"> T  </i>
  <i type="logical" name="LBERRY"> F  </i>
  <i type="int" name="ICORELEVEL">     0</i>
  <i type="logical" name="LDAU"> F  </i>
  <i type="int" name="I_CONSTRAINED_M">     0</i>
  <separator name="electronic exchange-correlation" >
   <i type="string" name="GGA">--</i>
   <i type="int" name="VOSKOWN">     0</i>
   <i type="logical" name="LHFCALC"> F  </i>
   <i type="string" name="PRECFOCK"></i>
   <i type="logical" name="LSYMGRAD"> F  </i>
   <i type="logical" name="LHFONE"> F  </i>
   <i type="logical" name="LRHFCALC"> F  </i>
   <i type="logical" name="LTHOMAS"> F  </i>
   <i type="logical" name="LMODELHF"> F  </i>
   <i name="ENCUT4O">     -1.00000000</i>
   <i type="int" name="EXXOEP">     0</i>
   <i type="int" name="FOURORBIT">     0</i>
   <i name="AEXX">      0.00000000</i>
   <i name="HFALPHA">      0.00000000</i>
   <i name="MCALPHA">      0.00000000</i>
   <i name="ALDAX">      1.00000000</i>
   <i name="AGGAX">      1.00000000</i>
   <i name="ALDAC">      1.00000000</i>
   <i name="AGGAC">      1.00000000</i>
   <i type="int" name="NKREDX">     1</i>
   <i type="int" name="NKREDY">     1</i>
   <i type="int" name="NKREDZ">     1</i>
   <i type="logical" name="SHIFTRED"> F  </i>
   <i type="logical" name="ODDONLY"> F  </i>
   <i type="logical" name="EVENONLY"> F  </i>
   <i type="int" name="LMAXFOCK">     0</i>
   <i type="int" name="NMAXFOCKAE">     0</i>
   <i type="logical" name="LFOCKAEDFT"> F  </i>
   <i name="HFSCREEN">      0.00000000</i>
   <i name="HFSCREENC">      0.00000000</i>
   <i type="int" name="NBANDSGWLOW">     0</i>
  </separator>
  <separator name="vdW DFT" >
   <i type="logical" name="LUSE_VDW"> F  </i>
   <i name="Zab_VDW">     -0.84910000</i>
   <i name="PARAM1">      0.12340000</i>
   <i name="PARAM2">      1.00000000</i>
   <i name="PARAM3">      0.00000000</i>
  </separator>
  <separator name="model GW" >
   <i type="int" name="MODEL_GW">     0</i>
   <i name="MODEL_EPS0">     13.11510680</i>
   <i name="MODEL_ALPHA">      1.00000000</i>
  </separator>
  <separator name="linear response parameters" >
   <i type="logical" name="LEPSILON"> F  </i>
   <i type="logical" name="LRPA"> F  </i>
   <i type="logical" name="LNABLA"> F  </i>
   <i type="logical" name="LVEL"> F  </i>
   <i type="int" name="KINTER">     0</i>
   <i name="CSHIFT">      0.10000000</i>
   <i name="OMEGAMAX">     -1.00000000</i>
   <i name="DEG_THRESHOLD">      0.00200000</i>
   <i name="RTIME">     -0.10000000</i>
   <i name="WPLASMAI">      0.00000000</i>
   <v name="DFIELD">      0.00000000      0.00000000      0.00000000</v>
   <v name="WPLASMA">      0.00000000      0.00000000      0.00000000      0.00000000      0.00000000      0.00000000      0.00000000      0.00000000      0.00000000</v>
  </separator>
  <separator name="orbital magnetization" >
   <i type="logical" name="NUCIND"> F  </i>
   <v name="MAGPOS">      0.00000000      0.00000000      0.00000000</v>
   <i type="logical" name="LNICSALL"> T  </i>
   <i type="logical" name="ORBITALMAG"> F  </i>
   <i type="logical" name="LMAGBLOCH"> F  </i>
   <i type="logical" name="LCHIMAG"> F  </i>
   <i type="logical" name="LGAUGE"> T  </i>
   <i type="int" name="MAGATOM">     0</i>
   <v name="MAGDIPOL">      0.00000000      0.00000000      0.00000000</v>
   <v name="AVECCONST">      0.00000000      0.00000000      0.00000000</v>
  </separator>
  <separator name="response functions" >
   <i type="logical" name="LADDER"> F  </i>
   <i type="logical" name="LRPAFORCE"> F  </i>
   <i type="logical" name="LFXC"> F  </i>
   <i type="logical" name="LHARTREE"> T  </i>
   <i type="int" name="IBSE">     0</i>
   <v type="int" name="KPOINT">    -1     0     0     0</v>
   <i type="logical" name="LTCTE"> F  </i>
   <i type="logical" name="LTETE"> F  </i>
   <i type="logical" name="LTRIPLET"> F  </i>
   <i type="logical" name="LFXCEPS"> F  </i>
   <i type="logical" name="LFXHEG"> F  </i>
   <i type="int" name="NATURALO">     2</i>
   <i type="logical" name="L2ORDER"> F  </i>
   <i type="logical" name="LMP2LT"> F  </i>
   <i type="logical" name="LUSEW"> F  </i>
   <i name="ENCUTGW">     -2.00000000</i>
   <i name="ENCUTGWSOFT">     -2.00000000</i>
   <i name="ENCUTLF">     -1.00000000</i>
   <i type="int" name="LMAXMP2">    -1</i>
   <i name="SCISSOR">      0.00000000</i>
   <i type="int" name="NOMEGA">     0</i>
   <i type="int" name="NOMEGAR">     0</i>
   <i type="int" name="NBANDSGW">    -1</i>
   <i type="int" name="NBANDSO">    -1</i>
   <i type="int" name="NBANDSV">    -1</i>
   <i type="int" name="NELM">     1</i>
   <i type="int" name="NELMHF">     1</i>
   <i type="int" name="DIM">     3</i>
   <i type="int" name="ANTIRES">     0</i>
   <i name="OMEGAMAX">    -30.00000000</i>
   <i name="OMEGAMIN">    -30.00000000</i>
   <i name="OMEGATL">   -200.00000000</i>
   <i type="int" name="OMEGAGRID">   140</i>
   <i name="CSHIFT">     -0.10000000</i>
   <i type="logical" name="SELFENERGY"> F  </i>
   <i type="logical" name="LSPECTRAL"> F  </i>
   <i type="logical" name="LSPECTRALGW"> F  </i>
   <i type="logical" name="LSINGLES"> F  </i>
   <i type="logical" name="LFERMIGW"> F  </i>
   <i type="logical" name="ODDONLYGW"> F  </i>
   <i type="logical" name="EVENONLYGW"> F  </i>
   <i type="int" name="NKREDLFX">     1</i>
   <i type="int" name="NKREDLFY">     1</i>
   <i type="int" name="NKREDLFZ">     1</i>
   <i type="int" name="MAXMEM">  2800</i>
   <i type="int" name="TELESCOPE">     0</i>
   <i type="int" name="TAUPAR">     1</i>
   <i type="int" name="OMEGAPAR">    -1</i>
   <i name="LAMBDA">      1.00000000</i>
  </separator>
  <separator name="External order field" >
   <i name="OFIELD_KAPPA">      0.00000000</i>
   <v name="OFIELD_K">      0.00000000      0.00000000      0.00000000</v>
   <i name="OFIELD_Q6_NEAR">      0.00000000</i>
   <i name="OFIELD_Q6_FAR">      0.00000000</i>
   <i name="OFIELD_A">      0.00000000</i>
  </separator>
 </parameters>
 <atominfo>
  <atoms>       6 </atoms>
  <types>       2 </types>
  <array name="atoms" >
   <dimension dim="1">ion</dimension>
   <field type="string">element</field>
   <field type="int">atomtype</field>
   <set>
    <rc><c>Mo</c><c>   1</c></rc>
    <rc><c>Mo</c><c>   1</c></rc>
    <rc><c>S </c><c>   2</c></rc>
    <rc><c>S </c><c>   2</c></rc>
    <rc><c>S </c><c>   2</c></rc>
    <rc><c>S </c><c>   2</c></rc>
   </set>
  </array>
  <array name="atomtypes" >
   <dimension dim="1">type</dimension>
   <field type="int">atomspertype</field>
   <field type="string">element</field>
   <field>mass</field>
   <field>valence</field>
   <field type="string">pseudopotential</field>
   <set>
    <rc><c>   2</c><c>Mo</c><c>     95.94000000</c><c>      6.00000000</c><c> PAW_PBE Mo 08Apr2002                   </c></rc>
    <rc><c>   4</c><c>S </c><c>     32.06600000</c><c>      6.00000000</c><c>  PAW_PBE S 17Jan2003                   </c></rc>
   </set>
  </array>
 </atominfo>
 <structure name="initialpos" >
  <crystal>
   <varray name="basis" >
    <v>       3.19031573       0.00000000       0.00000000 </v>
    <v>      -1.59515786       2.76289447       0.00000000 </v>
    <v>       0.00000000       0.00000000      14.87900430 </v>
   </varray>
   <i name="volume">    131.15106795 </i>
   <varray name="rec_basis" >
    <v>       0.31344860       0.18096963       0.00000000 </v>
    <v>       0.00000000       0.36193927       0.00000000 </v>
    <v>       0.00000000       0.00000000       0.06720880 </v>
   </varray>
  </crystal>
  <varray name="positions" >
   <v>       0.33333300       0.66666700       0.25000000 </v>
   <v>       0.66666700       0.33333300       0.75000000 </v>
   <v>       0.33333300       0.66666700       0.85517400 </v>
   <v>       0.66666700       0.33333300       0.14482600 </v>
   <v>       0.66666600       0.33333300       0.35517400 </v>
   <v>       0.33333400       0.66666700       0.64482600 </v>
  </varray>
 </structure>
 <calculation>
  <scstep>
   <time name="dav">    1.31    1.32</time>
   <time name="total">    1.40    1.46</time>
   <energy>
    <i name="alphaZ">     90.42577596 </i>
    <i name="ewald">  -1146.88905665 </i>
    <i name="hartreedc">   -535.10238363 </i>
    <i name="XCdc">    -72.59367983 </i>
    <i name="pawpsdc">    813.77302396 </i>
    <i name="pawaedc">   -658.68146406 </i>
    <i name="eentropy">      0.00000000 </i>
    <i name="bandstr">    258.83224856 </i>
    <i name="atom">   1542.32669558 </i>
    <i name="e_fr_energy">    292.09115990 </i>
    <i name="e_wo_entrp">    292.09115990 </i>
    <i name="e_0_energy">    292.09115990 </i>
   </energy>
  </scstep>
  <scstep>
   <time name="dav">    1.63    1.64</time>
   <time name="total">    1.64    1.64</time>
   <energy>
    <i name="e_fr_energy">    -17.53927784 </i>
    <i name="e_wo_entrp">    -17.53927784 </i>
    <i name="e_0_energy">    -17.53927784 </i>
   </energy>
  </scstep>
  <scstep>
   <time name="dav">    1.67    1.67</time>
   <time name="total">    1.67    1.67</time>
   <energy>
    <i name="e_fr_energy">    -45.98531867 </i>
    <i name="e_wo_entrp">    -45.98531867 </i>
    <i name="e_0_energy">    -45.98531867 </i>
   </energy>
  </scstep>
  <scstep>
   <time name="dav">    1.62    1.62</time>
   <time name="total">    1.62    1.62</time>
   <energy>
    <i name="e_fr_energy">    -46.79882101 </i>
    <i name="e_wo_entrp">    -46.79882101 </i>
    <i name="e_0_energy">    -46.79882101 </i>
   </energy>
  </scstep>
  <scstep>
   <time name="dav">    1.71    1.72</time>
   <time name="total">    1.81    1.81</time>
   <energy>
    <i name="e_fr_energy">    -46.82452943 </i>
    <i name="e_wo_entrp">    -46.82452943 </i>
    <i name="e_0_energy">    -46.82452943 </i>
   </energy>
  </scstep>
  <scstep>
   <time name="diag">    0.22    0.22</time>
   <time name="diis">    1.12    1.12</time>
   <time name="orth">    0.03    0.03</time>
   <time name="total">    1.54    1.55</time>
   <energy>
    <i name="e_fr_energy">    -44.43043277 </i>
    <i name="e_wo_entrp">    -44.43043277 </i>
    <i name="e_0_energy">    -44.43043277 </i>
   </energy>
  </scstep>
  <scstep>
   <time name="diag">    0.22    0.22</time>
   <time name="diis">    1.11    1.11</time>
   <time name="orth">    0.03    0.03</time>
   <time name="total">    1.53    1.53</time>
   <energy>
    <i name="e_fr_energy">    -43.69907501 </i>
    <i name="e_wo_entrp">    -43.69907501 </i>
    <i name="e_0_energy">    -43.69907501 </i>
   </energy>
  </scstep>
  <scstep>
   <time name="diag">    0.21    0.22</time>
   <time name="diis">    1.16    1.16</time>
   <time name="orth">    0.03    0.03</time>
   <time name="total">    1.58    1.58</time>
   <energy>
    <i name="e_fr_energy">    -43.63858054 </i>
    <i name="e_wo_entrp">    -43.63858054 </i>
    <i name="e_0_energy">    -43.63858054 </i>
   </energy>
  </scstep>
  <scstep>
   <time name="diag">    0.22    0.22</time>
   <time name="diis">    1.20    1.19</time>
   <time name="orth">    0.03    0.03</time>
   <time name="total">    1.61    1.62</time>
   <energy>
    <i name="e_fr_energy">    -43.63178604 </i>
    <i name="e_wo_entrp">    -43.63178604 </i>
    <i name="e_0_energy">    -43.63178604 </i>
   </energy>
  </scstep>
  <scstep>
   <time name="diag">    0.22    0.22</time>
   <time name="diis">    1.21    1.21</time>
   <time name="orth">    0.03    0.03</time>
   <time name="total">    1.63    1.63</time>
   <energy>
    <i name="e_fr_energy">    -43.60985410 </i>
    <i name="e_wo_entrp">    -43.60985410 </i>
    <i name="e_0_energy">    -43.60985410 </i>
   </energy>
  </scstep>
  <scstep>
   <time name="diag">    0.22    0.22</time>
   <time name="diis">    1.27    1.27</time>
   <time name="orth">    0.03    0.03</time>
   <time name="total">    1.69    1.69</time>
   <energy>
    <i name="e_fr_energy">    -43.60983898 </i>
    <i name="e_wo_entrp">    -43.60983898 </i>
    <i name="e_0_energy">    -43.60983898 </i>
   </energy>
  </scstep>
  <scstep>
   <time name="diag">    0.22    0.22</time>
   <time name="diis">    1.28    1.28</time>
   <time name="orth">    0.03    0.03</time>
   <time name="total">    1.70    1.70</time>
   <energy>
    <i name="e_fr_energy">    -43.60998299 </i>
    <i name="e_wo_entrp">    -43.60998299 </i>
    <i name="e_0_energy">    -43.60998299 </i>
   </energy>
  </scstep>
  <scstep>
   <time name="diag">    0.22    0.22</time>
   <time name="diis">    1.27    1.27</time>
   <time name="orth">    0.03    0.03</time>
   <time name="total">    1.69    1.69</time>
   <energy>
    <i name="e_fr_energy">    -43.60999004 </i>
    <i name="e_wo_entrp">    -43.60999004 </i>
    <i name="e_0_energy">    -43.60999004 </i>
   </energy>
  </scstep>
  <scstep>
   <time name="diag">    0.22    0.22</time>
   <time name="diis">    0.88    0.88</time>
   <time name="orth">    0.03    0.03</time>
   <time name="total">    1.21    1.21</time>
   <energy>
    <i name="alphaZ">     90.42577596 </i>
    <i name="ewald">  -1146.88905665 </i>
    <i name="hartreedc">   -542.95772235 </i>
    <i name="XCdc">    -70.38728941 </i>
    <i name="pawpsdc">    943.63337377 </i>
    <i name="pawaedc">   -792.01622120 </i>
    <i name="eentropy">      0.00000000 </i>
    <i name="bandstr">    -67.74554145 </i>
    <i name="atom">   1542.32669558 </i>
    <i name="e_fr_energy">    -43.60998573 </i>
    <i name="e_wo_entrp">    -43.60998573 </i>
    <i name="e_0_energy">    -43.60998573 </i>
   </energy>
  </scstep>
  <structure>
   <crystal>
    <varray name="basis" >
     <v>       3.19031573       0.00000000       0.00000000 </v>
     <v>      -1.59515786       2.76289447       0.00000000 </v>
     <v>       0.00000000       0.00000000      14.87900430 </v>
    </varray>
    <i name="volume">    131.15106795 </i>
    <varray name="rec_basis" >
     <v>       0.31344860       0.18096963       0.00000000 </v>
     <v>       0.00000000       0.36193927       0.00000000 </v>
     <v>       0.00000000       0.00000000       0.06720880 </v>
    </varray>
   </crystal>
   <varray name="positions" >
    <v>       0.33333300       0.66666700       0.25000000 </v>
    <v>       0.66666700       0.33333300       0.75000000 </v>
    <v>       0.33333300       0.66666700       0.85517400 </v>
    <v>       0.66666700       0.33333300       0.14482600 </v>
    <v>       0.66666600       0.33333300       0.35517400 </v>
    <v>       0.33333400       0.66666700       0.64482600 </v>
   </varray>
  </structure>
  <varray name="forces" >
   <v>      -0.00000000       0.00000000       0.00000000 </v>
   <v>      -0.00000000       0.00000000       0.00000000 </v>
   <v>      -0.00000000       0.00000000      -0.08248064 </v>
   <v>       0.00000000       0.00000000       0.08248064 </v>
   <v>       0.00000000      -0.00000000      -0.08248064 </v>
   <v>      -0.00000000       0.00000000       0.08248064 </v>
  </varray>
  <varray name="stress" >
   <v>      -4.51882455       0.00000000       0.00000000 </v>
   <v>       0.00000000      -4.51882455       0.00000000 </v>
   <v>       0.00000000      -0.00000000     -16.09432084 </v>
  </varray>
  <energy>
   <i name="e_fr_energy">    -44.94127275 </i>
   <i name="e_wo_entrp">    -44.94127275 </i>
   <i name="e_0_energy">      0.00000000 </i>
  </energy>
  <time name="totalsc">   24.56   24.71</time>
  <eigenvalues>
   <array>
    <dimension dim="1">band</dimension>
    <dimension dim="2">kpoint</dimension>
    <dimension dim="3">spin</dimension>
    <field>eigene</field>
    <field>occ</field>
    <set>
     <set comment="spin 1">
      <set comment="kpoint 1">
       <r>  -10.9300    1.0000 </r>
       <r>  -10.9110    1.0000 </r>
       <r>   -9.7295    1.0000 </r>
       <r>   -9.6955    1.0000 </r>
       <r>   -2.5237    1.0000 </r>
       <r>   -2.3623    1.0000 </r>
       <r>    0.5194    1.0000 </r>
       <r>    0.5194    1.0000 </r>
       <r>    0.5200    1.0000 </r>
       <r>    0.5200    1.0000 </r>
       <r>    1.1057    1.0000 </r>
       <r>    1.6243    1.0000 </r>
       <r>    1.6244    1.0000 </r>
       <r>    1.6263    1.0000 </r>
       <r>    1.6263    1.0000 </r>
       <r>    1.6740    1.0000 </r>
       <r>    2.9226    1.0000 </r>
       <r>    3.2984    1.0000 </r>
       <r>    5.8753    0.0000 </r>
       <r>    5.8834    0.0000 </r>
       <r>    5.9261    0.0000 </r>
       <r>    6.0381    0.0000 </r>
      </set>
      <set comment="kpoint 2">
       <r>  -10.7156    1.0000 </r>
       <r>  -10.6970    1.0000 </r>
       <r>   -9.6258    1.0000 </r>
       <r>   -9.5944    1.0000 </r>
       <r>   -2.2779    1.0000 </r>
       <r>   -2.1190    1.0000 </r>
       <r>    0.0549    1.0000 </r>
       <r>    0.0576    1.0000 </r>
       <r>    0.4562    1.0000 </r>
       <r>    0.6723    1.0000 </r>
       <r>    0.7535    1.0000 </r>
       <r>    0.7547    1.0000 </r>
       <r>    1.2883    1.0000 </r>
       <r>    1.2909    1.0000 </r>
       <r>    1.9302    1.0000 </r>
       <r>    2.2141    1.0000 </r>
       <r>    2.8435    1.0000 </r>
       <r>    3.0855    1.0000 </r>
       <r>    5.5172    0.0000 </r>
       <r>    5.6430    0.0000 </r>
       <r>    5.7085    0.0000 </r>
       <r>    5.7685    0.0000 </r>
      </set>
      <set comment="kpoint 3">
       <r>  -10.1459    1.0000 </r>
       <r>  -10.1292    1.0000 </r>
       <r>   -9.3535    1.0000 </r>
       <r>   -9.3291    1.0000 </r>
       <r>   -1.8881    1.0000 </r>
       <r>   -1.7772    1.0000 </r>
       <r>   -0.6918    1.0000 </r>
       <r>   -0.6483    1.0000 </r>
       <r>   -0.4616    1.0000 </r>
       <r>   -0.3601    1.0000 </r>
       <r>    0.6528    1.0000 </r>
       <r>    0.6563    1.0000 </r>
       <r>    1.3394    1.0000 </r>
       <r>    1.3429    1.0000 </r>
       <r>    1.7037    1.0000 </r>
       <r>    1.9124    1.0000 </r>
       <r>    2.3699    1.0000 </r>
       <r>    2.4183    1.0000 </r>
       <r>    5.1191    0.0000 </r>
       <r>    5.4399    0.0000 </r>
       <r>    5.4420    0.0000 </r>
       <r>    5.4840    0.0000 </r>
      </set>
      <set comment="kpoint 4">
       <r>   -9.4684    1.0000 </r>
       <r>   -9.4566    1.0000 </r>
       <r>   -9.0400    1.0000 </r>
       <r>   -9.0257    1.0000 </r>
       <r>   -2.2856    1.0000 </r>
       <r>   -2.2509    1.0000 </r>
       <r>   -1.2979    1.0000 </r>
       <r>   -1.2549    1.0000 </r>
       <r>   -0.8468    1.0000 </r>
       <r>   -0.7618    1.0000 </r>
       <r>    0.1552    1.0000 </r>
       <r>    0.1592    1.0000 </r>
       <r>    1.3417    1.0000 </r>
       <r>    1.4493    1.0000 </r>
       <r>    1.9274    1.0000 </r>
       <r>    1.9359    1.0000 </r>
       <r>    2.1734    1.0000 </r>
       <r>    2.2242    1.0000 </r>
       <r>    5.2595    0.0000 </r>
       <r>    5.2686    0.0000 </r>
       <r>    5.4545    0.0000 </r>
       <r>    5.6332    0.0000 </r>
      </set>
      <set comment="kpoint 5">
       <r>   -9.1375    1.0000 </r>
       <r>   -9.1310    1.0000 </r>
       <r>   -8.8927    1.0000 </r>
       <r>   -8.8863    1.0000 </r>
       <r>   -2.6140    1.0000 </r>
       <r>   -2.5871    1.0000 </r>
       <r>   -1.6532    1.0000 </r>
       <r>   -1.6287    1.0000 </r>
       <r>   -0.9685    1.0000 </r>
       <r>   -0.8927    1.0000 </r>
       <r>   -0.0255    1.0000 </r>
       <r>   -0.0213    1.0000 </r>
       <r>    1.2464    1.0000 </r>
       <r>    1.2658    1.0000 </r>
       <r>    2.1527    1.0000 </r>
       <r>    2.1647    1.0000 </r>
       <r>    2.4770    1.0000 </r>
       <r>    2.4808    1.0000 </r>
       <r>    5.2845    0.0000 </r>
       <r>    5.2883    0.0000 </r>
       <r>    5.7745    0.0000 </r>
       <r>    5.8291    0.0000 </r>
      </set>
      <set comment="kpoint 6">
       <r>  -10.3222    1.0000 </r>
       <r>  -10.3048    1.0000 </r>
       <r>   -9.4364    1.0000 </r>
       <r>   -9.4097    1.0000 </r>
       <r>   -1.9212    1.0000 </r>
       <r>   -1.7815    1.0000 </r>
       <r>   -0.5139    1.0000 </r>
       <r>   -0.5013    1.0000 </r>
       <r>   -0.0654    1.0000 </r>
       <r>    0.0766    1.0000 </r>
       <r>    0.4636    1.0000 </r>
       <r>    0.4898    1.0000 </r>
       <r>    1.0927    1.0000 </r>
       <r>    1.0945    1.0000 </r>
       <r>    2.0954    1.0000 </r>
       <r>    2.2977    1.0000 </r>
       <r>    2.5522    1.0000 </r>
       <r>    2.6277    1.0000 </r>
       <r>    5.0622    0.0000 </r>
       <r>    5.3358    0.0000 </r>
       <r>    5.5281    0.0000 </r>
       <r>    5.5741    0.0000 </r>
      </set>
      <set comment="kpoint 7">
       <r>   -9.6870    1.0000 </r>
       <r>   -9.6729    1.0000 </r>
       <r>   -9.1336    1.0000 </r>
       <r>   -9.1154    1.0000 </r>
       <r>   -1.9399    1.0000 </r>
       <r>   -1.8868    1.0000 </r>
       <r>   -0.9514    1.0000 </r>
       <r>   -0.9202    1.0000 </r>
       <r>   -0.7087    1.0000 </r>
       <r>   -0.6352    1.0000 </r>
       <r>   -0.0669    1.0000 </r>
       <r>    0.0078    1.0000 </r>
       <r>    1.1900    1.0000 </r>
       <r>    1.1959    1.0000 </r>
       <r>    1.7869    1.0000 </r>
       <r>    1.8733    1.0000 </r>
       <r>    2.3023    1.0000 </r>
       <r>    2.3121    1.0000 </r>
       <r>    4.9961    0.0000 </r>
       <r>    5.2134    0.0000 </r>
       <r>    5.5561    0.0000 </r>
       <r>    5.9771    0.0000 </r>
      </set>
      <set comment="kpoint 8">
       <r>   -9.1533    1.0000 </r>
       <r>   -9.1456    1.0000 </r>
       <r>   -8.8847    1.0000 </r>
       <r>   -8.8764    1.0000 </r>
       <r>   -2.3268    1.0000 </r>
       <r>   -2.2998    1.0000 </r>
       <r>   -1.7025    1.0000 </r>
       <r>   -1.6934    1.0000 </r>
       <r>   -0.8381    1.0000 </r>
       <r>   -0.7675    1.0000 </r>
       <r>   -0.0675    1.0000 </r>
       <r>   -0.0251    1.0000 </r>
       <r>    1.1996    1.0000 </r>
       <r>    1.2159    1.0000 </r>
       <r>    1.3281    1.0000 </r>
       <r>    1.3664    1.0000 </r>
       <r>    2.6246    1.0000 </r>
       <r>    2.6429    1.0000 </r>
       <r>    5.2708    0.0000 </r>
       <r>    5.3351    0.0000 </r>
       <r>    5.7785    0.0000 </r>
       <r>    5.8557    0.0000 </r>
      </set>
      <set comment="kpoint 9">
       <r>   -9.1688    1.0000 </r>
       <r>   -9.1601    1.0000 </r>
       <r>   -8.8765    1.0000 </r>
       <r>   -8.8666    1.0000 </r>
       <r>   -1.9675    1.0000 </r>
       <r>   -1.9390    1.0000 </r>
       <r>   -1.7540    1.0000 </r>
       <r>   -1.7428    1.0000 </r>
       <r>   -0.4883    1.0000 </r>
       <r>   -0.4639    1.0000 </r>
       <r>   -0.1395    1.0000 </r>
       <r>   -0.0513    1.0000 </r>
       <r>    0.2144    1.0000 </r>
       <r>    0.2370    1.0000 </r>
       <r>    1.4760    1.0000 </r>
       <r>    1.4867    1.0000 </r>
       <r>    2.6006    1.0000 </r>
       <r>    2.6104    1.0000 </r>
       <r>    5.1857    0.0000 </r>
       <r>    5.3149    0.0000 </r>
       <r>    5.8506    0.0000 </r>
       <r>    6.0881    0.0000 </r>
      </set>
      <set comment="kpoint 10">
       <r>   -8.9311    1.0000 </r>
       <r>   -8.9280    1.0000 </r>
       <r>   -8.7540    1.0000 </r>
       <r>   -8.7508    1.0000 </r>
       <r>   -2.1381    1.0000 </r>
       <r>   -2.1274    1.0000 </r>
       <r>   -1.7921    1.0000 </r>
       <r>   -1.7759    1.0000 </r>
       <r>   -0.7783    1.0000 </r>
       <r>   -0.7410    1.0000 </r>
       <r>   -0.1073    1.0000 </r>
       <r>   -0.0864    1.0000 </r>
       <r>    0.1066    1.0000 </r>
       <r>    0.1576    1.0000 </r>
       <r>    1.0755    1.0000 </r>
       <r>    1.1154    1.0000 </r>
       <r>    2.9622    1.0000 </r>
       <r>    2.9834    1.0000 </r>
       <r>    4.9239    0.0000 </r>
       <r>    4.9328    0.0000 </r>
       <r>    6.1503    0.0000 </r>
       <r>    6.3218    0.0000 </r>
      </set>
      <set comment="kpoint 11">
       <r>  -10.9206    1.0000 </r>
       <r>  -10.9206    1.0000 </r>
       <r>   -9.7124    1.0000 </r>
       <r>   -9.7124    1.0000 </r>
       <r>   -2.4458    1.0000 </r>
       <r>   -2.4458    1.0000 </r>
       <r>    0.5197    1.0000 </r>
       <r>    0.5197    1.0000 </r>
       <r>    0.5197    1.0000 </r>
       <r>    0.5197    1.0000 </r>
       <r>    1.3625    1.0000 </r>
       <r>    1.3625    1.0000 </r>
       <r>    1.6253    1.0000 </r>
       <r>    1.6253    1.0000 </r>
       <r>    1.6253    1.0000 </r>
       <r>    1.6253    1.0000 </r>
       <r>    3.1411    1.0000 </r>
       <r>    3.1412    1.0000 </r>
       <r>    5.8737    0.0000 </r>
       <r>    5.8799    0.0000 </r>
       <r>    5.9008    0.0000 </r>
       <r>    6.0868    0.0000 </r>
      </set>
      <set comment="kpoint 12">
       <r>  -10.7064    1.0000 </r>
       <r>  -10.7064    1.0000 </r>
       <r>   -9.6100    1.0000 </r>
       <r>   -9.6100    1.0000 </r>
       <r>   -2.2015    1.0000 </r>
       <r>   -2.2015    1.0000 </r>
       <r>    0.0560    1.0000 </r>
       <r>    0.0560    1.0000 </r>
       <r>    0.5709    1.0000 </r>
       <r>    0.5709    1.0000 </r>
       <r>    0.7541    1.0000 </r>
       <r>    0.7541    1.0000 </r>
       <r>    1.2896    1.0000 </r>
       <r>    1.2896    1.0000 </r>
       <r>    2.0424    1.0000 </r>
       <r>    2.0424    1.0000 </r>
       <r>    2.9905    1.0000 </r>
       <r>    2.9905    1.0000 </r>
       <r>    5.5768    0.0000 </r>
       <r>    5.6105    0.0000 </r>
       <r>    5.7615    0.0000 </r>
       <r>    5.8582    0.0000 </r>
      </set>
      <set comment="kpoint 13">
       <r>  -10.1377    1.0000 </r>
       <r>  -10.1377    1.0000 </r>
       <r>   -9.3412    1.0000 </r>
       <r>   -9.3412    1.0000 </r>
       <r>   -1.8344    1.0000 </r>
       <r>   -1.8344    1.0000 </r>
       <r>   -0.6757    1.0000 </r>
       <r>   -0.6757    1.0000 </r>
       <r>   -0.4029    1.0000 </r>
       <r>   -0.4029    1.0000 </r>
       <r>    0.6545    1.0000 </r>
       <r>    0.6545    1.0000 </r>
       <r>    1.3412    1.0000 </r>
       <r>    1.3412    1.0000 </r>
       <r>    1.8002    1.0000 </r>
       <r>    1.8002    1.0000 </r>
       <r>    2.3996    1.0000 </r>
       <r>    2.3996    1.0000 </r>
       <r>    5.2603    0.0000 </r>
       <r>    5.2621    0.0000 </r>
       <r>    5.4459    0.0000 </r>
       <r>    5.4567    0.0000 </r>
      </set>
      <set comment="kpoint 14">
       <r>   -9.4626    1.0000 </r>
       <r>   -9.4626    1.0000 </r>
       <r>   -9.0327    1.0000 </r>
       <r>   -9.0327    1.0000 </r>
       <r>   -2.2685    1.0000 </r>
       <r>   -2.2685    1.0000 </r>
       <r>   -1.2783    1.0000 </r>
       <r>   -1.2783    1.0000 </r>
       <r>   -0.8022    1.0000 </r>
       <r>   -0.8022    1.0000 </r>
       <r>    0.1572    1.0000 </r>
       <r>    0.1572    1.0000 </r>
       <r>    1.3934    1.0000 </r>
       <r>    1.3934    1.0000 </r>
       <r>    1.9316    1.0000 </r>
       <r>    1.9316    1.0000 </r>
       <r>    2.2008    1.0000 </r>
       <r>    2.2008    1.0000 </r>
       <r>    5.2640    0.0000 </r>
       <r>    5.2640    0.0000 </r>
       <r>    5.5377    0.0000 </r>
       <r>    5.5378    0.0000 </r>
      </set>
      <set comment="kpoint 15">
       <r>   -9.1343    1.0000 </r>
       <r>   -9.1343    1.0000 </r>
       <r>   -8.8895    1.0000 </r>
       <r>   -8.8895    1.0000 </r>
       <r>   -2.6006    1.0000 </r>
       <r>   -2.6006    1.0000 </r>
       <r>   -1.6418    1.0000 </r>
       <r>   -1.6418    1.0000 </r>
       <r>   -0.9296    1.0000 </r>
       <r>   -0.9296    1.0000 </r>
       <r>   -0.0234    1.0000 </r>
       <r>   -0.0234    1.0000 </r>
       <r>    1.2559    1.0000 </r>
       <r>    1.2559    1.0000 </r>
       <r>    2.1587    1.0000 </r>
       <r>    2.1587    1.0000 </r>
       <r>    2.4790    1.0000 </r>
       <r>    2.4790    1.0000 </r>
       <r>    5.2864    0.0000 </r>
       <r>    5.2864    0.0000 </r>
       <r>    5.8020    0.0000 </r>
       <r>    5.8029    0.0000 </r>
      </set>
      <set comment="kpoint 16">
       <r>  -10.3136    1.0000 </r>
       <r>  -10.3136    1.0000 </r>
       <r>   -9.4229    1.0000 </r>
       <r>   -9.4229    1.0000 </r>
       <r>   -1.8542    1.0000 </r>
       <r>   -1.8542    1.0000 </r>
       <r>   -0.5093    1.0000 </r>
       <r>   -0.5093    1.0000 </r>
       <r>    0.0124    1.0000 </r>
       <r>    0.0124    1.0000 </r>
       <r>    0.4757    1.0000 </r>
       <r>    0.4757    1.0000 </r>
       <r>    1.0936    1.0000 </r>
       <r>    1.0936    1.0000 </r>
       <r>    2.1813    1.0000 </r>
       <r>    2.1813    1.0000 </r>
       <r>    2.6016    1.0000 </r>
       <r>    2.6017    1.0000 </r>
       <r>    5.1821    0.0000 </r>
       <r>    5.1868    0.0000 </r>
       <r>    5.5457    0.0000 </r>
       <r>    5.6474    0.0000 </r>
      </set>
      <set comment="kpoint 17">
       <r>   -9.6801    1.0000 </r>
       <r>   -9.6800    1.0000 </r>
       <r>   -9.1244    1.0000 </r>
       <r>   -9.1244    1.0000 </r>
       <r>   -1.9137    1.0000 </r>
       <r>   -1.9137    1.0000 </r>
       <r>   -0.9377    1.0000 </r>
       <r>   -0.9377    1.0000 </r>
       <r>   -0.6719    1.0000 </r>
       <r>   -0.6719    1.0000 </r>
       <r>   -0.0269    1.0000 </r>
       <r>   -0.0269    1.0000 </r>
       <r>    1.1928    1.0000 </r>
       <r>    1.1928    1.0000 </r>
       <r>    1.8280    1.0000 </r>
       <r>    1.8281    1.0000 </r>
       <r>    2.3078    1.0000 </r>
       <r>    2.3078    1.0000 </r>
       <r>    5.1027    0.0000 </r>
       <r>    5.1033    0.0000 </r>
       <r>    5.5582    0.0000 </r>
       <r>    5.9987    0.0000 </r>
      </set>
      <set comment="kpoint 18">
       <r>   -9.1495    1.0000 </r>
       <r>   -9.1495    1.0000 </r>
       <r>   -8.8805    1.0000 </r>
       <r>   -8.8805    1.0000 </r>
       <r>   -2.3134    1.0000 </r>
       <r>   -2.3134    1.0000 </r>
       <r>   -1.6982    1.0000 </r>
       <r>   -1.6982    1.0000 </r>
       <r>   -0.8036    1.0000 </r>
       <r>   -0.8036    1.0000 </r>
       <r>   -0.0449    1.0000 </r>
       <r>   -0.0449    1.0000 </r>
       <r>    1.2071    1.0000 </r>
       <r>    1.2071    1.0000 </r>
       <r>    1.3472    1.0000 </r>
       <r>    1.3472    1.0000 </r>
       <r>    2.6340    1.0000 </r>
       <r>    2.6340    1.0000 </r>
       <r>    5.3033    0.0000 </r>
       <r>    5.3033    0.0000 </r>
       <r>    5.8123    0.0000 </r>
       <r>    5.8195    0.0000 </r>
      </set>
      <set comment="kpoint 19">
       <r>   -9.1645    1.0000 </r>
       <r>   -9.1645    1.0000 </r>
       <r>   -8.8715    1.0000 </r>
       <r>   -8.8715    1.0000 </r>
       <r>   -1.9534    1.0000 </r>
       <r>   -1.9534    1.0000 </r>
       <r>   -1.7482    1.0000 </r>
       <r>   -1.7482    1.0000 </r>
       <r>   -0.4799    1.0000 </r>
       <r>   -0.4799    1.0000 </r>
       <r>   -0.0912    1.0000 </r>
       <r>   -0.0912    1.0000 </r>
       <r>    0.2259    1.0000 </r>
       <r>    0.2259    1.0000 </r>
       <r>    1.4803    1.0000 </r>
       <r>    1.4803    1.0000 </r>
       <r>    2.6056    1.0000 </r>
       <r>    2.6056    1.0000 </r>
       <r>    5.2497    0.0000 </r>
       <r>    5.2498    0.0000 </r>
       <r>    5.9369    0.0000 </r>
       <r>    6.0564    0.0000 </r>
      </set>
      <set comment="kpoint 20">
       <r>   -8.9296    1.0000 </r>
       <r>   -8.9296    1.0000 </r>
       <r>   -8.7524    1.0000 </r>
       <r>   -8.7524    1.0000 </r>
       <r>   -2.1329    1.0000 </r>
       <r>   -2.1329    1.0000 </r>
       <r>   -1.7838    1.0000 </r>
       <r>   -1.7838    1.0000 </r>
       <r>   -0.7607    1.0000 </r>
       <r>   -0.7607    1.0000 </r>
       <r>   -0.0995    1.0000 </r>
       <r>   -0.0995    1.0000 </r>
       <r>    0.1369    1.0000 </r>
       <r>    0.1369    1.0000 </r>
       <r>    1.0940    1.0000 </r>
       <r>    1.0940    1.0000 </r>
       <r>    2.9728    1.0000 </r>
       <r>    2.9728    1.0000 </r>
       <r>    4.9285    0.0000 </r>
       <r>    4.9285    0.0000 </r>
       <r>    6.2320    0.0000 </r>
       <r>    6.2554    0.0000 </r>
      </set>
     </set>
    </set>
   </array>
  </eigenvalues>
  <separator name="orbital magnetization" >
   <v name="MAGDIPOLOUT">      0.00000000      0.00000000      0.00000000</v>
  </separator>
  <dos>
   <i name="efermi">      3.30107825 </i>
   <total>
    <array>
     <dimension dim="1">gridpoints</dimension>
     <dimension dim="2">spin</dimension>
     <field>energy</field>
     <field>total</field>
     <field>integrated</field>
     <set>
      <set comment="spin 1">
       <r>   -12.9300     0.0000     0.0000 </r>
       <r>   -12.8591     0.0000     0.0000 </r>
       <r>   -12.7883     0.0000     0.0000 </r>
       <r>   -12.7174     0.0000     0.0000 </r>
       <r>   -12.6466     0.0000     0.0000 </r>
       <r>   -12.5758     0.0000     0.0000 </r>
       <r>   -12.5049     0.0000     0.0000 </r>
       <r>   -12.4341     0.0000     0.0000 </r>
       <r>   -12.3632     0.0000     0.0000 </r>
       <r>   -12.2924     0.0000     0.0000 </r>
       <r>   -12.2216     0.0000     0.0000 </r>
       <r>   -12.1507     0.0000     0.0000 </r>
       <r>   -12.0799     0.0000     0.0000 </r>
       <r>   -12.0091     0.0000     0.0000 </r>
       <r>   -11.9382     0.0000     0.0000 </r>
       <r>   -11.8674     0.0000     0.0000 </r>
       <r>   -11.7965     0.0000     0.0000 </r>
       <r>   -11.7257     0.0000     0.0000 </r>
       <r>   -11.6549     0.0000     0.0000 </r>
       <r>   -11.5840     0.0000     0.0000 </r>
       <r>   -11.5132     0.0000     0.0000 </r>
       <r>   -11.4423     0.0000     0.0000 </r>
       <r>   -11.3715     0.0000     0.0000 </r>
       <r>   -11.3007     0.0000     0.0000 </r>
       <r>   -11.2298     0.0000     0.0000 </r>
       <r>   -11.1590     0.0000     0.0000 </r>
       <r>   -11.0881     0.0000     0.0000 </r>
       <r>   -11.0173     0.0000     0.0000 </r>
       <r>   -10.9465     0.0000     0.0000 </r>
       <r>   -10.8756     0.3671     0.0084 </r>
       <r>   -10.8048     0.9465     0.0549 </r>
       <r>   -10.7339     1.5258     0.1425 </r>
       <r>   -10.6631     0.9948     0.2297 </r>
       <r>   -10.5923     1.0604     0.3025 </r>
       <r>   -10.5214     1.1261     0.3799 </r>
       <r>   -10.4506     1.1917     0.4620 </r>
       <r>   -10.3797     1.2574     0.5488 </r>
       <r>   -10.3089     1.3191     0.6402 </r>
       <r>   -10.2381     1.3313     0.7340 </r>
       <r>   -10.1672     1.3431     0.8288 </r>
       <r>   -10.0964     1.3801     0.9249 </r>
       <r>   -10.0256     1.4350     1.0246 </r>
       <r>    -9.9547     1.4899     1.1282 </r>
       <r>    -9.8839     1.5448     1.2357 </r>
       <r>    -9.8130     1.5997     1.3470 </r>
       <r>    -9.7422     1.6546     1.4623 </r>
       <r>    -9.6714     3.3258     1.6144 </r>
       <r>    -9.6005     4.4083     1.9273 </r>
       <r>    -9.5297     4.5893     2.2360 </r>
       <r>    -9.4588     5.0856     2.5785 </r>
       <r>    -9.3880     5.5557     2.9574 </r>
       <r>    -9.3172     5.9767     3.3643 </r>
       <r>    -9.2463     6.5401     3.8076 </r>
       <r>    -9.1755     7.1036     4.2909 </r>
       <r>    -9.1046     8.4820     5.0770 </r>
       <r>    -9.0338     8.3386     5.6725 </r>
       <r>    -8.9630     8.6762     6.2745 </r>
       <r>    -8.8921     8.1563     6.9154 </r>
       <r>    -8.8213     6.2883     7.6123 </r>
       <r>    -8.7504     0.0000     8.0000 </r>
       <r>    -8.6796     0.0000     8.0000 </r>
       <r>    -8.6088     0.0000     8.0000 </r>
       <r>    -8.5379     0.0000     8.0000 </r>
       <r>    -8.4671     0.0000     8.0000 </r>
       <r>    -8.3963     0.0000     8.0000 </r>
       <r>    -8.3254     0.0000     8.0000 </r>
       <r>    -8.2546     0.0000     8.0000 </r>
       <r>    -8.1837     0.0000     8.0000 </r>
       <r>    -8.1129     0.0000     8.0000 </r>
       <r>    -8.0421     0.0000     8.0000 </r>
       <r>    -7.9712     0.0000     8.0000 </r>
       <r>    -7.9004     0.0000     8.0000 </r>
       <r>    -7.8295     0.0000     8.0000 </r>
       <r>    -7.7587     0.0000     8.0000 </r>
       <r>    -7.6879     0.0000     8.0000 </r>
       <r>    -7.6170     0.0000     8.0000 </r>
       <r>    -7.5462     0.0000     8.0000 </r>
       <r>    -7.4753     0.0000     8.0000 </r>
       <r>    -7.4045     0.0000     8.0000 </r>
       <r>    -7.3337     0.0000     8.0000 </r>
       <r>    -7.2628     0.0000     8.0000 </r>
       <r>    -7.1920     0.0000     8.0000 </r>
       <r>    -7.1211     0.0000     8.0000 </r>
       <r>    -7.0503     0.0000     8.0000 </r>
       <r>    -6.9795     0.0000     8.0000 </r>
       <r>    -6.9086     0.0000     8.0000 </r>
       <r>    -6.8378     0.0000     8.0000 </r>
       <r>    -6.7669     0.0000     8.0000 </r>
       <r>    -6.6961     0.0000     8.0000 </r>
       <r>    -6.6253     0.0000     8.0000 </r>
       <r>    -6.5544     0.0000     8.0000 </r>
       <r>    -6.4836     0.0000     8.0000 </r>
       <r>    -6.4128     0.0000     8.0000 </r>
       <r>    -6.3419     0.0000     8.0000 </r>
       <r>    -6.2711     0.0000     8.0000 </r>
       <r>    -6.2002     0.0000     8.0000 </r>
       <r>    -6.1294     0.0000     8.0000 </r>
       <r>    -6.0586     0.0000     8.0000 </r>
       <r>    -5.9877     0.0000     8.0000 </r>
       <r>    -5.9169     0.0000     8.0000 </r>
       <r>    -5.8460     0.0000     8.0000 </r>
       <r>    -5.7752     0.0000     8.0000 </r>
       <r>    -5.7044     0.0000     8.0000 </r>
       <r>    -5.6335     0.0000     8.0000 </r>
       <r>    -5.5627     0.0000     8.0000 </r>
       <r>    -5.4918     0.0000     8.0000 </r>
       <r>    -5.4210     0.0000     8.0000 </r>
       <r>    -5.3502     0.0000     8.0000 </r>
       <r>    -5.2793     0.0000     8.0000 </r>
       <r>    -5.2085     0.0000     8.0000 </r>
       <r>    -5.1376     0.0000     8.0000 </r>
       <r>    -5.0668     0.0000     8.0000 </r>
       <r>    -4.9960     0.0000     8.0000 </r>
       <r>    -4.9251     0.0000     8.0000 </r>
       <r>    -4.8543     0.0000     8.0000 </r>
       <r>    -4.7834     0.0000     8.0000 </r>
       <r>    -4.7126     0.0000     8.0000 </r>
       <r>    -4.6418     0.0000     8.0000 </r>
       <r>    -4.5709     0.0000     8.0000 </r>
       <r>    -4.5001     0.0000     8.0000 </r>
       <r>    -4.4293     0.0000     8.0000 </r>
       <r>    -4.3584     0.0000     8.0000 </r>
       <r>    -4.2876     0.0000     8.0000 </r>
       <r>    -4.2167     0.0000     8.0000 </r>
       <r>    -4.1459     0.0000     8.0000 </r>
       <r>    -4.0751     0.0000     8.0000 </r>
       <r>    -4.0042     0.0000     8.0000 </r>
       <r>    -3.9334     0.0000     8.0000 </r>
       <r>    -3.8625     0.0000     8.0000 </r>
       <r>    -3.7917     0.0000     8.0000 </r>
       <r>    -3.7209     0.0000     8.0000 </r>
       <r>    -3.6500     0.0000     8.0000 </r>
       <r>    -3.5792     0.0000     8.0000 </r>
       <r>    -3.5083     0.0000     8.0000 </r>
       <r>    -3.4375     0.0000     8.0000 </r>
       <r>    -3.3667     0.0000     8.0000 </r>
       <r>    -3.2958     0.0000     8.0000 </r>
       <r>    -3.2250     0.0000     8.0000 </r>
       <r>    -3.1541     0.0000     8.0000 </r>
       <r>    -3.0833     0.0000     8.0000 </r>
       <r>    -3.0125     0.0000     8.0000 </r>
       <r>    -2.9416     0.0000     8.0000 </r>
       <r>    -2.8708     0.0000     8.0000 </r>
       <r>    -2.8000     0.0000     8.0000 </r>
       <r>    -2.7291     0.0000     8.0000 </r>
       <r>    -2.6583     0.0000     8.0000 </r>
       <r>    -2.5874     0.1636     8.0015 </r>
       <r>    -2.5166     1.0434     8.0442 </r>
       <r>    -2.4458     2.0426     8.1523 </r>
       <r>    -2.3749     3.2369     8.3382 </r>
       <r>    -2.3041     5.0508     8.6201 </r>
       <r>    -2.2332     5.5281     8.9970 </r>
       <r>    -2.1624     5.9790     9.4050 </r>
       <r>    -2.0916     7.5446     9.9717 </r>
       <r>    -2.0207     6.4314    10.4667 </r>
       <r>    -1.9499     7.2040    10.8945 </r>
       <r>    -1.8790     8.3254    11.6177 </r>
       <r>    -1.8082     2.1535    11.9686 </r>
       <r>    -1.7374     9.4292    12.5457 </r>
       <r>    -1.6665     4.8593    13.0338 </r>
       <r>    -1.5957     2.6856    13.2574 </r>
       <r>    -1.5248     2.4582    13.4396 </r>
       <r>    -1.4540     2.2311    13.6057 </r>
       <r>    -1.3832     2.0042    13.7557 </r>
       <r>    -1.3123     1.7775    13.8896 </r>
       <r>    -1.2415     1.6702    14.0099 </r>
       <r>    -1.1706     1.6777    14.1285 </r>
       <r>    -1.0998     1.6852    14.2476 </r>
       <r>    -1.0290     1.6927    14.3673 </r>
       <r>    -0.9581     1.7486    14.4876 </r>
       <r>    -0.8873     5.0998    14.7089 </r>
       <r>    -0.8165    10.5961    15.2527 </r>
       <r>    -0.7456    12.1254    16.1365 </r>
       <r>    -0.6748     9.8420    16.8505 </r>
       <r>    -0.6039     8.2668    17.5185 </r>
       <r>    -0.5331     5.0638    17.9908 </r>
       <r>    -0.4623     2.6455    18.2466 </r>
       <r>    -0.3914     2.3779    18.4240 </r>
       <r>    -0.3206     2.2052    18.5860 </r>
       <r>    -0.2497     2.0451    18.7365 </r>
       <r>    -0.1789     1.8854    18.8757 </r>
       <r>    -0.1081     9.2038    19.0819 </r>
       <r>    -0.0372    21.3378    20.4522 </r>
       <r>     0.0336     7.6511    21.2853 </r>
       <r>     0.1045     5.2621    21.7451 </r>
       <r>     0.1753     5.9850    22.2269 </r>
       <r>     0.2461     3.7903    22.5549 </r>
       <r>     0.3170     3.6044    22.8168 </r>
       <r>     0.3878     3.4183    23.0656 </r>
       <r>     0.4587     3.3224    23.3013 </r>
       <r>     0.5295     5.0027    23.5976 </r>
       <r>     0.6003     5.0329    23.9629 </r>
       <r>     0.6712     4.3049    24.3115 </r>
       <r>     0.7420     2.7644    24.5612 </r>
       <r>     0.8129     1.7948    24.6997 </r>
       <r>     0.8837     1.7513    24.8253 </r>
       <r>     0.9545     1.7146    24.9480 </r>
       <r>     1.0254     1.6845    25.0683 </r>
       <r>     1.0962     3.9579    25.2276 </r>
       <r>     1.1670    10.3074    25.7192 </r>
       <r>     1.2379    18.2102    26.7574 </r>
       <r>     1.3087    13.9486    27.9309 </r>
       <r>     1.3796     5.2719    28.6064 </r>
       <r>     1.4504     3.1702    28.8823 </r>
       <r>     1.5212     2.9585    29.0968 </r>
       <r>     1.5921     2.8793    29.3036 </r>
       <r>     1.6629     2.9995    29.5084 </r>
       <r>     1.7338     3.5451    29.7347 </r>
       <r>     1.8046     6.2500    30.0632 </r>
       <r>     1.8754     8.5617    30.6105 </r>
       <r>     1.9463     4.8960    31.1084 </r>
       <r>     2.0171     4.4709    31.4449 </r>
       <r>     2.0880     3.2326    31.7227 </r>
       <r>     2.1588     1.6918    31.8940 </r>
       <r>     2.2296     2.3703    32.0131 </r>
       <r>     2.3005     5.7768    32.2919 </r>
       <r>     2.3713     7.9011    32.8657 </r>
       <r>     2.4422     7.2375    33.3986 </r>
       <r>     2.5130     6.7037    33.8934 </r>
       <r>     2.5838     6.1683    34.3479 </r>
       <r>     2.6547     4.3475    34.7409 </r>
       <r>     2.7255     3.8241    35.0303 </r>
       <r>     2.7963     3.3001    35.2827 </r>
       <r>     2.8672     2.9849    35.5006 </r>
       <r>     2.9380     2.4824    35.6991 </r>
       <r>     3.0089     0.9717    35.8770 </r>
       <r>     3.0797     0.8534    35.9427 </r>
       <r>     3.1505     0.3397    35.9833 </r>
       <r>     3.2214     0.0922    35.9976 </r>
       <r>     3.2922     0.0006    36.0000 </r>
       <r>     3.3631     0.0000    36.0000 </r>
       <r>     3.4339     0.0000    36.0000 </r>
       <r>     3.5047     0.0000    36.0000 </r>
       <r>     3.5756     0.0000    36.0000 </r>
       <r>     3.6464     0.0000    36.0000 </r>
       <r>     3.7173     0.0000    36.0000 </r>
       <r>     3.7881     0.0000    36.0000 </r>
       <r>     3.8589     0.0000    36.0000 </r>
       <r>     3.9298     0.0000    36.0000 </r>
       <r>     4.0006     0.0000    36.0000 </r>
       <r>     4.0715     0.0000    36.0000 </r>
       <r>     4.1423     0.0000    36.0000 </r>
       <r>     4.2131     0.0000    36.0000 </r>
       <r>     4.2840     0.0000    36.0000 </r>
       <r>     4.3548     0.0000    36.0000 </r>
       <r>     4.4257     0.0000    36.0000 </r>
       <r>     4.4965     0.0000    36.0000 </r>
       <r>     4.5673     0.0000    36.0000 </r>
       <r>     4.6382     0.0000    36.0000 </r>
       <r>     4.7090     0.0000    36.0000 </r>
       <r>     4.7798     0.0000    36.0000 </r>
       <r>     4.8507     0.0000    36.0000 </r>
       <r>     4.9215     0.0000    36.0000 </r>
       <r>     4.9924     1.5205    36.1494 </r>
       <r>     5.0632     4.7746    36.3615 </r>
       <r>     5.1340     8.3583    36.8274 </r>
       <r>     5.2049    12.5270    37.5659 </r>
       <r>     5.2757    25.2909    38.5986 </r>
       <r>     5.3466     2.3387    39.4386 </r>
       <r>     5.4174     1.6658    39.5773 </r>
       <r>     5.4882     6.3715    39.8090 </r>
       <r>     5.5591     6.3082    40.4645 </r>
       <r>     5.6299     7.2622    40.9476 </r>
       <r>     5.7008     7.5281    41.4743 </r>
       <r>     5.7716     7.7113    42.0152 </r>
       <r>     5.8424     7.1206    42.6509 </r>
       <r>     5.9133     4.3053    42.9920 </r>
       <r>     5.9841     4.7216    43.2956 </r>
       <r>     6.0550     2.7057    43.5994 </r>
       <r>     6.1258     1.7678    43.7400 </r>
       <r>     6.1966     1.6103    43.8677 </r>
       <r>     6.2675     1.1881    43.9552 </r>
       <r>     6.3383     0.0000    44.0000 </r>
       <r>     6.4091     0.0000    44.0000 </r>
       <r>     6.4800     0.0000    44.0000 </r>
       <r>     6.5508     0.0000    44.0000 </r>
       <r>     6.6217     0.0000    44.0000 </r>
       <r>     6.6925     0.0000    44.0000 </r>
       <r>     6.7633     0.0000    44.0000 </r>
       <r>     6.8342     0.0000    44.0000 </r>
       <r>     6.9050     0.0000    44.0000 </r>
       <r>     6.9759     0.0000    44.0000 </r>
       <r>     7.0467     0.0000    44.0000 </r>
       <r>     7.1175     0.0000    44.0000 </r>
       <r>     7.1884     0.0000    44.0000 </r>
       <r>     7.2592     0.0000    44.0000 </r>
       <r>     7.3301     0.0000    44.0000 </r>
       <r>     7.4009     0.0000    44.0000 </r>
       <r>     7.4717     0.0000    44.0000 </r>
       <r>     7.5426     0.0000    44.0000 </r>
       <r>     7.6134     0.0000    44.0000 </r>
       <r>     7.6843     0.0000    44.0000 </r>
       <r>     7.7551     0.0000    44.0000 </r>
       <r>     7.8259     0.0000    44.0000 </r>
       <r>     7.8968     0.0000    44.0000 </r>
       <r>     7.9676     0.0000    44.0000 </r>
       <r>     8.0385     0.0000    44.0000 </r>
       <r>     8.1093     0.0000    44.0000 </r>
       <r>     8.1801     0.0000    44.0000 </r>
       <r>     8.2510     0.0000    44.0000 </r>
       <r>     8.3218     0.0000    44.0000 </r>
      </set>
     </set>
    </array>
   </total>
  </dos>
 </calculation>
 <structure name="finalpos" >
  <crystal>
   <varray name="basis" >
    <v>       3.19031573       0.00000000       0.00000000 </v>
    <v>      -1.59515786       2.76289447       0.00000000 </v>
    <v>       0.00000000       0.00000000      14.87900430 </v>
   </varray>
   <i name="volume">    131.15106795 </i>
   <varray name="rec_basis" >
    <v>       0.31344860       0.18096963       0.00000000 </v>
    <v>       0.00000000       0.36193927       0.00000000 </v>
    <v>       0.00000000       0.00000000       0.06720880 </v>
   </varray>
  </crystal>
  <varray name="positions" >
   <v>       0.33333300       0.66666700       0.25000000 </v>
   <v>       0.66666700       0.33333300       0.75000000 </v>
   <v>       0.33333300       0.66666700       0.85517400 </v>
   <v>       0.66666700       0.33333300       0.14482600 </v>
   <v>       0.66666600       0.33333300       0.35517400 </v>
   <v>       0.33333400       0.66666700       0.64482600 </v>
  </varray>
 </structure>
</modeling>
