   3   3   0   0
  0.9072772E+02  0.3190316E-09  0.3190316E-09  0.3087900E-08  0.5000000E-15
  1.000000000000000E-004
  CAR 
 unknown system                          
      5.78037387    -19.78833282  301     -3.74396937      1.00000000
    -19.788  0.0000E+00  0.0000E+00
    -19.703  0.0000E+00  0.0000E+00
    -19.618  0.0000E+00  0.0000E+00
    -19.533  0.0000E+00  0.0000E+00
    -19.447  0.0000E+00  0.0000E+00
    -19.362  0.0000E+00  0.0000E+00
    -19.277  0.0000E+00  0.0000E+00
    -19.192  0.0000E+00  0.0000E+00
    -19.107  0.0000E+00  0.0000E+00
    -19.021  0.0000E+00  0.0000E+00
    -18.936  0.0000E+00  0.0000E+00
    -18.851  0.0000E+00  0.0000E+00
    -18.766  0.0000E+00  0.0000E+00
    -18.680  0.0000E+00  0.0000E+00
    -18.595  0.0000E+00  0.0000E+00
    -18.510  0.0000E+00  0.0000E+00
    -18.425  0.0000E+00  0.0000E+00
    -18.339  0.0000E+00  0.0000E+00
    -18.254  0.0000E+00  0.0000E+00
    -18.169  0.0000E+00  0.0000E+00
    -18.084  0.0000E+00  0.0000E+00
    -17.999  0.0000E+00  0.0000E+00
    -17.913  0.0000E+00  0.0000E+00
    -17.828  0.0000E+00  0.0000E+00
    -17.743  0.2850E+00  0.6483E-02
    -17.658  0.8188E+00  0.5352E-01
    -17.572  0.5060E+00  0.9735E-01
    -17.487  0.5596E+00  0.1428E+00
    -17.402  0.6132E+00  0.1927E+00
    -17.317  0.6010E+00  0.2449E+00
    -17.231  0.5967E+00  0.2954E+00
    -17.146  0.6266E+00  0.3476E+00
    -17.061  0.6565E+00  0.4022E+00
    -16.976  0.6864E+00  0.4595E+00
    -16.891  0.7177E+00  0.5192E+00
    -16.805  0.7550E+00  0.5820E+00
    -16.720  0.7926E+00  0.6480E+00
    -16.635  0.8338E+00  0.7173E+00
    -16.550  0.1714E+01  0.8030E+00
    -16.464  0.2014E+01  0.9775E+00
    -16.379  0.2397E+01  0.1167E+01
    -16.294  0.2550E+01  0.1375E+01
    -16.209  0.2859E+01  0.1605E+01
    -16.123  0.3277E+01  0.1866E+01
    -16.038  0.3735E+01  0.2164E+01
    -15.953  0.4092E+01  0.2594E+01
    -15.868  0.4084E+01  0.2942E+01
    -15.783  0.4001E+01  0.3361E+01
    -15.697  0.3369E+01  0.3758E+01
    -15.612  0.0000E+00  0.4000E+01
    -15.527  0.0000E+00  0.4000E+01
    -15.442  0.0000E+00  0.4000E+01
    -15.356  0.0000E+00  0.4000E+01
    -15.271  0.0000E+00  0.4000E+01
    -15.186  0.0000E+00  0.4000E+01
    -15.101  0.0000E+00  0.4000E+01
    -15.016  0.0000E+00  0.4000E+01
    -14.930  0.0000E+00  0.4000E+01
    -14.845  0.0000E+00  0.4000E+01
    -14.760  0.0000E+00  0.4000E+01
    -14.675  0.0000E+00  0.4000E+01
    -14.589  0.0000E+00  0.4000E+01
    -14.504  0.0000E+00  0.4000E+01
    -14.419  0.0000E+00  0.4000E+01
    -14.334  0.0000E+00  0.4000E+01
    -14.248  0.0000E+00  0.4000E+01
    -14.163  0.0000E+00  0.4000E+01
    -14.078  0.0000E+00  0.4000E+01
    -13.993  0.0000E+00  0.4000E+01
    -13.908  0.0000E+00  0.4000E+01
    -13.822  0.0000E+00  0.4000E+01
    -13.737  0.0000E+00  0.4000E+01
    -13.652  0.0000E+00  0.4000E+01
    -13.567  0.0000E+00  0.4000E+01
    -13.481  0.0000E+00  0.4000E+01
    -13.396  0.0000E+00  0.4000E+01
    -13.311  0.0000E+00  0.4000E+01
    -13.226  0.0000E+00  0.4000E+01
    -13.140  0.0000E+00  0.4000E+01
    -13.055  0.0000E+00  0.4000E+01
    -12.970  0.0000E+00  0.4000E+01
    -12.885  0.0000E+00  0.4000E+01
    -12.800  0.0000E+00  0.4000E+01
    -12.714  0.0000E+00  0.4000E+01
    -12.629  0.0000E+00  0.4000E+01
    -12.544  0.0000E+00  0.4000E+01
    -12.459  0.0000E+00  0.4000E+01
    -12.373  0.0000E+00  0.4000E+01
    -12.288  0.0000E+00  0.4000E+01
    -12.203  0.0000E+00  0.4000E+01
    -12.118  0.0000E+00  0.4000E+01
    -12.032  0.0000E+00  0.4000E+01
    -11.947  0.0000E+00  0.4000E+01
    -11.862  0.0000E+00  0.4000E+01
    -11.777  0.0000E+00  0.4000E+01
    -11.692  0.0000E+00  0.4000E+01
    -11.606  0.0000E+00  0.4000E+01
    -11.521  0.0000E+00  0.4000E+01
    -11.436  0.0000E+00  0.4000E+01
    -11.351  0.0000E+00  0.4000E+01
    -11.265  0.0000E+00  0.4000E+01
    -11.180  0.0000E+00  0.4000E+01
    -11.095  0.0000E+00  0.4000E+01
    -11.010  0.0000E+00  0.4000E+01
    -10.925  0.0000E+00  0.4000E+01
    -10.839  0.0000E+00  0.4000E+01
    -10.754  0.0000E+00  0.4000E+01
    -10.669  0.0000E+00  0.4000E+01
    -10.584  0.0000E+00  0.4000E+01
    -10.498  0.0000E+00  0.4000E+01
    -10.413  0.0000E+00  0.4000E+01
    -10.328  0.0000E+00  0.4000E+01
    -10.243  0.0000E+00  0.4000E+01
    -10.157  0.0000E+00  0.4000E+01
    -10.072  0.0000E+00  0.4000E+01
     -9.987  0.0000E+00  0.4000E+01
     -9.902  0.0000E+00  0.4000E+01
     -9.817  0.0000E+00  0.4000E+01
     -9.731  0.0000E+00  0.4000E+01
     -9.646  0.0000E+00  0.4000E+01
     -9.561  0.0000E+00  0.4000E+01
     -9.476  0.0000E+00  0.4000E+01
     -9.390  0.6852E+00  0.4027E+01
     -9.305  0.1455E+01  0.4117E+01
     -9.220  0.1616E+01  0.4251E+01
     -9.135  0.1839E+01  0.4408E+01
     -9.049  0.2089E+01  0.4576E+01
     -8.964  0.4387E+01  0.4879E+01
     -8.879  0.3395E+01  0.5263E+01
     -8.794  0.4155E+01  0.5571E+01
     -8.709  0.4082E+01  0.5971E+01
     -8.623  0.1879E+01  0.6237E+01
     -8.538  0.3646E+01  0.6474E+01
     -8.453  0.1406E+01  0.6648E+01
     -8.368  0.1205E+01  0.6759E+01
     -8.282  0.1003E+01  0.6853E+01
     -8.197  0.9049E+00  0.6934E+01
     -8.112  0.8265E+00  0.7007E+01
     -8.027  0.7928E+00  0.7075E+01
     -7.941  0.8701E+00  0.7146E+01
     -7.856  0.8878E+00  0.7222E+01
     -7.771  0.2166E+01  0.7314E+01
     -7.686  0.4366E+01  0.7645E+01
     -7.601  0.5077E+01  0.8054E+01
     -7.515  0.4952E+01  0.8504E+01
     -7.430  0.2106E+01  0.8933E+01
     -7.345  0.1848E+01  0.9101E+01
     -7.260  0.1114E+01  0.9246E+01
     -7.174  0.1395E+01  0.9370E+01
     -7.089  0.1553E+01  0.9494E+01
     -7.004  0.2941E+01  0.9655E+01
     -6.919  0.5564E+01  0.1001E+02
     -6.834  0.4373E+01  0.1066E+02
     -6.748  0.1990E+01  0.1089E+02
     -6.663  0.2450E+01  0.1110E+02
     -6.578  0.2404E+01  0.1131E+02
     -6.493  0.2258E+01  0.1151E+02
     -6.407  0.1688E+01  0.1169E+02
     -6.322  0.1565E+01  0.1182E+02
     -6.237  0.1967E+01  0.1197E+02
     -6.152  0.1055E+01  0.1210E+02
     -6.066  0.2615E+01  0.1224E+02
     -5.981  0.1722E+01  0.1246E+02
     -5.896  0.1293E+01  0.1255E+02
     -5.811  0.2296E+01  0.1270E+02
     -5.726  0.3516E+01  0.1300E+02
     -5.640  0.3460E+01  0.1329E+02
     -5.555  0.7463E+01  0.1367E+02
     -5.470  0.3281E+01  0.1412E+02
     -5.385  0.3124E+01  0.1440E+02
     -5.299  0.1983E+01  0.1462E+02
     -5.214  0.2543E+01  0.1479E+02
     -5.129  0.2383E+01  0.1500E+02
     -5.044  0.2223E+01  0.1520E+02
     -4.958  0.2120E+01  0.1538E+02
     -4.873  0.2789E+01  0.1557E+02
     -4.788  0.2664E+01  0.1586E+02
     -4.703  0.5297E+00  0.1599E+02
     -4.618  0.1945E+01  0.1605E+02
     -4.532  0.2694E+01  0.1627E+02
     -4.447  0.2738E+01  0.1668E+02
     -4.362  0.2833E+01  0.1692E+02
     -4.277  0.2803E+01  0.1716E+02
     -4.191  0.2261E+01  0.1738E+02
     -4.106  0.1875E+01  0.1756E+02
     -4.021  0.1460E+01  0.1770E+02
     -3.936  0.1465E+01  0.1782E+02
     -3.851  0.5321E+00  0.1794E+02
     -3.765  0.0000E+00  0.1800E+02
     -3.680  0.0000E+00  0.1800E+02
     -3.595  0.0000E+00  0.1800E+02
     -3.510  0.0000E+00  0.1800E+02
     -3.424  0.0000E+00  0.1800E+02
     -3.339  0.0000E+00  0.1800E+02
     -3.254  0.0000E+00  0.1800E+02
     -3.169  0.0000E+00  0.1800E+02
     -3.083  0.0000E+00  0.1800E+02
     -2.998  0.0000E+00  0.1800E+02
     -2.913  0.0000E+00  0.1800E+02
     -2.828  0.0000E+00  0.1800E+02
     -2.743  0.0000E+00  0.1800E+02
     -2.657  0.0000E+00  0.1800E+02
     -2.572  0.0000E+00  0.1800E+02
     -2.487  0.0000E+00  0.1800E+02
     -2.402  0.0000E+00  0.1800E+02
     -2.316  0.0000E+00  0.1800E+02
     -2.231  0.0000E+00  0.1800E+02
     -2.146  0.0000E+00  0.1800E+02
     -2.061  0.0000E+00  0.1800E+02
     -1.975  0.5817E+00  0.1802E+02
     -1.890  0.6779E+00  0.1807E+02
     -1.805  0.7742E+00  0.1814E+02
     -1.720  0.4791E+01  0.1839E+02
     -1.635  0.8644E+01  0.1891E+02
     -1.549  0.1955E+01  0.1974E+02
     -1.464  0.1549E+01  0.1984E+02
     -1.379  0.2742E+01  0.2002E+02
     -1.294  0.6890E+01  0.2054E+02
     -1.208  0.3702E+01  0.2090E+02
     -1.123  0.7260E+01  0.2133E+02
     -1.038  0.3822E+01  0.2189E+02
     -0.953  0.2628E+01  0.2215E+02
     -0.867  0.2437E+01  0.2237E+02
     -0.782  0.2093E+01  0.2256E+02
     -0.697  0.4915E+01  0.2283E+02
     -0.612  0.1858E+01  0.2306E+02
     -0.527  0.2598E+01  0.2326E+02
     -0.441  0.3962E+01  0.2352E+02
     -0.356  0.1594E+01  0.2373E+02
     -0.271  0.1525E+01  0.2386E+02
     -0.186  0.1480E+01  0.2399E+02
     -0.100  0.1440E+01  0.2411E+02
     -0.015  0.2453E+01  0.2426E+02
      0.070  0.1502E+01  0.2443E+02
      0.155  0.7689E+00  0.2452E+02
      0.240  0.1284E+01  0.2461E+02
      0.326  0.1442E+01  0.2473E+02
      0.411  0.1601E+01  0.2486E+02
      0.496  0.1898E+01  0.2532E+02
      0.581  0.1896E+01  0.2548E+02
      0.667  0.1683E+01  0.2563E+02
      0.752  0.1327E+01  0.2576E+02
      0.837  0.1050E+01  0.2586E+02
      0.922  0.7470E+00  0.2594E+02
      1.008  0.0000E+00  0.2600E+02
      1.093  0.0000E+00  0.2600E+02
      1.178  0.0000E+00  0.2600E+02
      1.263  0.0000E+00  0.2600E+02
      1.348  0.0000E+00  0.2600E+02
      1.434  0.0000E+00  0.2600E+02
      1.519  0.0000E+00  0.2600E+02
      1.604  0.0000E+00  0.2600E+02
      1.689  0.4560E-01  0.2600E+02
      1.775  0.1988E+00  0.2601E+02
      1.860  0.3520E+00  0.2603E+02
      1.945  0.2923E+00  0.2607E+02
      2.030  0.3212E+00  0.2609E+02
      2.116  0.3502E+00  0.2612E+02
      2.201  0.3791E+00  0.2615E+02
      2.286  0.4080E+00  0.2619E+02
      2.371  0.4222E+00  0.2622E+02
      2.456  0.4847E+00  0.2626E+02
      2.542  0.6582E+00  0.2631E+02
      2.627  0.8424E+00  0.2637E+02
      2.712  0.1026E+01  0.2645E+02
      2.797  0.1399E+01  0.2655E+02
      2.883  0.1271E+01  0.2667E+02
      2.968  0.1174E+01  0.2677E+02
      3.053  0.1255E+01  0.2687E+02
      3.138  0.1482E+01  0.2699E+02
      3.224  0.1821E+01  0.2713E+02
      3.309  0.1847E+01  0.2729E+02
      3.394  0.1791E+01  0.2744E+02
      3.479  0.1688E+01  0.2760E+02
      3.564  0.1394E+01  0.2775E+02
      3.650  0.1491E+01  0.2787E+02
      3.735  0.7548E+00  0.2798E+02
      3.820  0.0000E+00  0.2800E+02
      3.905  0.0000E+00  0.2800E+02
      3.991  0.0000E+00  0.2800E+02
      4.076  0.0000E+00  0.2800E+02
      4.161  0.0000E+00  0.2800E+02
      4.246  0.0000E+00  0.2800E+02
      4.331  0.0000E+00  0.2800E+02
      4.417  0.0000E+00  0.2800E+02
      4.502  0.0000E+00  0.2800E+02
      4.587  0.0000E+00  0.2800E+02
      4.672  0.0000E+00  0.2800E+02
      4.758  0.0000E+00  0.2800E+02
      4.843  0.0000E+00  0.2800E+02
      4.928  0.0000E+00  0.2800E+02
      5.013  0.0000E+00  0.2800E+02
      5.099  0.0000E+00  0.2800E+02
      5.184  0.0000E+00  0.2800E+02
      5.269  0.0000E+00  0.2800E+02
      5.354  0.0000E+00  0.2800E+02
      5.439  0.0000E+00  0.2800E+02
      5.525  0.0000E+00  0.2800E+02
      5.610  0.0000E+00  0.2800E+02
      5.695  0.0000E+00  0.2800E+02
      5.780  0.0000E+00  0.2800E+02
