    3    3    1    1
  0.9072772E+02  0.3190316E-09  0.3190316E-09  0.3087900E-08  0.5000000E-15
  1.000000000000000E-004
  CAR 
 unknown system                          
     18     14     14
 
  0.0000000E+00  0.0000000E+00  0.0000000E+00  0.1000000E-01
    1      -17.788333   1.000000
    2      -16.580312   1.000000
    3       -9.308744   1.000000
    4       -6.347875   1.000000
    5       -6.347870   1.000000
    6       -5.486708   1.000000
    7       -5.242254   1.000000
    8       -5.242222   1.000000
    9       -3.766397   1.000000
   10       -0.994779   0.000000
   11       -0.994748   0.000000
   12       -0.771079   0.000000
   13       -0.771065   0.000000
   14        1.664010   0.000000
 
  0.1000000E+00 -0.6938894E-17  0.0000000E+00  0.6000000E-01
    1      -17.649921   1.000000
    2      -16.514077   1.000000
    3       -9.147261   1.000000
    4       -6.659977   1.000000
    5       -6.195699   1.000000
    6       -6.103544   1.000000
    7       -5.467907   1.000000
    8       -4.855202   1.000000
    9       -3.846792   1.000000
   10       -1.170678   0.000000
   11       -1.136186   0.000000
   12       -0.930096   0.000000
   13       -0.754916   0.000000
   14        1.922392   0.000000
 
  0.2000000E+00  0.0000000E+00  0.0000000E+00  0.6000000E-01
    1      -17.264209   1.000000
    2      -16.330698   1.000000
    3       -8.788864   1.000000
    4       -7.301005   1.000000
    5       -6.881759   1.000000
    6       -5.958074   1.000000
    7       -5.785934   1.000000
    8       -4.888444   1.000000
    9       -4.210099   1.000000
   10       -1.564532   0.000000
   11       -1.267087   0.000000
   12       -1.113402   0.000000
   13       -0.258957   0.000000
   14        2.483469   0.000000
 
  0.3000000E+00  0.0000000E+00  0.0000000E+00  0.6000000E-01
    1      -16.726845   1.000000
    2      -16.079986   1.000000
    3       -8.794747   1.000000
    4       -7.654892   1.000000
    5       -7.621811   1.000000
    6       -6.442730   1.000000
    7       -5.265360   1.000000
    8       -5.248296   1.000000
    9       -4.668427   1.000000
   10       -1.535152   0.000000
   11       -1.530013   0.000000
   12       -0.582452   0.000000
   13        0.171213   0.000000
   14        3.241381   0.000000
 
  0.4000000E+00  0.0000000E+00  0.0000000E+00  0.6000000E-01
    1      -16.220162   1.000000
    2      -15.851922   1.000000
    3       -9.244849   1.000000
    4       -8.269045   1.000000
    5       -7.703089   1.000000
    6       -6.774542   1.000000
    7       -5.520876   1.000000
    8       -4.854714   1.000000
    9       -4.600754   1.000000
   10       -1.604434   0.000000
   11       -1.249404   0.000000
   12       -0.054751   0.000000
   13        0.413223   0.000000
   14        3.095470   0.000000
 
  0.5000000E+00 -0.2775558E-16  0.0000000E+00  0.3000000E-01
    1      -16.001996   1.000000
    2      -15.757232   1.000000
    3       -9.467962   1.000000
    4       -8.507768   1.000000
    5       -7.797025   1.000000
    6       -6.890856   1.000000
    7       -5.608888   1.000000
    8       -4.708758   1.000000
    9       -4.387012   1.000000
   10       -1.581744   0.000000
   11       -1.065732   0.000000
   12        0.136766   0.000000
   13        0.485753   0.000000
   14        2.415886   0.000000
 
  0.1000000E+00  0.1000000E+00  0.0000000E+00  0.6000000E-01
    1      -17.387496   1.000000
    2      -16.388889   1.000000
    3       -8.876488   1.000000
    4       -7.122106   1.000000
    5       -6.591931   1.000000
    6       -6.007702   1.000000
    7       -5.935707   1.000000
    8       -4.679360   1.000000
    9       -4.073234   1.000000
   10       -1.507948   0.000000
   11       -1.306888   0.000000
   12       -1.185830   0.000000
   13       -0.322215   0.000000
   14        2.344061   0.000000
 
  0.2000000E+00  0.1000000E+00  0.0000000E+00  0.1200000E+00
    1      -16.922980   1.000000
    2      -16.168942   1.000000
    3       -8.650465   1.000000
    4       -7.547741   1.000000
    5       -7.263114   1.000000
    6       -6.618872   1.000000
    7       -5.614747   1.000000
    8       -4.836235   1.000000
    9       -4.495285   1.000000
   10       -1.758301   0.000000
   11       -1.350905   0.000000
   12       -1.079369   0.000000
   13        0.190486   0.000000
   14        3.008472   0.000000
 
  0.3000000E+00  0.1000000E+00  0.0000000E+00  0.1200000E+00
    1      -16.390774   1.000000
    2      -15.921741   1.000000
    3       -8.947012   1.000000
    4       -8.051164   1.000000
    5       -7.577326   1.000000
    6       -6.854618   1.000000
    7       -5.517366   1.000000
    8       -5.245141   1.000000
    9       -4.528403   1.000000
   10       -1.665817   0.000000
   11       -1.302616   0.000000
   12       -0.529142   0.000000
   13        0.465532   0.000000
   14        3.687839   0.000000
 
  0.4000000E+00  0.1000000E+00  0.0000000E+00  0.1200000E+00
    1      -16.012557   1.000000
    2      -15.751071   1.000000
    3       -9.275573   1.000000
    4       -8.548065   1.000000
    5       -7.716001   1.000000
    6       -6.902838   1.000000
    7       -5.551466   1.000000
    8       -5.400372   1.000000
    9       -4.240076   1.000000
   10       -1.558259   0.000000
   11       -1.062366   0.000000
   12       -0.030080   0.000000
   13        0.416019   0.000000
   14        2.767691   0.000000
 
  0.2000000E+00  0.2000000E+00  0.0000000E+00  0.6000000E-01
    1      -16.455937   1.000000
    2      -15.945987   1.000000
    3       -8.749857   1.000000
    4       -7.910873   1.000000
    5       -7.451535   1.000000
    6       -7.036535   1.000000
    7       -5.973338   1.000000
    8       -4.987362   1.000000
    9       -4.522205   1.000000
   10       -1.751420   0.000000
   11       -1.268941   0.000000
   12       -0.908375   0.000000
   13        0.576813   0.000000
   14        3.780374   0.000000
 
  0.3000000E+00  0.2000000E+00  0.0000000E+00  0.1200000E+00
    1      -16.029360   1.000000
    2      -15.741035   1.000000
    3       -8.896557   1.000000
    4       -8.606465   1.000000
    5       -7.456868   1.000000
    6       -6.950535   1.000000
    7       -6.401708   1.000000
    8       -5.413868   1.000000
    9       -4.253115   1.000000
   10       -1.601195   0.000000
   11       -1.013542   0.000000
   12       -0.599489   0.000000
   13        0.728253   0.000000
   14        3.542558   0.000000
 
  0.4000000E+00  0.2000000E+00  0.0000000E+00  0.6000000E-01
    1      -15.851453   1.000000
    2      -15.655288   1.000000
    3       -8.922071   1.000000
    4       -8.875252   1.000000
    5       -7.649985   1.000000
    6       -6.824294   1.000000
    7       -6.459846   1.000000
    8       -5.673837   1.000000
    9       -4.004363   1.000000
   10       -1.770398   0.000000
   11       -0.649603   0.000000
   12       -0.461456   0.000000
   13        0.754767   0.000000
   14        2.955556   0.000000
 
  0.3000000E+00  0.3000000E+00  0.0000000E+00  0.6000000E-01
    1      -15.792518   1.000000
    2      -15.614746   1.000000
    3       -9.022489   1.000000
    4       -8.531153   1.000000
    5       -7.538664   1.000000
    6       -7.217887   1.000000
    7       -6.715722   1.000000
    8       -5.781712   1.000000
    9       -3.882483   1.000000
   10       -1.977521   0.000000
   11       -0.697204   0.000000
   12       -0.422424   0.000000
   13        0.987223   0.000000
   14        3.426069   0.000000
