       N       E                     dE             d eps       ncg     rms          rms(c)
DAV:   1     0.138618401397E+03    0.13862E+03   -0.54094E+03   392   0.808E+02
DAV:   2    -0.607228397752E+01   -0.14469E+03   -0.13696E+03   694   0.163E+02
DAV:   3    -0.230668157753E+02   -0.16995E+02   -0.16828E+02   536   0.732E+01
DAV:   4    -0.233991055619E+02   -0.33229E+00   -0.33098E+00   502   0.130E+01
DAV:   5    -0.234076416233E+02   -0.85361E-02   -0.85302E-02   522   0.202E+00    0.689E+00
RMM:   6    -0.222465528909E+02    0.11611E+01   -0.54454E+00   413   0.124E+01    0.262E+00
RMM:   7    -0.218623853363E+02    0.38417E+00   -0.55866E-01   408   0.342E+00    0.151E+00
RMM:   8    -0.218020939270E+02    0.60291E-01   -0.23266E-01   432   0.251E+00    0.354E-01
RMM:   9    -0.217972141512E+02    0.48798E-02   -0.87152E-03   469   0.606E-01    0.959E-02
RMM:  10    -0.217964560014E+02    0.75815E-03   -0.17081E-03   464   0.220E-01    0.443E-02
RMM:  11    -0.217963898053E+02    0.66196E-04   -0.16375E-03   440   0.190E-01    0.539E-02
RMM:  12    -0.217962207928E+02    0.16901E-03   -0.52523E-04   426   0.129E-01    0.173E-02
RMM:  13    -0.217965596527E+02   -0.33886E-03   -0.16418E-04   397   0.719E-02    0.201E-02
RMM:  14    -0.217966175103E+02   -0.57858E-04   -0.26123E-05   354   0.280E-02    0.487E-03
RMM:  15    -0.217967434695E+02   -0.12596E-03   -0.11256E-05   278   0.172E-02    0.260E-03
RMM:  16    -0.217967847435E+02   -0.41274E-04   -0.26066E-06   241   0.836E-03    0.151E-03
RMM:  17    -0.217968167737E+02   -0.32030E-04   -0.24113E-06   205   0.697E-03    0.115E-03
RMM:  18    -0.217968210563E+02   -0.42826E-05   -0.39501E-07   118   0.415E-03
   1 F= -.22387619E+02 E0= -.22387619E+02  d E =0.000000E+00
