 vasp.5.4.4.18Apr17-6-g9f103f2a35 (build Jun 30 2017 11:15:00) complex          
  
 executed on    STALLO_VASP_5.4.4 date 2019.11.08  12:21:31
 running on    4 total cores
 distrk:  each k-point on    4 cores,    1 groups
 distr:  one band on NCORES_PER_BAND=   2 cores,    2 groups


--------------------------------------------------------------------------------------------------------


 INCAR:
 POTCAR:   PAW_PBE Mo 08Apr2002                   
 POTCAR:    PAW_PBE S 17Jan2003                   
 POTCAR:   PAW_PBE Mo 08Apr2002                   
   VRHFIN =Mo: 4p5s4d                                                           
   LEXCH  = PE                                                                  
   EATOM  =   217.5180 eV,   15.9871 Ry                                         
                                                                                
   TITEL  = PAW_PBE Mo 08Apr2002                                                
   LULTRA =        F    use ultrasoft PP ?                                      
   IUNSCR =        1    unscreen: 0-lin 1-nonlin 2-no                           
   RPACOR =    2.200    partial core radius                                     
   POMASS =   95.940; ZVAL   =    6.000    mass and valenz                      
   RCORE  =    2.750    outmost cutoff radius                                   
   RWIGS  =    2.750; RWIGS  =    1.455    wigner-seitz radius (au A)           
   ENMAX  =  224.584; ENMIN  =  168.438 eV                                      
   RCLOC  =    2.111    cutoff for local pot                                    
   LCOR   =        T    correct aug charges                                     
   LPAW   =        T    paw PP                                                  
   EAUG   =  345.278                                                            
   DEXC   =    -.088                                                            
   RMAX   =    3.077    core radius for proj-oper                               
   RAUG   =    1.300    factor for augmentation sphere                          
   RDEP   =    2.815    radius for radial grids                                 
   QCUT   =   -4.063; QGAM   =    8.126    optimization parameters              
                                                                                
   Description                                                                  
     l     E      TYP  RCUT    TYP  RCUT                                        
     2   .000     23  2.500                                                     
     2   .000     23  2.500                                                     
     0   .000     23  2.600                                                     
     0  1.000     23  2.600                                                     
     1   .400     23  2.750                                                     
     1  2.000     23  2.750                                                     
     3   .000      7   .000                                                     
  local pseudopotential read in
  partial core-charges read in
  atomic valenz-charges read in
  non local Contribution for L=           2  read in
    real space projection operators read in
  non local Contribution for L=           2  read in
    real space projection operators read in
  non local Contribution for L=           0  read in
    real space projection operators read in
  non local Contribution for L=           0  read in
    real space projection operators read in
  non local Contribution for L=           1  read in
    real space projection operators read in
  non local Contribution for L=           1  read in
    real space projection operators read in
    PAW grid and wavefunctions read in
 
   number of l-projection  operators is LMAX  =           6
   number of lm-projection operators is LMMAX =          18
 
 POTCAR:    PAW_PBE S 17Jan2003                   
   VRHFIN =S : s2p4                                                             
   LEXCH  = PE                                                                  
   EATOM  =   276.8230 eV,   20.3459 Ry                                         
                                                                                
   TITEL  = PAW_PBE S 17Jan2003                                                 
   LULTRA =        F    use ultrasoft PP ?                                      
   IUNSCR =        1    unscreen: 0-lin 1-nonlin 2-no                           
   RPACOR =    1.500    partial core radius                                     
   POMASS =   32.066; ZVAL   =    6.000    mass and valenz                      
   RCORE  =    1.900    outmost cutoff radius                                   
   RWIGS  =    2.200; RWIGS  =    1.164    wigner-seitz radius (au A)           
   ENMAX  =  280.000; ENMIN  =  194.016 eV                                      
   ICORE  =        2    local potential                                         
   LCOR   =        T    correct aug charges                                     
   LPAW   =        T    paw PP                                                  
   EAUG   =  335.092                                                            
   DEXC   =     .000                                                            
   RMAX   =    2.867    core radius for proj-oper                               
   RAUG   =    1.300    factor for augmentation sphere                          
   RDEP   =    1.954    radius for radial grids                                 
   QCUT   =   -4.360; QGAM   =    8.721    optimization parameters              
                                                                                
   Description                                                                  
     l     E      TYP  RCUT    TYP  RCUT                                        
     0   .000     23  1.900                                                     
     0   .000     23  1.900                                                     
     1   .000     23  1.900                                                     
     1   .000     23  1.900                                                     
     2   .000     23  1.900                                                     
  local pseudopotential read in
  partial core-charges read in
  atomic valenz-charges read in
  non local Contribution for L=           0  read in
    real space projection operators read in
  non local Contribution for L=           0  read in
    real space projection operators read in
  non local Contribution for L=           1  read in
    real space projection operators read in
  non local Contribution for L=           1  read in
    real space projection operators read in
    PAW grid and wavefunctions read in
 
   number of l-projection  operators is LMAX  =           4
   number of lm-projection operators is LMMAX =           8
 
 PAW_PBE Mo 08Apr2002                   :
 energy of atom  1       EATOM= -217.5180
 kinetic energy error for atom=    0.0023 (will be added to EATOM!!)
  PAW_PBE S 17Jan2003                   :
 energy of atom  2       EATOM= -276.8230
 kinetic energy error for atom=    0.0033 (will be added to EATOM!!)
 
 
 POSCAR: MoS2_mp-2815_computed                   
  positions in cartesian coordinates
  velocities in cartesian coordinates
  No initial velocities read in
 exchange correlation table for  LEXCH =        8
   RHO(1)=    0.500       N(1)  =     2000
   RHO(2)=  100.500       N(2)  =     4000
 


--------------------------------------------------------------------------------------------------------


 ion  position               nearest neighbor table
   1  0.333  0.667  0.120-   3 2.42   2 2.42   2 2.42   3 2.42   3 2.42   2 2.42
   2  0.667  0.333  0.070-   1 2.42   1 2.42   1 2.42
   3  0.667  0.333  0.171-   1 2.42   1 2.42   1 2.42
 
  LATTYP: Found a hexagonal cell.
 ALAT       =     3.1903157300
 C/A-ratio  =     9.6789806757
  
  Lattice vectors:
  
 A1 = (   3.1903157300,   0.0000000000,   0.0000000000)
 A2 = (  -1.5951578650,   2.7628944683,   0.0000000000)
 A3 = (   0.0000000000,   0.0000000000,  30.8790043000)


Analysis of symmetry for initial positions (statically):
=====================================================================
 Subroutine PRICEL returns:
 Original cell was already a primitive cell.
 

 Routine SETGRP: Setting up the symmetry group for a 
 hexagonal supercell.


 Subroutine GETGRP returns: Found 12 space group operations
 (whereof  6 operations were pure point group operations)
 out of a pool of 24 trial point group operations.


The static configuration has the point symmetry C_3v.
 The point group associated with its full space group is D_3h.


Analysis of symmetry for dynamics (positions and initial velocities):
=====================================================================
 Subroutine PRICEL returns:
 Original cell was already a primitive cell.
 

 Routine SETGRP: Setting up the symmetry group for a 
 hexagonal supercell.


 Subroutine GETGRP returns: Found 12 space group operations
 (whereof  6 operations were pure point group operations)
 out of a pool of 24 trial point group operations.


The dynamic configuration has the point symmetry C_3v.
 The point group associated with its full space group is D_3h.


 Subroutine INISYM returns: Found 12 space group operations
 (whereof  6 operations are pure point group operations),
 and found     1 'primitive' translations

 
 
 KPOINTS: k-density: 5.0                          

Automatic generation of k-mesh.
Space group operators:
 irot       det(A)        alpha          n_x          n_y          n_z        tau_x        tau_y        tau_z
    1     1.000000     0.000000     1.000000     0.000000     0.000000     0.000000     0.000000     0.000000
    2     1.000000   120.000000     0.000000     0.000000    -1.000000     0.000000     0.000000     0.000000
    3     1.000000   120.000000     0.000000     0.000000     1.000000     0.000000     0.000000     0.000000
    4    -1.000000   180.000000     1.000000    -0.000000     0.000000     0.000000     0.000000     0.000000
    5    -1.000000   180.000000     0.500000    -0.866025     0.000000     0.000000     0.000000     0.000000
    6    -1.000000   180.000000    -0.500000    -0.866025     0.000000     0.000000     0.000000     0.000000
    7    -1.000000    60.000000     0.000000     0.000000    -1.000000     0.000000     0.000000     0.240924
    8    -1.000000   179.999999     0.000000     0.000000     1.000000     0.000000     0.000000     0.240924
    9    -1.000000    60.000000     0.000000     0.000000     1.000000     0.000000     0.000001     0.240924
   10     1.000000   180.000000     0.866025    -0.500000     0.000000     0.000000     0.000000     0.240924
   11     1.000000   180.000000     0.000000     1.000000     0.000000     0.000000     0.000000     0.240924
   12     1.000000   180.000000     0.866025     0.500000     0.000000    -0.000000     0.000001     0.240924
 
 Subroutine IBZKPT returns following result:
 ===========================================
 
 Found     14 irreducible k-points:
 
 Following reciprocal coordinates:
            Coordinates               Weight
  0.000000  0.000000  0.000000      1.000000
  0.100000 -0.000000  0.000000      6.000000
  0.200000  0.000000  0.000000      6.000000
  0.300000  0.000000  0.000000      6.000000
  0.400000  0.000000  0.000000      6.000000
  0.500000 -0.000000  0.000000      3.000000
  0.100000  0.100000  0.000000      6.000000
  0.200000  0.100000  0.000000     12.000000
  0.300000  0.100000  0.000000     12.000000
  0.400000  0.100000  0.000000     12.000000
  0.200000  0.200000  0.000000      6.000000
  0.300000  0.200000  0.000000     12.000000
  0.400000  0.200000  0.000000      6.000000
  0.300000  0.300000  0.000000      6.000000
 
 Following cartesian coordinates:
            Coordinates               Weight
  0.000000  0.000000  0.000000      1.000000
  0.031345  0.018097  0.000000      6.000000
  0.062690  0.036194  0.000000      6.000000
  0.094035  0.054291  0.000000      6.000000
  0.125379  0.072388  0.000000      6.000000
  0.156724  0.090485  0.000000      3.000000
  0.031345  0.054291  0.000000      6.000000
  0.062690  0.072388  0.000000     12.000000
  0.094035  0.090485  0.000000     12.000000
  0.125379  0.108582  0.000000     12.000000
  0.062690  0.108582  0.000000      6.000000
  0.094035  0.126679  0.000000     12.000000
  0.125379  0.144776  0.000000      6.000000
  0.094035  0.162873  0.000000      6.000000
 
 TETIRR: Found     55 inequivalent tetrahedra from      600


--------------------------------------------------------------------------------------------------------




 Dimension of arrays:
   k-points           NKPTS =     14   k-points in BZ     NKDIM =     14   number of bands    NBANDS=     14
   number of dos      NEDOS =    301   number of ions     NIONS =      3
   non local maximal  LDIM  =      6   non local SUM 2l+1 LMDIM =     18
   total plane-waves  NPLWV =  51840
   max r-space proj   IRMAX =      1   max aug-charges    IRDMAX=  12426
   dimension x,y,z NGX =    18 NGY =   18 NGZ =  160
   dimension x,y,z NGXF=    36 NGYF=   36 NGZF=  320
   support grid    NGXF=    36 NGYF=   36 NGZF=  320
   ions per type =               1   2
   NGX,Y,Z   is equivalent  to a cutoff of   9.38,  9.38,  8.61 a.u.
   NGXF,Y,Z  is equivalent  to a cutoff of  18.76, 18.76, 17.23 a.u.

 SYSTEM =  unknown system                          
 POSCAR =  MoS2_mp-2815_computed                   

 Startparameter for this run:
   NWRITE =      2    write-flag & timer
   PREC   = normal    normal or accurate (medium, high low for compatibility)
   ISTART =      0    job   : 0-new  1-cont  2-samecut
   ICHARG =      2    charge: 1-file 2-atom 10-const
   ISPIN  =      1    spin polarized calculation?
   LNONCOLLINEAR =      F non collinear calculations
   LSORBIT =      F    spin-orbit coupling
   INIWAV =      1    electr: 0-lowe 1-rand  2-diag
   LASPH  =      F    aspherical Exc in radial PAW
   METAGGA=      F    non-selfconsistent MetaGGA calc.

 Electronic Relaxation 1
   ENCUT  =  450.0 eV  33.07 Ry    5.75 a.u.   5.52  5.52 53.41*2*pi/ulx,y,z
   ENINI  =  450.0     initial cutoff
   ENAUG  =  345.3 eV  augmentation charge cutoff
   NELM   =     60;   NELMIN=  4; NELMDL=  0     # of ELM steps 
   EDIFF  = 0.1E-04   stopping-criterion for ELM
   LREAL  =      F    real-space projection
   NLSPLINE    = F    spline interpolate recip. space projectors
   LCOMPAT=      F    compatible to vasp.4.4
   GGA_COMPAT  = T    GGA compatible to vasp.4.4-vasp.4.6
   LMAXPAW     = -100 max onsite density
   LMAXMIX     =    2 max onsite mixed and CHGCAR
   VOSKOWN=      0    Vosko Wilk Nusair interpolation
   ROPT   =    0.00000   0.00000
 Ionic relaxation
   EDIFFG = 0.1E-03   stopping-criterion for IOM
   NSW    =      0    number of steps for IOM
   NBLOCK =      1;   KBLOCK =      1    inner block; outer block 
   IBRION =     -1    ionic relax: 0-MD 1-quasi-New 2-CG
   NFREE  =      0    steps in history (QN), initial steepest desc. (CG)
   ISIF   =      2    stress and relaxation
   IWAVPR =     10    prediction:  0-non 1-charg 2-wave 3-comb
   ISYM   =      2    0-nonsym 1-usesym 2-fastsym
   LCORR  =      T    Harris-Foulkes like correction to forces

   POTIM  = 0.5000    time-step for ionic-motion
   TEIN   =    0.0    initial temperature
   TEBEG  =    0.0;   TEEND  =   0.0 temperature during run
   SMASS  =  -3.00    Nose mass-parameter (am)
   estimated Nose-frequenzy (Omega)   =  0.10E-29 period in steps =****** mass=  -0.233E-27a.u.
   SCALEE = 1.0000    scale energy and forces
   NPACO  =    256;   APACO  = 16.0  distance and # of slots for P.C.
   PSTRESS=    0.0 pullay stress

  Mass of Ions in am
   POMASS =  95.94 32.07
  Ionic Valenz
   ZVAL   =   6.00  6.00
  Atomic Wigner-Seitz radii
   RWIGS  =  -1.00 -1.00
  virtual crystal weights 
   VCA    =   1.00  1.00
   NELECT =      18.0000    total number of electrons
   NUPDOWN=      -1.0000    fix difference up-down

 DOS related values:
   EMIN   =  10.00;   EMAX   =-10.00  energy-range for DOS
   EFERMI =   0.00
   ISMEAR =    -5;   SIGMA  =   0.20  broadening in eV -4-tet -1-fermi 0-gaus

 Electronic relaxation 2 (details)
   IALGO  =     68    algorithm
   LDIAG  =      T    sub-space diagonalisation (order eigenvalues)
   LSUBROT=      F    optimize rotation matrix (better conditioning)
   TURBO    =      0    0=normal 1=particle mesh
   IRESTART =      0    0=no restart 2=restart with 2 vectors
   NREBOOT  =      0    no. of reboots
   NMIN     =      0    reboot dimension
   EREF     =   0.00    reference energy to select bands
   IMIX   =      4    mixing-type and parameters
     AMIX     =   0.40;   BMIX     =  1.00
     AMIX_MAG =   1.60;   BMIX_MAG =  1.00
     AMIN     =   0.10
     WC   =   100.;   INIMIX=   1;  MIXPRE=   1;  MAXMIX= -45

 Intra band minimization:
   WEIMIN = 0.0000     energy-eigenvalue tresh-hold
   EBREAK =  0.18E-06  absolut break condition
   DEPER  =   0.30     relativ break condition  

   TIME   =   0.40     timestep for ELM

  volume/ion in A,a.u.               =      90.73       612.26
  Fermi-wavevector in a.u.,A,eV,Ry     =   0.662031  1.251058  5.963237  0.438286
  Thomas-Fermi vector in A             =   1.734975
 
 Write flags
   LWAVE        =      F    write WAVECAR
   LDOWNSAMPLE  =      F    k-point downsampling of WAVECAR
   LCHARG       =      T    write CHGCAR
   LVTOT        =      F    write LOCPOT, total local potential
   LVHAR        =      F    write LOCPOT, Hartree potential only
   LELF         =      F    write electronic localiz. function (ELF)
   LORBIT       =      0    0 simple, 1 ext, 2 COOP (PROOUT), +10 PAW based schemes


 Dipole corrections
   LMONO  =      F    monopole corrections only (constant potential shift)
   LDIPOL =      F    correct potential (dipole corrections)
   IDIPOL =      0    1-x, 2-y, 3-z, 4-all directions 
   EPSILON=  1.0000000 bulk dielectric constant

 Exchange correlation treatment:
   GGA     =    --    GGA type
   LEXCH   =     8    internal setting for exchange type
   VOSKOWN=      0    Vosko Wilk Nusair interpolation
   LHFCALC =     F    Hartree Fock is set to
   LHFONE  =     F    Hartree Fock one center treatment
   AEXX    =    0.0000 exact exchange contribution

 Linear response parameters
   LEPSILON=     F    determine dielectric tensor
   LRPA    =     F    only Hartree local field effects (RPA)
   LNABLA  =     F    use nabla operator in PAW spheres
   LVEL    =     F    velocity operator in full k-point grid
   LINTERFAST=   F  fast interpolation
   KINTER  =     0    interpolate to denser k-point grid
   CSHIFT  =0.1000    complex shift for real part using Kramers Kronig
   OMEGAMAX=  -1.0    maximum frequency
   DEG_THRESHOLD= 0.2000000E-02 threshold for treating states as degnerate
   RTIME   =   -0.100 relaxation time in fs
  (WPLASMAI=    0.000 imaginary part of plasma frequency in eV, 0.658/RTIME)
   DFIELD  = 0.0000000 0.0000000 0.0000000 field for delta impulse in time
 
 Orbital magnetization related:
   ORBITALMAG=     F  switch on orbital magnetization
   LCHIMAG   =     F  perturbation theory with respect to B field
   DQ        =  0.001000  dq finite difference perturbation B field
   LLRAUG    =     F  two centre corrections for induced B field



--------------------------------------------------------------------------------------------------------


 Static calculation
 charge density and potential will be updated during run
 non-spin polarized calculation
 RMM-DIIS sequential band-by-band and
  variant of blocked Davidson during initial phase
 perform sub-space diagonalisation
    before iterative eigenvector-optimisation
 modified Broyden-mixing scheme, WC =      100.0
 initial mixing is a Kerker type mixing with AMIX =  0.4000 and BMIX =      1.0000
 Hartree-type preconditioning will be used
 using additional bands            5
 reciprocal scheme for non local part
 use partial core corrections
 calculate Harris-corrections to forces 
   (improved forces if not selfconsistent)
 use gradient corrections 
 use of overlap-Matrix (Vanderbilt PP)
 Fermi weights with tetrahedron method with Bloechl corrections


--------------------------------------------------------------------------------------------------------


  energy-cutoff  :      450.00
  volume of cell :      272.18
      direct lattice vectors                 reciprocal lattice vectors
     3.190315730  0.000000000  0.000000000     0.313448600  0.180969634  0.000000000
    -1.595157865  2.762894468  0.000000000     0.000000000  0.361939267  0.000000000
     0.000000000  0.000000000 30.879004300     0.000000000  0.000000000  0.032384464

  length of vectors
     3.190315730  3.190315730 30.879004300     0.361939267  0.361939267  0.032384464


 
 k-points in units of 2pi/SCALE and weight: k-density: 5.0                          
   0.00000000  0.00000000  0.00000000       0.010
   0.03134486  0.01809696  0.00000000       0.060
   0.06268972  0.03619393  0.00000000       0.060
   0.09403458  0.05429089  0.00000000       0.060
   0.12537944  0.07238785  0.00000000       0.060
   0.15672430  0.09048482  0.00000000       0.030
   0.03134486  0.05429089  0.00000000       0.060
   0.06268972  0.07238785  0.00000000       0.120
   0.09403458  0.09048482  0.00000000       0.120
   0.12537944  0.10858178  0.00000000       0.120
   0.06268972  0.10858178  0.00000000       0.060
   0.09403458  0.12667874  0.00000000       0.120
   0.12537944  0.14477571  0.00000000       0.060
   0.09403458  0.16287267  0.00000000       0.060
 
 k-points in reciprocal lattice and weights: k-density: 5.0                          
   0.00000000  0.00000000  0.00000000       0.010
   0.10000000 -0.00000000  0.00000000       0.060
   0.20000000  0.00000000  0.00000000       0.060
   0.30000000  0.00000000  0.00000000       0.060
   0.40000000  0.00000000  0.00000000       0.060
   0.50000000 -0.00000000  0.00000000       0.030
   0.10000000  0.10000000  0.00000000       0.060
   0.20000000  0.10000000  0.00000000       0.120
   0.30000000  0.10000000  0.00000000       0.120
   0.40000000  0.10000000  0.00000000       0.120
   0.20000000  0.20000000  0.00000000       0.060
   0.30000000  0.20000000  0.00000000       0.120
   0.40000000  0.20000000  0.00000000       0.060
   0.30000000  0.30000000  0.00000000       0.060
 
 position of ions in fractional coordinates (direct lattice) 
   0.33333300  0.66666700  0.12046214
   0.66666700  0.33333300  0.06978420
   0.66666600  0.33333300  0.17114009
 
 position of ions in cartesian coordinates  (Angst):
  -0.00000160  1.84193057  3.71975108
   1.59515946  0.92096390  2.15486668
   1.59515627  0.92096390  5.28463547
 


--------------------------------------------------------------------------------------------------------


 k-point  1 :   0.0000 0.0000 0.0000  plane waves:    6011
 k-point  2 :   0.1000-0.0000 0.0000  plane waves:    5995
 k-point  3 :   0.2000 0.0000 0.0000  plane waves:    5925
 k-point  4 :   0.3000 0.0000 0.0000  plane waves:    5898
 k-point  5 :   0.4000 0.0000 0.0000  plane waves:    5878
 k-point  6 :   0.5000-0.0000 0.0000  plane waves:    5816
 k-point  7 :   0.1000 0.1000 0.0000  plane waves:    5967
 k-point  8 :   0.2000 0.1000 0.0000  plane waves:    5915
 k-point  9 :   0.3000 0.1000 0.0000  plane waves:    5903
 k-point 10 :   0.4000 0.1000 0.0000  plane waves:    5860
 k-point 11 :   0.2000 0.2000 0.0000  plane waves:    5903
 k-point 12 :   0.3000 0.2000 0.0000  plane waves:    5872
 k-point 13 :   0.4000 0.2000 0.0000  plane waves:    5866
 k-point 14 :   0.3000 0.3000 0.0000  plane waves:    5886

 maximum and minimum number of plane-waves per node :      3014     2899

 maximum number of plane-waves:      6011
 maximum index in each direction: 
   IXMAX=    5   IYMAX=    5   IZMAX=   53
   IXMIN=   -6   IYMIN=   -5   IZMIN=  -53


 parallel 3D FFT for wavefunctions:
    minimum data exchange during FFTs selected (reduces bandwidth)
 parallel 3D FFT for charge:
    minimum data exchange during FFTs selected (reduces bandwidth)


 total amount of memory used by VASP MPI-rank0    58269. kBytes
=======================================================================

   base      :      30000. kBytes
   nonl-proj :      12297. kBytes
   fftplans  :       4304. kBytes
   grid      :       6871. kBytes
   one-center:         31. kBytes
   wavefun   :       4766. kBytes
 
     INWAV:  cpu time    0.0000: real time    0.0000
 Broyden mixing: mesh for mixing (old mesh)
   NGX = 11   NGY = 11   NGZ =107
  (NGX  = 36   NGY  = 36   NGZ  =320)
  gives a total of  12947 points

 initial charge density was supplied:
 charge density of overlapping atoms calculated
 number of electron      18.0000000 magnetization 
 keeping initial charge density in first step


--------------------------------------------------------------------------------------------------------


 Maximum index for augmentation-charges         2904 (set IRDMAX)


--------------------------------------------------------------------------------------------------------


 First call to EWALD:  gamma=   0.273
 Maximum number of real-space cells 6x 6x 1
 Maximum number of reciprocal cells 2x 2x11

    FEWALD:  cpu time    0.0020: real time    0.0015


--------------------------------------- Iteration      1(   1)  ---------------------------------------


    POTLOK:  cpu time    0.0570: real time    0.0738
    SETDIJ:  cpu time    0.0030: real time    0.0037
     EDDAV:  cpu time    0.3889: real time    0.3933
 BZINTS: Fermi energy:  6.613855; 18.000000 electrons
         Band energy: -11.110409;  BLOECHL correction: -0.275150
       DOS:  cpu time    0.0010: real time    0.0013
    --------------------------------------------
      LOOP:  cpu time    0.4499: real time    0.4721

 eigenvalue-minimisations  :   392
 total energy-change (2. order) : 0.1386184E+03  (-0.5409402E+03)
 number of electron      18.0000000 magnetization 
 augmentation part       18.0000000 magnetization 

 Free energy of the ion-electron system (eV)
  ---------------------------------------------------
  alpha Z        PSCENC =        10.89288288
  Ewald energy   TEWEN  =      5368.65661653
  -Hartree energ DENC   =     -6042.21104469
  -exchange      EXHF   =         0.00000000
  -V(xc)+E(xc)   XCENC  =       -36.31053806
  PAW double counting   =       406.88651198     -329.34073203
  entropy T*S    EENTRO =         0.00000000
  eigenvalues    EBANDS =       -11.11040920
  atomic energy  EATOM  =       771.15511399
  Solvation  Ediel_sol  =         0.00000000
  ---------------------------------------------------
  free energy    TOTEN  =       138.61840140 eV

  energy without entropy =      138.61840140  energy(sigma->0) =      138.61840140


--------------------------------------------------------------------------------------------------------




--------------------------------------- Iteration      1(   2)  ---------------------------------------


     EDDAV:  cpu time    0.5989: real time    0.5999
 BZINTS: Fermi energy: -2.014513; 18.000000 electrons
         Band energy:-155.801095;  BLOECHL correction:  0.000000
       DOS:  cpu time    0.0000: real time    0.0003
    --------------------------------------------
      LOOP:  cpu time    0.5989: real time    0.6002

 eigenvalue-minimisations  :   694
 total energy-change (2. order) :-0.1446907E+03  (-0.1369574E+03)
 number of electron      18.0000000 magnetization 
 augmentation part       18.0000000 magnetization 

 Free energy of the ion-electron system (eV)
  ---------------------------------------------------
  alpha Z        PSCENC =        10.89288288
  Ewald energy   TEWEN  =      5368.65661653
  -Hartree energ DENC   =     -6042.21104469
  -exchange      EXHF   =         0.00000000
  -V(xc)+E(xc)   XCENC  =       -36.31053806
  PAW double counting   =       406.88651198     -329.34073203
  entropy T*S    EENTRO =         0.00000000
  eigenvalues    EBANDS =      -155.80109457
  atomic energy  EATOM  =       771.15511399
  Solvation  Ediel_sol  =         0.00000000
  ---------------------------------------------------
  free energy    TOTEN  =        -6.07228398 eV

  energy without entropy =       -6.07228398  energy(sigma->0) =       -6.07228398


--------------------------------------------------------------------------------------------------------




--------------------------------------- Iteration      1(   3)  ---------------------------------------


     EDDAV:  cpu time    0.4839: real time    0.4863
 BZINTS: Fermi energy: -3.615887; 18.000000 electrons
         Band energy:-172.795626;  BLOECHL correction:  0.000000
       DOS:  cpu time    0.0000: real time    0.0004
    --------------------------------------------
      LOOP:  cpu time    0.4839: real time    0.4867

 eigenvalue-minimisations  :   536
 total energy-change (2. order) :-0.1699453E+02  (-0.1682750E+02)
 number of electron      18.0000000 magnetization 
 augmentation part       18.0000000 magnetization 

 Free energy of the ion-electron system (eV)
  ---------------------------------------------------
  alpha Z        PSCENC =        10.89288288
  Ewald energy   TEWEN  =      5368.65661653
  -Hartree energ DENC   =     -6042.21104469
  -exchange      EXHF   =         0.00000000
  -V(xc)+E(xc)   XCENC  =       -36.31053806
  PAW double counting   =       406.88651198     -329.34073203
  entropy T*S    EENTRO =         0.00000000
  eigenvalues    EBANDS =      -172.79562637
  atomic energy  EATOM  =       771.15511399
  Solvation  Ediel_sol  =         0.00000000
  ---------------------------------------------------
  free energy    TOTEN  =       -23.06681578 eV

  energy without entropy =      -23.06681578  energy(sigma->0) =      -23.06681578


--------------------------------------------------------------------------------------------------------




--------------------------------------- Iteration      1(   4)  ---------------------------------------


     EDDAV:  cpu time    0.4599: real time    0.4595
 BZINTS: Fermi energy: -3.709367; 18.000000 electrons
         Band energy:-173.127916;  BLOECHL correction:  0.000000
       DOS:  cpu time    0.0000: real time    0.0003
    --------------------------------------------
      LOOP:  cpu time    0.4599: real time    0.4599

 eigenvalue-minimisations  :   502
 total energy-change (2. order) :-0.3322898E+00  (-0.3309770E+00)
 number of electron      18.0000000 magnetization 
 augmentation part       18.0000000 magnetization 

 Free energy of the ion-electron system (eV)
  ---------------------------------------------------
  alpha Z        PSCENC =        10.89288288
  Ewald energy   TEWEN  =      5368.65661653
  -Hartree energ DENC   =     -6042.21104469
  -exchange      EXHF   =         0.00000000
  -V(xc)+E(xc)   XCENC  =       -36.31053806
  PAW double counting   =       406.88651198     -329.34073203
  entropy T*S    EENTRO =         0.00000000
  eigenvalues    EBANDS =      -173.12791616
  atomic energy  EATOM  =       771.15511399
  Solvation  Ediel_sol  =         0.00000000
  ---------------------------------------------------
  free energy    TOTEN  =       -23.39910556 eV

  energy without entropy =      -23.39910556  energy(sigma->0) =      -23.39910556


--------------------------------------------------------------------------------------------------------




--------------------------------------- Iteration      1(   5)  ---------------------------------------


     EDDAV:  cpu time    0.4739: real time    0.4732
 BZINTS: Fermi energy: -3.720349; 18.000000 electrons
         Band energy:-173.136452;  BLOECHL correction:  0.000000
       DOS:  cpu time    0.0000: real time    0.0003
    CHARGE:  cpu time    0.0340: real time    0.0338
    MIXING:  cpu time    0.0010: real time    0.0020
    --------------------------------------------
      LOOP:  cpu time    0.5089: real time    0.5093

 eigenvalue-minimisations  :   522
 total energy-change (2. order) :-0.8536061E-02  (-0.8530235E-02)
 number of electron      18.0000016 magnetization 
 augmentation part       -0.9454120 magnetization 

 Broyden mixing:
  rms(total) = 0.68865E+00    rms(broyden)= 0.68864E+00
  rms(prec ) = 0.73246E+00
  weight for this iteration     100.00

 Free energy of the ion-electron system (eV)
  ---------------------------------------------------
  alpha Z        PSCENC =        10.89288288
  Ewald energy   TEWEN  =      5368.65661653
  -Hartree energ DENC   =     -6042.21104469
  -exchange      EXHF   =         0.00000000
  -V(xc)+E(xc)   XCENC  =       -36.31053806
  PAW double counting   =       406.88651198     -329.34073203
  entropy T*S    EENTRO =         0.00000000
  eigenvalues    EBANDS =      -173.13645222
  atomic energy  EATOM  =       771.15511399
  Solvation  Ediel_sol  =         0.00000000
  ---------------------------------------------------
  free energy    TOTEN  =       -23.40764162 eV

  energy without entropy =      -23.40764162  energy(sigma->0) =      -23.40764162


--------------------------------------------------------------------------------------------------------




--------------------------------------- Iteration      1(   6)  ---------------------------------------


    POTLOK:  cpu time    0.0530: real time    0.0564
    SETDIJ:  cpu time    0.0040: real time    0.0026
    EDDIAG:  cpu time    0.0760: real time    0.0775
  RMM-DIIS:  cpu time    0.3349: real time    0.3338
    ORTHCH:  cpu time    0.0060: real time    0.0071
 BZINTS: Fermi energy: -4.716209; 18.000000 electrons
         Band energy:-173.666461;  BLOECHL correction:  0.000000
       DOS:  cpu time    0.0010: real time    0.0003
    CHARGE:  cpu time    0.0330: real time    0.0332
    MIXING:  cpu time    0.0020: real time    0.0018
    --------------------------------------------
      LOOP:  cpu time    0.5099: real time    0.5126

 eigenvalue-minimisations  :   413
 total energy-change (2. order) : 0.1161089E+01  (-0.5445390E+00)
 number of electron      18.0000016 magnetization 
 augmentation part       -0.3990102 magnetization 

 Broyden mixing:
  rms(total) = 0.26154E+00    rms(broyden)= 0.26154E+00
  rms(prec ) = 0.29673E+00
  weight for this iteration     100.00

 eigenvalues of (default mixing * dielectric matrix)
  average eigenvalue GAMMA=   0.8338
  0.8338

 Free energy of the ion-electron system (eV)
  ---------------------------------------------------
  alpha Z        PSCENC =        10.89288288
  Ewald energy   TEWEN  =      5368.65661653
  -Hartree energ DENC   =     -6040.51665464
  -exchange      EXHF   =         0.00000000
  -V(xc)+E(xc)   XCENC  =       -35.42374393
  PAW double counting   =       423.98108984     -347.32539616
  entropy T*S    EENTRO =         0.00000000
  eigenvalues    EBANDS =      -173.66646142
  atomic energy  EATOM  =       771.15511399
  Solvation  Ediel_sol  =         0.00000000
  ---------------------------------------------------
  free energy    TOTEN  =       -22.24655289 eV

  energy without entropy =      -22.24655289  energy(sigma->0) =      -22.24655289


--------------------------------------------------------------------------------------------------------




--------------------------------------- Iteration      1(   7)  ---------------------------------------


    POTLOK:  cpu time    0.0480: real time    0.0479
    SETDIJ:  cpu time    0.0020: real time    0.0026
    EDDIAG:  cpu time    0.0770: real time    0.0772
  RMM-DIIS:  cpu time    0.3280: real time    0.3273
    ORTHCH:  cpu time    0.0070: real time    0.0071
 BZINTS: Fermi energy: -4.191596; 18.000000 electrons
         Band energy:-167.356973;  BLOECHL correction:  0.000000
       DOS:  cpu time    0.0000: real time    0.0003
    CHARGE:  cpu time    0.0330: real time    0.0332
    MIXING:  cpu time    0.0020: real time    0.0018
    --------------------------------------------
      LOOP:  cpu time    0.4969: real time    0.4973

 eigenvalue-minimisations  :   408
 total energy-change (2. order) : 0.3841676E+00  (-0.5586624E-01)
 number of electron      18.0000016 magnetization 
 augmentation part       -0.6002745 magnetization 

 Broyden mixing:
  rms(total) = 0.15052E+00    rms(broyden)= 0.15052E+00
  rms(prec ) = 0.15695E+00
  weight for this iteration     100.00

 eigenvalues of (default mixing * dielectric matrix)
  average eigenvalue GAMMA=   1.3624
  0.6664  2.0583

 Free energy of the ion-electron system (eV)
  ---------------------------------------------------
  alpha Z        PSCENC =        10.89288288
  Ewald energy   TEWEN  =      5368.65661653
  -Hartree energ DENC   =     -6046.06353724
  -exchange      EXHF   =         0.00000000
  -V(xc)+E(xc)   XCENC  =       -35.56904937
  PAW double counting   =       441.56964287     -365.14708175
  entropy T*S    EENTRO =         0.00000000
  eigenvalues    EBANDS =      -167.35697325
  atomic energy  EATOM  =       771.15511399
  Solvation  Ediel_sol  =         0.00000000
  ---------------------------------------------------
  free energy    TOTEN  =       -21.86238534 eV

  energy without entropy =      -21.86238534  energy(sigma->0) =      -21.86238534


--------------------------------------------------------------------------------------------------------




--------------------------------------- Iteration      1(   8)  ---------------------------------------


    POTLOK:  cpu time    0.0470: real time    0.0503
    SETDIJ:  cpu time    0.0040: real time    0.0026
    EDDIAG:  cpu time    0.0770: real time    0.0770
  RMM-DIIS:  cpu time    0.3429: real time    0.3429
    ORTHCH:  cpu time    0.0060: real time    0.0071
 BZINTS: Fermi energy: -4.022918; 18.000000 electrons
         Band energy:-163.056411;  BLOECHL correction:  0.000000
       DOS:  cpu time    0.0000: real time    0.0003
    CHARGE:  cpu time    0.0340: real time    0.0332
    MIXING:  cpu time    0.0020: real time    0.0024
    --------------------------------------------
      LOOP:  cpu time    0.5129: real time    0.5158

 eigenvalue-minimisations  :   432
 total energy-change (2. order) : 0.6029141E-01  (-0.2326578E-01)
 number of electron      18.0000016 magnetization 
 augmentation part       -0.5517872 magnetization 

 Broyden mixing:
  rms(total) = 0.35394E-01    rms(broyden)= 0.35393E-01
  rms(prec ) = 0.37203E-01
  weight for this iteration     100.00

 eigenvalues of (default mixing * dielectric matrix)
  average eigenvalue GAMMA=   1.5002
  1.9178  1.9178  0.6649

 Free energy of the ion-electron system (eV)
  ---------------------------------------------------
  alpha Z        PSCENC =        10.89288288
  Ewald energy   TEWEN  =      5368.65661653
  -Hartree energ DENC   =     -6050.05961493
  -exchange      EXHF   =         0.00000000
  -V(xc)+E(xc)   XCENC  =       -35.29715096
  PAW double counting   =       465.16937937     -389.26290936
  entropy T*S    EENTRO =         0.00000000
  eigenvalues    EBANDS =      -163.05641145
  atomic energy  EATOM  =       771.15511399
  Solvation  Ediel_sol  =         0.00000000
  ---------------------------------------------------
  free energy    TOTEN  =       -21.80209393 eV

  energy without entropy =      -21.80209393  energy(sigma->0) =      -21.80209393


--------------------------------------------------------------------------------------------------------




--------------------------------------- Iteration      1(   9)  ---------------------------------------


    POTLOK:  cpu time    0.0480: real time    0.0486
    SETDIJ:  cpu time    0.0030: real time    0.0025
    EDDIAG:  cpu time    0.0770: real time    0.0768
  RMM-DIIS:  cpu time    0.3759: real time    0.3759
    ORTHCH:  cpu time    0.0070: real time    0.0071
 BZINTS: Fermi energy: -3.975676; 18.000000 electrons
         Band energy:-161.693294;  BLOECHL correction:  0.000000
       DOS:  cpu time    0.0000: real time    0.0003
    CHARGE:  cpu time    0.0330: real time    0.0333
    MIXING:  cpu time    0.0020: real time    0.0019
    --------------------------------------------
      LOOP:  cpu time    0.5459: real time    0.5464

 eigenvalue-minimisations  :   469
 total energy-change (2. order) : 0.4879776E-02  (-0.8715189E-03)
 number of electron      18.0000016 magnetization 
 augmentation part       -0.5471400 magnetization 

 Broyden mixing:
  rms(total) = 0.95930E-02    rms(broyden)= 0.95924E-02
  rms(prec ) = 0.11372E-01
  weight for this iteration     100.00

 eigenvalues of (default mixing * dielectric matrix)
  average eigenvalue GAMMA=   1.5084
  0.6672  1.0481  2.4387  1.8794

 Free energy of the ion-electron system (eV)
  ---------------------------------------------------
  alpha Z        PSCENC =        10.89288288
  Ewald energy   TEWEN  =      5368.65661653
  -Hartree energ DENC   =     -6051.39252001
  -exchange      EXHF   =         0.00000000
  -V(xc)+E(xc)   XCENC  =       -35.24466603
  PAW double counting   =       470.48888362     -394.66023146
  entropy T*S    EENTRO =         0.00000000
  eigenvalues    EBANDS =      -161.69329367
  atomic energy  EATOM  =       771.15511399
  Solvation  Ediel_sol  =         0.00000000
  ---------------------------------------------------
  free energy    TOTEN  =       -21.79721415 eV

  energy without entropy =      -21.79721415  energy(sigma->0) =      -21.79721415


--------------------------------------------------------------------------------------------------------




--------------------------------------- Iteration      1(  10)  ---------------------------------------


    POTLOK:  cpu time    0.0490: real time    0.0517
    SETDIJ:  cpu time    0.0030: real time    0.0026
    EDDIAG:  cpu time    0.0760: real time    0.0769
  RMM-DIIS:  cpu time    0.3709: real time    0.3703
    ORTHCH:  cpu time    0.0070: real time    0.0071
 BZINTS: Fermi energy: -3.924234; 18.000000 electrons
         Band energy:-160.527326;  BLOECHL correction:  0.000000
       DOS:  cpu time    0.0000: real time    0.0003
    CHARGE:  cpu time    0.0330: real time    0.0332
    MIXING:  cpu time    0.0020: real time    0.0020
    --------------------------------------------
      LOOP:  cpu time    0.5409: real time    0.5441

 eigenvalue-minimisations  :   464
 total energy-change (2. order) : 0.7581497E-03  (-0.1708085E-03)
 number of electron      18.0000016 magnetization 
 augmentation part       -0.5514662 magnetization 

 Broyden mixing:
  rms(total) = 0.44295E-02    rms(broyden)= 0.44295E-02
  rms(prec ) = 0.57917E-02
  weight for this iteration     100.00

 eigenvalues of (default mixing * dielectric matrix)
  average eigenvalue GAMMA=   1.6689
  0.6679  1.0366  2.1678  2.2362  2.2362

 Free energy of the ion-electron system (eV)
  ---------------------------------------------------
  alpha Z        PSCENC =        10.89288288
  Ewald energy   TEWEN  =      5368.65661653
  -Hartree energ DENC   =     -6052.54882811
  -exchange      EXHF   =         0.00000000
  -V(xc)+E(xc)   XCENC  =       -35.22337480
  PAW double counting   =       472.74223196     -396.94377237
  entropy T*S    EENTRO =         0.00000000
  eigenvalues    EBANDS =      -160.52732608
  atomic energy  EATOM  =       771.15511399
  Solvation  Ediel_sol  =         0.00000000
  ---------------------------------------------------
  free energy    TOTEN  =       -21.79645600 eV

  energy without entropy =      -21.79645600  energy(sigma->0) =      -21.79645600


--------------------------------------------------------------------------------------------------------




--------------------------------------- Iteration      1(  11)  ---------------------------------------


    POTLOK:  cpu time    0.0490: real time    0.0490
    SETDIJ:  cpu time    0.0030: real time    0.0025
    EDDIAG:  cpu time    0.0770: real time    0.0768
  RMM-DIIS:  cpu time    0.3539: real time    0.3535
    ORTHCH:  cpu time    0.0060: real time    0.0071
 BZINTS: Fermi energy: -3.818261; 18.000000 electrons
         Band energy:-159.383966;  BLOECHL correction:  0.000000
       DOS:  cpu time    0.0010: real time    0.0003
    CHARGE:  cpu time    0.0330: real time    0.0333
    MIXING:  cpu time    0.0020: real time    0.0021
    --------------------------------------------
      LOOP:  cpu time    0.5249: real time    0.5246

 eigenvalue-minimisations  :   440
 total energy-change (2. order) : 0.6619619E-04  (-0.1637524E-03)
 number of electron      18.0000016 magnetization 
 augmentation part       -0.5478910 magnetization 

 Broyden mixing:
  rms(total) = 0.53941E-02    rms(broyden)= 0.53940E-02
  rms(prec ) = 0.60784E-02
  weight for this iteration     100.00

 eigenvalues of (default mixing * dielectric matrix)
  average eigenvalue GAMMA=   1.6740
  2.9366  2.6760  0.6685  0.9296  1.4167  1.4167

 Free energy of the ion-electron system (eV)
  ---------------------------------------------------
  alpha Z        PSCENC =        10.89288288
  Ewald energy   TEWEN  =      5368.65661653
  -Hartree energ DENC   =     -6053.71474645
  -exchange      EXHF   =         0.00000000
  -V(xc)+E(xc)   XCENC  =       -35.21008571
  PAW double counting   =       472.19673735     -396.38894286
  entropy T*S    EENTRO =         0.00000000
  eigenvalues    EBANDS =      -159.38396554
  atomic energy  EATOM  =       771.15511399
  Solvation  Ediel_sol  =         0.00000000
  ---------------------------------------------------
  free energy    TOTEN  =       -21.79638981 eV

  energy without entropy =      -21.79638981  energy(sigma->0) =      -21.79638981


--------------------------------------------------------------------------------------------------------




--------------------------------------- Iteration      1(  12)  ---------------------------------------


    POTLOK:  cpu time    0.0490: real time    0.0529
    SETDIJ:  cpu time    0.0030: real time    0.0025
    EDDIAG:  cpu time    0.0760: real time    0.0766
  RMM-DIIS:  cpu time    0.3449: real time    0.3442
    ORTHCH:  cpu time    0.0070: real time    0.0070
 BZINTS: Fermi energy: -3.789661; 18.000000 electrons
         Band energy:-158.674101;  BLOECHL correction:  0.000000
       DOS:  cpu time    0.0010: real time    0.0003
    CHARGE:  cpu time    0.0330: real time    0.0333
    MIXING:  cpu time    0.0020: real time    0.0022
    --------------------------------------------
      LOOP:  cpu time    0.5159: real time    0.5191

 eigenvalue-minimisations  :   426
 total energy-change (2. order) : 0.1690125E-03  (-0.5252276E-04)
 number of electron      18.0000016 magnetization 
 augmentation part       -0.5504983 magnetization 

 Broyden mixing:
  rms(total) = 0.17268E-02    rms(broyden)= 0.17268E-02
  rms(prec ) = 0.22312E-02
  weight for this iteration     100.00

 eigenvalues of (default mixing * dielectric matrix)
  average eigenvalue GAMMA=   1.9535
  3.8720  2.7416  2.7416  0.6685  0.9630  1.4246  1.2634

 Free energy of the ion-electron system (eV)
  ---------------------------------------------------
  alpha Z        PSCENC =        10.89288288
  Ewald energy   TEWEN  =      5368.65661653
  -Hartree energ DENC   =     -6054.43056531
  -exchange      EXHF   =         0.00000000
  -V(xc)+E(xc)   XCENC  =       -35.20621266
  PAW double counting   =       472.37434187     -396.56429711
  entropy T*S    EENTRO =         0.00000000
  eigenvalues    EBANDS =      -158.67410099
  atomic energy  EATOM  =       771.15511399
  Solvation  Ediel_sol  =         0.00000000
  ---------------------------------------------------
  free energy    TOTEN  =       -21.79622079 eV

  energy without entropy =      -21.79622079  energy(sigma->0) =      -21.79622079


--------------------------------------------------------------------------------------------------------




--------------------------------------- Iteration      1(  13)  ---------------------------------------


    POTLOK:  cpu time    0.0500: real time    0.0497
    SETDIJ:  cpu time    0.0020: real time    0.0025
    EDDIAG:  cpu time    0.0770: real time    0.0768
  RMM-DIIS:  cpu time    0.3100: real time    0.3095
    ORTHCH:  cpu time    0.0070: real time    0.0071
 BZINTS: Fermi energy: -3.734627; 18.000000 electrons
         Band energy:-157.904305;  BLOECHL correction:  0.000000
       DOS:  cpu time    0.0000: real time    0.0003
    CHARGE:  cpu time    0.0330: real time    0.0333
    MIXING:  cpu time    0.0030: real time    0.0023
    --------------------------------------------
      LOOP:  cpu time    0.4819: real time    0.4815

 eigenvalue-minimisations  :   397
 total energy-change (2. order) :-0.3388599E-03  (-0.1641809E-04)
 number of electron      18.0000016 magnetization 
 augmentation part       -0.5489388 magnetization 

 Broyden mixing:
  rms(total) = 0.20058E-02    rms(broyden)= 0.20058E-02
  rms(prec ) = 0.21975E-02
  weight for this iteration     100.00

 eigenvalues of (default mixing * dielectric matrix)
  average eigenvalue GAMMA=   1.9156
  4.8444  2.7015  2.3854  1.4192  1.4192  0.6686  0.9434  0.9434

 Free energy of the ion-electron system (eV)
  ---------------------------------------------------
  alpha Z        PSCENC =        10.89288288
  Ewald energy   TEWEN  =      5368.65661653
  -Hartree energ DENC   =     -6055.20267692
  -exchange      EXHF   =         0.00000000
  -V(xc)+E(xc)   XCENC  =       -35.19910551
  PAW double counting   =       472.32888718     -396.52397316
  entropy T*S    EENTRO =         0.00000000
  eigenvalues    EBANDS =      -157.90430463
  atomic energy  EATOM  =       771.15511399
  Solvation  Ediel_sol  =         0.00000000
  ---------------------------------------------------
  free energy    TOTEN  =       -21.79655965 eV

  energy without entropy =      -21.79655965  energy(sigma->0) =      -21.79655965


--------------------------------------------------------------------------------------------------------




--------------------------------------- Iteration      1(  14)  ---------------------------------------


    POTLOK:  cpu time    0.0500: real time    0.0540
    SETDIJ:  cpu time    0.0020: real time    0.0025
    EDDIAG:  cpu time    0.0770: real time    0.0767
  RMM-DIIS:  cpu time    0.2980: real time    0.2979
    ORTHCH:  cpu time    0.0070: real time    0.0070
 BZINTS: Fermi energy: -3.717862; 18.000000 electrons
         Band energy:-157.733942;  BLOECHL correction:  0.000000
       DOS:  cpu time    0.0000: real time    0.0003
    CHARGE:  cpu time    0.0330: real time    0.0334
    MIXING:  cpu time    0.0030: real time    0.0024
    --------------------------------------------
      LOOP:  cpu time    0.4699: real time    0.4743

 eigenvalue-minimisations  :   354
 total energy-change (2. order) :-0.5785760E-04  (-0.2612324E-05)
 number of electron      18.0000016 magnetization 
 augmentation part       -0.5500943 magnetization 

 Broyden mixing:
  rms(total) = 0.48710E-03    rms(broyden)= 0.48709E-03
  rms(prec ) = 0.62369E-03
  weight for this iteration     100.00

 eigenvalues of (default mixing * dielectric matrix)
  average eigenvalue GAMMA=   2.1801
  6.6078  2.9557  2.3954  2.3954  1.5059  0.6686  1.1888  0.9517  0.9517

 Free energy of the ion-electron system (eV)
  ---------------------------------------------------
  alpha Z        PSCENC =        10.89288288
  Ewald energy   TEWEN  =      5368.65661653
  -Hartree energ DENC   =     -6055.37572487
  -exchange      EXHF   =         0.00000000
  -V(xc)+E(xc)   XCENC  =       -35.20117442
  PAW double counting   =       472.14165627     -396.33204597
  entropy T*S    EENTRO =         0.00000000
  eigenvalues    EBANDS =      -157.73394192
  atomic energy  EATOM  =       771.15511399
  Solvation  Ediel_sol  =         0.00000000
  ---------------------------------------------------
  free energy    TOTEN  =       -21.79661751 eV

  energy without entropy =      -21.79661751  energy(sigma->0) =      -21.79661751


--------------------------------------------------------------------------------------------------------




--------------------------------------- Iteration      1(  15)  ---------------------------------------


    POTLOK:  cpu time    0.0500: real time    0.0504
    SETDIJ:  cpu time    0.0030: real time    0.0025
    EDDIAG:  cpu time    0.0760: real time    0.0766
  RMM-DIIS:  cpu time    0.2470: real time    0.2461
    ORTHCH:  cpu time    0.0070: real time    0.0070
 BZINTS: Fermi energy: -3.698435; 18.000000 electrons
         Band energy:-157.573926;  BLOECHL correction:  0.000000
       DOS:  cpu time    0.0000: real time    0.0003
    CHARGE:  cpu time    0.0330: real time    0.0333
    MIXING:  cpu time    0.0030: real time    0.0025
    --------------------------------------------
      LOOP:  cpu time    0.4189: real time    0.4188

 eigenvalue-minimisations  :   278
 total energy-change (2. order) :-0.1259591E-03  (-0.1125559E-05)
 number of electron      18.0000016 magnetization 
 augmentation part       -0.5498524 magnetization 

 Broyden mixing:
  rms(total) = 0.26008E-03    rms(broyden)= 0.26008E-03
  rms(prec ) = 0.32237E-03
  weight for this iteration     100.00

 eigenvalues of (default mixing * dielectric matrix)
  average eigenvalue GAMMA=   2.1553
  6.7427  3.5179  2.6188  1.7806  1.6191  1.6191  0.6686  1.0423  1.0126  0.9315

 Free energy of the ion-electron system (eV)
  ---------------------------------------------------
  alpha Z        PSCENC =        10.89288288
  Ewald energy   TEWEN  =      5368.65661653
  -Hartree energ DENC   =     -6055.53599675
  -exchange      EXHF   =         0.00000000
  -V(xc)+E(xc)   XCENC  =       -35.20090981
  PAW double counting   =       472.16441809     -396.35494281
  entropy T*S    EENTRO =         0.00000000
  eigenvalues    EBANDS =      -157.57392560
  atomic energy  EATOM  =       771.15511399
  Solvation  Ediel_sol  =         0.00000000
  ---------------------------------------------------
  free energy    TOTEN  =       -21.79674347 eV

  energy without entropy =      -21.79674347  energy(sigma->0) =      -21.79674347


--------------------------------------------------------------------------------------------------------




--------------------------------------- Iteration      1(  16)  ---------------------------------------


    POTLOK:  cpu time    0.0510: real time    0.0511
    SETDIJ:  cpu time    0.0030: real time    0.0028
    EDDIAG:  cpu time    0.0760: real time    0.0769
  RMM-DIIS:  cpu time    0.2300: real time    0.2295
    ORTHCH:  cpu time    0.0070: real time    0.0071
 BZINTS: Fermi energy: -3.757864; 18.000000 electrons
         Band energy:-157.514990;  BLOECHL correction:  0.000000
       DOS:  cpu time    0.0000: real time    0.0003
    CHARGE:  cpu time    0.0340: real time    0.0333
    MIXING:  cpu time    0.0020: real time    0.0027
    --------------------------------------------
      LOOP:  cpu time    0.4029: real time    0.4036

 eigenvalue-minimisations  :   241
 total energy-change (2. order) :-0.4127408E-04  (-0.2606629E-06)
 number of electron      18.0000016 magnetization 
 augmentation part       -0.5499726 magnetization 

 Broyden mixing:
  rms(total) = 0.15136E-03    rms(broyden)= 0.15136E-03
  rms(prec ) = 0.17901E-03
  weight for this iteration     100.00

 eigenvalues of (default mixing * dielectric matrix)
  average eigenvalue GAMMA=   2.2993
  7.4355  3.7898  2.9652  2.6703  2.1235  1.5551  0.6686  1.1019  1.1019  0.9684
  0.9124

 Free energy of the ion-electron system (eV)
  ---------------------------------------------------
  alpha Z        PSCENC =        10.89288288
  Ewald energy   TEWEN  =      5368.65661653
  -Hartree energ DENC   =     -6055.59414322
  -exchange      EXHF   =         0.00000000
  -V(xc)+E(xc)   XCENC  =       -35.20080455
  PAW double counting   =       472.21434818     -396.40580895
  entropy T*S    EENTRO =         0.00000000
  eigenvalues    EBANDS =      -157.51498960
  atomic energy  EATOM  =       771.15511399
  Solvation  Ediel_sol  =         0.00000000
  ---------------------------------------------------
  free energy    TOTEN  =       -21.79678474 eV

  energy without entropy =      -21.79678474  energy(sigma->0) =      -21.79678474


--------------------------------------------------------------------------------------------------------




--------------------------------------- Iteration      1(  17)  ---------------------------------------


    POTLOK:  cpu time    0.0500: real time    0.0522
    SETDIJ:  cpu time    0.0030: real time    0.0028
    EDDIAG:  cpu time    0.0760: real time    0.0766
  RMM-DIIS:  cpu time    0.2170: real time    0.2167
    ORTHCH:  cpu time    0.0070: real time    0.0070
 BZINTS: Fermi energy: -3.746358; 18.000000 electrons
         Band energy:-157.484031;  BLOECHL correction:  0.000000
       DOS:  cpu time    0.0000: real time    0.0003
    CHARGE:  cpu time    0.0330: real time    0.0332
    MIXING:  cpu time    0.0030: real time    0.0028
    --------------------------------------------
      LOOP:  cpu time    0.3889: real time    0.3917

 eigenvalue-minimisations  :   205
 total energy-change (2. order) :-0.3203014E-04  (-0.2411311E-06)
 number of electron      18.0000016 magnetization 
 augmentation part       -0.5500094 magnetization 

 Broyden mixing:
  rms(total) = 0.11541E-03    rms(broyden)= 0.11541E-03
  rms(prec ) = 0.13141E-03
  weight for this iteration     100.00

 eigenvalues of (default mixing * dielectric matrix)
  average eigenvalue GAMMA=   2.2930
  7.6980  4.7288  2.9213  2.4703  2.1499  1.4695  1.4695  0.6686  1.0417  1.0417
  0.9283  0.9283

 Free energy of the ion-electron system (eV)
  ---------------------------------------------------
  alpha Z        PSCENC =        10.89288288
  Ewald energy   TEWEN  =      5368.65661653
  -Hartree energ DENC   =     -6055.62578912
  -exchange      EXHF   =         0.00000000
  -V(xc)+E(xc)   XCENC  =       -35.20097988
  PAW double counting   =       472.17742078     -396.36805082
  entropy T*S    EENTRO =         0.00000000
  eigenvalues    EBANDS =      -157.48403114
  atomic energy  EATOM  =       771.15511399
  Solvation  Ediel_sol  =         0.00000000
  ---------------------------------------------------
  free energy    TOTEN  =       -21.79681677 eV

  energy without entropy =      -21.79681677  energy(sigma->0) =      -21.79681677


--------------------------------------------------------------------------------------------------------




--------------------------------------- Iteration      1(  18)  ---------------------------------------


    POTLOK:  cpu time    0.0500: real time    0.0497
    SETDIJ:  cpu time    0.0030: real time    0.0028
    EDDIAG:  cpu time    0.0760: real time    0.0766
  RMM-DIIS:  cpu time    0.1910: real time    0.1900
    ORTHCH:  cpu time    0.0070: real time    0.0070
 BZINTS: Fermi energy: -3.743969; 18.000000 electrons
         Band energy:-157.482071;  BLOECHL correction:  0.000000
       DOS:  cpu time    0.0000: real time    0.0003
    --------------------------------------------
      LOOP:  cpu time    0.3269: real time    0.3264

 eigenvalue-minimisations  :   118
 total energy-change (2. order) :-0.4282612E-05  (-0.3950058E-07)
 number of electron      18.0000016 magnetization 
 augmentation part       -0.5500094 magnetization 

 Free energy of the ion-electron system (eV)
  ---------------------------------------------------
  alpha Z        PSCENC =        10.89288288
  Ewald energy   TEWEN  =      5368.65661653
  -Hartree energ DENC   =     -6055.62763637
  -exchange      EXHF   =         0.00000000
  -V(xc)+E(xc)   XCENC  =       -35.20093160
  PAW double counting   =       472.18455081     -396.37534595
  entropy T*S    EENTRO =         0.00000000
  eigenvalues    EBANDS =      -157.48207136
  atomic energy  EATOM  =       771.15511399
  Solvation  Ediel_sol  =         0.00000000
  ---------------------------------------------------
  free energy    TOTEN  =       -21.79682106 eV

  energy without entropy =      -21.79682106  energy(sigma->0) =      -21.79682106


--------------------------------------------------------------------------------------------------------




 average (electrostatic) potential at core
  the test charge radii are     1.2296  0.9698
  (the norm of the test charge is              1.0000)
       1 -47.2002       2 -95.0391       3 -95.0391
 
 
 
 E-fermi :  -3.7440     XC(G=0):  -2.5026     alpha+bet : -2.3217


 k-point     1 :       0.0000    0.0000    0.0000
  band No.  band energies     occupation 
      1     -17.7883      2.00000
      2     -16.5803      2.00000
      3      -9.3087      2.00000
      4      -6.3479      2.00000
      5      -6.3479      2.00000
      6      -5.4867      2.00000
      7      -5.2423      2.00000
      8      -5.2422      2.00000
      9      -3.7664      2.00000
     10      -0.9948      0.00000
     11      -0.9947      0.00000
     12      -0.7711      0.00000
     13      -0.7711      0.00000
     14       1.6640      0.00000

 k-point     2 :       0.1000   -0.0000    0.0000
  band No.  band energies     occupation 
      1     -17.6499      2.00000
      2     -16.5141      2.00000
      3      -9.1473      2.00000
      4      -6.6600      2.00000
      5      -6.1957      2.00000
      6      -6.1035      2.00000
      7      -5.4679      2.00000
      8      -4.8552      2.00000
      9      -3.8468      2.00000
     10      -1.1707      0.00000
     11      -1.1362      0.00000
     12      -0.9301      0.00000
     13      -0.7549      0.00000
     14       1.9224      0.00000

 k-point     3 :       0.2000    0.0000    0.0000
  band No.  band energies     occupation 
      1     -17.2642      2.00000
      2     -16.3307      2.00000
      3      -8.7889      2.00000
      4      -7.3010      2.00000
      5      -6.8818      2.00000
      6      -5.9581      2.00000
      7      -5.7859      2.00000
      8      -4.8884      2.00000
      9      -4.2101      2.00000
     10      -1.5645      0.00000
     11      -1.2671      0.00000
     12      -1.1134      0.00000
     13      -0.2590      0.00000
     14       2.4835      0.00000

 k-point     4 :       0.3000    0.0000    0.0000
  band No.  band energies     occupation 
      1     -16.7268      2.00000
      2     -16.0800      2.00000
      3      -8.7947      2.00000
      4      -7.6549      2.00000
      5      -7.6218      2.00000
      6      -6.4427      2.00000
      7      -5.2654      2.00000
      8      -5.2483      2.00000
      9      -4.6684      2.00000
     10      -1.5352      0.00000
     11      -1.5300      0.00000
     12      -0.5825      0.00000
     13       0.1712      0.00000
     14       3.2414      0.00000

 k-point     5 :       0.4000    0.0000    0.0000
  band No.  band energies     occupation 
      1     -16.2202      2.00000
      2     -15.8519      2.00000
      3      -9.2448      2.00000
      4      -8.2690      2.00000
      5      -7.7031      2.00000
      6      -6.7745      2.00000
      7      -5.5209      2.00000
      8      -4.8547      2.00000
      9      -4.6008      2.00000
     10      -1.6044      0.00000
     11      -1.2494      0.00000
     12      -0.0548      0.00000
     13       0.4132      0.00000
     14       3.0955      0.00000

 k-point     6 :       0.5000   -0.0000    0.0000
  band No.  band energies     occupation 
      1     -16.0020      2.00000
      2     -15.7572      2.00000
      3      -9.4680      2.00000
      4      -8.5078      2.00000
      5      -7.7970      2.00000
      6      -6.8909      2.00000
      7      -5.6089      2.00000
      8      -4.7088      2.00000
      9      -4.3870      2.00000
     10      -1.5817      0.00000
     11      -1.0657      0.00000
     12       0.1368      0.00000
     13       0.4858      0.00000
     14       2.4159      0.00000

 k-point     7 :       0.1000    0.1000    0.0000
  band No.  band energies     occupation 
      1     -17.3875      2.00000
      2     -16.3889      2.00000
      3      -8.8765      2.00000
      4      -7.1221      2.00000
      5      -6.5919      2.00000
      6      -6.0077      2.00000
      7      -5.9357      2.00000
      8      -4.6794      2.00000
      9      -4.0732      2.00000
     10      -1.5079      0.00000
     11      -1.3069      0.00000
     12      -1.1858      0.00000
     13      -0.3222      0.00000
     14       2.3441      0.00000

 k-point     8 :       0.2000    0.1000    0.0000
  band No.  band energies     occupation 
      1     -16.9230      2.00000
      2     -16.1689      2.00000
      3      -8.6505      2.00000
      4      -7.5477      2.00000
      5      -7.2631      2.00000
      6      -6.6189      2.00000
      7      -5.6147      2.00000
      8      -4.8362      2.00000
      9      -4.4953      2.00000
     10      -1.7583      0.00000
     11      -1.3509      0.00000
     12      -1.0794      0.00000
     13       0.1905      0.00000
     14       3.0085      0.00000

 k-point     9 :       0.3000    0.1000    0.0000
  band No.  band energies     occupation 
      1     -16.3908      2.00000
      2     -15.9217      2.00000
      3      -8.9470      2.00000
      4      -8.0512      2.00000
      5      -7.5773      2.00000
      6      -6.8546      2.00000
      7      -5.5174      2.00000
      8      -5.2451      2.00000
      9      -4.5284      2.00000
     10      -1.6658      0.00000
     11      -1.3026      0.00000
     12      -0.5291      0.00000
     13       0.4655      0.00000
     14       3.6878      0.00000

 k-point    10 :       0.4000    0.1000    0.0000
  band No.  band energies     occupation 
      1     -16.0126      2.00000
      2     -15.7511      2.00000
      3      -9.2756      2.00000
      4      -8.5481      2.00000
      5      -7.7160      2.00000
      6      -6.9028      2.00000
      7      -5.5515      2.00000
      8      -5.4004      2.00000
      9      -4.2401      2.00000
     10      -1.5583      0.00000
     11      -1.0624      0.00000
     12      -0.0301      0.00000
     13       0.4160      0.00000
     14       2.7677      0.00000

 k-point    11 :       0.2000    0.2000    0.0000
  band No.  band energies     occupation 
      1     -16.4559      2.00000
      2     -15.9460      2.00000
      3      -8.7499      2.00000
      4      -7.9109      2.00000
      5      -7.4515      2.00000
      6      -7.0365      2.00000
      7      -5.9733      2.00000
      8      -4.9874      2.00000
      9      -4.5222      2.00000
     10      -1.7514      0.00000
     11      -1.2689      0.00000
     12      -0.9084      0.00000
     13       0.5768      0.00000
     14       3.7804      0.00000

 k-point    12 :       0.3000    0.2000    0.0000
  band No.  band energies     occupation 
      1     -16.0294      2.00000
      2     -15.7410      2.00000
      3      -8.8966      2.00000
      4      -8.6065      2.00000
      5      -7.4569      2.00000
      6      -6.9505      2.00000
      7      -6.4017      2.00000
      8      -5.4139      2.00000
      9      -4.2531      2.00000
     10      -1.6012      0.00000
     11      -1.0135      0.00000
     12      -0.5995      0.00000
     13       0.7283      0.00000
     14       3.5426      0.00000

 k-point    13 :       0.4000    0.2000    0.0000
  band No.  band energies     occupation 
      1     -15.8515      2.00000
      2     -15.6553      2.00000
      3      -8.9221      2.00000
      4      -8.8753      2.00000
      5      -7.6500      2.00000
      6      -6.8243      2.00000
      7      -6.4598      2.00000
      8      -5.6738      2.00000
      9      -4.0044      2.00000
     10      -1.7704      0.00000
     11      -0.6496      0.00000
     12      -0.4615      0.00000
     13       0.7548      0.00000
     14       2.9556      0.00000

 k-point    14 :       0.3000    0.3000    0.0000
  band No.  band energies     occupation 
      1     -15.7925      2.00000
      2     -15.6147      2.00000
      3      -9.0225      2.00000
      4      -8.5312      2.00000
      5      -7.5387      2.00000
      6      -7.2179      2.00000
      7      -6.7157      2.00000
      8      -5.7817      2.00000
      9      -3.8825      2.00000
     10      -1.9775      0.00000
     11      -0.6972      0.00000
     12      -0.4224      0.00000
     13       0.9872      0.00000
     14       3.4261      0.00000


--------------------------------------------------------------------------------------------------------


 soft charge-density along one line, spin component           1
         0         1         2         3         4         5         6         7         8         9
 total charge-density along one line
 
 pseudopotential strength for first ion, spin component:           1
-10.073  -0.000   0.000   0.000   0.000   0.111   0.000  -0.000
 -0.000 -10.074  -0.000  -0.000   0.000   0.000   0.111   0.000
  0.000  -0.000 -10.053  -0.000  -0.000  -0.000   0.000   0.109
  0.000  -0.000  -0.000 -10.074  -0.000  -0.000   0.000   0.000
  0.000   0.000  -0.000  -0.000 -10.073  -0.000  -0.000   0.000
  0.111   0.000  -0.000  -0.000  -0.000   0.097  -0.000   0.000
  0.000   0.111   0.000   0.000  -0.000  -0.000   0.097  -0.000
 -0.000   0.000   0.109   0.000   0.000   0.000  -0.000   0.097
 -0.000   0.000   0.000   0.111   0.000  -0.000  -0.000  -0.000
 -0.000  -0.000   0.000   0.000   0.111   0.000   0.000  -0.000
  0.000   0.000  -0.005   0.000  -0.000  -0.000  -0.000   0.000
 -0.000  -0.000   0.001  -0.000   0.000   0.000   0.000  -0.000
 -0.000   0.000  -0.000  -0.000  -0.007   0.000  -0.000   0.000
 -0.000   0.000   0.000  -0.000   0.000  -0.000  -0.000  -0.000
 -0.007  -0.000   0.000   0.000  -0.000  -0.000  -0.000  -0.000
  0.000  -0.000   0.000   0.000   0.004  -0.000   0.000  -0.000
  0.000  -0.000  -0.000   0.000  -0.000  -0.000   0.000   0.000
  0.004   0.000  -0.000  -0.000   0.000   0.000  -0.000   0.000
 total augmentation occupancy for first ion, spin component:           1
  0.965   0.000  -0.000   0.000  -0.000   0.601   0.000  -0.000   0.000  -0.000   0.000   0.000   0.000   0.000  -0.066  -0.000
 -0.000   0.907  -0.000   0.000   0.000   0.000   0.839   0.000   0.000   0.000   0.000   0.000   0.000   0.000   0.000  -0.000
 -0.000  -0.000   1.029   0.000   0.000  -0.000   0.000   0.501  -0.000   0.000   0.111  -0.019  -0.000  -0.000   0.000   0.000
  0.000   0.000   0.000   0.907   0.000   0.000   0.000   0.000   0.839   0.000   0.000  -0.000   0.000   0.000   0.000   0.000
 -0.000   0.000   0.000   0.000   0.965  -0.000  -0.000   0.000  -0.000   0.601   0.000  -0.000  -0.066   0.000  -0.000   0.007
  0.601   0.000  -0.000  -0.000  -0.000   0.678   0.000  -0.000   0.000  -0.000   0.000   0.000   0.000   0.000  -0.136  -0.000
  0.000   0.839   0.000   0.000   0.000   0.000   1.081   0.000   0.000   0.000   0.000   0.000   0.000   0.000   0.000   0.000
 -0.000   0.000   0.501   0.000   0.000  -0.000   0.000   0.476   0.000   0.000   0.059  -0.021  -0.000  -0.000   0.000   0.000
  0.000   0.000  -0.000   0.839   0.000   0.000   0.000   0.000   1.081   0.000   0.000   0.000  -0.000   0.000   0.000  -0.000
 -0.000   0.000   0.000   0.000   0.601  -0.000   0.000   0.000  -0.000   0.678   0.000  -0.000  -0.136   0.000  -0.000   0.023
 -0.000   0.000   0.111   0.000   0.000   0.000   0.000   0.059   0.000   0.000   1.207  -0.185   0.000   0.000   0.000   0.000
  0.000   0.000  -0.019  -0.000  -0.000  -0.000   0.000  -0.021   0.000  -0.000  -0.185   0.042  -0.000  -0.000   0.000   0.000
  0.000   0.000  -0.000  -0.000  -0.066   0.000   0.000  -0.000   0.000  -0.136  -0.000   0.000   0.217   0.000   0.000  -0.032
  0.000   0.000  -0.000   0.000   0.000   0.000   0.000  -0.000   0.000   0.000   0.000   0.000   0.000   0.264  -0.000   0.000
 -0.066   0.000   0.000   0.000  -0.000  -0.136  -0.000   0.000  -0.000  -0.000   0.000   0.000   0.000  -0.000   0.217  -0.000
 -0.000   0.000   0.000   0.000   0.007  -0.000   0.000   0.000  -0.000   0.023   0.000   0.000  -0.032   0.000  -0.000   0.005
 -0.000   0.000  -0.000  -0.000  -0.000   0.000   0.000   0.000  -0.000   0.000   0.000  -0.000   0.000  -0.038   0.000   0.000
  0.007   0.000  -0.000   0.000   0.000   0.023   0.000  -0.000  -0.000   0.000  -0.000   0.000  -0.000   0.000  -0.032   0.000


------------------------ aborting loop because EDIFF is reached ----------------------------------------


    CHARGE:  cpu time    0.0340: real time    0.0334
    FORLOC:  cpu time    0.0040: real time    0.0048
    FORNL :  cpu time    0.0580: real time    0.0572
    STRESS:  cpu time    0.3140: real time    0.3140
    FORCOR:  cpu time    0.0570: real time    0.0569
    FORHAR:  cpu time    0.0130: real time    0.0130
    MIXING:  cpu time    0.0030: real time    0.0030
    OFIELD:  cpu time    0.0000: real time    0.0000

  DFT-D2 method for vdW energy calculation
  -------------------------------------------------------------------

  Parameters of vdW forcefield:
         C6(Jnm^6/mol)     R0(A)
   -----------------------------
   Mo      24.670          1.639
   S        5.570          1.683

  IVDW =   1
  VDW_RADIUS =    50.000 A
  VDW_S6 =     0.750
  VDW_SR =     1.000
  VDW_D =    20.000
  LVDW_EWALD = F

  Number of pair interactions contributing to vdW energy:   11979
  Edisp (eV):   -0.59080
    FORVDW:  cpu time    0.0110: real time    0.0171

  FORCE on cell =-STRESS in cart. coord.  units (eV):
  Direction    XX          YY          ZZ          XY          YZ          ZX
  --------------------------------------------------------------------------------------
  Alpha Z    10.89288    10.89288    10.89288
  Ewald    5935.52296  5935.52341 -6502.38985     0.00019     0.00000     0.00012
  Hartree  6017.36905  6017.36906 -5979.09750     0.00002    -0.00000    -0.00000
  E(xc)     -70.29672   -70.29673   -70.90188    -0.00000    -0.00000    -0.00000
  Local  -12231.98840-12231.98874 12196.42616    -0.00021    -0.00000    -0.00006
  n-local   127.20764   125.73988   131.68146    -0.25963    -0.00000    -0.00001
  augment   -25.56640   -25.56633   -26.66741     0.00007     0.00000    -0.00000
  Kinetic   236.12872   238.45006   239.80662    -7.46501     0.00002     0.00002
  Fock        0.00000     0.00000     0.00000     0.00000     0.00000     0.00000
  vdW         0.16052     0.16052    -0.13380     0.00000     0.00000    -0.00000
  -------------------------------------------------------------------------------------
  Total      -0.14286    -0.14286    -0.38333     0.00000     0.00000     0.00000
  in kB      -0.84094    -0.84094    -2.25645     0.00000     0.00000     0.00000
  external pressure =       -1.31 kB  Pullay stress =        0.00 kB


 VOLUME and BASIS-vectors are now :
 -----------------------------------------------------------------------------
  energy-cutoff  :      450.00
  volume of cell :      272.18
      direct lattice vectors                 reciprocal lattice vectors
     3.190315730  0.000000000  0.000000000     0.313448600  0.180969634  0.000000000
    -1.595157865  2.762894468  0.000000000     0.000000000  0.361939267  0.000000000
     0.000000000  0.000000000 30.879004300     0.000000000  0.000000000  0.032384464

  length of vectors
     3.190315730  3.190315730 30.879004300     0.361939267  0.361939267  0.032384464


 FORCES acting on ions
    electron-ion (+dipol)            ewald-force                    non-local-force                 convergence-correction
 -----------------------------------------------------------------------------------------------
   -.953E-05 -.170E-05 -.105E-04   0.931E-04 -.108E-03 0.343E-06   0.243E-16 -.694E-17 -.169E-20   0.396E-09 -.375E-09 0.856E-07
   -.853E-03 0.494E-03 0.596E+03   -.864E-04 0.538E-04 -.601E+03   -.867E-17 0.520E-17 0.480E+01   -.729E-08 0.333E-08 0.225E-02
   0.864E-03 0.494E-03 -.596E+03   -.674E-05 0.538E-04 0.601E+03   0.954E-17 0.000E+00 -.480E+01   0.820E-08 0.333E-08 -.225E-02
 -----------------------------------------------------------------------------------------------
   0.206E-05 0.986E-03 0.209E-04   0.253E-13 0.199E-13 0.000E+00   0.252E-16 -.173E-17 0.000E+00   0.130E-08 0.628E-08 0.224E-06
 
 
 POSITION                                       TOTAL-FORCE (eV/Angst)
 -----------------------------------------------------------------------------------
     -0.00000      1.84193      3.71975        -0.000000      0.000000      0.000000
      1.59516      0.92096      2.15487         0.000000     -0.000000      0.116277
      1.59516      0.92096      5.28464        -0.000000      0.000000     -0.116277
 -----------------------------------------------------------------------------------
    total drift:                                0.000002      0.000986      0.000021


--------------------------------------------------------------------------------------------------------



  FREE ENERGIE OF THE ION-ELECTRON SYSTEM (eV)
  ---------------------------------------------------
  free  energy   TOTEN  =       -22.38761927 eV

  energy  without entropy=      -22.38761927  energy(sigma->0) =      -22.38761927
 


--------------------------------------------------------------------------------------------------------


    POTLOK:  cpu time    0.0540: real time    0.0532


--------------------------------------------------------------------------------------------------------


     LOOP+:  cpu time    9.6125: real time    9.7257
    4ORBIT:  cpu time    0.0000: real time    0.0000
 BZINTS: Fermi energy: -3.743969; 18.000000 electrons
         Band energy:-157.482071;  BLOECHL correction:  0.000000

 total amount of memory used by VASP MPI-rank0    58269. kBytes
=======================================================================

   base      :      30000. kBytes
   nonl-proj :      12297. kBytes
   fftplans  :       4304. kBytes
   grid      :       6871. kBytes
   one-center:         31. kBytes
   wavefun   :       4766. kBytes
 
  
  
 General timing and accounting informations for this job:
 ========================================================
  
                  Total CPU time used (sec):       10.831
                            User time (sec):       10.483
                          System time (sec):        0.348
                         Elapsed time (sec):       11.369
  
                   Maximum memory used (kb):       53260.
                   Average memory used (kb):           0.
  
                          Minor page faults:        18498
                          Major page faults:          181
                 Voluntary context switches:         2718
