perl: warning: Setting locale failed.
perl: warning: Please check that your locale settings:
	LANGUAGE = (unset),
	LC_ALL = (unset),
	LC_CTYPE = "UTF-8",
	LANG = "en_US.iso885915"
    are supported and installed on your system.
perl: warning: Falling back to the standard locale ("C").
Starting job 28532154 ("jobname") on c14-5 at Fri Nov 8 11:19:52 CET 2019
 running on    4 total cores
 distrk:  each k-point on    4 cores,    1 groups
 distr:  one band on    2 cores,    2 groups
 using from now: INCAR     
 vasp.5.4.4.18Apr17-6-g9f103f2a35 (build Jun 30 2017 11:15:00) complex          
  
 POSCAR found type information on POSCAR  Mo S 
 POSCAR found :  2 types and       3 ions
 scaLAPACK will be used
 LDA part: xc-table for Pade appr. of Perdew
 POSCAR, INCAR and KPOINTS ok, starting setup
 FFT: planning ...
 WAVECAR not read
 WARNING: random wavefunctions but no delay for mixing, default for NELMDL
 entering main loop
       N       E                     dE             d eps       ncg     rms          rms(c)
DAV:   1     0.154237761386E+03    0.15424E+03   -0.62060E+03   392   0.106E+03
DAV:   2    -0.436462872381E+01   -0.15860E+03   -0.14959E+03   710   0.178E+02
DAV:   3    -0.230062206568E+02   -0.18642E+02   -0.18471E+02   562   0.782E+01
DAV:   4    -0.233992995600E+02   -0.39308E+00   -0.39201E+00   490   0.142E+01
DAV:   5    -0.234098169201E+02   -0.10517E-01   -0.10514E-01   556   0.222E+00    0.689E+00
RMM:   6    -0.222489093155E+02    0.11609E+01   -0.54396E+00   414   0.125E+01    0.261E+00
RMM:   7    -0.218648223530E+02    0.38409E+00   -0.55736E-01   409   0.342E+00    0.150E+00
RMM:   8    -0.218045644372E+02    0.60258E-01   -0.23222E-01   431   0.253E+00    0.354E-01
RMM:   9    -0.217996784324E+02    0.48860E-02   -0.87297E-03   466   0.608E-01    0.958E-02
RMM:  10    -0.217989226509E+02    0.75578E-03   -0.16770E-03   466   0.219E-01    0.442E-02
RMM:  11    -0.217988530374E+02    0.69613E-04   -0.16132E-03   438   0.189E-01    0.536E-02
RMM:  12    -0.217986921048E+02    0.16093E-03   -0.52029E-04   425   0.129E-01    0.177E-02
RMM:  13    -0.217990290404E+02   -0.33694E-03   -0.16794E-04   397   0.735E-02    0.202E-02
RMM:  14    -0.217990830518E+02   -0.54011E-04   -0.26042E-05   358   0.282E-02    0.490E-03
RMM:  15    -0.217992091918E+02   -0.12614E-03   -0.10895E-05   272   0.173E-02    0.259E-03
RMM:  16    -0.217992492894E+02   -0.40098E-04   -0.27032E-06   241   0.832E-03    0.153E-03
RMM:  17    -0.217992802547E+02   -0.30965E-04   -0.24041E-06   196   0.692E-03    0.111E-03
RMM:  18    -0.217992849428E+02   -0.46881E-05   -0.43263E-07   122   0.420E-03
 Error reading item 'IVDW' from file INCAR
   1 F= -.21799285E+02 E0= -.21799285E+02  d E =0.000000E+00

Currently Loaded Modulefiles:
  1) Anaconda3/5.1.0       3) vesta/3.3.8           5) intel/2016.1
  2) gnuplot/5.0.4         4) imagemagick/6.7.9-0   6) vasp/5.4.1.Feb16

Job script resource usage:
       JobID  MaxVMSize     MaxRSS 
------------ ---------- ---------- 
28532154.ba+    216888K      2587K 

Job step resource usage:
       JobID    JobName  AllocCPUS  MaxVMSize     MaxRSS    Elapsed ExitCode 
------------ ---------- ---------- ---------- ---------- ---------- -------- 
28532154        jobname          4                         00:00:20      0:0 
28532154.0    pmi_proxy          1    279832K       534K   00:00:18      0:0 

Job 28532154 ("jobname") completed on c14-5 at Fri Nov 8 11:20:10 CET 2019
