perl: warning: Setting locale failed.
perl: warning: Please check that your locale settings:
	LANGUAGE = (unset),
	LC_ALL = (unset),
	LC_CTYPE = "UTF-8",
	LANG = "en_US.iso885915"
    are supported and installed on your system.
perl: warning: Falling back to the standard locale ("C").
Starting job 28531326 ("jobname") on c14-5 at Fri Nov 8 09:50:34 CET 2019
 running on    4 total cores
 distrk:  each k-point on    4 cores,    1 groups
 distr:  one band on    2 cores,    2 groups
 using from now: INCAR     
 vasp.5.4.4.18Apr17-6-g9f103f2a35 (build Jun 30 2017 11:15:00) complex          
  
 POSCAR found type information on POSCAR  Mo S 
 POSCAR found :  2 types and       6 ions
 scaLAPACK will be used
 LDA part: xc-table for Pade appr. of Perdew
 POSCAR, INCAR and KPOINTS ok, starting setup
 FFT: planning ...
 WAVECAR not read
 entering main loop
       N       E                     dE             d eps       ncg     rms          rms(c)
DAV:   1     0.287385075180E+03    0.28739E+03   -0.16046E+04   616   0.157E+03
DAV:   2    -0.153728587089E+02   -0.30276E+03   -0.29607E+03   942   0.282E+02
DAV:   3    -0.455961148007E+02   -0.30223E+02   -0.29934E+02   752   0.941E+01
DAV:   4    -0.467883363388E+02   -0.11922E+01   -0.11884E+01   876   0.197E+01
DAV:   5    -0.468211755864E+02   -0.32839E-01   -0.32818E-01   826   0.331E+00    0.973E+00
RMM:   6    -0.444197533903E+02    0.24014E+01   -0.24034E+01   690   0.197E+01    0.332E+00
RMM:   7    -0.436931589173E+02    0.72659E+00   -0.19907E+00   689   0.576E+00    0.177E+00
RMM:   8    -0.436307309694E+02    0.62428E-01   -0.81732E-01   732   0.332E+00    0.800E-01
RMM:   9    -0.436189976980E+02    0.11733E-01   -0.26958E-01   759   0.222E+00    0.530E-01
RMM:  10    -0.436040223185E+02    0.14975E-01   -0.42578E-02   748   0.980E-01    0.513E-02
RMM:  11    -0.436044370798E+02   -0.41476E-03   -0.69082E-03   863   0.257E-01    0.537E-02
RMM:  12    -0.436044414216E+02   -0.43418E-05   -0.21592E-03   777   0.202E-01    0.509E-02
RMM:  13    -0.436043476928E+02    0.93729E-04   -0.59428E-04   765   0.104E-01    0.107E-02
RMM:  14    -0.436044311923E+02   -0.83499E-04   -0.87953E-05   609   0.380E-02    0.633E-03
RMM:  15    -0.436044786683E+02   -0.47476E-04   -0.66181E-05   642   0.366E-02    0.108E-02
RMM:  16    -0.436044985331E+02   -0.19865E-04   -0.36809E-05   536   0.293E-02    0.267E-03
RMM:  17    -0.436045513399E+02   -0.52807E-04   -0.11065E-05   467   0.160E-02    0.428E-03
RMM:  18    -0.436045899756E+02   -0.38636E-04   -0.47946E-06   455   0.111E-02    0.131E-03
RMM:  19    -0.436046053552E+02   -0.15380E-04   -0.22714E-06   295   0.585E-03    0.600E-04
RMM:  20    -0.436046103975E+02   -0.50423E-05   -0.14357E-06   290   0.550E-03
 Error reading item 'IVDW' from file INCAR
   1 F= -.43604610E+02 E0= -.43604610E+02  d E =0.000000E+00

Currently Loaded Modulefiles:
  1) Anaconda3/5.1.0       3) vesta/3.3.8           5) intel/2016.1
  2) gnuplot/5.0.4         4) imagemagick/6.7.9-0   6) vasp/5.4.1.Feb16

Job script resource usage:
       JobID  MaxVMSize     MaxRSS 
------------ ---------- ---------- 
28531326.ba+    499276K      5210K 

Job step resource usage:
       JobID    JobName  AllocCPUS  MaxVMSize     MaxRSS    Elapsed ExitCode 
------------ ---------- ---------- ---------- ---------- ---------- -------- 
28531326        jobname          4                         00:00:37      0:0 
28531326.0    pmi_proxy          1   1408592K    227149K   00:00:31      0:0 

Job 28531326 ("jobname") completed on c14-5 at Fri Nov 8 09:51:05 CET 2019
