<?xml version="1.0" encoding="ISO-8859-1"?>
<modeling>
 <generator>
  <i name="program" type="string">vasp </i>
  <i name="version" type="string">5.4.4.18Apr17-6-g9f103f2a35  </i>
  <i name="subversion" type="string">(build Jun 30 2017 11:15:00) complex            parallel </i>
  <i name="platform" type="string">STALLO_VASP_5.4.4 </i>
  <i name="date" type="string">2019 11 08 </i>
  <i name="time" type="string">12:21:31 </i>
 </generator>
 <incar>
  <i type="string" name="PREC">normal    ! low/normal/accurate</i>
  <i type="string" name="ALGO"> Fast      ! Algorithm for electronic re</i>
  <i type="int" name="ISPIN">     1</i>
  <i type="int" name="NELMIN">     4</i>
  <i name="EDIFF">      0.00001000</i>
  <i type="int" name="NSW">     0</i>
  <i name="ENCUT">    450.00000000</i>
  <i type="logical" name="LREAL"> F  </i>
  <i type="int" name="ISMEAR">    -5</i>
  <i name="SIGMA">      0.20000000</i>
  <i type="logical" name="LWAVE"> F  </i>
  <v type="int" name="KPOINT_BSE">    -1     0     0     0</v>
 </incar>
 <structure name="primitive_cell" >
  <crystal>
   <varray name="basis" >
    <v>       3.19031573       0.00000000       0.00000000 </v>
    <v>      -1.59515786       2.76289447       0.00000000 </v>
    <v>       0.00000000       0.00000000      30.87900430 </v>
   </varray>
   <i name="volume">    272.18315887 </i>
   <varray name="rec_basis" >
    <v>       0.31344860       0.18096963       0.00000000 </v>
    <v>       0.00000000       0.36193927       0.00000000 </v>
    <v>       0.00000000       0.00000000       0.03238446 </v>
   </varray>
  </crystal>
  <varray name="positions" >
   <v>       0.33333300      -0.33333300       0.12046214 </v>
   <v>      -0.33333400       0.33333300       0.17114009 </v>
   <v>      -0.33333300       0.33333300       0.06978420 </v>
  </varray>
 </structure>
 <varray name="primitive_index" >
  <v type="int" >        1 </v>
  <v type="int" >        3 </v>
  <v type="int" >        2 </v>
 </varray>
 <kpoints>
  <generation param="Gamma">
   <v type="int" name="divisions">      10       10        1 </v>
   <v name="usershift">      0.00000000       0.00000000       0.00000000 </v>
   <v name="genvec1">      0.10000000       0.00000000       0.00000000 </v>
   <v name="genvec2">      0.00000000       0.10000000       0.00000000 </v>
   <v name="genvec3">      0.00000000       0.00000000       1.00000000 </v>
   <v name="shift">      0.00000000       0.00000000       0.00000000 </v>
  </generation>
  <varray name="kpointlist" >
   <v>       0.00000000       0.00000000       0.00000000 </v>
   <v>       0.10000000      -0.00000000       0.00000000 </v>
   <v>       0.20000000       0.00000000       0.00000000 </v>
   <v>       0.30000000       0.00000000       0.00000000 </v>
   <v>       0.40000000       0.00000000       0.00000000 </v>
   <v>       0.50000000      -0.00000000       0.00000000 </v>
   <v>       0.10000000       0.10000000       0.00000000 </v>
   <v>       0.20000000       0.10000000       0.00000000 </v>
   <v>       0.30000000       0.10000000       0.00000000 </v>
   <v>       0.40000000       0.10000000       0.00000000 </v>
   <v>       0.20000000       0.20000000       0.00000000 </v>
   <v>       0.30000000       0.20000000       0.00000000 </v>
   <v>       0.40000000       0.20000000       0.00000000 </v>
   <v>       0.30000000       0.30000000       0.00000000 </v>
  </varray>
  <varray name="weights" >
   <v>       0.01000000 </v>
   <v>       0.06000000 </v>
   <v>       0.06000000 </v>
   <v>       0.06000000 </v>
   <v>       0.06000000 </v>
   <v>       0.03000000 </v>
   <v>       0.06000000 </v>
   <v>       0.12000000 </v>
   <v>       0.12000000 </v>
   <v>       0.12000000 </v>
   <v>       0.06000000 </v>
   <v>       0.12000000 </v>
   <v>       0.06000000 </v>
   <v>       0.06000000 </v>
  </varray>
  <varray name="tetrahedronlist"  type="int" >
   <v type="int" >       12        2        2        2        7 </v>
   <v type="int" >       12        1        2        2        2 </v>
   <v type="int" >        6        1        1        2        2 </v>
   <v type="int" >        6        2        2        7        7 </v>
   <v type="int" >       12        3        7        7        8 </v>
   <v type="int" >       12        2        3        7        7 </v>
   <v type="int" >       12        2        2        3        7 </v>
   <v type="int" >       12        3        7        8        8 </v>
   <v type="int" >       12        3        3        7        8 </v>
   <v type="int" >       12        2        3        3        7 </v>
   <v type="int" >       12        4        8        8        9 </v>
   <v type="int" >       12        3        4        8        8 </v>
   <v type="int" >       12        3        3        4        8 </v>
   <v type="int" >       12        4        8        9        9 </v>
   <v type="int" >       12        4        4        8        9 </v>
   <v type="int" >       12        3        4        4        8 </v>
   <v type="int" >       12        5        9        9       10 </v>
   <v type="int" >       12        4        5        9        9 </v>
   <v type="int" >       12        4        4        5        9 </v>
   <v type="int" >       12        5        9       10       10 </v>
   <v type="int" >       12        5        5        9       10 </v>
   <v type="int" >       12        4        5        5        9 </v>
   <v type="int" >       12        6       10       10       10 </v>
   <v type="int" >       12        5        6       10       10 </v>
   <v type="int" >       12        5        5        6       10 </v>
   <v type="int" >        6        6        6       10       10 </v>
   <v type="int" >       12        5        6        6       10 </v>
   <v type="int" >       12        8        8        8       11 </v>
   <v type="int" >       12        7        8        8        8 </v>
   <v type="int" >        6        7        7        8        8 </v>
   <v type="int" >        6        8        8       11       11 </v>
   <v type="int" >       12        9       11       11       12 </v>
   <v type="int" >       12        8        9       11       11 </v>
   <v type="int" >       12        8        8        9       11 </v>
   <v type="int" >       12        9       11       12       12 </v>
   <v type="int" >       12        9        9       11       12 </v>
   <v type="int" >       12        8        9        9       11 </v>
   <v type="int" >       12       10       12       12       13 </v>
   <v type="int" >       12        9       10       12       12 </v>
   <v type="int" >       12        9        9       10       12 </v>
   <v type="int" >       12       10       12       13       13 </v>
   <v type="int" >       12       10       10       12       13 </v>
   <v type="int" >       12        9       10       10       12 </v>
   <v type="int" >        6       10       10       13       13 </v>
   <v type="int" >       12       10       10       10       13 </v>
   <v type="int" >       12       12       12       12       14 </v>
   <v type="int" >       12       11       12       12       12 </v>
   <v type="int" >        6       11       11       12       12 </v>
   <v type="int" >        6       12       12       14       14 </v>
   <v type="int" >       12       13       14       14       14 </v>
   <v type="int" >       12       12       13       14       14 </v>
   <v type="int" >       12       12       12       13       14 </v>
   <v type="int" >        6       13       13       14       14 </v>
   <v type="int" >       12       12       13       13       14 </v>
   <v type="int" >        6       14       14       14       14 </v>
  </varray>
  <i name="volumeweight">      0.00166667 </i>
 </kpoints>
 <parameters>
  <separator name="general" >
   <i type="string" name="SYSTEM">unknown system</i>
   <i type="logical" name="LCOMPAT"> F  </i>
  </separator>
  <separator name="electronic" >
   <i type="string" name="PREC">normal</i>
   <i name="ENMAX">    450.00000000</i>
   <i name="ENAUG">    345.27800000</i>
   <i name="EDIFF">      0.00001000</i>
   <i type="int" name="IALGO">    68</i>
   <i type="int" name="IWAVPR">    10</i>
   <i type="int" name="NBANDS">    14</i>
   <i name="NELECT">     18.00000000</i>
   <i type="int" name="TURBO">     0</i>
   <i type="int" name="IRESTART">     0</i>
   <i type="int" name="NREBOOT">     0</i>
   <i type="int" name="NMIN">     0</i>
   <i name="EREF">      0.00000000</i>
   <separator name="electronic smearing" >
    <i type="int" name="ISMEAR">    -5</i>
    <i name="SIGMA">      0.20000000</i>
    <i name="KSPACING">      0.50000000</i>
    <i type="logical" name="KGAMMA"> T  </i>
   </separator>
   <separator name="electronic projectors" >
    <i type="logical" name="LREAL"> F  </i>
    <v name="ROPT">      0.00000000      0.00000000</v>
    <i type="int" name="LMAXPAW">  -100</i>
    <i type="int" name="LMAXMIX">     2</i>
    <i type="logical" name="NLSPLINE"> F  </i>
   </separator>
   <separator name="electronic startup" >
    <i type="int" name="ISTART">     0</i>
    <i type="int" name="ICHARG">     2</i>
    <i type="int" name="INIWAV">     1</i>
   </separator>
   <separator name="electronic spin" >
    <i type="int" name="ISPIN">     1</i>
    <i type="logical" name="LNONCOLLINEAR"> F  </i>
    <v name="MAGMOM">      1.00000000      1.00000000      1.00000000</v>
    <i name="NUPDOWN">     -1.00000000</i>
    <i type="logical" name="LSORBIT"> F  </i>
    <v name="SAXIS">      0.00000000      0.00000000      1.00000000</v>
    <i type="logical" name="LSPIRAL"> F  </i>
    <v name="QSPIRAL">      0.00000000      0.00000000      0.00000000</v>
    <i type="logical" name="LZEROZ"> F  </i>
   </separator>
   <separator name="electronic exchange-correlation" >
    <i type="logical" name="LASPH"> F  </i>
    <i type="logical" name="LMETAGGA"> F  </i>
   </separator>
   <separator name="electronic convergence" >
    <i type="int" name="NELM">    60</i>
    <i type="int" name="NELMDL">     0</i>
    <i type="int" name="NELMIN">     4</i>
    <i name="ENINI">    450.00000000</i>
    <separator name="electronic convergence detail" >
     <i type="logical" name="LDIAG"> T  </i>
     <i type="logical" name="LSUBROT"> F  </i>
     <i name="WEIMIN">      0.00000000</i>
     <i name="EBREAK">      0.00000018</i>
     <i name="DEPER">      0.30000000</i>
     <i type="int" name="NRMM">     4</i>
     <i name="TIME">      0.40000000</i>
    </separator>
   </separator>
   <separator name="electronic mixer" >
    <i name="AMIX">      0.40000000</i>
    <i name="BMIX">      1.00000000</i>
    <i name="AMIN">      0.10000000</i>
    <i name="AMIX_MAG">      1.60000000</i>
    <i name="BMIX_MAG">      1.00000000</i>
    <separator name="electronic mixer details" >
     <i type="int" name="IMIX">     4</i>
     <i type="logical" name="MIXFIRST"> F  </i>
     <i type="int" name="MAXMIX">   -45</i>
     <i name="WC">    100.00000000</i>
     <i type="int" name="INIMIX">     1</i>
     <i type="int" name="MIXPRE">     1</i>
     <i type="int" name="MREMOVE">     5</i>
    </separator>
   </separator>
   <separator name="electronic dipolcorrection" >
    <i type="logical" name="LDIPOL"> F  </i>
    <i type="logical" name="LMONO"> F  </i>
    <i type="int" name="IDIPOL">     0</i>
    <i name="EPSILON">      1.00000000</i>
    <v name="DIPOL">   -100.00000000   -100.00000000   -100.00000000</v>
    <i name="EFIELD">      0.00000000</i>
   </separator>
  </separator>
  <separator name="grids" >
   <i type="int" name="NGX">    18</i>
   <i type="int" name="NGY">    18</i>
   <i type="int" name="NGZ">   160</i>
   <i type="int" name="NGXF">    36</i>
   <i type="int" name="NGYF">    36</i>
   <i type="int" name="NGZF">   320</i>
   <i type="logical" name="ADDGRID"> F  </i>
  </separator>
  <separator name="ionic" >
   <i type="int" name="NSW">     0</i>
   <i type="int" name="IBRION">    -1</i>
   <i type="int" name="MDALGO">     0</i>
   <i type="int" name="ISIF">     2</i>
   <i name="PSTRESS">      0.00000000</i>
   <i name="EDIFFG">      0.00010000</i>
   <i type="int" name="NFREE">     0</i>
   <i name="POTIM">      0.50000000</i>
   <i name="SMASS">     -3.00000000</i>
   <i name="SCALEE">      1.00000000</i>
  </separator>
  <separator name="ionic md" >
   <i name="TEBEG">      0.00010000</i>
   <i name="TEEND">      0.00010000</i>
   <i type="int" name="NBLOCK">     1</i>
   <i type="int" name="KBLOCK">     1</i>
   <i type="int" name="NPACO">   256</i>
   <i name="APACO">     16.00000000</i>
  </separator>
  <separator name="symmetry" >
   <i type="int" name="ISYM">     2</i>
   <i name="SYMPREC">      0.00001000</i>
  </separator>
  <separator name="dos" >
   <i type="int" name="LORBIT">     0</i>
   <v name="RWIGS">     -1.00000000     -1.00000000</v>
   <i type="int" name="NEDOS">   301</i>
   <i name="EMIN">     10.00000000</i>
   <i name="EMAX">    -10.00000000</i>
   <i name="EFERMI">      0.00000000</i>
  </separator>
  <separator name="writing" >
   <i type="int" name="NWRITE">     2</i>
   <i type="logical" name="LWAVE"> F  </i>
   <i type="logical" name="LDOWNSAMPLE"> F  </i>
   <i type="logical" name="LCHARG"> T  </i>
   <i type="logical" name="LPARD"> F  </i>
   <i type="logical" name="LVTOT"> F  </i>
   <i type="logical" name="LVHAR"> F  </i>
   <i type="logical" name="LELF"> F  </i>
   <i type="logical" name="LOPTICS"> F  </i>
   <v name="STM">      0.00000000      0.00000000      0.00000000      0.00000000      0.00000000      0.00000000      0.00000000</v>
  </separator>
  <separator name="performance" >
   <i type="int" name="NPAR">     2</i>
   <i type="int" name="NSIM">     4</i>
   <i type="int" name="NBLK">    -1</i>
   <i type="logical" name="LPLANE"> T  </i>
   <i type="logical" name="LSCALAPACK"> T  </i>
   <i type="logical" name="LSCAAWARE"> F  </i>
   <i type="logical" name="LSCALU"> F  </i>
   <i type="logical" name="LASYNC"> F  </i>
   <i type="logical" name="LORBITALREAL"> F  </i>
  </separator>
  <separator name="miscellaneous" >
   <i type="int" name="IDIOT">     3</i>
   <i type="int" name="ISPECIAL">     0</i>
   <i type="logical" name="LMUSIC"> F  </i>
   <v name="POMASS">     95.94000000     32.06600000</v>
   <v name="DARWINR">      0.00000000      0.00000000</v>
   <v name="DARWINV">      1.00000000      1.00000000</v>
   <i type="logical" name="LCORR"> T  </i>
  </separator>
  <i type="logical" name="GGA_COMPAT"> T  </i>
  <i type="logical" name="LBERRY"> F  </i>
  <i type="int" name="ICORELEVEL">     0</i>
  <i type="logical" name="LDAU"> F  </i>
  <i type="int" name="I_CONSTRAINED_M">     0</i>
  <separator name="electronic exchange-correlation" >
   <i type="string" name="GGA">--</i>
   <i type="int" name="VOSKOWN">     0</i>
   <i type="logical" name="LHFCALC"> F  </i>
   <i type="string" name="PRECFOCK"></i>
   <i type="logical" name="LSYMGRAD"> F  </i>
   <i type="logical" name="LHFONE"> F  </i>
   <i type="logical" name="LRHFCALC"> F  </i>
   <i type="logical" name="LTHOMAS"> F  </i>
   <i type="logical" name="LMODELHF"> F  </i>
   <i name="ENCUT4O">     -1.00000000</i>
   <i type="int" name="EXXOEP">     0</i>
   <i type="int" name="FOURORBIT">     0</i>
   <i name="AEXX">      0.00000000</i>
   <i name="HFALPHA">      0.00000000</i>
   <i name="MCALPHA">      0.00000000</i>
   <i name="ALDAX">      1.00000000</i>
   <i name="AGGAX">      1.00000000</i>
   <i name="ALDAC">      1.00000000</i>
   <i name="AGGAC">      1.00000000</i>
   <i type="int" name="NKREDX">     1</i>
   <i type="int" name="NKREDY">     1</i>
   <i type="int" name="NKREDZ">     1</i>
   <i type="logical" name="SHIFTRED"> F  </i>
   <i type="logical" name="ODDONLY"> F  </i>
   <i type="logical" name="EVENONLY"> F  </i>
   <i type="int" name="LMAXFOCK">     0</i>
   <i type="int" name="NMAXFOCKAE">     0</i>
   <i type="logical" name="LFOCKAEDFT"> F  </i>
   <i name="HFSCREEN">      0.00000000</i>
   <i name="HFSCREENC">      0.00000000</i>
   <i type="int" name="NBANDSGWLOW">     0</i>
  </separator>
  <separator name="vdW DFT" >
   <i type="logical" name="LUSE_VDW"> F  </i>
   <i name="Zab_VDW">     -0.84910000</i>
   <i name="PARAM1">      0.12340000</i>
   <i name="PARAM2">      1.00000000</i>
   <i name="PARAM3">      0.00000000</i>
  </separator>
  <separator name="model GW" >
   <i type="int" name="MODEL_GW">     0</i>
   <i name="MODEL_EPS0">     54.43663177</i>
   <i name="MODEL_ALPHA">      1.00000000</i>
  </separator>
  <separator name="linear response parameters" >
   <i type="logical" name="LEPSILON"> F  </i>
   <i type="logical" name="LRPA"> F  </i>
   <i type="logical" name="LNABLA"> F  </i>
   <i type="logical" name="LVEL"> F  </i>
   <i type="int" name="KINTER">     0</i>
   <i name="CSHIFT">      0.10000000</i>
   <i name="OMEGAMAX">     -1.00000000</i>
   <i name="DEG_THRESHOLD">      0.00200000</i>
   <i name="RTIME">     -0.10000000</i>
   <i name="WPLASMAI">      0.00000000</i>
   <v name="DFIELD">      0.00000000      0.00000000      0.00000000</v>
   <v name="WPLASMA">      0.00000000      0.00000000      0.00000000      0.00000000      0.00000000      0.00000000      0.00000000      0.00000000      0.00000000</v>
  </separator>
  <separator name="orbital magnetization" >
   <i type="logical" name="NUCIND"> F  </i>
   <v name="MAGPOS">      0.00000000      0.00000000      0.00000000</v>
   <i type="logical" name="LNICSALL"> T  </i>
   <i type="logical" name="ORBITALMAG"> F  </i>
   <i type="logical" name="LMAGBLOCH"> F  </i>
   <i type="logical" name="LCHIMAG"> F  </i>
   <i type="logical" name="LGAUGE"> T  </i>
   <i type="int" name="MAGATOM">     0</i>
   <v name="MAGDIPOL">      0.00000000      0.00000000      0.00000000</v>
   <v name="AVECCONST">      0.00000000      0.00000000      0.00000000</v>
  </separator>
  <separator name="response functions" >
   <i type="logical" name="LADDER"> F  </i>
   <i type="logical" name="LRPAFORCE"> F  </i>
   <i type="logical" name="LFXC"> F  </i>
   <i type="logical" name="LHARTREE"> T  </i>
   <i type="int" name="IBSE">     0</i>
   <v type="int" name="KPOINT">    -1     0     0     0</v>
   <i type="logical" name="LTCTE"> F  </i>
   <i type="logical" name="LTETE"> F  </i>
   <i type="logical" name="LTRIPLET"> F  </i>
   <i type="logical" name="LFXCEPS"> F  </i>
   <i type="logical" name="LFXHEG"> F  </i>
   <i type="int" name="NATURALO">     2</i>
   <i type="logical" name="L2ORDER"> F  </i>
   <i type="logical" name="LMP2LT"> F  </i>
   <i type="logical" name="LUSEW"> F  </i>
   <i name="ENCUTGW">     -2.00000000</i>
   <i name="ENCUTGWSOFT">     -2.00000000</i>
   <i name="ENCUTLF">     -1.00000000</i>
   <i type="int" name="LMAXMP2">    -1</i>
   <i name="SCISSOR">      0.00000000</i>
   <i type="int" name="NOMEGA">     0</i>
   <i type="int" name="NOMEGAR">     0</i>
   <i type="int" name="NBANDSGW">    -1</i>
   <i type="int" name="NBANDSO">    -1</i>
   <i type="int" name="NBANDSV">    -1</i>
   <i type="int" name="NELM">     1</i>
   <i type="int" name="NELMHF">     1</i>
   <i type="int" name="DIM">     3</i>
   <i type="int" name="ANTIRES">     0</i>
   <i name="OMEGAMAX">    -30.00000000</i>
   <i name="OMEGAMIN">    -30.00000000</i>
   <i name="OMEGATL">   -200.00000000</i>
   <i type="int" name="OMEGAGRID">   140</i>
   <i name="CSHIFT">     -0.10000000</i>
   <i type="logical" name="SELFENERGY"> F  </i>
   <i type="logical" name="LSPECTRAL"> F  </i>
   <i type="logical" name="LSPECTRALGW"> F  </i>
   <i type="logical" name="LSINGLES"> F  </i>
   <i type="logical" name="LFERMIGW"> F  </i>
   <i type="logical" name="ODDONLYGW"> F  </i>
   <i type="logical" name="EVENONLYGW"> F  </i>
   <i type="int" name="NKREDLFX">     1</i>
   <i type="int" name="NKREDLFY">     1</i>
   <i type="int" name="NKREDLFZ">     1</i>
   <i type="int" name="MAXMEM">  2800</i>
   <i type="int" name="TELESCOPE">     0</i>
   <i type="int" name="TAUPAR">     1</i>
   <i type="int" name="OMEGAPAR">    -1</i>
   <i name="LAMBDA">      1.00000000</i>
  </separator>
  <separator name="External order field" >
   <i name="OFIELD_KAPPA">      0.00000000</i>
   <v name="OFIELD_K">      0.00000000      0.00000000      0.00000000</v>
   <i name="OFIELD_Q6_NEAR">      0.00000000</i>
   <i name="OFIELD_Q6_FAR">      0.00000000</i>
   <i name="OFIELD_A">      0.00000000</i>
  </separator>
 </parameters>
 <atominfo>
  <atoms>       3 </atoms>
  <types>       2 </types>
  <array name="atoms" >
   <dimension dim="1">ion</dimension>
   <field type="string">element</field>
   <field type="int">atomtype</field>
   <set>
    <rc><c>Mo</c><c>   1</c></rc>
    <rc><c>S </c><c>   2</c></rc>
    <rc><c>S </c><c>   2</c></rc>
   </set>
  </array>
  <array name="atomtypes" >
   <dimension dim="1">type</dimension>
   <field type="int">atomspertype</field>
   <field type="string">element</field>
   <field>mass</field>
   <field>valence</field>
   <field type="string">pseudopotential</field>
   <set>
    <rc><c>   1</c><c>Mo</c><c>     95.94000000</c><c>      6.00000000</c><c> PAW_PBE Mo 08Apr2002                   </c></rc>
    <rc><c>   2</c><c>S </c><c>     32.06600000</c><c>      6.00000000</c><c>  PAW_PBE S 17Jan2003                   </c></rc>
   </set>
  </array>
 </atominfo>
 <structure name="initialpos" >
  <crystal>
   <varray name="basis" >
    <v>       3.19031573       0.00000000       0.00000000 </v>
    <v>      -1.59515786       2.76289447       0.00000000 </v>
    <v>       0.00000000       0.00000000      30.87900430 </v>
   </varray>
   <i name="volume">    272.18315887 </i>
   <varray name="rec_basis" >
    <v>       0.31344860       0.18096963       0.00000000 </v>
    <v>       0.00000000       0.36193927       0.00000000 </v>
    <v>       0.00000000       0.00000000       0.03238446 </v>
   </varray>
  </crystal>
  <varray name="positions" >
   <v>       0.33333300       0.66666700       0.12046214 </v>
   <v>       0.66666700       0.33333300       0.06978420 </v>
   <v>       0.66666600       0.33333300       0.17114009 </v>
  </varray>
 </structure>
 <calculation>
  <scstep>
   <time name="dav">    0.39    0.39</time>
   <time name="total">    0.45    0.47</time>
   <energy>
    <i name="alphaZ">     10.89288288 </i>
    <i name="ewald">   5368.65661653 </i>
    <i name="hartreedc">  -6042.21104469 </i>
    <i name="XCdc">    -36.31053806 </i>
    <i name="pawpsdc">    406.88651198 </i>
    <i name="pawaedc">   -329.34073203 </i>
    <i name="eentropy">      0.00000000 </i>
    <i name="bandstr">    -11.11040920 </i>
    <i name="atom">    771.15511399 </i>
    <i name="e_fr_energy">    138.61840140 </i>
    <i name="e_wo_entrp">    138.61840140 </i>
    <i name="e_0_energy">    138.61840140 </i>
   </energy>
  </scstep>
  <scstep>
   <time name="dav">    0.60    0.60</time>
   <time name="total">    0.60    0.60</time>
   <energy>
    <i name="e_fr_energy">     -6.07228398 </i>
    <i name="e_wo_entrp">     -6.07228398 </i>
    <i name="e_0_energy">     -6.07228398 </i>
   </energy>
  </scstep>
  <scstep>
   <time name="dav">    0.48    0.49</time>
   <time name="total">    0.48    0.49</time>
   <energy>
    <i name="e_fr_energy">    -23.06681578 </i>
    <i name="e_wo_entrp">    -23.06681578 </i>
    <i name="e_0_energy">    -23.06681578 </i>
   </energy>
  </scstep>
  <scstep>
   <time name="dav">    0.46    0.46</time>
   <time name="total">    0.46    0.46</time>
   <energy>
    <i name="e_fr_energy">    -23.39910556 </i>
    <i name="e_wo_entrp">    -23.39910556 </i>
    <i name="e_0_energy">    -23.39910556 </i>
   </energy>
  </scstep>
  <scstep>
   <time name="dav">    0.47    0.47</time>
   <time name="total">    0.51    0.51</time>
   <energy>
    <i name="e_fr_energy">    -23.40764162 </i>
    <i name="e_wo_entrp">    -23.40764162 </i>
    <i name="e_0_energy">    -23.40764162 </i>
   </energy>
  </scstep>
  <scstep>
   <time name="diag">    0.08    0.08</time>
   <time name="diis">    0.33    0.33</time>
   <time name="orth">    0.01    0.01</time>
   <time name="total">    0.51    0.51</time>
   <energy>
    <i name="e_fr_energy">    -22.24655289 </i>
    <i name="e_wo_entrp">    -22.24655289 </i>
    <i name="e_0_energy">    -22.24655289 </i>
   </energy>
  </scstep>
  <scstep>
   <time name="diag">    0.08    0.08</time>
   <time name="diis">    0.33    0.33</time>
   <time name="orth">    0.01    0.01</time>
   <time name="total">    0.50    0.50</time>
   <energy>
    <i name="e_fr_energy">    -21.86238534 </i>
    <i name="e_wo_entrp">    -21.86238534 </i>
    <i name="e_0_energy">    -21.86238534 </i>
   </energy>
  </scstep>
  <scstep>
   <time name="diag">    0.08    0.08</time>
   <time name="diis">    0.34    0.34</time>
   <time name="orth">    0.01    0.01</time>
   <time name="total">    0.51    0.52</time>
   <energy>
    <i name="e_fr_energy">    -21.80209393 </i>
    <i name="e_wo_entrp">    -21.80209393 </i>
    <i name="e_0_energy">    -21.80209393 </i>
   </energy>
  </scstep>
  <scstep>
   <time name="diag">    0.08    0.08</time>
   <time name="diis">    0.38    0.38</time>
   <time name="orth">    0.01    0.01</time>
   <time name="total">    0.55    0.55</time>
   <energy>
    <i name="e_fr_energy">    -21.79721415 </i>
    <i name="e_wo_entrp">    -21.79721415 </i>
    <i name="e_0_energy">    -21.79721415 </i>
   </energy>
  </scstep>
  <scstep>
   <time name="diag">    0.08    0.08</time>
   <time name="diis">    0.37    0.37</time>
   <time name="orth">    0.01    0.01</time>
   <time name="total">    0.54    0.54</time>
   <energy>
    <i name="e_fr_energy">    -21.79645600 </i>
    <i name="e_wo_entrp">    -21.79645600 </i>
    <i name="e_0_energy">    -21.79645600 </i>
   </energy>
  </scstep>
  <scstep>
   <time name="diag">    0.08    0.08</time>
   <time name="diis">    0.35    0.35</time>
   <time name="orth">    0.01    0.01</time>
   <time name="total">    0.52    0.52</time>
   <energy>
    <i name="e_fr_energy">    -21.79638981 </i>
    <i name="e_wo_entrp">    -21.79638981 </i>
    <i name="e_0_energy">    -21.79638981 </i>
   </energy>
  </scstep>
  <scstep>
   <time name="diag">    0.08    0.08</time>
   <time name="diis">    0.34    0.34</time>
   <time name="orth">    0.01    0.01</time>
   <time name="total">    0.52    0.52</time>
   <energy>
    <i name="e_fr_energy">    -21.79622079 </i>
    <i name="e_wo_entrp">    -21.79622079 </i>
    <i name="e_0_energy">    -21.79622079 </i>
   </energy>
  </scstep>
  <scstep>
   <time name="diag">    0.08    0.08</time>
   <time name="diis">    0.31    0.31</time>
   <time name="orth">    0.01    0.01</time>
   <time name="total">    0.48    0.48</time>
   <energy>
    <i name="e_fr_energy">    -21.79655965 </i>
    <i name="e_wo_entrp">    -21.79655965 </i>
    <i name="e_0_energy">    -21.79655965 </i>
   </energy>
  </scstep>
  <scstep>
   <time name="diag">    0.08    0.08</time>
   <time name="diis">    0.30    0.30</time>
   <time name="orth">    0.01    0.01</time>
   <time name="total">    0.47    0.47</time>
   <energy>
    <i name="e_fr_energy">    -21.79661751 </i>
    <i name="e_wo_entrp">    -21.79661751 </i>
    <i name="e_0_energy">    -21.79661751 </i>
   </energy>
  </scstep>
  <scstep>
   <time name="diag">    0.08    0.08</time>
   <time name="diis">    0.25    0.25</time>
   <time name="orth">    0.01    0.01</time>
   <time name="total">    0.42    0.42</time>
   <energy>
    <i name="e_fr_energy">    -21.79674347 </i>
    <i name="e_wo_entrp">    -21.79674347 </i>
    <i name="e_0_energy">    -21.79674347 </i>
   </energy>
  </scstep>
  <scstep>
   <time name="diag">    0.08    0.08</time>
   <time name="diis">    0.23    0.23</time>
   <time name="orth">    0.01    0.01</time>
   <time name="total">    0.40    0.40</time>
   <energy>
    <i name="e_fr_energy">    -21.79678474 </i>
    <i name="e_wo_entrp">    -21.79678474 </i>
    <i name="e_0_energy">    -21.79678474 </i>
   </energy>
  </scstep>
  <scstep>
   <time name="diag">    0.08    0.08</time>
   <time name="diis">    0.22    0.22</time>
   <time name="orth">    0.01    0.01</time>
   <time name="total">    0.39    0.39</time>
   <energy>
    <i name="e_fr_energy">    -21.79681677 </i>
    <i name="e_wo_entrp">    -21.79681677 </i>
    <i name="e_0_energy">    -21.79681677 </i>
   </energy>
  </scstep>
  <scstep>
   <time name="diag">    0.08    0.08</time>
   <time name="diis">    0.19    0.19</time>
   <time name="orth">    0.01    0.01</time>
   <time name="total">    0.33    0.33</time>
   <energy>
    <i name="alphaZ">     10.89288288 </i>
    <i name="ewald">   5368.65661653 </i>
    <i name="hartreedc">  -6055.62763637 </i>
    <i name="XCdc">    -35.20093160 </i>
    <i name="pawpsdc">    472.18455081 </i>
    <i name="pawaedc">   -396.37534595 </i>
    <i name="eentropy">      0.00000000 </i>
    <i name="bandstr">   -157.48207136 </i>
    <i name="atom">    771.15511399 </i>
    <i name="e_fr_energy">    -21.79682106 </i>
    <i name="e_wo_entrp">    -21.79682106 </i>
    <i name="e_0_energy">    -21.79682106 </i>
   </energy>
  </scstep>
  <structure>
   <crystal>
    <varray name="basis" >
     <v>       3.19031573       0.00000000       0.00000000 </v>
     <v>      -1.59515786       2.76289447       0.00000000 </v>
     <v>       0.00000000       0.00000000      30.87900430 </v>
    </varray>
    <i name="volume">    272.18315887 </i>
    <varray name="rec_basis" >
     <v>       0.31344860       0.18096963       0.00000000 </v>
     <v>       0.00000000       0.36193927       0.00000000 </v>
     <v>       0.00000000       0.00000000       0.03238446 </v>
    </varray>
   </crystal>
   <varray name="positions" >
    <v>       0.33333300       0.66666700       0.12046214 </v>
    <v>       0.66666700       0.33333300       0.06978420 </v>
    <v>       0.66666600       0.33333300       0.17114009 </v>
   </varray>
  </structure>
  <varray name="forces" >
   <v>      -0.00000000       0.00000000       0.00000000 </v>
   <v>       0.00000000      -0.00000000       0.11627682 </v>
   <v>      -0.00000000       0.00000000      -0.11627682 </v>
  </varray>
  <varray name="stress" >
   <v>      -0.84093565       0.00000000       0.00000000 </v>
   <v>       0.00000000      -0.84093565       0.00000000 </v>
   <v>       0.00000000       0.00000000      -2.25644820 </v>
  </varray>
  <energy>
   <i name="e_fr_energy">    -22.38761927 </i>
   <i name="e_wo_entrp">    -22.38761927 </i>
   <i name="e_0_energy">      0.00000000 </i>
  </energy>
  <time name="totalsc">    9.61    9.73</time>
  <eigenvalues>
   <array>
    <dimension dim="1">band</dimension>
    <dimension dim="2">kpoint</dimension>
    <dimension dim="3">spin</dimension>
    <field>eigene</field>
    <field>occ</field>
    <set>
     <set comment="spin 1">
      <set comment="kpoint 1">
       <r>  -17.7883    1.0000 </r>
       <r>  -16.5803    1.0000 </r>
       <r>   -9.3087    1.0000 </r>
       <r>   -6.3479    1.0000 </r>
       <r>   -6.3479    1.0000 </r>
       <r>   -5.4867    1.0000 </r>
       <r>   -5.2423    1.0000 </r>
       <r>   -5.2422    1.0000 </r>
       <r>   -3.7664    1.0000 </r>
       <r>   -0.9948    0.0000 </r>
       <r>   -0.9947    0.0000 </r>
       <r>   -0.7711    0.0000 </r>
       <r>   -0.7711    0.0000 </r>
       <r>    1.6640    0.0000 </r>
      </set>
      <set comment="kpoint 2">
       <r>  -17.6499    1.0000 </r>
       <r>  -16.5141    1.0000 </r>
       <r>   -9.1473    1.0000 </r>
       <r>   -6.6600    1.0000 </r>
       <r>   -6.1957    1.0000 </r>
       <r>   -6.1035    1.0000 </r>
       <r>   -5.4679    1.0000 </r>
       <r>   -4.8552    1.0000 </r>
       <r>   -3.8468    1.0000 </r>
       <r>   -1.1707    0.0000 </r>
       <r>   -1.1362    0.0000 </r>
       <r>   -0.9301    0.0000 </r>
       <r>   -0.7549    0.0000 </r>
       <r>    1.9224    0.0000 </r>
      </set>
      <set comment="kpoint 3">
       <r>  -17.2642    1.0000 </r>
       <r>  -16.3307    1.0000 </r>
       <r>   -8.7889    1.0000 </r>
       <r>   -7.3010    1.0000 </r>
       <r>   -6.8818    1.0000 </r>
       <r>   -5.9581    1.0000 </r>
       <r>   -5.7859    1.0000 </r>
       <r>   -4.8884    1.0000 </r>
       <r>   -4.2101    1.0000 </r>
       <r>   -1.5645    0.0000 </r>
       <r>   -1.2671    0.0000 </r>
       <r>   -1.1134    0.0000 </r>
       <r>   -0.2590    0.0000 </r>
       <r>    2.4835    0.0000 </r>
      </set>
      <set comment="kpoint 4">
       <r>  -16.7268    1.0000 </r>
       <r>  -16.0800    1.0000 </r>
       <r>   -8.7947    1.0000 </r>
       <r>   -7.6549    1.0000 </r>
       <r>   -7.6218    1.0000 </r>
       <r>   -6.4427    1.0000 </r>
       <r>   -5.2654    1.0000 </r>
       <r>   -5.2483    1.0000 </r>
       <r>   -4.6684    1.0000 </r>
       <r>   -1.5352    0.0000 </r>
       <r>   -1.5300    0.0000 </r>
       <r>   -0.5825    0.0000 </r>
       <r>    0.1712    0.0000 </r>
       <r>    3.2414    0.0000 </r>
      </set>
      <set comment="kpoint 5">
       <r>  -16.2202    1.0000 </r>
       <r>  -15.8519    1.0000 </r>
       <r>   -9.2448    1.0000 </r>
       <r>   -8.2690    1.0000 </r>
       <r>   -7.7031    1.0000 </r>
       <r>   -6.7745    1.0000 </r>
       <r>   -5.5209    1.0000 </r>
       <r>   -4.8547    1.0000 </r>
       <r>   -4.6008    1.0000 </r>
       <r>   -1.6044    0.0000 </r>
       <r>   -1.2494    0.0000 </r>
       <r>   -0.0548    0.0000 </r>
       <r>    0.4132    0.0000 </r>
       <r>    3.0955    0.0000 </r>
      </set>
      <set comment="kpoint 6">
       <r>  -16.0020    1.0000 </r>
       <r>  -15.7572    1.0000 </r>
       <r>   -9.4680    1.0000 </r>
       <r>   -8.5078    1.0000 </r>
       <r>   -7.7970    1.0000 </r>
       <r>   -6.8909    1.0000 </r>
       <r>   -5.6089    1.0000 </r>
       <r>   -4.7088    1.0000 </r>
       <r>   -4.3870    1.0000 </r>
       <r>   -1.5817    0.0000 </r>
       <r>   -1.0657    0.0000 </r>
       <r>    0.1368    0.0000 </r>
       <r>    0.4858    0.0000 </r>
       <r>    2.4159    0.0000 </r>
      </set>
      <set comment="kpoint 7">
       <r>  -17.3875    1.0000 </r>
       <r>  -16.3889    1.0000 </r>
       <r>   -8.8765    1.0000 </r>
       <r>   -7.1221    1.0000 </r>
       <r>   -6.5919    1.0000 </r>
       <r>   -6.0077    1.0000 </r>
       <r>   -5.9357    1.0000 </r>
       <r>   -4.6794    1.0000 </r>
       <r>   -4.0732    1.0000 </r>
       <r>   -1.5079    0.0000 </r>
       <r>   -1.3069    0.0000 </r>
       <r>   -1.1858    0.0000 </r>
       <r>   -0.3222    0.0000 </r>
       <r>    2.3441    0.0000 </r>
      </set>
      <set comment="kpoint 8">
       <r>  -16.9230    1.0000 </r>
       <r>  -16.1689    1.0000 </r>
       <r>   -8.6505    1.0000 </r>
       <r>   -7.5477    1.0000 </r>
       <r>   -7.2631    1.0000 </r>
       <r>   -6.6189    1.0000 </r>
       <r>   -5.6147    1.0000 </r>
       <r>   -4.8362    1.0000 </r>
       <r>   -4.4953    1.0000 </r>
       <r>   -1.7583    0.0000 </r>
       <r>   -1.3509    0.0000 </r>
       <r>   -1.0794    0.0000 </r>
       <r>    0.1905    0.0000 </r>
       <r>    3.0085    0.0000 </r>
      </set>
      <set comment="kpoint 9">
       <r>  -16.3908    1.0000 </r>
       <r>  -15.9217    1.0000 </r>
       <r>   -8.9470    1.0000 </r>
       <r>   -8.0512    1.0000 </r>
       <r>   -7.5773    1.0000 </r>
       <r>   -6.8546    1.0000 </r>
       <r>   -5.5174    1.0000 </r>
       <r>   -5.2451    1.0000 </r>
       <r>   -4.5284    1.0000 </r>
       <r>   -1.6658    0.0000 </r>
       <r>   -1.3026    0.0000 </r>
       <r>   -0.5291    0.0000 </r>
       <r>    0.4655    0.0000 </r>
       <r>    3.6878    0.0000 </r>
      </set>
      <set comment="kpoint 10">
       <r>  -16.0126    1.0000 </r>
       <r>  -15.7511    1.0000 </r>
       <r>   -9.2756    1.0000 </r>
       <r>   -8.5481    1.0000 </r>
       <r>   -7.7160    1.0000 </r>
       <r>   -6.9028    1.0000 </r>
       <r>   -5.5515    1.0000 </r>
       <r>   -5.4004    1.0000 </r>
       <r>   -4.2401    1.0000 </r>
       <r>   -1.5583    0.0000 </r>
       <r>   -1.0624    0.0000 </r>
       <r>   -0.0301    0.0000 </r>
       <r>    0.4160    0.0000 </r>
       <r>    2.7677    0.0000 </r>
      </set>
      <set comment="kpoint 11">
       <r>  -16.4559    1.0000 </r>
       <r>  -15.9460    1.0000 </r>
       <r>   -8.7499    1.0000 </r>
       <r>   -7.9109    1.0000 </r>
       <r>   -7.4515    1.0000 </r>
       <r>   -7.0365    1.0000 </r>
       <r>   -5.9733    1.0000 </r>
       <r>   -4.9874    1.0000 </r>
       <r>   -4.5222    1.0000 </r>
       <r>   -1.7514    0.0000 </r>
       <r>   -1.2689    0.0000 </r>
       <r>   -0.9084    0.0000 </r>
       <r>    0.5768    0.0000 </r>
       <r>    3.7804    0.0000 </r>
      </set>
      <set comment="kpoint 12">
       <r>  -16.0294    1.0000 </r>
       <r>  -15.7410    1.0000 </r>
       <r>   -8.8966    1.0000 </r>
       <r>   -8.6065    1.0000 </r>
       <r>   -7.4569    1.0000 </r>
       <r>   -6.9505    1.0000 </r>
       <r>   -6.4017    1.0000 </r>
       <r>   -5.4139    1.0000 </r>
       <r>   -4.2531    1.0000 </r>
       <r>   -1.6012    0.0000 </r>
       <r>   -1.0135    0.0000 </r>
       <r>   -0.5995    0.0000 </r>
       <r>    0.7283    0.0000 </r>
       <r>    3.5426    0.0000 </r>
      </set>
      <set comment="kpoint 13">
       <r>  -15.8515    1.0000 </r>
       <r>  -15.6553    1.0000 </r>
       <r>   -8.9221    1.0000 </r>
       <r>   -8.8753    1.0000 </r>
       <r>   -7.6500    1.0000 </r>
       <r>   -6.8243    1.0000 </r>
       <r>   -6.4598    1.0000 </r>
       <r>   -5.6738    1.0000 </r>
       <r>   -4.0044    1.0000 </r>
       <r>   -1.7704    0.0000 </r>
       <r>   -0.6496    0.0000 </r>
       <r>   -0.4615    0.0000 </r>
       <r>    0.7548    0.0000 </r>
       <r>    2.9556    0.0000 </r>
      </set>
      <set comment="kpoint 14">
       <r>  -15.7925    1.0000 </r>
       <r>  -15.6147    1.0000 </r>
       <r>   -9.0225    1.0000 </r>
       <r>   -8.5312    1.0000 </r>
       <r>   -7.5387    1.0000 </r>
       <r>   -7.2179    1.0000 </r>
       <r>   -6.7157    1.0000 </r>
       <r>   -5.7817    1.0000 </r>
       <r>   -3.8825    1.0000 </r>
       <r>   -1.9775    0.0000 </r>
       <r>   -0.6972    0.0000 </r>
       <r>   -0.4224    0.0000 </r>
       <r>    0.9872    0.0000 </r>
       <r>    3.4261    0.0000 </r>
      </set>
     </set>
    </set>
   </array>
  </eigenvalues>
  <separator name="orbital magnetization" >
   <v name="MAGDIPOLOUT">      0.00000000      0.00000000      0.00000000</v>
  </separator>
  <dos>
   <i name="efermi">     -3.74396937 </i>
   <total>
    <array>
     <dimension dim="1">gridpoints</dimension>
     <dimension dim="2">spin</dimension>
     <field>energy</field>
     <field>total</field>
     <field>integrated</field>
     <set>
      <set comment="spin 1">
       <r>   -19.7883     0.0000     0.0000 </r>
       <r>   -19.7031     0.0000     0.0000 </r>
       <r>   -19.6179     0.0000     0.0000 </r>
       <r>   -19.5326     0.0000     0.0000 </r>
       <r>   -19.4474     0.0000     0.0000 </r>
       <r>   -19.3622     0.0000     0.0000 </r>
       <r>   -19.2770     0.0000     0.0000 </r>
       <r>   -19.1917     0.0000     0.0000 </r>
       <r>   -19.1065     0.0000     0.0000 </r>
       <r>   -19.0213     0.0000     0.0000 </r>
       <r>   -18.9360     0.0000     0.0000 </r>
       <r>   -18.8508     0.0000     0.0000 </r>
       <r>   -18.7656     0.0000     0.0000 </r>
       <r>   -18.6804     0.0000     0.0000 </r>
       <r>   -18.5951     0.0000     0.0000 </r>
       <r>   -18.5099     0.0000     0.0000 </r>
       <r>   -18.4247     0.0000     0.0000 </r>
       <r>   -18.3394     0.0000     0.0000 </r>
       <r>   -18.2542     0.0000     0.0000 </r>
       <r>   -18.1690     0.0000     0.0000 </r>
       <r>   -18.0838     0.0000     0.0000 </r>
       <r>   -17.9985     0.0000     0.0000 </r>
       <r>   -17.9133     0.0000     0.0000 </r>
       <r>   -17.8281     0.0000     0.0000 </r>
       <r>   -17.7428     0.2850     0.0065 </r>
       <r>   -17.6576     0.8188     0.0535 </r>
       <r>   -17.5724     0.5060     0.0973 </r>
       <r>   -17.4871     0.5596     0.1428 </r>
       <r>   -17.4019     0.6132     0.1927 </r>
       <r>   -17.3167     0.6010     0.2449 </r>
       <r>   -17.2315     0.5967     0.2954 </r>
       <r>   -17.1462     0.6266     0.3476 </r>
       <r>   -17.0610     0.6565     0.4022 </r>
       <r>   -16.9758     0.6864     0.4595 </r>
       <r>   -16.8905     0.7177     0.5192 </r>
       <r>   -16.8053     0.7550     0.5820 </r>
       <r>   -16.7201     0.7926     0.6480 </r>
       <r>   -16.6349     0.8338     0.7173 </r>
       <r>   -16.5496     1.7142     0.8030 </r>
       <r>   -16.4644     2.0137     0.9775 </r>
       <r>   -16.3792     2.3967     1.1665 </r>
       <r>   -16.2939     2.5500     1.3748 </r>
       <r>   -16.2087     2.8592     1.6047 </r>
       <r>   -16.1235     3.2771     1.8658 </r>
       <r>   -16.0383     3.7349     2.1643 </r>
       <r>   -15.9530     4.0918     2.5940 </r>
       <r>   -15.8678     4.0841     2.9419 </r>
       <r>   -15.7826     4.0012     3.3614 </r>
       <r>   -15.6973     3.3687     3.7581 </r>
       <r>   -15.6121     0.0000     4.0000 </r>
       <r>   -15.5269     0.0000     4.0000 </r>
       <r>   -15.4417     0.0000     4.0000 </r>
       <r>   -15.3564     0.0000     4.0000 </r>
       <r>   -15.2712     0.0000     4.0000 </r>
       <r>   -15.1860     0.0000     4.0000 </r>
       <r>   -15.1007     0.0000     4.0000 </r>
       <r>   -15.0155     0.0000     4.0000 </r>
       <r>   -14.9303     0.0000     4.0000 </r>
       <r>   -14.8450     0.0000     4.0000 </r>
       <r>   -14.7598     0.0000     4.0000 </r>
       <r>   -14.6746     0.0000     4.0000 </r>
       <r>   -14.5894     0.0000     4.0000 </r>
       <r>   -14.5041     0.0000     4.0000 </r>
       <r>   -14.4189     0.0000     4.0000 </r>
       <r>   -14.3337     0.0000     4.0000 </r>
       <r>   -14.2484     0.0000     4.0000 </r>
       <r>   -14.1632     0.0000     4.0000 </r>
       <r>   -14.0780     0.0000     4.0000 </r>
       <r>   -13.9928     0.0000     4.0000 </r>
       <r>   -13.9075     0.0000     4.0000 </r>
       <r>   -13.8223     0.0000     4.0000 </r>
       <r>   -13.7371     0.0000     4.0000 </r>
       <r>   -13.6518     0.0000     4.0000 </r>
       <r>   -13.5666     0.0000     4.0000 </r>
       <r>   -13.4814     0.0000     4.0000 </r>
       <r>   -13.3962     0.0000     4.0000 </r>
       <r>   -13.3109     0.0000     4.0000 </r>
       <r>   -13.2257     0.0000     4.0000 </r>
       <r>   -13.1405     0.0000     4.0000 </r>
       <r>   -13.0552     0.0000     4.0000 </r>
       <r>   -12.9700     0.0000     4.0000 </r>
       <r>   -12.8848     0.0000     4.0000 </r>
       <r>   -12.7996     0.0000     4.0000 </r>
       <r>   -12.7143     0.0000     4.0000 </r>
       <r>   -12.6291     0.0000     4.0000 </r>
       <r>   -12.5439     0.0000     4.0000 </r>
       <r>   -12.4586     0.0000     4.0000 </r>
       <r>   -12.3734     0.0000     4.0000 </r>
       <r>   -12.2882     0.0000     4.0000 </r>
       <r>   -12.2029     0.0000     4.0000 </r>
       <r>   -12.1177     0.0000     4.0000 </r>
       <r>   -12.0325     0.0000     4.0000 </r>
       <r>   -11.9473     0.0000     4.0000 </r>
       <r>   -11.8620     0.0000     4.0000 </r>
       <r>   -11.7768     0.0000     4.0000 </r>
       <r>   -11.6916     0.0000     4.0000 </r>
       <r>   -11.6063     0.0000     4.0000 </r>
       <r>   -11.5211     0.0000     4.0000 </r>
       <r>   -11.4359     0.0000     4.0000 </r>
       <r>   -11.3507     0.0000     4.0000 </r>
       <r>   -11.2654     0.0000     4.0000 </r>
       <r>   -11.1802     0.0000     4.0000 </r>
       <r>   -11.0950     0.0000     4.0000 </r>
       <r>   -11.0097     0.0000     4.0000 </r>
       <r>   -10.9245     0.0000     4.0000 </r>
       <r>   -10.8393     0.0000     4.0000 </r>
       <r>   -10.7541     0.0000     4.0000 </r>
       <r>   -10.6688     0.0000     4.0000 </r>
       <r>   -10.5836     0.0000     4.0000 </r>
       <r>   -10.4984     0.0000     4.0000 </r>
       <r>   -10.4131     0.0000     4.0000 </r>
       <r>   -10.3279     0.0000     4.0000 </r>
       <r>   -10.2427     0.0000     4.0000 </r>
       <r>   -10.1575     0.0000     4.0000 </r>
       <r>   -10.0722     0.0000     4.0000 </r>
       <r>    -9.9870     0.0000     4.0000 </r>
       <r>    -9.9018     0.0000     4.0000 </r>
       <r>    -9.8165     0.0000     4.0000 </r>
       <r>    -9.7313     0.0000     4.0000 </r>
       <r>    -9.6461     0.0000     4.0000 </r>
       <r>    -9.5609     0.0000     4.0000 </r>
       <r>    -9.4756     0.0000     4.0000 </r>
       <r>    -9.3904     0.6852     4.0266 </r>
       <r>    -9.3052     1.4545     4.1171 </r>
       <r>    -9.2199     1.6156     4.2505 </r>
       <r>    -9.1347     1.8392     4.4085 </r>
       <r>    -9.0495     2.0891     4.5759 </r>
       <r>    -8.9642     4.3870     4.8790 </r>
       <r>    -8.8790     3.3951     5.2626 </r>
       <r>    -8.7938     4.1549     5.5714 </r>
       <r>    -8.7086     4.0822     5.9707 </r>
       <r>    -8.6233     1.8789     6.2367 </r>
       <r>    -8.5381     3.6462     6.4736 </r>
       <r>    -8.4529     1.4064     6.6477 </r>
       <r>    -8.3676     1.2045     6.7589 </r>
       <r>    -8.2824     1.0027     6.8530 </r>
       <r>    -8.1972     0.9049     6.9336 </r>
       <r>    -8.1120     0.8265     7.0074 </r>
       <r>    -8.0267     0.7928     7.0750 </r>
       <r>    -7.9415     0.8701     7.1459 </r>
       <r>    -7.8563     0.8878     7.2217 </r>
       <r>    -7.7710     2.1663     7.3135 </r>
       <r>    -7.6858     4.3663     7.6446 </r>
       <r>    -7.6006     5.0768     8.0538 </r>
       <r>    -7.5154     4.9518     8.5038 </r>
       <r>    -7.4301     2.1060     8.9326 </r>
       <r>    -7.3449     1.8482     9.1011 </r>
       <r>    -7.2597     1.1137     9.2456 </r>
       <r>    -7.1744     1.3950     9.3699 </r>
       <r>    -7.0892     1.5529     9.4942 </r>
       <r>    -7.0040     2.9408     9.6554 </r>
       <r>    -6.9188     5.5642    10.0053 </r>
       <r>    -6.8335     4.3728    10.6583 </r>
       <r>    -6.7483     1.9904    10.8887 </r>
       <r>    -6.6631     2.4500    11.1006 </r>
       <r>    -6.5778     2.4037    11.3141 </r>
       <r>    -6.4926     2.2581    11.5127 </r>
       <r>    -6.4074     1.6879    11.6871 </r>
       <r>    -6.3221     1.5647    11.8154 </r>
       <r>    -6.2369     1.9671    11.9659 </r>
       <r>    -6.1517     1.0551    12.0978 </r>
       <r>    -6.0665     2.6147    12.2427 </r>
       <r>    -5.9812     1.7215    12.4625 </r>
       <r>    -5.8960     1.2929    12.5516 </r>
       <r>    -5.8108     2.2965    12.7045 </r>
       <r>    -5.7255     3.5159    12.9988 </r>
       <r>    -5.6403     3.4598    13.2903 </r>
       <r>    -5.5551     7.4632    13.6739 </r>
       <r>    -5.4699     3.2811    14.1198 </r>
       <r>    -5.3846     3.1245    14.4042 </r>
       <r>    -5.2994     1.9825    14.6218 </r>
       <r>    -5.2142     2.5428    14.7928 </r>
       <r>    -5.1289     2.3831    15.0027 </r>
       <r>    -5.0437     2.2235    15.1990 </r>
       <r>    -4.9585     2.1197    15.3825 </r>
       <r>    -4.8733     2.7894    15.5685 </r>
       <r>    -4.7880     2.6644    15.8583 </r>
       <r>    -4.7028     0.5297    15.9938 </r>
       <r>    -4.6176     1.9455    16.0495 </r>
       <r>    -4.5323     2.6942    16.2683 </r>
       <r>    -4.4471     2.7380    16.6846 </r>
       <r>    -4.3619     2.8331    16.9236 </r>
       <r>    -4.2767     2.8030    17.1638 </r>
       <r>    -4.1914     2.2610    17.3810 </r>
       <r>    -4.1062     1.8753    17.5573 </r>
       <r>    -4.0210     1.4595    17.6999 </r>
       <r>    -3.9357     1.4651    17.8208 </r>
       <r>    -3.8505     0.5321    17.9380 </r>
       <r>    -3.7653     0.0000    18.0000 </r>
       <r>    -3.6800     0.0000    18.0000 </r>
       <r>    -3.5948     0.0000    18.0000 </r>
       <r>    -3.5096     0.0000    18.0000 </r>
       <r>    -3.4244     0.0000    18.0000 </r>
       <r>    -3.3391     0.0000    18.0000 </r>
       <r>    -3.2539     0.0000    18.0000 </r>
       <r>    -3.1687     0.0000    18.0000 </r>
       <r>    -3.0834     0.0000    18.0000 </r>
       <r>    -2.9982     0.0000    18.0000 </r>
       <r>    -2.9130     0.0000    18.0000 </r>
       <r>    -2.8278     0.0000    18.0000 </r>
       <r>    -2.7425     0.0000    18.0000 </r>
       <r>    -2.6573     0.0000    18.0000 </r>
       <r>    -2.5721     0.0000    18.0000 </r>
       <r>    -2.4868     0.0000    18.0000 </r>
       <r>    -2.4016     0.0000    18.0000 </r>
       <r>    -2.3164     0.0000    18.0000 </r>
       <r>    -2.2312     0.0000    18.0000 </r>
       <r>    -2.1459     0.0000    18.0000 </r>
       <r>    -2.0607     0.0000    18.0000 </r>
       <r>    -1.9755     0.5817    18.0212 </r>
       <r>    -1.8902     0.6779    18.0749 </r>
       <r>    -1.8050     0.7742    18.1367 </r>
       <r>    -1.7198     4.7913    18.3949 </r>
       <r>    -1.6346     8.6443    18.9102 </r>
       <r>    -1.5493     1.9550    19.7379 </r>
       <r>    -1.4641     1.5487    19.8353 </r>
       <r>    -1.3789     2.7418    20.0181 </r>
       <r>    -1.2936     6.8903    20.5391 </r>
       <r>    -1.2084     3.7022    20.9039 </r>
       <r>    -1.1232     7.2599    21.3309 </r>
       <r>    -1.0379     3.8219    21.8887 </r>
       <r>    -0.9527     2.6276    22.1486 </r>
       <r>    -0.8675     2.4374    22.3678 </r>
       <r>    -0.7823     2.0933    22.5609 </r>
       <r>    -0.6970     4.9148    22.8349 </r>
       <r>    -0.6118     1.8585    23.0616 </r>
       <r>    -0.5266     2.5979    23.2584 </r>
       <r>    -0.4413     3.9623    23.5178 </r>
       <r>    -0.3561     1.5939    23.7270 </r>
       <r>    -0.2709     1.5251    23.8601 </r>
       <r>    -0.1857     1.4801    23.9880 </r>
       <r>    -0.1004     1.4404    24.1124 </r>
       <r>    -0.0152     2.4534    24.2599 </r>
       <r>     0.0700     1.5018    24.4284 </r>
       <r>     0.1553     0.7689    24.5179 </r>
       <r>     0.2405     1.2840    24.6104 </r>
       <r>     0.3257     1.4424    24.7265 </r>
       <r>     0.4109     1.6009    24.8562 </r>
       <r>     0.4962     1.8979    25.3166 </r>
       <r>     0.5814     1.8961    25.4788 </r>
       <r>     0.6666     1.6828    25.6313 </r>
       <r>     0.7519     1.3270    25.7601 </r>
       <r>     0.8371     1.0500    25.8624 </r>
       <r>     0.9223     0.7470    25.9390 </r>
       <r>     1.0075     0.0000    26.0000 </r>
       <r>     1.0928     0.0000    26.0000 </r>
       <r>     1.1780     0.0000    26.0000 </r>
       <r>     1.2632     0.0000    26.0000 </r>
       <r>     1.3485     0.0000    26.0000 </r>
       <r>     1.4337     0.0000    26.0000 </r>
       <r>     1.5189     0.0000    26.0000 </r>
       <r>     1.6042     0.0000    26.0000 </r>
       <r>     1.6894     0.0456    26.0006 </r>
       <r>     1.7746     0.1988    26.0110 </r>
       <r>     1.8598     0.3520    26.0345 </r>
       <r>     1.9451     0.2923    26.0665 </r>
       <r>     2.0303     0.3212    26.0927 </r>
       <r>     2.1155     0.3502    26.1213 </r>
       <r>     2.2008     0.3791    26.1524 </r>
       <r>     2.2860     0.4080    26.1859 </r>
       <r>     2.3712     0.4222    26.2217 </r>
       <r>     2.4564     0.4847    26.2586 </r>
       <r>     2.5417     0.6582    26.3070 </r>
       <r>     2.6269     0.8424    26.3709 </r>
       <r>     2.7121     1.0265    26.4506 </r>
       <r>     2.7974     1.3994    26.5531 </r>
       <r>     2.8826     1.2707    26.6669 </r>
       <r>     2.9678     1.1744    26.7699 </r>
       <r>     3.0530     1.2552    26.8732 </r>
       <r>     3.1383     1.4825    26.9875 </r>
       <r>     3.2235     1.8208    27.1283 </r>
       <r>     3.3087     1.8472    27.2874 </r>
       <r>     3.3940     1.7907    27.4424 </r>
       <r>     3.4792     1.6875    27.6046 </r>
       <r>     3.5644     1.3936    27.7482 </r>
       <r>     3.6496     1.4913    27.8712 </r>
       <r>     3.7349     0.7548    27.9828 </r>
       <r>     3.8201     0.0000    28.0000 </r>
       <r>     3.9053     0.0000    28.0000 </r>
       <r>     3.9906     0.0000    28.0000 </r>
       <r>     4.0758     0.0000    28.0000 </r>
       <r>     4.1610     0.0000    28.0000 </r>
       <r>     4.2463     0.0000    28.0000 </r>
       <r>     4.3315     0.0000    28.0000 </r>
       <r>     4.4167     0.0000    28.0000 </r>
       <r>     4.5019     0.0000    28.0000 </r>
       <r>     4.5872     0.0000    28.0000 </r>
       <r>     4.6724     0.0000    28.0000 </r>
       <r>     4.7576     0.0000    28.0000 </r>
       <r>     4.8429     0.0000    28.0000 </r>
       <r>     4.9281     0.0000    28.0000 </r>
       <r>     5.0133     0.0000    28.0000 </r>
       <r>     5.0985     0.0000    28.0000 </r>
       <r>     5.1838     0.0000    28.0000 </r>
       <r>     5.2690     0.0000    28.0000 </r>
       <r>     5.3542     0.0000    28.0000 </r>
       <r>     5.4395     0.0000    28.0000 </r>
       <r>     5.5247     0.0000    28.0000 </r>
       <r>     5.6099     0.0000    28.0000 </r>
       <r>     5.6951     0.0000    28.0000 </r>
       <r>     5.7804     0.0000    28.0000 </r>
      </set>
     </set>
    </array>
   </total>
  </dos>
 </calculation>
 <structure name="finalpos" >
  <crystal>
   <varray name="basis" >
    <v>       3.19031573       0.00000000       0.00000000 </v>
    <v>      -1.59515786       2.76289447       0.00000000 </v>
    <v>       0.00000000       0.00000000      30.87900430 </v>
   </varray>
   <i name="volume">    272.18315887 </i>
   <varray name="rec_basis" >
    <v>       0.31344860       0.18096963       0.00000000 </v>
    <v>       0.00000000       0.36193927       0.00000000 </v>
    <v>       0.00000000       0.00000000       0.03238446 </v>
   </varray>
  </crystal>
  <varray name="positions" >
   <v>       0.33333300       0.66666700       0.12046214 </v>
   <v>       0.66666700       0.33333300       0.06978420 </v>
   <v>       0.66666600       0.33333300       0.17114009 </v>
  </varray>
 </structure>
</modeling>
