    3    3    1    1
  0.7897505E+02  0.3190316E-09  0.3190316E-09  0.2687900E-08  0.5000000E-15
  1.000000000000000E-004
  CAR 
 unknown system                          
     18     10     14
 
  0.0000000E+00  0.0000000E+00  0.0000000E+00  0.1562500E-01
    1      -17.463464   1.000000
    2      -16.255393   1.000000
    3       -8.984356   1.000000
    4       -6.023591   1.000000
    5       -6.023585   1.000000
    6       -5.162243   1.000000
    7       -4.918036   1.000000
    8       -4.918004   1.000000
    9       -3.441871   1.000000
   10       -0.670337   0.000000
   11       -0.670307   0.000000
   12       -0.446602   0.000000
   13       -0.446588   0.000000
   14        1.992510   0.000000
 
  0.1250000E+00  0.0000000E+00  0.0000000E+00  0.9375000E-01
    1      -17.249315   1.000000
    2      -16.153006   1.000000
    3       -8.739825   1.000000
    4       -6.487007   1.000000
    5       -5.970331   1.000000
    6       -5.789169   1.000000
    7       -5.253766   1.000000
    8       -4.484757   1.000000
    9       -3.580293   1.000000
   10       -0.950377   0.000000
   11       -0.884563   0.000000
   12       -0.683197   0.000000
   13       -0.315532   0.000000
   14        2.367050   0.000000
 
  0.2500000E+00  0.0000000E+00  0.0000000E+00  0.9375000E-01
    1      -16.680576   1.000000
    2      -15.884245   1.000000
    3       -8.373745   1.000000
    4       -7.213550   1.000000
    5       -6.951183   1.000000
    6       -5.888799   1.000000
    7       -5.202089   1.000000
    8       -4.736340   1.000000
    9       -4.148253   1.000000
   10       -1.274494   0.000000
   11       -1.097939   0.000000
   12       -0.555808   0.000000
   13        0.301439   0.000000
   14        3.177698   0.000000
 
  0.3750000E+00  0.0000000E+00  0.0000000E+00  0.9375000E-01
    1      -16.005461   1.000000
    2      -15.575818   1.000000
    3       -8.810998   1.000000
    4       -7.818556   1.000000
    5       -7.346389   1.000000
    6       -6.386136   1.000000
    7       -5.145646   1.000000
    8       -4.611573   1.000000
    9       -4.343444   1.000000
   10       -1.279393   0.000000
   11       -1.000523   0.000000
   12        0.162707   0.000000
   13        0.694769   0.000000
   14        3.701282   0.000000
 
  0.5000000E+00  0.0000000E+00  0.0000000E+00  0.4687500E-01
    1      -15.677204   1.000000
    2      -15.432495   1.000000
    3       -9.143645   1.000000
    4       -8.183479   1.000000
    5       -7.472705   1.000000
    6       -6.566713   1.000000
    7       -5.284501   1.000000
    8       -4.384488   1.000000
    9       -4.062651   1.000000
   10       -1.257089   0.000000
   11       -0.741153   0.000000
   12        0.461295   0.000000
   13        0.810199   0.000000
   14        2.740708   0.000000
 
  0.1250000E+00  0.1250000E+00  0.0000000E+00  0.9375000E-01
    1      -16.856504   1.000000
    2      -15.965997   1.000000
    3       -8.392569   1.000000
    4       -7.050998   1.000000
    5       -6.532495   1.000000
    6       -6.067606   1.000000
    7       -5.449701   1.000000
    8       -4.350280   1.000000
    9       -3.952189   1.000000
   10       -1.349619   0.000000
   11       -0.971447   0.000000
   12       -0.959630   0.000000
   13        0.279317   0.000000
   14        3.021418   0.000000
 
  0.2500000E+00  0.1250000E+00  0.0000000E+00  0.1875000E+00
    1      -16.222915   1.000000
    2      -15.667462   1.000000
    3       -8.455327   1.000000
    4       -7.477722   1.000000
    5       -7.214559   1.000000
    6       -6.571913   1.000000
    7       -5.350250   1.000000
    8       -4.712497   1.000000
    9       -4.235825   1.000000
   10       -1.432968   0.000000
   11       -0.984513   0.000000
   12       -0.489656   0.000000
   13        0.787148   0.000000
   14        3.925130   0.000000
 
  0.3750000E+00  0.1250000E+00  0.0000000E+00  0.1875000E+00
    1      -15.692438   1.000000
    2      -15.423545   1.000000
    3       -8.856290   1.000000
    4       -8.240752   1.000000
    5       -7.344957   1.000000
    6       -6.588723   1.000000
    7       -5.335066   1.000000
    8       -5.194321   1.000000
    9       -3.908948   1.000000
   10       -1.238235   0.000000
   11       -0.727928   0.000000
   12        0.132036   0.000000
   13        0.820847   0.000000
   14        3.267559   0.000000
 
  0.2500000E+00  0.2500000E+00  0.0000000E+00  0.9375000E-01
    1      -15.707400   1.000000
    2      -15.414548   1.000000
    3       -8.495911   1.000000
    4       -8.291551   1.000000
    5       -7.017782   1.000000
    6       -6.637024   1.000000
    7       -6.317886   1.000000
    8       -5.060867   1.000000
    9       -3.937795   1.000000
   10       -1.289240   0.000000
   11       -0.678206   0.000000
   12       -0.366502   0.000000
   13        1.108887   0.000000
   14        4.099930   0.000000
 
  0.3750000E+00  0.2500000E+00  0.0000000E+00  0.9375000E-01
    1      -15.472512   1.000000
    2      -15.295390   1.000000
    3       -8.675978   1.000000
    4       -8.326885   1.000000
    5       -7.302139   1.000000
    6       -6.639532   1.000000
    7       -6.409375   1.000000
    8       -5.447157   1.000000
    9       -3.570362   1.000000
   10       -1.614892   0.000000
   11       -0.308128   0.000000
   12       -0.127594   0.000000
   13        1.254179   0.000000
   14        3.510516   0.000000
