       N       E                     dE             d eps       ncg     rms          rms(c)
DAV:   1     0.147927961873E+03    0.14793E+03   -0.65720E+03   280   0.105E+03
DAV:   2    -0.416967655938E+01   -0.15210E+03   -0.14178E+03   452   0.179E+02
DAV:   3    -0.229870161599E+02   -0.18817E+02   -0.18624E+02   394   0.790E+01
DAV:   4    -0.233980521321E+02   -0.41104E+00   -0.40793E+00   360   0.146E+01
DAV:   5    -0.234095535385E+02   -0.11501E-01   -0.11494E-01   392   0.239E+00    0.689E+00
RMM:   6    -0.222491076598E+02    0.11604E+01   -0.54538E+00   297   0.125E+01    0.261E+00
RMM:   7    -0.218640450530E+02    0.38506E+00   -0.55215E-01   292   0.341E+00    0.150E+00
RMM:   8    -0.218042824627E+02    0.59763E-01   -0.23226E-01   308   0.252E+00    0.356E-01
RMM:   9    -0.217994468940E+02    0.48356E-02   -0.87393E-03   334   0.612E-01    0.976E-02
RMM:  10    -0.217986847474E+02    0.76215E-03   -0.17299E-03   333   0.224E-01    0.446E-02
RMM:  11    -0.217986006369E+02    0.84110E-04   -0.17203E-03   315   0.197E-01    0.567E-02
RMM:  12    -0.217984000246E+02    0.20061E-03   -0.57367E-04   302   0.135E-01    0.181E-02
RMM:  13    -0.217986515647E+02   -0.25154E-03   -0.15550E-04   286   0.719E-02    0.202E-02
RMM:  14    -0.217986886918E+02   -0.37127E-04   -0.26012E-05   256   0.275E-02    0.507E-03
RMM:  15    -0.217987991383E+02   -0.11045E-03   -0.11440E-05   195   0.176E-02    0.279E-03
RMM:  16    -0.217988305764E+02   -0.31438E-04   -0.47356E-06   184   0.955E-03    0.175E-03
RMM:  17    -0.217988743046E+02   -0.43728E-04   -0.32390E-06   163   0.783E-03    0.135E-03
RMM:  18    -0.217988825653E+02   -0.82606E-05   -0.44828E-07    85   0.402E-03
   1 F= -.22389792E+02 E0= -.22389792E+02  d E =0.000000E+00
