 vasp.5.4.4.18Apr17-6-g9f103f2a35 (build Jun 30 2017 11:15:00) complex          
  
 executed on    STALLO_VASP_5.4.4 date 2019.11.08  11:58:36
 running on    4 total cores
 distrk:  each k-point on    4 cores,    1 groups
 distr:  one band on NCORES_PER_BAND=   2 cores,    2 groups


--------------------------------------------------------------------------------------------------------


 INCAR:
 POTCAR:   PAW_PBE Mo 08Apr2002                   
 POTCAR:    PAW_PBE S 17Jan2003                   
 POTCAR:   PAW_PBE Mo 08Apr2002                   
   VRHFIN =Mo: 4p5s4d                                                           
   LEXCH  = PE                                                                  
   EATOM  =   217.5180 eV,   15.9871 Ry                                         
                                                                                
   TITEL  = PAW_PBE Mo 08Apr2002                                                
   LULTRA =        F    use ultrasoft PP ?                                      
   IUNSCR =        1    unscreen: 0-lin 1-nonlin 2-no                           
   RPACOR =    2.200    partial core radius                                     
   POMASS =   95.940; ZVAL   =    6.000    mass and valenz                      
   RCORE  =    2.750    outmost cutoff radius                                   
   RWIGS  =    2.750; RWIGS  =    1.455    wigner-seitz radius (au A)           
   ENMAX  =  224.584; ENMIN  =  168.438 eV                                      
   RCLOC  =    2.111    cutoff for local pot                                    
   LCOR   =        T    correct aug charges                                     
   LPAW   =        T    paw PP                                                  
   EAUG   =  345.278                                                            
   DEXC   =    -.088                                                            
   RMAX   =    3.077    core radius for proj-oper                               
   RAUG   =    1.300    factor for augmentation sphere                          
   RDEP   =    2.815    radius for radial grids                                 
   QCUT   =   -4.063; QGAM   =    8.126    optimization parameters              
                                                                                
   Description                                                                  
     l     E      TYP  RCUT    TYP  RCUT                                        
     2   .000     23  2.500                                                     
     2   .000     23  2.500                                                     
     0   .000     23  2.600                                                     
     0  1.000     23  2.600                                                     
     1   .400     23  2.750                                                     
     1  2.000     23  2.750                                                     
     3   .000      7   .000                                                     
  local pseudopotential read in
  partial core-charges read in
  atomic valenz-charges read in
  non local Contribution for L=           2  read in
    real space projection operators read in
  non local Contribution for L=           2  read in
    real space projection operators read in
  non local Contribution for L=           0  read in
    real space projection operators read in
  non local Contribution for L=           0  read in
    real space projection operators read in
  non local Contribution for L=           1  read in
    real space projection operators read in
  non local Contribution for L=           1  read in
    real space projection operators read in
    PAW grid and wavefunctions read in
 
   number of l-projection  operators is LMAX  =           6
   number of lm-projection operators is LMMAX =          18
 
 POTCAR:    PAW_PBE S 17Jan2003                   
   VRHFIN =S : s2p4                                                             
   LEXCH  = PE                                                                  
   EATOM  =   276.8230 eV,   20.3459 Ry                                         
                                                                                
   TITEL  = PAW_PBE S 17Jan2003                                                 
   LULTRA =        F    use ultrasoft PP ?                                      
   IUNSCR =        1    unscreen: 0-lin 1-nonlin 2-no                           
   RPACOR =    1.500    partial core radius                                     
   POMASS =   32.066; ZVAL   =    6.000    mass and valenz                      
   RCORE  =    1.900    outmost cutoff radius                                   
   RWIGS  =    2.200; RWIGS  =    1.164    wigner-seitz radius (au A)           
   ENMAX  =  280.000; ENMIN  =  194.016 eV                                      
   ICORE  =        2    local potential                                         
   LCOR   =        T    correct aug charges                                     
   LPAW   =        T    paw PP                                                  
   EAUG   =  335.092                                                            
   DEXC   =     .000                                                            
   RMAX   =    2.867    core radius for proj-oper                               
   RAUG   =    1.300    factor for augmentation sphere                          
   RDEP   =    1.954    radius for radial grids                                 
   QCUT   =   -4.360; QGAM   =    8.721    optimization parameters              
                                                                                
   Description                                                                  
     l     E      TYP  RCUT    TYP  RCUT                                        
     0   .000     23  1.900                                                     
     0   .000     23  1.900                                                     
     1   .000     23  1.900                                                     
     1   .000     23  1.900                                                     
     2   .000     23  1.900                                                     
  local pseudopotential read in
  partial core-charges read in
  atomic valenz-charges read in
  non local Contribution for L=           0  read in
    real space projection operators read in
  non local Contribution for L=           0  read in
    real space projection operators read in
  non local Contribution for L=           1  read in
    real space projection operators read in
  non local Contribution for L=           1  read in
    real space projection operators read in
    PAW grid and wavefunctions read in
 
   number of l-projection  operators is LMAX  =           4
   number of lm-projection operators is LMMAX =           8
 
 PAW_PBE Mo 08Apr2002                   :
 energy of atom  1       EATOM= -217.5180
 kinetic energy error for atom=    0.0005 (will be added to EATOM!!)
  PAW_PBE S 17Jan2003                   :
 energy of atom  2       EATOM= -276.8230
 kinetic energy error for atom=    0.0009 (will be added to EATOM!!)
 
 
 POSCAR: MoS2_mp-2815_computed                   
  positions in cartesian coordinates
  velocities in cartesian coordinates
  No initial velocities read in
 exchange correlation table for  LEXCH =        8
   RHO(1)=    0.500       N(1)  =     2000
   RHO(2)=  100.500       N(2)  =     4000
 


--------------------------------------------------------------------------------------------------------


 ion  position               nearest neighbor table
   1  0.333  0.667  0.138-   3 2.42   2 2.42   2 2.42   3 2.42   3 2.42   2 2.42
   2  0.667  0.333  0.080-   1 2.42   1 2.42   1 2.42
   3  0.667  0.333  0.197-   1 2.42   1 2.42   1 2.42
 
  LATTYP: Found a hexagonal cell.
 ALAT       =     3.1903157300
 C/A-ratio  =     8.4251862746
  
  Lattice vectors:
  
 A1 = (   3.1903157300,   0.0000000000,   0.0000000000)
 A2 = (  -1.5951578650,   2.7628944683,   0.0000000000)
 A3 = (   0.0000000000,   0.0000000000,  26.8790043000)


Analysis of symmetry for initial positions (statically):
=====================================================================
 Subroutine PRICEL returns:
 Original cell was already a primitive cell.
 

 Routine SETGRP: Setting up the symmetry group for a 
 hexagonal supercell.


 Subroutine GETGRP returns: Found 12 space group operations
 (whereof  6 operations were pure point group operations)
 out of a pool of 24 trial point group operations.


The static configuration has the point symmetry C_3v.
 The point group associated with its full space group is D_3h.


Analysis of symmetry for dynamics (positions and initial velocities):
=====================================================================
 Subroutine PRICEL returns:
 Original cell was already a primitive cell.
 

 Routine SETGRP: Setting up the symmetry group for a 
 hexagonal supercell.


 Subroutine GETGRP returns: Found 12 space group operations
 (whereof  6 operations were pure point group operations)
 out of a pool of 24 trial point group operations.


The dynamic configuration has the point symmetry C_3v.
 The point group associated with its full space group is D_3h.


 Subroutine INISYM returns: Found 12 space group operations
 (whereof  6 operations are pure point group operations),
 and found     1 'primitive' translations

 
 
 KPOINTS: k-density: 4.0                          

Automatic generation of k-mesh.
Space group operators:
 irot       det(A)        alpha          n_x          n_y          n_z        tau_x        tau_y        tau_z
    1     1.000000     0.000001     1.000000     0.000000     0.000000     0.000000     0.000000     0.000000
    2     1.000000   120.000000     0.000000     0.000000    -1.000000     0.000000     0.000000     0.000000
    3     1.000000   120.000000     0.000000     0.000000     1.000000     0.000000     0.000000     0.000000
    4    -1.000000   179.999999     1.000000    -0.000000     0.000000     0.000000     0.000000     0.000000
    5    -1.000000   180.000000     0.500000    -0.866025     0.000000     0.000000     0.000000     0.000000
    6    -1.000000   180.000000    -0.500000    -0.866025     0.000000     0.000000     0.000000     0.000000
    7    -1.000000    60.000000     0.000000     0.000000    -1.000000    -0.000000     0.000000     0.276777
    8    -1.000000   180.000000     0.000000     0.000000     1.000000     0.000000     0.000000     0.276777
    9    -1.000000    60.000000     0.000000     0.000000     1.000000     0.000000     0.000001     0.276777
   10     1.000000   180.000000     0.866025    -0.500000     0.000000     0.000000     0.000000     0.276777
   11     1.000000   180.000000     0.000000     1.000000     0.000000     0.000000     0.000000     0.276777
   12     1.000000   179.999999     0.866025     0.500000     0.000000    -0.000000     0.000001     0.276777
 
 Subroutine IBZKPT returns following result:
 ===========================================
 
 Found     10 irreducible k-points:
 
 Following reciprocal coordinates:
            Coordinates               Weight
  0.000000  0.000000  0.000000      1.000000
  0.125000  0.000000  0.000000      6.000000
  0.250000  0.000000  0.000000      6.000000
  0.375000  0.000000  0.000000      6.000000
  0.500000  0.000000  0.000000      3.000000
  0.125000  0.125000  0.000000      6.000000
  0.250000  0.125000  0.000000     12.000000
  0.375000  0.125000  0.000000     12.000000
  0.250000  0.250000  0.000000      6.000000
  0.375000  0.250000  0.000000      6.000000
 
 Following cartesian coordinates:
            Coordinates               Weight
  0.000000  0.000000  0.000000      1.000000
  0.039181  0.022621  0.000000      6.000000
  0.078362  0.045242  0.000000      6.000000
  0.117543  0.067864  0.000000      6.000000
  0.156724  0.090485  0.000000      3.000000
  0.039181  0.067864  0.000000      6.000000
  0.078362  0.090485  0.000000     12.000000
  0.117543  0.113106  0.000000     12.000000
  0.078362  0.135727  0.000000      6.000000
  0.117543  0.158348  0.000000      6.000000
 
 TETIRR: Found     36 inequivalent tetrahedra from      384


--------------------------------------------------------------------------------------------------------




 Dimension of arrays:
   k-points           NKPTS =     10   k-points in BZ     NKDIM =     10   number of bands    NBANDS=     14
   number of dos      NEDOS =    301   number of ions     NIONS =      3
   non local maximal  LDIM  =      6   non local SUM 2l+1 LMDIM =     18
   total plane-waves  NPLWV =  64800
   max r-space proj   IRMAX =      1   max aug-charges    IRDMAX=  17758
   dimension x,y,z NGX =    20 NGY =   20 NGZ =  162
   dimension x,y,z NGXF=    40 NGYF=   40 NGZF=  324
   support grid    NGXF=    40 NGYF=   40 NGZF=  324
   ions per type =               1   2
   NGX,Y,Z   is equivalent  to a cutoff of  10.42, 10.42, 10.02 a.u.
   NGXF,Y,Z  is equivalent  to a cutoff of  20.84, 20.84, 20.04 a.u.

 SYSTEM =  unknown system                          
 POSCAR =  MoS2_mp-2815_computed                   

 Startparameter for this run:
   NWRITE =      2    write-flag & timer
   PREC   = normal    normal or accurate (medium, high low for compatibility)
   ISTART =      0    job   : 0-new  1-cont  2-samecut
   ICHARG =      2    charge: 1-file 2-atom 10-const
   ISPIN  =      1    spin polarized calculation?
   LNONCOLLINEAR =      F non collinear calculations
   LSORBIT =      F    spin-orbit coupling
   INIWAV =      1    electr: 0-lowe 1-rand  2-diag
   LASPH  =      F    aspherical Exc in radial PAW
   METAGGA=      F    non-selfconsistent MetaGGA calc.

 Electronic Relaxation 1
   ENCUT  =  600.0 eV  44.10 Ry    6.64 a.u.   6.37  6.37 53.68*2*pi/ulx,y,z
   ENINI  =  600.0     initial cutoff
   ENAUG  =  345.3 eV  augmentation charge cutoff
   NELM   =     60;   NELMIN=  4; NELMDL= -5     # of ELM steps 
   EDIFF  = 0.1E-04   stopping-criterion for ELM
   LREAL  =      F    real-space projection
   NLSPLINE    = F    spline interpolate recip. space projectors
   LCOMPAT=      F    compatible to vasp.4.4
   GGA_COMPAT  = T    GGA compatible to vasp.4.4-vasp.4.6
   LMAXPAW     = -100 max onsite density
   LMAXMIX     =    2 max onsite mixed and CHGCAR
   VOSKOWN=      0    Vosko Wilk Nusair interpolation
   ROPT   =    0.00000   0.00000
 Ionic relaxation
   EDIFFG = 0.1E-03   stopping-criterion for IOM
   NSW    =      0    number of steps for IOM
   NBLOCK =      1;   KBLOCK =      1    inner block; outer block 
   IBRION =     -1    ionic relax: 0-MD 1-quasi-New 2-CG
   NFREE  =      0    steps in history (QN), initial steepest desc. (CG)
   ISIF   =      2    stress and relaxation
   IWAVPR =     10    prediction:  0-non 1-charg 2-wave 3-comb
   ISYM   =      2    0-nonsym 1-usesym 2-fastsym
   LCORR  =      T    Harris-Foulkes like correction to forces

   POTIM  = 0.5000    time-step for ionic-motion
   TEIN   =    0.0    initial temperature
   TEBEG  =    0.0;   TEEND  =   0.0 temperature during run
   SMASS  =  -3.00    Nose mass-parameter (am)
   estimated Nose-frequenzy (Omega)   =  0.10E-29 period in steps =****** mass=  -0.233E-27a.u.
   SCALEE = 1.0000    scale energy and forces
   NPACO  =    256;   APACO  = 16.0  distance and # of slots for P.C.
   PSTRESS=    0.0 pullay stress

  Mass of Ions in am
   POMASS =  95.94 32.07
  Ionic Valenz
   ZVAL   =   6.00  6.00
  Atomic Wigner-Seitz radii
   RWIGS  =  -1.00 -1.00
  virtual crystal weights 
   VCA    =   1.00  1.00
   NELECT =      18.0000    total number of electrons
   NUPDOWN=      -1.0000    fix difference up-down

 DOS related values:
   EMIN   =  10.00;   EMAX   =-10.00  energy-range for DOS
   EFERMI =   0.00
   ISMEAR =    -5;   SIGMA  =   0.20  broadening in eV -4-tet -1-fermi 0-gaus

 Electronic relaxation 2 (details)
   IALGO  =     68    algorithm
   LDIAG  =      T    sub-space diagonalisation (order eigenvalues)
   LSUBROT=      F    optimize rotation matrix (better conditioning)
   TURBO    =      0    0=normal 1=particle mesh
   IRESTART =      0    0=no restart 2=restart with 2 vectors
   NREBOOT  =      0    no. of reboots
   NMIN     =      0    reboot dimension
   EREF     =   0.00    reference energy to select bands
   IMIX   =      4    mixing-type and parameters
     AMIX     =   0.40;   BMIX     =  1.00
     AMIX_MAG =   1.60;   BMIX_MAG =  1.00
     AMIN     =   0.10
     WC   =   100.;   INIMIX=   1;  MIXPRE=   1;  MAXMIX= -45

 Intra band minimization:
   WEIMIN = 0.0000     energy-eigenvalue tresh-hold
   EBREAK =  0.18E-06  absolut break condition
   DEPER  =   0.30     relativ break condition  

   TIME   =   0.40     timestep for ELM

  volume/ion in A,a.u.               =      78.98       532.95
  Fermi-wavevector in a.u.,A,eV,Ry     =   0.693365  1.310270  6.541070  0.480755
  Thomas-Fermi vector in A             =   1.775558
 
 Write flags
   LWAVE        =      F    write WAVECAR
   LDOWNSAMPLE  =      F    k-point downsampling of WAVECAR
   LCHARG       =      T    write CHGCAR
   LVTOT        =      F    write LOCPOT, total local potential
   LVHAR        =      F    write LOCPOT, Hartree potential only
   LELF         =      F    write electronic localiz. function (ELF)
   LORBIT       =      0    0 simple, 1 ext, 2 COOP (PROOUT), +10 PAW based schemes


 Dipole corrections
   LMONO  =      F    monopole corrections only (constant potential shift)
   LDIPOL =      F    correct potential (dipole corrections)
   IDIPOL =      0    1-x, 2-y, 3-z, 4-all directions 
   EPSILON=  1.0000000 bulk dielectric constant

 Exchange correlation treatment:
   GGA     =    --    GGA type
   LEXCH   =     8    internal setting for exchange type
   VOSKOWN=      0    Vosko Wilk Nusair interpolation
   LHFCALC =     F    Hartree Fock is set to
   LHFONE  =     F    Hartree Fock one center treatment
   AEXX    =    0.0000 exact exchange contribution

 Linear response parameters
   LEPSILON=     F    determine dielectric tensor
   LRPA    =     F    only Hartree local field effects (RPA)
   LNABLA  =     F    use nabla operator in PAW spheres
   LVEL    =     F    velocity operator in full k-point grid
   LINTERFAST=   F  fast interpolation
   KINTER  =     0    interpolate to denser k-point grid
   CSHIFT  =0.1000    complex shift for real part using Kramers Kronig
   OMEGAMAX=  -1.0    maximum frequency
   DEG_THRESHOLD= 0.2000000E-02 threshold for treating states as degnerate
   RTIME   =   -0.100 relaxation time in fs
  (WPLASMAI=    0.000 imaginary part of plasma frequency in eV, 0.658/RTIME)
   DFIELD  = 0.0000000 0.0000000 0.0000000 field for delta impulse in time
 
 Orbital magnetization related:
   ORBITALMAG=     F  switch on orbital magnetization
   LCHIMAG   =     F  perturbation theory with respect to B field
   DQ        =  0.001000  dq finite difference perturbation B field
   LLRAUG    =     F  two centre corrections for induced B field



--------------------------------------------------------------------------------------------------------


 Static calculation
 charge density and potential will be updated during run
 non-spin polarized calculation
 RMM-DIIS sequential band-by-band and
  variant of blocked Davidson during initial phase
 perform sub-space diagonalisation
    before iterative eigenvector-optimisation
 modified Broyden-mixing scheme, WC =      100.0
 initial mixing is a Kerker type mixing with AMIX =  0.4000 and BMIX =      1.0000
 Hartree-type preconditioning will be used
 using additional bands            5
 reciprocal scheme for non local part
 use partial core corrections
 calculate Harris-corrections to forces 
   (improved forces if not selfconsistent)
 use gradient corrections 
 use of overlap-Matrix (Vanderbilt PP)
 Fermi weights with tetrahedron method with Bloechl corrections


--------------------------------------------------------------------------------------------------------


  energy-cutoff  :      600.00
  volume of cell :      236.93
      direct lattice vectors                 reciprocal lattice vectors
     3.190315730  0.000000000  0.000000000     0.313448600  0.180969634  0.000000000
    -1.595157865  2.762894468  0.000000000     0.000000000  0.361939267  0.000000000
     0.000000000  0.000000000 26.879004300     0.000000000  0.000000000  0.037203759

  length of vectors
     3.190315730  3.190315730 26.879004300     0.361939267  0.361939267  0.037203759


 
 k-points in units of 2pi/SCALE and weight: k-density: 4.0                          
   0.00000000  0.00000000  0.00000000       0.016
   0.03918108  0.02262120  0.00000000       0.094
   0.07836215  0.04524241  0.00000000       0.094
   0.11754323  0.06786361  0.00000000       0.094
   0.15672430  0.09048482  0.00000000       0.047
   0.03918108  0.06786361  0.00000000       0.094
   0.07836215  0.09048482  0.00000000       0.188
   0.11754323  0.11310602  0.00000000       0.188
   0.07836215  0.13572723  0.00000000       0.094
   0.11754323  0.15834843  0.00000000       0.094
 
 k-points in reciprocal lattice and weights: k-density: 4.0                          
   0.00000000  0.00000000  0.00000000       0.016
   0.12500000  0.00000000  0.00000000       0.094
   0.25000000  0.00000000  0.00000000       0.094
   0.37500000  0.00000000  0.00000000       0.094
   0.50000000  0.00000000  0.00000000       0.047
   0.12500000  0.12500000  0.00000000       0.094
   0.25000000  0.12500000  0.00000000       0.188
   0.37500000  0.12500000  0.00000000       0.188
   0.25000000  0.25000000  0.00000000       0.094
   0.37500000  0.25000000  0.00000000       0.094
 
 position of ions in fractional coordinates (direct lattice) 
   0.33333300  0.66666700  0.13838872
   0.66666700  0.33333300  0.08016914
   0.66666600  0.33333300  0.19660830
 
 position of ions in cartesian coordinates  (Angst):
  -0.00000160  1.84193057  3.71975108
   1.59515946  0.92096390  2.15486668
   1.59515627  0.92096390  5.28463547
 


--------------------------------------------------------------------------------------------------------


 k-point  1 :   0.0000 0.0000 0.0000  plane waves:    7895
 k-point  2 :   0.1250 0.0000 0.0000  plane waves:    7939
 k-point  3 :   0.2500 0.0000 0.0000  plane waves:    7949
 k-point  4 :   0.3750 0.0000 0.0000  plane waves:    7913
 k-point  5 :   0.5000 0.0000 0.0000  plane waves:    7910
 k-point  6 :   0.1250 0.1250 0.0000  plane waves:    7943
 k-point  7 :   0.2500 0.1250 0.0000  plane waves:    7910
 k-point  8 :   0.3750 0.1250 0.0000  plane waves:    7882
 k-point  9 :   0.2500 0.2500 0.0000  plane waves:    7876
 k-point 10 :   0.3750 0.2500 0.0000  plane waves:    7828

 maximum and minimum number of plane-waves per node :      3985     3914

 maximum number of plane-waves:      7949
 maximum index in each direction: 
   IXMAX=    6   IYMAX=    6   IZMAX=   53
   IXMIN=   -6   IYMIN=   -6   IZMIN=  -53


 parallel 3D FFT for wavefunctions:
    minimum data exchange during FFTs selected (reduces bandwidth)
 parallel 3D FFT for charge:
    minimum data exchange during FFTs selected (reduces bandwidth)


 total amount of memory used by VASP MPI-rank0    60142. kBytes
=======================================================================

   base      :      30000. kBytes
   nonl-proj :      11671. kBytes
   fftplans  :       5359. kBytes
   grid      :       8588. kBytes
   one-center:         31. kBytes
   wavefun   :       4493. kBytes
 
     INWAV:  cpu time    0.0000: real time    0.0002
 Broyden mixing: mesh for mixing (old mesh)
   NGX = 13   NGY = 13   NGZ =107
  (NGX  = 40   NGY  = 40   NGZ  =324)
  gives a total of  18083 points

 initial charge density was supplied:
 charge density of overlapping atoms calculated
 number of electron      18.0000000 magnetization 
 keeping initial charge density in first step


--------------------------------------------------------------------------------------------------------


 Maximum index for augmentation-charges         4255 (set IRDMAX)


--------------------------------------------------------------------------------------------------------


 First call to EWALD:  gamma=   0.286
 Maximum number of real-space cells 6x 6x 1
 Maximum number of reciprocal cells 2x 2x10

    FEWALD:  cpu time    0.0010: real time    0.0015


--------------------------------------- Iteration      1(   1)  ---------------------------------------


    POTLOK:  cpu time    0.0760: real time    0.0970
    SETDIJ:  cpu time    0.0030: real time    0.0043
     EDDAV:  cpu time    0.3649: real time    0.3700
 BZINTS: Fermi energy:  7.392072; 18.000000 electrons
         Band energy:   4.474351;  BLOECHL correction: -0.270960
       DOS:  cpu time    0.0010: real time    0.0012
    --------------------------------------------
      LOOP:  cpu time    0.4449: real time    0.4724

 eigenvalue-minimisations  :   280
 total energy-change (2. order) : 0.1479280E+03  (-0.6571954E+03)
 number of electron      18.0000000 magnetization 
 augmentation part       18.0000000 magnetization 

 Free energy of the ion-electron system (eV)
  ---------------------------------------------------
  alpha Z        PSCENC =        12.51390764
  Ewald energy   TEWEN  =      4286.25630342
  -Hartree energ DENC   =     -4967.71356795
  -exchange      EXHF   =         0.00000000
  -V(xc)+E(xc)   XCENC  =       -36.31055821
  PAW double counting   =       406.88651198     -329.34073203
  entropy T*S    EENTRO =         0.00000000
  eigenvalues    EBANDS =         4.47435088
  atomic energy  EATOM  =       771.16174613
  Solvation  Ediel_sol  =         0.00000000
  ---------------------------------------------------
  free energy    TOTEN  =       147.92796187 eV

  energy without entropy =      147.92796187  energy(sigma->0) =      147.92796187


--------------------------------------------------------------------------------------------------------




--------------------------------------- Iteration      1(   2)  ---------------------------------------


     EDDAV:  cpu time    0.5199: real time    0.5242
 BZINTS: Fermi energy: -1.702365; 18.000000 electrons
         Band energy:-147.623288;  BLOECHL correction:  0.000000
       DOS:  cpu time    0.0010: real time    0.0002
    --------------------------------------------
      LOOP:  cpu time    0.5209: real time    0.5245

 eigenvalue-minimisations  :   452
 total energy-change (2. order) :-0.1520976E+03  (-0.1417810E+03)
 number of electron      18.0000000 magnetization 
 augmentation part       18.0000000 magnetization 

 Free energy of the ion-electron system (eV)
  ---------------------------------------------------
  alpha Z        PSCENC =        12.51390764
  Ewald energy   TEWEN  =      4286.25630342
  -Hartree energ DENC   =     -4967.71356795
  -exchange      EXHF   =         0.00000000
  -V(xc)+E(xc)   XCENC  =       -36.31055821
  PAW double counting   =       406.88651198     -329.34073203
  entropy T*S    EENTRO =         0.00000000
  eigenvalues    EBANDS =      -147.62328755
  atomic energy  EATOM  =       771.16174613
  Solvation  Ediel_sol  =         0.00000000
  ---------------------------------------------------
  free energy    TOTEN  =        -4.16967656 eV

  energy without entropy =       -4.16967656  energy(sigma->0) =       -4.16967656


--------------------------------------------------------------------------------------------------------




--------------------------------------- Iteration      1(   3)  ---------------------------------------


     EDDAV:  cpu time    0.4649: real time    0.4652
 BZINTS: Fermi energy: -3.317050; 18.000000 electrons
         Band energy:-166.440627;  BLOECHL correction:  0.000000
       DOS:  cpu time    0.0000: real time    0.0002
    --------------------------------------------
      LOOP:  cpu time    0.4649: real time    0.4654

 eigenvalue-minimisations  :   394
 total energy-change (2. order) :-0.1881734E+02  (-0.1862367E+02)
 number of electron      18.0000000 magnetization 
 augmentation part       18.0000000 magnetization 

 Free energy of the ion-electron system (eV)
  ---------------------------------------------------
  alpha Z        PSCENC =        12.51390764
  Ewald energy   TEWEN  =      4286.25630342
  -Hartree energ DENC   =     -4967.71356795
  -exchange      EXHF   =         0.00000000
  -V(xc)+E(xc)   XCENC  =       -36.31055821
  PAW double counting   =       406.88651198     -329.34073203
  entropy T*S    EENTRO =         0.00000000
  eigenvalues    EBANDS =      -166.44062715
  atomic energy  EATOM  =       771.16174613
  Solvation  Ediel_sol  =         0.00000000
  ---------------------------------------------------
  free energy    TOTEN  =       -22.98701616 eV

  energy without entropy =      -22.98701616  energy(sigma->0) =      -22.98701616


--------------------------------------------------------------------------------------------------------




--------------------------------------- Iteration      1(   4)  ---------------------------------------


     EDDAV:  cpu time    0.4339: real time    0.4341
 BZINTS: Fermi energy: -3.369167; 18.000000 electrons
         Band energy:-166.851663;  BLOECHL correction:  0.000000
       DOS:  cpu time    0.0000: real time    0.0002
    --------------------------------------------
      LOOP:  cpu time    0.4339: real time    0.4343

 eigenvalue-minimisations  :   360
 total energy-change (2. order) :-0.4110360E+00  (-0.4079278E+00)
 number of electron      18.0000000 magnetization 
 augmentation part       18.0000000 magnetization 

 Free energy of the ion-electron system (eV)
  ---------------------------------------------------
  alpha Z        PSCENC =        12.51390764
  Ewald energy   TEWEN  =      4286.25630342
  -Hartree energ DENC   =     -4967.71356795
  -exchange      EXHF   =         0.00000000
  -V(xc)+E(xc)   XCENC  =       -36.31055821
  PAW double counting   =       406.88651198     -329.34073203
  entropy T*S    EENTRO =         0.00000000
  eigenvalues    EBANDS =      -166.85166312
  atomic energy  EATOM  =       771.16174613
  Solvation  Ediel_sol  =         0.00000000
  ---------------------------------------------------
  free energy    TOTEN  =       -23.39805213 eV

  energy without entropy =      -23.39805213  energy(sigma->0) =      -23.39805213


--------------------------------------------------------------------------------------------------------




--------------------------------------- Iteration      1(   5)  ---------------------------------------


     EDDAV:  cpu time    0.4629: real time    0.4655
 BZINTS: Fermi energy: -3.309597; 18.000000 electrons
         Band energy:-166.863165;  BLOECHL correction:  0.000000
       DOS:  cpu time    0.0000: real time    0.0003
    CHARGE:  cpu time    0.0350: real time    0.0346
    MIXING:  cpu time    0.0020: real time    0.0024
    --------------------------------------------
      LOOP:  cpu time    0.4999: real time    0.5027

 eigenvalue-minimisations  :   392
 total energy-change (2. order) :-0.1150141E-01  (-0.1149404E-01)
 number of electron      18.0000003 magnetization 
 augmentation part       -0.9448133 magnetization 

 Broyden mixing:
  rms(total) = 0.68882E+00    rms(broyden)= 0.68881E+00
  rms(prec ) = 0.74608E+00
  weight for this iteration     100.00

 Free energy of the ion-electron system (eV)
  ---------------------------------------------------
  alpha Z        PSCENC =        12.51390764
  Ewald energy   TEWEN  =      4286.25630342
  -Hartree energ DENC   =     -4967.71356795
  -exchange      EXHF   =         0.00000000
  -V(xc)+E(xc)   XCENC  =       -36.31055821
  PAW double counting   =       406.88651198     -329.34073203
  entropy T*S    EENTRO =         0.00000000
  eigenvalues    EBANDS =      -166.86316453
  atomic energy  EATOM  =       771.16174613
  Solvation  Ediel_sol  =         0.00000000
  ---------------------------------------------------
  free energy    TOTEN  =       -23.40955354 eV

  energy without entropy =      -23.40955354  energy(sigma->0) =      -23.40955354


--------------------------------------------------------------------------------------------------------




--------------------------------------- Iteration      1(   6)  ---------------------------------------


    POTLOK:  cpu time    0.0680: real time    0.0693
    SETDIJ:  cpu time    0.0040: real time    0.0029
    EDDIAG:  cpu time    0.0710: real time    0.0718
  RMM-DIIS:  cpu time    0.3180: real time    0.3168
    ORTHCH:  cpu time    0.0050: real time    0.0065
 BZINTS: Fermi energy: -4.380865; 18.000000 electrons
         Band energy:-167.357579;  BLOECHL correction:  0.000000
       DOS:  cpu time    0.0010: real time    0.0002
    CHARGE:  cpu time    0.0340: real time    0.0341
    MIXING:  cpu time    0.0030: real time    0.0022
    --------------------------------------------
      LOOP:  cpu time    0.5039: real time    0.5040

 eigenvalue-minimisations  :   297
 total energy-change (2. order) : 0.1160446E+01  (-0.5453785E+00)
 number of electron      18.0000003 magnetization 
 augmentation part       -0.3984328 magnetization 

 Broyden mixing:
  rms(total) = 0.26118E+00    rms(broyden)= 0.26118E+00
  rms(prec ) = 0.30678E+00
  weight for this iteration     100.00

 eigenvalues of (default mixing * dielectric matrix)
  average eigenvalue GAMMA=   0.8342
  0.8342

 Free energy of the ion-electron system (eV)
  ---------------------------------------------------
  alpha Z        PSCENC =        12.51390764
  Ewald energy   TEWEN  =      4286.25630342
  -Hartree energ DENC   =     -4966.05597734
  -exchange      EXHF   =         0.00000000
  -V(xc)+E(xc)   XCENC  =       -35.42314945
  PAW double counting   =       423.88502129     -347.22937992
  entropy T*S    EENTRO =         0.00000000
  eigenvalues    EBANDS =      -167.35757944
  atomic energy  EATOM  =       771.16174613
  Solvation  Ediel_sol  =         0.00000000
  ---------------------------------------------------
  free energy    TOTEN  =       -22.24910766 eV

  energy without entropy =      -22.24910766  energy(sigma->0) =      -22.24910766


--------------------------------------------------------------------------------------------------------




--------------------------------------- Iteration      1(   7)  ---------------------------------------


    POTLOK:  cpu time    0.0600: real time    0.0640
    SETDIJ:  cpu time    0.0040: real time    0.0029
    EDDIAG:  cpu time    0.0700: real time    0.0711
  RMM-DIIS:  cpu time    0.3070: real time    0.3060
    ORTHCH:  cpu time    0.0050: real time    0.0065
 BZINTS: Fermi energy: -3.803705; 18.000000 electrons
         Band energy:-161.222491;  BLOECHL correction:  0.000000
       DOS:  cpu time    0.0010: real time    0.0002
    CHARGE:  cpu time    0.0340: real time    0.0339
    MIXING:  cpu time    0.0030: real time    0.0023
    --------------------------------------------
      LOOP:  cpu time    0.4839: real time    0.4870

 eigenvalue-minimisations  :   292
 total energy-change (2. order) : 0.3850626E+00  (-0.5521523E-01)
 number of electron      18.0000003 magnetization 
 augmentation part       -0.5980135 magnetization 

 Broyden mixing:
  rms(total) = 0.14969E+00    rms(broyden)= 0.14969E+00
  rms(prec ) = 0.15802E+00
  weight for this iteration     100.00

 eigenvalues of (default mixing * dielectric matrix)
  average eigenvalue GAMMA=   1.3613
  0.6666  2.0560

 Free energy of the ion-electron system (eV)
  ---------------------------------------------------
  alpha Z        PSCENC =        12.51390764
  Ewald energy   TEWEN  =      4286.25630342
  -Hartree energ DENC   =     -4971.43131428
  -exchange      EXHF   =         0.00000000
  -V(xc)+E(xc)   XCENC  =       -35.56615726
  PAW double counting   =       441.27117629     -364.84721579
  entropy T*S    EENTRO =         0.00000000
  eigenvalues    EBANDS =      -161.22249122
  atomic energy  EATOM  =       771.16174613
  Solvation  Ediel_sol  =         0.00000000
  ---------------------------------------------------
  free energy    TOTEN  =       -21.86404505 eV

  energy without entropy =      -21.86404505  energy(sigma->0) =      -21.86404505


--------------------------------------------------------------------------------------------------------




--------------------------------------- Iteration      1(   8)  ---------------------------------------


    POTLOK:  cpu time    0.0610: real time    0.0616
    SETDIJ:  cpu time    0.0030: real time    0.0029
    EDDIAG:  cpu time    0.0710: real time    0.0711
  RMM-DIIS:  cpu time    0.3240: real time    0.3240
    ORTHCH:  cpu time    0.0060: real time    0.0065
 BZINTS: Fermi energy: -3.705019; 18.000000 electrons
         Band energy:-157.009884;  BLOECHL correction:  0.000000
       DOS:  cpu time    0.0000: real time    0.0002
    CHARGE:  cpu time    0.0340: real time    0.0339
    MIXING:  cpu time    0.0030: real time    0.0031
    --------------------------------------------
      LOOP:  cpu time    0.5019: real time    0.5034

 eigenvalue-minimisations  :   308
 total energy-change (2. order) : 0.5976259E-01  (-0.2322553E-01)
 number of electron      18.0000003 magnetization 
 augmentation part       -0.5515477 magnetization 

 Broyden mixing:
  rms(total) = 0.35572E-01    rms(broyden)= 0.35572E-01
  rms(prec ) = 0.37922E-01
  weight for this iteration     100.00

 eigenvalues of (default mixing * dielectric matrix)
  average eigenvalue GAMMA=   1.4993
  1.9163  1.9163  0.6655

 Free energy of the ion-electron system (eV)
  ---------------------------------------------------
  alpha Z        PSCENC =        12.51390764
  Ewald energy   TEWEN  =      4286.25630342
  -Hartree energ DENC   =     -4975.33924964
  -exchange      EXHF   =         0.00000000
  -V(xc)+E(xc)   XCENC  =       -35.29523347
  PAW double counting   =       464.76288933     -388.85476216
  entropy T*S    EENTRO =         0.00000000
  eigenvalues    EBANDS =      -157.00988371
  atomic energy  EATOM  =       771.16174613
  Solvation  Ediel_sol  =         0.00000000
  ---------------------------------------------------
  free energy    TOTEN  =       -21.80428246 eV

  energy without entropy =      -21.80428246  energy(sigma->0) =      -21.80428246


--------------------------------------------------------------------------------------------------------




--------------------------------------- Iteration      1(   9)  ---------------------------------------


    POTLOK:  cpu time    0.0610: real time    0.0616
    SETDIJ:  cpu time    0.0030: real time    0.0029
    EDDIAG:  cpu time    0.0710: real time    0.0711
  RMM-DIIS:  cpu time    0.3549: real time    0.3546
    ORTHCH:  cpu time    0.0060: real time    0.0065
 BZINTS: Fermi energy: -3.634322; 18.000000 electrons
         Band energy:-155.693835;  BLOECHL correction:  0.000000
       DOS:  cpu time    0.0000: real time    0.0002
    CHARGE:  cpu time    0.0340: real time    0.0339
    MIXING:  cpu time    0.0030: real time    0.0025
    --------------------------------------------
      LOOP:  cpu time    0.5329: real time    0.5333

 eigenvalue-minimisations  :   334
 total energy-change (2. order) : 0.4835569E-02  (-0.8739267E-03)
 number of electron      18.0000003 magnetization 
 augmentation part       -0.5459227 magnetization 

 Broyden mixing:
  rms(total) = 0.97554E-02    rms(broyden)= 0.97553E-02
  rms(prec ) = 0.12030E-01
  weight for this iteration     100.00

 eigenvalues of (default mixing * dielectric matrix)
  average eigenvalue GAMMA=   1.5081
  0.6681  1.0477  2.4364  1.8802

 Free energy of the ion-electron system (eV)
  ---------------------------------------------------
  alpha Z        PSCENC =        12.51390764
  Ewald energy   TEWEN  =      4286.25630342
  -Hartree energ DENC   =     -4976.62467468
  -exchange      EXHF   =         0.00000000
  -V(xc)+E(xc)   XCENC  =       -35.24043503
  PAW double counting   =       470.16154855     -394.33400761
  entropy T*S    EENTRO =         0.00000000
  eigenvalues    EBANDS =      -155.69383532
  atomic energy  EATOM  =       771.16174613
  Solvation  Ediel_sol  =         0.00000000
  ---------------------------------------------------
  free energy    TOTEN  =       -21.79944689 eV

  energy without entropy =      -21.79944689  energy(sigma->0) =      -21.79944689


--------------------------------------------------------------------------------------------------------




--------------------------------------- Iteration      1(  10)  ---------------------------------------


    POTLOK:  cpu time    0.0610: real time    0.0647
    SETDIJ:  cpu time    0.0030: real time    0.0029
    EDDIAG:  cpu time    0.0710: real time    0.0711
  RMM-DIIS:  cpu time    0.3519: real time    0.3512
    ORTHCH:  cpu time    0.0060: real time    0.0065
 BZINTS: Fermi energy: -3.577232; 18.000000 electrons
         Band energy:-154.558407;  BLOECHL correction:  0.000000
       DOS:  cpu time    0.0000: real time    0.0002
    CHARGE:  cpu time    0.0340: real time    0.0340
    MIXING:  cpu time    0.0030: real time    0.0027
    --------------------------------------------
      LOOP:  cpu time    0.5299: real time    0.5333

 eigenvalue-minimisations  :   333
 total energy-change (2. order) : 0.7621466E-03  (-0.1729939E-03)
 number of electron      18.0000003 magnetization 
 augmentation part       -0.5507904 magnetization 

 Broyden mixing:
  rms(total) = 0.44575E-02    rms(broyden)= 0.44575E-02
  rms(prec ) = 0.61068E-02
  weight for this iteration     100.00

 eigenvalues of (default mixing * dielectric matrix)
  average eigenvalue GAMMA=   1.6675
  0.6688  1.0343  2.1741  2.2302  2.2302

 Free energy of the ion-electron system (eV)
  ---------------------------------------------------
  alpha Z        PSCENC =        12.51390764
  Ewald energy   TEWEN  =      4286.25630342
  -Hartree energ DENC   =     -4977.75011642
  -exchange      EXHF   =         0.00000000
  -V(xc)+E(xc)   XCENC  =       -35.21965883
  PAW double counting   =       472.41143404     -396.61389362
  entropy T*S    EENTRO =         0.00000000
  eigenvalues    EBANDS =      -154.55840711
  atomic energy  EATOM  =       771.16174613
  Solvation  Ediel_sol  =         0.00000000
  ---------------------------------------------------
  free energy    TOTEN  =       -21.79868475 eV

  energy without entropy =      -21.79868475  energy(sigma->0) =      -21.79868475


--------------------------------------------------------------------------------------------------------




--------------------------------------- Iteration      1(  11)  ---------------------------------------


    POTLOK:  cpu time    0.0600: real time    0.0607
    SETDIJ:  cpu time    0.0030: real time    0.0029
    EDDIAG:  cpu time    0.0710: real time    0.0710
  RMM-DIIS:  cpu time    0.3359: real time    0.3355
    ORTHCH:  cpu time    0.0060: real time    0.0065
 BZINTS: Fermi energy: -3.519886; 18.000000 electrons
         Band energy:-153.426406;  BLOECHL correction:  0.000000
       DOS:  cpu time    0.0010: real time    0.0002
    CHARGE:  cpu time    0.0340: real time    0.0341
    MIXING:  cpu time    0.0030: real time    0.0028
    --------------------------------------------
      LOOP:  cpu time    0.5139: real time    0.5136

 eigenvalue-minimisations  :   315
 total energy-change (2. order) : 0.8411047E-04  (-0.1720263E-03)
 number of electron      18.0000003 magnetization 
 augmentation part       -0.5467998 magnetization 

 Broyden mixing:
  rms(total) = 0.56725E-02    rms(broyden)= 0.56725E-02
  rms(prec ) = 0.65207E-02
  weight for this iteration     100.00

 eigenvalues of (default mixing * dielectric matrix)
  average eigenvalue GAMMA=   1.6743
  2.9325  2.6727  0.6695  0.9318  1.4198  1.4198

 Free energy of the ion-electron system (eV)
  ---------------------------------------------------
  alpha Z        PSCENC =        12.51390764
  Ewald energy   TEWEN  =      4286.25630342
  -Hartree energ DENC   =     -4978.90559902
  -exchange      EXHF   =         0.00000000
  -V(xc)+E(xc)   XCENC  =       -35.20553143
  PAW double counting   =       471.85415144     -396.04717297
  entropy T*S    EENTRO =         0.00000000
  eigenvalues    EBANDS =      -153.42640585
  atomic energy  EATOM  =       771.16174613
  Solvation  Ediel_sol  =         0.00000000
  ---------------------------------------------------
  free energy    TOTEN  =       -21.79860064 eV

  energy without entropy =      -21.79860064  energy(sigma->0) =      -21.79860064


--------------------------------------------------------------------------------------------------------




--------------------------------------- Iteration      1(  12)  ---------------------------------------


    POTLOK:  cpu time    0.0600: real time    0.0653
    SETDIJ:  cpu time    0.0040: real time    0.0029
    EDDIAG:  cpu time    0.0710: real time    0.0708
  RMM-DIIS:  cpu time    0.3210: real time    0.3218
    ORTHCH:  cpu time    0.0070: real time    0.0065
 BZINTS: Fermi energy: -3.484476; 18.000000 electrons
         Band energy:-152.764738;  BLOECHL correction:  0.000000
       DOS:  cpu time    0.0000: real time    0.0002
    CHARGE:  cpu time    0.0340: real time    0.0340
    MIXING:  cpu time    0.0030: real time    0.0029
    --------------------------------------------
      LOOP:  cpu time    0.4999: real time    0.5045

 eigenvalue-minimisations  :   302
 total energy-change (2. order) : 0.2006123E-03  (-0.5736695E-04)
 number of electron      18.0000003 magnetization 
 augmentation part       -0.5497734 magnetization 

 Broyden mixing:
  rms(total) = 0.18101E-02    rms(broyden)= 0.18101E-02
  rms(prec ) = 0.23931E-02
  weight for this iteration     100.00

 eigenvalues of (default mixing * dielectric matrix)
  average eigenvalue GAMMA=   1.9384
  3.8336  2.7068  2.7068  0.6695  0.9605  1.4612  1.2301

 Free energy of the ion-electron system (eV)
  ---------------------------------------------------
  alpha Z        PSCENC =        12.51390764
  Ewald energy   TEWEN  =      4286.25630342
  -Hartree energ DENC   =     -4979.57267829
  -exchange      EXHF   =         0.00000000
  -V(xc)+E(xc)   XCENC  =       -35.20254753
  PAW double counting   =       472.01961709     -396.21001012
  entropy T*S    EENTRO =         0.00000000
  eigenvalues    EBANDS =      -152.76473836
  atomic energy  EATOM  =       771.16174613
  Solvation  Ediel_sol  =         0.00000000
  ---------------------------------------------------
  free energy    TOTEN  =       -21.79840002 eV

  energy without entropy =      -21.79840002  energy(sigma->0) =      -21.79840002


--------------------------------------------------------------------------------------------------------




--------------------------------------- Iteration      1(  13)  ---------------------------------------


    POTLOK:  cpu time    0.0620: real time    0.0634
    SETDIJ:  cpu time    0.0040: real time    0.0029
    EDDIAG:  cpu time    0.0700: real time    0.0708
  RMM-DIIS:  cpu time    0.2930: real time    0.2925
    ORTHCH:  cpu time    0.0060: real time    0.0065
 BZINTS: Fermi energy: -3.446357; 18.000000 electrons
         Band energy:-152.060956;  BLOECHL correction:  0.000000
       DOS:  cpu time    0.0000: real time    0.0002
    CHARGE:  cpu time    0.0340: real time    0.0339
    MIXING:  cpu time    0.0040: real time    0.0031
    --------------------------------------------
      LOOP:  cpu time    0.4729: real time    0.4734

 eigenvalue-minimisations  :   286
 total energy-change (2. order) :-0.2515401E-03  (-0.1554981E-04)
 number of electron      18.0000003 magnetization 
 augmentation part       -0.5480971 magnetization 

 Broyden mixing:
  rms(total) = 0.20216E-02    rms(broyden)= 0.20216E-02
  rms(prec ) = 0.22803E-02
  weight for this iteration     100.00

 eigenvalues of (default mixing * dielectric matrix)
  average eigenvalue GAMMA=   1.9012
  4.7316  2.7032  2.3925  1.4180  1.4180  0.6696  0.9383  0.9383

 Free energy of the ion-electron system (eV)
  ---------------------------------------------------
  alpha Z        PSCENC =        12.51390764
  Ewald energy   TEWEN  =      4286.25630342
  -Hartree energ DENC   =     -4980.27844798
  -exchange      EXHF   =         0.00000000
  -V(xc)+E(xc)   XCENC  =       -35.19572623
  PAW double counting   =       471.96610291     -396.16158110
  entropy T*S    EENTRO =         0.00000000
  eigenvalues    EBANDS =      -152.06095636
  atomic energy  EATOM  =       771.16174613
  Solvation  Ediel_sol  =         0.00000000
  ---------------------------------------------------
  free energy    TOTEN  =       -21.79865156 eV

  energy without entropy =      -21.79865156  energy(sigma->0) =      -21.79865156


--------------------------------------------------------------------------------------------------------




--------------------------------------- Iteration      1(  14)  ---------------------------------------


    POTLOK:  cpu time    0.0630: real time    0.0637
    SETDIJ:  cpu time    0.0040: real time    0.0029
    EDDIAG:  cpu time    0.0700: real time    0.0709
  RMM-DIIS:  cpu time    0.2790: real time    0.2779
    ORTHCH:  cpu time    0.0060: real time    0.0065
 BZINTS: Fermi energy: -3.437300; 18.000000 electrons
         Band energy:-151.898600;  BLOECHL correction:  0.000000
       DOS:  cpu time    0.0000: real time    0.0002
    CHARGE:  cpu time    0.0340: real time    0.0340
    MIXING:  cpu time    0.0040: real time    0.0032
    --------------------------------------------
      LOOP:  cpu time    0.4599: real time    0.4594

 eigenvalue-minimisations  :   256
 total energy-change (2. order) :-0.3712710E-04  (-0.2601166E-05)
 number of electron      18.0000003 magnetization 
 augmentation part       -0.5492607 magnetization 

 Broyden mixing:
  rms(total) = 0.50727E-03    rms(broyden)= 0.50727E-03
  rms(prec ) = 0.69566E-03
  weight for this iteration     100.00

 eigenvalues of (default mixing * dielectric matrix)
  average eigenvalue GAMMA=   2.1597
  6.4363  2.9630  2.3909  2.3909  1.5139  0.6696  1.1772  0.9479  0.9479

 Free energy of the ion-electron system (eV)
  ---------------------------------------------------
  alpha Z        PSCENC =        12.51390764
  Ewald energy   TEWEN  =      4286.25630342
  -Hartree energ DENC   =     -4980.44321392
  -exchange      EXHF   =         0.00000000
  -V(xc)+E(xc)   XCENC  =       -35.19780085
  PAW double counting   =       471.78938088     -395.98041191
  entropy T*S    EENTRO =         0.00000000
  eigenvalues    EBANDS =      -151.89860009
  atomic energy  EATOM  =       771.16174613
  Solvation  Ediel_sol  =         0.00000000
  ---------------------------------------------------
  free energy    TOTEN  =       -21.79868869 eV

  energy without entropy =      -21.79868869  energy(sigma->0) =      -21.79868869


--------------------------------------------------------------------------------------------------------




--------------------------------------- Iteration      1(  15)  ---------------------------------------


    POTLOK:  cpu time    0.0650: real time    0.0687
    SETDIJ:  cpu time    0.0030: real time    0.0029
    EDDIAG:  cpu time    0.0700: real time    0.0708
  RMM-DIIS:  cpu time    0.2340: real time    0.2326
    ORTHCH:  cpu time    0.0050: real time    0.0066
 BZINTS: Fermi energy: -3.427998; 18.000000 electrons
         Band energy:-151.740939;  BLOECHL correction:  0.000000
       DOS:  cpu time    0.0010: real time    0.0002
    CHARGE:  cpu time    0.0340: real time    0.0340
    MIXING:  cpu time    0.0040: real time    0.0034
    --------------------------------------------
      LOOP:  cpu time    0.4159: real time    0.4194

 eigenvalue-minimisations  :   195
 total energy-change (2. order) :-0.1104465E-03  (-0.1143987E-05)
 number of electron      18.0000003 magnetization 
 augmentation part       -0.5490620 magnetization 

 Broyden mixing:
  rms(total) = 0.27911E-03    rms(broyden)= 0.27911E-03
  rms(prec ) = 0.37171E-03
  weight for this iteration     100.00

 eigenvalues of (default mixing * dielectric matrix)
  average eigenvalue GAMMA=   2.1412
  6.4704  3.5732  2.6183  1.7604  1.7604  1.5635  0.6696  1.0478  1.0157  0.9321

 Free energy of the ion-electron system (eV)
  ---------------------------------------------------
  alpha Z        PSCENC =        12.51390764
  Ewald energy   TEWEN  =      4286.25630342
  -Hartree energ DENC   =     -4980.60109534
  -exchange      EXHF   =         0.00000000
  -V(xc)+E(xc)   XCENC  =       -35.19768755
  PAW double counting   =       471.81221121     -396.00324546
  entropy T*S    EENTRO =         0.00000000
  eigenvalues    EBANDS =      -151.74093919
  atomic energy  EATOM  =       771.16174613
  Solvation  Ediel_sol  =         0.00000000
  ---------------------------------------------------
  free energy    TOTEN  =       -21.79879914 eV

  energy without entropy =      -21.79879914  energy(sigma->0) =      -21.79879914


--------------------------------------------------------------------------------------------------------




--------------------------------------- Iteration      1(  16)  ---------------------------------------


    POTLOK:  cpu time    0.0650: real time    0.0655
    SETDIJ:  cpu time    0.0030: real time    0.0029
    EDDIAG:  cpu time    0.0710: real time    0.0709
  RMM-DIIS:  cpu time    0.2240: real time    0.2243
    ORTHCH:  cpu time    0.0060: real time    0.0065
 BZINTS: Fermi energy: -3.424099; 18.000000 electrons
         Band energy:-151.680009;  BLOECHL correction:  0.000000
       DOS:  cpu time    0.0010: real time    0.0002
    CHARGE:  cpu time    0.0340: real time    0.0340
    MIXING:  cpu time    0.0040: real time    0.0036
    --------------------------------------------
      LOOP:  cpu time    0.4079: real time    0.4080

 eigenvalue-minimisations  :   184
 total energy-change (2. order) :-0.3143804E-04  (-0.4735615E-06)
 number of electron      18.0000003 magnetization 
 augmentation part       -0.5491859 magnetization 

 Broyden mixing:
  rms(total) = 0.17537E-03    rms(broyden)= 0.17537E-03
  rms(prec ) = 0.22130E-03
  weight for this iteration     100.00

 eigenvalues of (default mixing * dielectric matrix)
  average eigenvalue GAMMA=   2.2861
  7.2726  3.8497  2.9424  2.6253  2.1607  1.5568  0.6696  1.1035  1.0723  0.9775
  0.9163

 Free energy of the ion-electron system (eV)
  ---------------------------------------------------
  alpha Z        PSCENC =        12.51390764
  Ewald energy   TEWEN  =      4286.25630342
  -Hartree energ DENC   =     -4980.66110782
  -exchange      EXHF   =         0.00000000
  -V(xc)+E(xc)   XCENC  =       -35.19755094
  PAW double counting   =       471.87051176     -396.06263208
  entropy T*S    EENTRO =         0.00000000
  eigenvalues    EBANDS =      -151.68000870
  atomic energy  EATOM  =       771.16174613
  Solvation  Ediel_sol  =         0.00000000
  ---------------------------------------------------
  free energy    TOTEN  =       -21.79883058 eV

  energy without entropy =      -21.79883058  energy(sigma->0) =      -21.79883058


--------------------------------------------------------------------------------------------------------




--------------------------------------- Iteration      1(  17)  ---------------------------------------


    POTLOK:  cpu time    0.0640: real time    0.0644
    SETDIJ:  cpu time    0.0030: real time    0.0029
    EDDIAG:  cpu time    0.0710: real time    0.0713
  RMM-DIIS:  cpu time    0.2040: real time    0.2036
    ORTHCH:  cpu time    0.0060: real time    0.0065
 BZINTS: Fermi energy: -3.422302; 18.000000 electrons
         Band energy:-151.641482;  BLOECHL correction:  0.000000
       DOS:  cpu time    0.0000: real time    0.0002
    CHARGE:  cpu time    0.0340: real time    0.0339
    MIXING:  cpu time    0.0040: real time    0.0038
    --------------------------------------------
      LOOP:  cpu time    0.3859: real time    0.3866

 eigenvalue-minimisations  :   163
 total energy-change (2. order) :-0.4372824E-04  (-0.3238991E-06)
 number of electron      18.0000003 magnetization 
 augmentation part       -0.5492025 magnetization 

 Broyden mixing:
  rms(total) = 0.13527E-03    rms(broyden)= 0.13527E-03
  rms(prec ) = 0.15775E-03
  weight for this iteration     100.00

 eigenvalues of (default mixing * dielectric matrix)
  average eigenvalue GAMMA=   2.3165
  7.7187  4.9368  2.9222  2.4682  2.1400  1.4915  1.4915  0.6696  1.0490  1.0490
  0.9307  0.9307

 Free energy of the ion-electron system (eV)
  ---------------------------------------------------
  alpha Z        PSCENC =        12.51390764
  Ewald energy   TEWEN  =      4286.25630342
  -Hartree energ DENC   =     -4980.70051657
  -exchange      EXHF   =         0.00000000
  -V(xc)+E(xc)   XCENC  =       -35.19768812
  PAW double counting   =       471.82563305     -396.01677761
  entropy T*S    EENTRO =         0.00000000
  eigenvalues    EBANDS =      -151.64148226
  atomic energy  EATOM  =       771.16174613
  Solvation  Ediel_sol  =         0.00000000
  ---------------------------------------------------
  free energy    TOTEN  =       -21.79887430 eV

  energy without entropy =      -21.79887430  energy(sigma->0) =      -21.79887430


--------------------------------------------------------------------------------------------------------




--------------------------------------- Iteration      1(  18)  ---------------------------------------


    POTLOK:  cpu time    0.0640: real time    0.0669
    SETDIJ:  cpu time    0.0030: real time    0.0029
    EDDIAG:  cpu time    0.0710: real time    0.0711
  RMM-DIIS:  cpu time    0.1780: real time    0.1780
    ORTHCH:  cpu time    0.0060: real time    0.0065
 BZINTS: Fermi energy: -3.422434; 18.000000 electrons
         Band energy:-151.642141;  BLOECHL correction:  0.000000
       DOS:  cpu time    0.0000: real time    0.0002
    --------------------------------------------
      LOOP:  cpu time    0.3220: real time    0.3256

 eigenvalue-minimisations  :    85
 total energy-change (2. order) :-0.8260648E-05  (-0.4482755E-07)
 number of electron      18.0000003 magnetization 
 augmentation part       -0.5492025 magnetization 

 Free energy of the ion-electron system (eV)
  ---------------------------------------------------
  alpha Z        PSCENC =        12.51390764
  Ewald energy   TEWEN  =      4286.25630342
  -Hartree energ DENC   =     -4980.69969129
  -exchange      EXHF   =         0.00000000
  -V(xc)+E(xc)   XCENC  =       -35.19765949
  PAW double counting   =       471.83440110     -396.02574905
  entropy T*S    EENTRO =         0.00000000
  eigenvalues    EBANDS =      -151.64214103
  atomic energy  EATOM  =       771.16174613
  Solvation  Ediel_sol  =         0.00000000
  ---------------------------------------------------
  free energy    TOTEN  =       -21.79888257 eV

  energy without entropy =      -21.79888257  energy(sigma->0) =      -21.79888257


--------------------------------------------------------------------------------------------------------




 average (electrostatic) potential at core
  the test charge radii are     1.2296  0.9698
  (the norm of the test charge is              1.0000)
       1 -46.8734       2 -94.7150       3 -94.7150
 
 
 
 E-fermi :  -3.4224     XC(G=0):  -2.8707     alpha+bet : -2.6672


 k-point     1 :       0.0000    0.0000    0.0000
  band No.  band energies     occupation 
      1     -17.4635      2.00000
      2     -16.2554      2.00000
      3      -8.9844      2.00000
      4      -6.0236      2.00000
      5      -6.0236      2.00000
      6      -5.1622      2.00000
      7      -4.9180      2.00000
      8      -4.9180      2.00000
      9      -3.4419      2.00000
     10      -0.6703      0.00000
     11      -0.6703      0.00000
     12      -0.4466      0.00000
     13      -0.4466      0.00000
     14       1.9925      0.00000

 k-point     2 :       0.1250    0.0000    0.0000
  band No.  band energies     occupation 
      1     -17.2493      2.00000
      2     -16.1530      2.00000
      3      -8.7398      2.00000
      4      -6.4870      2.00000
      5      -5.9703      2.00000
      6      -5.7892      2.00000
      7      -5.2538      2.00000
      8      -4.4848      2.00000
      9      -3.5803      2.00000
     10      -0.9504      0.00000
     11      -0.8846      0.00000
     12      -0.6832      0.00000
     13      -0.3155      0.00000
     14       2.3671      0.00000

 k-point     3 :       0.2500    0.0000    0.0000
  band No.  band energies     occupation 
      1     -16.6806      2.00000
      2     -15.8842      2.00000
      3      -8.3737      2.00000
      4      -7.2136      2.00000
      5      -6.9512      2.00000
      6      -5.8888      2.00000
      7      -5.2021      2.00000
      8      -4.7363      2.00000
      9      -4.1483      2.00000
     10      -1.2745      0.00000
     11      -1.0979      0.00000
     12      -0.5558      0.00000
     13       0.3014      0.00000
     14       3.1777      0.00000

 k-point     4 :       0.3750    0.0000    0.0000
  band No.  band energies     occupation 
      1     -16.0055      2.00000
      2     -15.5758      2.00000
      3      -8.8110      2.00000
      4      -7.8186      2.00000
      5      -7.3464      2.00000
      6      -6.3861      2.00000
      7      -5.1456      2.00000
      8      -4.6116      2.00000
      9      -4.3434      2.00000
     10      -1.2794      0.00000
     11      -1.0005      0.00000
     12       0.1627      0.00000
     13       0.6948      0.00000
     14       3.7013      0.00000

 k-point     5 :       0.5000    0.0000    0.0000
  band No.  band energies     occupation 
      1     -15.6772      2.00000
      2     -15.4325      2.00000
      3      -9.1436      2.00000
      4      -8.1835      2.00000
      5      -7.4727      2.00000
      6      -6.5667      2.00000
      7      -5.2845      2.00000
      8      -4.3845      2.00000
      9      -4.0627      2.00000
     10      -1.2571      0.00000
     11      -0.7412      0.00000
     12       0.4613      0.00000
     13       0.8102      0.00000
     14       2.7407      0.00000

 k-point     6 :       0.1250    0.1250    0.0000
  band No.  band energies     occupation 
      1     -16.8565      2.00000
      2     -15.9660      2.00000
      3      -8.3926      2.00000
      4      -7.0510      2.00000
      5      -6.5325      2.00000
      6      -6.0676      2.00000
      7      -5.4497      2.00000
      8      -4.3503      2.00000
      9      -3.9522      2.00000
     10      -1.3496      0.00000
     11      -0.9714      0.00000
     12      -0.9596      0.00000
     13       0.2793      0.00000
     14       3.0214      0.00000

 k-point     7 :       0.2500    0.1250    0.0000
  band No.  band energies     occupation 
      1     -16.2229      2.00000
      2     -15.6675      2.00000
      3      -8.4553      2.00000
      4      -7.4777      2.00000
      5      -7.2146      2.00000
      6      -6.5719      2.00000
      7      -5.3502      2.00000
      8      -4.7125      2.00000
      9      -4.2358      2.00000
     10      -1.4330      0.00000
     11      -0.9845      0.00000
     12      -0.4897      0.00000
     13       0.7871      0.00000
     14       3.9251      0.00000

 k-point     8 :       0.3750    0.1250    0.0000
  band No.  band energies     occupation 
      1     -15.6924      2.00000
      2     -15.4235      2.00000
      3      -8.8563      2.00000
      4      -8.2408      2.00000
      5      -7.3450      2.00000
      6      -6.5887      2.00000
      7      -5.3351      2.00000
      8      -5.1943      2.00000
      9      -3.9089      2.00000
     10      -1.2382      0.00000
     11      -0.7279      0.00000
     12       0.1320      0.00000
     13       0.8208      0.00000
     14       3.2676      0.00000

 k-point     9 :       0.2500    0.2500    0.0000
  band No.  band energies     occupation 
      1     -15.7074      2.00000
      2     -15.4145      2.00000
      3      -8.4959      2.00000
      4      -8.2916      2.00000
      5      -7.0178      2.00000
      6      -6.6370      2.00000
      7      -6.3179      2.00000
      8      -5.0609      2.00000
      9      -3.9378      2.00000
     10      -1.2892      0.00000
     11      -0.6782      0.00000
     12      -0.3665      0.00000
     13       1.1089      0.00000
     14       4.0999      0.00000

 k-point    10 :       0.3750    0.2500    0.0000
  band No.  band energies     occupation 
      1     -15.4725      2.00000
      2     -15.2954      2.00000
      3      -8.6760      2.00000
      4      -8.3269      2.00000
      5      -7.3021      2.00000
      6      -6.6395      2.00000
      7      -6.4094      2.00000
      8      -5.4472      2.00000
      9      -3.5704      2.00000
     10      -1.6149      0.00000
     11      -0.3081      0.00000
     12      -0.1276      0.00000
     13       1.2542      0.00000
     14       3.5105      0.00000


--------------------------------------------------------------------------------------------------------


 soft charge-density along one line, spin component           1
         0         1         2         3         4         5         6         7         8         9
 total charge-density along one line
 
 pseudopotential strength for first ion, spin component:           1
 -9.986  -0.000   0.000  -0.000   0.000   0.102   0.000  -0.000
 -0.000  -9.987  -0.000  -0.000  -0.000   0.000   0.102   0.000
  0.000  -0.000  -9.966  -0.000  -0.000  -0.000   0.000   0.101
 -0.000  -0.000  -0.000  -9.987  -0.000   0.000   0.000   0.000
  0.000  -0.000  -0.000  -0.000  -9.986  -0.000   0.000   0.000
  0.102   0.000  -0.000   0.000  -0.000   0.098  -0.000   0.000
  0.000   0.102   0.000   0.000   0.000  -0.000   0.098  -0.000
 -0.000   0.000   0.101   0.000   0.000   0.000  -0.000   0.098
  0.000   0.000   0.000   0.102   0.000  -0.000  -0.000  -0.000
 -0.000   0.000   0.000   0.000   0.102   0.000  -0.000  -0.000
  0.000   0.000  -0.005   0.000  -0.000  -0.000  -0.000   0.000
 -0.000  -0.000   0.001  -0.000   0.000   0.000   0.000  -0.000
 -0.000   0.000  -0.000  -0.000  -0.007   0.000   0.000   0.000
 -0.000   0.000  -0.000  -0.000   0.000  -0.000  -0.000  -0.000
 -0.007  -0.000   0.000   0.000  -0.000  -0.000  -0.000  -0.000
  0.000  -0.000   0.000   0.000   0.004  -0.000   0.000  -0.000
  0.000  -0.000   0.000   0.000  -0.000  -0.000   0.000   0.000
  0.004   0.000  -0.000  -0.000   0.000   0.000  -0.000   0.000
 total augmentation occupancy for first ion, spin component:           1
  0.965  -0.000  -0.000  -0.000  -0.000   0.596   0.000  -0.000   0.000  -0.000  -0.000   0.000   0.000   0.000  -0.065  -0.000
  0.000   0.907  -0.000   0.000   0.000   0.000   0.834   0.000   0.000   0.000   0.000   0.000   0.000   0.000  -0.000   0.000
 -0.000   0.000   1.029  -0.000   0.000  -0.000   0.000   0.496  -0.000   0.000   0.111  -0.019  -0.000  -0.000   0.000   0.000
  0.000   0.000   0.000   0.907   0.000   0.000   0.000  -0.000   0.834  -0.000   0.000   0.000   0.000  -0.000   0.000   0.000
 -0.000  -0.000   0.000   0.000   0.965  -0.000   0.000   0.000   0.000   0.596   0.000  -0.000  -0.065   0.000  -0.000   0.007
  0.596   0.000  -0.000   0.000  -0.000   0.671  -0.000  -0.000   0.000   0.000   0.000   0.000   0.000   0.000  -0.136  -0.000
 -0.000   0.834   0.000   0.000   0.000  -0.000   1.070  -0.000   0.000  -0.000   0.000   0.000  -0.000   0.000   0.000   0.000
 -0.000   0.000   0.496  -0.000   0.000  -0.000  -0.000   0.470   0.000   0.000   0.058  -0.021  -0.000   0.000   0.000   0.000
 -0.000   0.000   0.000   0.834   0.000   0.000   0.000   0.000   1.070  -0.000   0.000   0.000  -0.000  -0.000   0.000   0.000
 -0.000  -0.000   0.000   0.000   0.596  -0.000   0.000   0.000   0.000   0.671   0.000   0.000  -0.136   0.000  -0.000   0.023
 -0.000   0.000   0.111   0.000   0.000  -0.000   0.000   0.058   0.000   0.000   1.207  -0.186   0.000   0.000   0.000   0.000
  0.000   0.000  -0.019  -0.000  -0.000   0.000   0.000  -0.021   0.000   0.000  -0.186   0.042   0.000   0.000  -0.000   0.000
  0.000   0.000  -0.000  -0.000  -0.065   0.000   0.000  -0.000   0.000  -0.136   0.000   0.000   0.217   0.000   0.000  -0.032
 -0.000   0.000  -0.000  -0.000   0.000  -0.000   0.000   0.000  -0.000   0.000   0.000   0.000   0.000   0.264  -0.000   0.000
 -0.065   0.000   0.000   0.000  -0.000  -0.136  -0.000   0.000   0.000  -0.000  -0.000   0.000   0.000  -0.000   0.217  -0.000
 -0.000   0.000   0.000   0.000   0.007  -0.000  -0.000   0.000   0.000   0.023   0.000   0.000  -0.032   0.000  -0.000   0.005
  0.000  -0.000   0.000   0.000   0.000   0.000  -0.000   0.000   0.000   0.000   0.000   0.000   0.000  -0.038   0.000   0.000
  0.007   0.000  -0.000  -0.000   0.000   0.023   0.000  -0.000   0.000   0.000  -0.000   0.000  -0.000   0.000  -0.032   0.000


------------------------ aborting loop because EDIFF is reached ----------------------------------------


    CHARGE:  cpu time    0.0330: real time    0.0340
    FORLOC:  cpu time    0.0060: real time    0.0060
    FORNL :  cpu time    0.0570: real time    0.0569
    STRESS:  cpu time    0.3070: real time    0.3066
    FORCOR:  cpu time    0.0730: real time    0.0734
    FORHAR:  cpu time    0.0170: real time    0.0166
    MIXING:  cpu time    0.0040: real time    0.0040
    OFIELD:  cpu time    0.0000: real time    0.0000

  DFT-D2 method for vdW energy calculation
  -------------------------------------------------------------------

  Parameters of vdW forcefield:
         C6(Jnm^6/mol)     R0(A)
   -----------------------------
   Mo      24.670          1.639
   S        5.570          1.683

  IVDW =   1
  VDW_RADIUS =    50.000 A
  VDW_S6 =     0.750
  VDW_SR =     1.000
  VDW_D =    20.000
  LVDW_EWALD = F

  Number of pair interactions contributing to vdW energy:   12957
  Edisp (eV):   -0.59091
    FORVDW:  cpu time    0.0110: real time    0.0151

  FORCE on cell =-STRESS in cart. coord.  units (eV):
  Direction    XX          YY          ZZ          XY          YZ          ZX
  --------------------------------------------------------------------------------------
  Alpha Z    12.51391    12.51391    12.51391
  Ewald    4853.12264  4853.12308 -5419.98957     0.00019     0.00000     0.00012
  Hartree  4942.42646  4942.42647 -4904.14969     0.00002    -0.00000    -0.00000
  E(xc)     -70.30259   -70.30259   -70.90752    -0.00000    -0.00000    -0.00000
  Local  -10076.22286-10076.22316 10037.50037    -0.00018    -0.00000    -0.00006
  n-local   127.16583   125.78913   131.68574    -0.25760    -0.00000    -0.00001
  augment   -25.56268   -25.56264   -26.66514     0.00004     0.00000    -0.00000
  Kinetic   235.85956   238.66045   239.77783    -7.40914     0.00001     0.00001
  Fock        0.00000     0.00000     0.00000     0.00000     0.00000     0.00000
  vdW         0.16041     0.16041    -0.13425     0.00000     0.00000    -0.00000
  -------------------------------------------------------------------------------------
  Total      -0.12713    -0.12713    -0.36832     0.00000     0.00000     0.00000
  in kB      -0.85970    -0.85970    -2.49072     0.00000     0.00000     0.00000
  external pressure =       -1.40 kB  Pullay stress =        0.00 kB


 VOLUME and BASIS-vectors are now :
 -----------------------------------------------------------------------------
  energy-cutoff  :      600.00
  volume of cell :      236.93
      direct lattice vectors                 reciprocal lattice vectors
     3.190315730  0.000000000  0.000000000     0.313448600  0.180969634  0.000000000
    -1.595157865  2.762894468  0.000000000     0.000000000  0.361939267  0.000000000
     0.000000000  0.000000000 26.879004300     0.000000000  0.000000000  0.037203759

  length of vectors
     3.190315730  3.190315730 26.879004300     0.361939267  0.361939267  0.037203759


 FORCES acting on ions
    electron-ion (+dipol)            ewald-force                    non-local-force                 convergence-correction
 -----------------------------------------------------------------------------------------------
   -.111E-04 -.783E-06 -.272E-04   0.931E-04 -.108E-03 0.307E-06   0.104E-16 0.208E-16 -.102E-19   0.987E-09 -.180E-08 0.165E-06
   -.854E-03 0.495E-03 0.579E+03   -.864E-04 0.538E-04 -.584E+03   0.104E-16 -.347E-17 0.480E+01   -.144E-07 0.754E-08 0.225E-02
   0.864E-03 0.494E-03 -.579E+03   -.674E-05 0.538E-04 0.584E+03   0.382E-16 -.173E-17 -.480E+01   0.127E-07 0.754E-08 -.225E-02
 -----------------------------------------------------------------------------------------------
   -.619E-06 0.989E-03 -.305E-04   0.897E-14 0.972E-14 -.114E-12   0.590E-16 0.156E-16 0.888E-15   -.697E-09 0.133E-07 0.440E-06
 
 
 POSITION                                       TOTAL-FORCE (eV/Angst)
 -----------------------------------------------------------------------------------
     -0.00000      1.84193      3.71975         0.000000     -0.000000      0.000000
      1.59516      0.92096      2.15487        -0.000000      0.000000      0.114262
      1.59516      0.92096      5.28464        -0.000000      0.000000     -0.114262
 -----------------------------------------------------------------------------------
    total drift:                               -0.000001      0.000989     -0.000030


--------------------------------------------------------------------------------------------------------



  FREE ENERGIE OF THE ION-ELECTRON SYSTEM (eV)
  ---------------------------------------------------
  free  energy   TOTEN  =       -22.38979163 eV

  energy  without entropy=      -22.38979163  energy(sigma->0) =      -22.38979163
 


--------------------------------------------------------------------------------------------------------


    POTLOK:  cpu time    0.0680: real time    0.0668


--------------------------------------------------------------------------------------------------------


     LOOP+:  cpu time    9.4996: real time    9.5985
    4ORBIT:  cpu time    0.0000: real time    0.0000
 BZINTS: Fermi energy: -3.422434; 18.000000 electrons
         Band energy:-151.642141;  BLOECHL correction:  0.000000

 total amount of memory used by VASP MPI-rank0    60142. kBytes
=======================================================================

   base      :      30000. kBytes
   nonl-proj :      11671. kBytes
   fftplans  :       5359. kBytes
   grid      :       8588. kBytes
   one-center:         31. kBytes
   wavefun   :       4493. kBytes
 
  
  
 General timing and accounting informations for this job:
 ========================================================
  
                  Total CPU time used (sec):       10.798
                            User time (sec):       10.436
                          System time (sec):        0.362
                         Elapsed time (sec):       11.764
  
                   Maximum memory used (kb):       56900.
                   Average memory used (kb):           0.
  
                          Minor page faults:        16270
                          Major page faults:          183
                 Voluntary context switches:         2464
