perl: warning: Setting locale failed.
perl: warning: Please check that your locale settings:
	LANGUAGE = (unset),
	LC_ALL = (unset),
	LC_CTYPE = "UTF-8",
	LANG = "en_US.iso885915"
    are supported and installed on your system.
perl: warning: Falling back to the standard locale ("C").
Starting job 28532692 ("jobname") on c14-29 at Fri Nov 8 11:58:35 CET 2019
 running on    4 total cores
 distrk:  each k-point on    4 cores,    1 groups
 distr:  one band on    2 cores,    2 groups
 using from now: INCAR     
 vasp.5.4.4.18Apr17-6-g9f103f2a35 (build Jun 30 2017 11:15:00) complex          
  
 POSCAR found type information on POSCAR  Mo S 
 POSCAR found :  2 types and       3 ions
 scaLAPACK will be used
 LDA part: xc-table for Pade appr. of Perdew
 POSCAR, INCAR and KPOINTS ok, starting setup
 FFT: planning ...
 WAVECAR not read
 entering main loop
       N       E                     dE             d eps       ncg     rms          rms(c)
DAV:   1     0.147927961873E+03    0.14793E+03   -0.65720E+03   280   0.105E+03
DAV:   2    -0.416967655938E+01   -0.15210E+03   -0.14178E+03   452   0.179E+02
DAV:   3    -0.229870161599E+02   -0.18817E+02   -0.18624E+02   394   0.790E+01
DAV:   4    -0.233980521321E+02   -0.41104E+00   -0.40793E+00   360   0.146E+01
DAV:   5    -0.234095535385E+02   -0.11501E-01   -0.11494E-01   392   0.239E+00    0.689E+00
RMM:   6    -0.222491076598E+02    0.11604E+01   -0.54538E+00   297   0.125E+01    0.261E+00
RMM:   7    -0.218640450530E+02    0.38506E+00   -0.55215E-01   292   0.341E+00    0.150E+00
RMM:   8    -0.218042824627E+02    0.59763E-01   -0.23226E-01   308   0.252E+00    0.356E-01
RMM:   9    -0.217994468940E+02    0.48356E-02   -0.87393E-03   334   0.612E-01    0.976E-02
RMM:  10    -0.217986847474E+02    0.76215E-03   -0.17299E-03   333   0.224E-01    0.446E-02
RMM:  11    -0.217986006369E+02    0.84110E-04   -0.17203E-03   315   0.197E-01    0.567E-02
RMM:  12    -0.217984000246E+02    0.20061E-03   -0.57367E-04   302   0.135E-01    0.181E-02
RMM:  13    -0.217986515647E+02   -0.25154E-03   -0.15550E-04   286   0.719E-02    0.202E-02
RMM:  14    -0.217986886918E+02   -0.37127E-04   -0.26012E-05   256   0.275E-02    0.507E-03
RMM:  15    -0.217987991383E+02   -0.11045E-03   -0.11440E-05   195   0.176E-02    0.279E-03
RMM:  16    -0.217988305764E+02   -0.31438E-04   -0.47356E-06   184   0.955E-03    0.175E-03
RMM:  17    -0.217988743046E+02   -0.43728E-04   -0.32390E-06   163   0.783E-03    0.135E-03
RMM:  18    -0.217988825653E+02   -0.82606E-05   -0.44828E-07    85   0.402E-03
   1 F= -.22389792E+02 E0= -.22389792E+02  d E =0.000000E+00

Currently Loaded Modulefiles:
  1) Anaconda3/5.1.0       3) vesta/3.3.8           5) intel/2016.1
  2) gnuplot/5.0.4         4) imagemagick/6.7.9-0   6) vasp/5.4.1.Feb16

Job script resource usage:
       JobID  MaxVMSize     MaxRSS 
------------ ---------- ---------- 
28532692.ba+    216888K      2584K 

Job step resource usage:
       JobID    JobName  AllocCPUS  MaxVMSize     MaxRSS    Elapsed ExitCode 
------------ ---------- ---------- ---------- ---------- ---------- -------- 
28532692        jobname          4                         00:00:15      0:0 
28532692.0    pmi_proxy          1    279832K       534K   00:00:13      0:0 

Job 28532692 ("jobname") completed on c14-29 at Fri Nov 8 11:58:48 CET 2019
