<?xml version="1.0" encoding="ISO-8859-1"?>
<modeling>
 <generator>
  <i name="program" type="string">vasp </i>
  <i name="version" type="string">5.4.4.18Apr17-6-g9f103f2a35  </i>
  <i name="subversion" type="string">(build Jun 30 2017 11:15:00) complex            parallel </i>
  <i name="platform" type="string">STALLO_VASP_5.4.4 </i>
  <i name="date" type="string">2019 11 08 </i>
  <i name="time" type="string">11:58:36 </i>
 </generator>
 <incar>
  <i type="string" name="PREC">normal    ! low/normal/accurate</i>
  <i type="string" name="ALGO"> Fast      ! Algorithm for electronic re</i>
  <i type="int" name="ISPIN">     1</i>
  <i type="int" name="NELMIN">     4</i>
  <i name="EDIFF">      0.00001000</i>
  <i type="int" name="NSW">     0</i>
  <i name="ENCUT">    600.00000000</i>
  <i type="logical" name="LREAL"> F  </i>
  <i type="int" name="ISMEAR">    -5</i>
  <i name="SIGMA">      0.20000000</i>
  <i type="logical" name="LWAVE"> F  </i>
  <v type="int" name="KPOINT_BSE">    -1     0     0     0</v>
 </incar>
 <structure name="primitive_cell" >
  <crystal>
   <varray name="basis" >
    <v>       3.19031573       0.00000000       0.00000000 </v>
    <v>      -1.59515786       2.76289447       0.00000000 </v>
    <v>       0.00000000       0.00000000      26.87900430 </v>
   </varray>
   <i name="volume">    236.92513614 </i>
   <varray name="rec_basis" >
    <v>       0.31344860       0.18096963       0.00000000 </v>
    <v>       0.00000000       0.36193927       0.00000000 </v>
    <v>       0.00000000       0.00000000       0.03720376 </v>
   </varray>
  </crystal>
  <varray name="positions" >
   <v>       0.33333300      -0.33333300       0.13838872 </v>
   <v>      -0.33333400       0.33333300       0.19660830 </v>
   <v>      -0.33333300       0.33333300       0.08016914 </v>
  </varray>
 </structure>
 <varray name="primitive_index" >
  <v type="int" >        1 </v>
  <v type="int" >        3 </v>
  <v type="int" >        2 </v>
 </varray>
 <kpoints>
  <generation param="Gamma">
   <v type="int" name="divisions">       8        8        1 </v>
   <v name="usershift">      0.00000000       0.00000000       0.00000000 </v>
   <v name="genvec1">      0.12500000       0.00000000       0.00000000 </v>
   <v name="genvec2">      0.00000000       0.12500000       0.00000000 </v>
   <v name="genvec3">      0.00000000       0.00000000       1.00000000 </v>
   <v name="shift">      0.00000000       0.00000000       0.00000000 </v>
  </generation>
  <varray name="kpointlist" >
   <v>       0.00000000       0.00000000       0.00000000 </v>
   <v>       0.12500000       0.00000000       0.00000000 </v>
   <v>       0.25000000       0.00000000       0.00000000 </v>
   <v>       0.37500000       0.00000000       0.00000000 </v>
   <v>       0.50000000       0.00000000       0.00000000 </v>
   <v>       0.12500000       0.12500000       0.00000000 </v>
   <v>       0.25000000       0.12500000       0.00000000 </v>
   <v>       0.37500000       0.12500000       0.00000000 </v>
   <v>       0.25000000       0.25000000       0.00000000 </v>
   <v>       0.37500000       0.25000000       0.00000000 </v>
  </varray>
  <varray name="weights" >
   <v>       0.01562500 </v>
   <v>       0.09375000 </v>
   <v>       0.09375000 </v>
   <v>       0.09375000 </v>
   <v>       0.04687500 </v>
   <v>       0.09375000 </v>
   <v>       0.18750000 </v>
   <v>       0.18750000 </v>
   <v>       0.09375000 </v>
   <v>       0.09375000 </v>
  </varray>
  <varray name="tetrahedronlist"  type="int" >
   <v type="int" >       12        2        2        2        6 </v>
   <v type="int" >       12        1        2        2        2 </v>
   <v type="int" >        6        1        1        2        2 </v>
   <v type="int" >        6        2        2        6        6 </v>
   <v type="int" >       12        3        6        6        7 </v>
   <v type="int" >       12        2        3        6        6 </v>
   <v type="int" >       12        2        2        3        6 </v>
   <v type="int" >       12        3        6        7        7 </v>
   <v type="int" >       12        3        3        6        7 </v>
   <v type="int" >       12        2        3        3        6 </v>
   <v type="int" >       12        4        7        7        8 </v>
   <v type="int" >       12        3        4        7        7 </v>
   <v type="int" >       12        3        3        4        7 </v>
   <v type="int" >       12        4        7        8        8 </v>
   <v type="int" >       12        4        4        7        8 </v>
   <v type="int" >       12        3        4        4        7 </v>
   <v type="int" >       12        5        8        8        8 </v>
   <v type="int" >       12        4        5        8        8 </v>
   <v type="int" >       12        4        4        5        8 </v>
   <v type="int" >        6        5        5        8        8 </v>
   <v type="int" >       12        4        5        5        8 </v>
   <v type="int" >       12        7        7        7        9 </v>
   <v type="int" >       12        6        7        7        7 </v>
   <v type="int" >        6        6        6        7        7 </v>
   <v type="int" >        6        7        7        9        9 </v>
   <v type="int" >       12        8        9        9       10 </v>
   <v type="int" >       12        7        8        9        9 </v>
   <v type="int" >       12        7        7        8        9 </v>
   <v type="int" >       12        8        9       10       10 </v>
   <v type="int" >       12        8        8        9       10 </v>
   <v type="int" >       12        7        8        8        9 </v>
   <v type="int" >        6        8        8       10       10 </v>
   <v type="int" >       12        8        8        8       10 </v>
   <v type="int" >        6       10       10       10       10 </v>
   <v type="int" >       12        9       10       10       10 </v>
   <v type="int" >        6        9        9       10       10 </v>
  </varray>
  <i name="volumeweight">      0.00260417 </i>
 </kpoints>
 <parameters>
  <separator name="general" >
   <i type="string" name="SYSTEM">unknown system</i>
   <i type="logical" name="LCOMPAT"> F  </i>
  </separator>
  <separator name="electronic" >
   <i type="string" name="PREC">normal</i>
   <i name="ENMAX">    600.00000000</i>
   <i name="ENAUG">    345.27800000</i>
   <i name="EDIFF">      0.00001000</i>
   <i type="int" name="IALGO">    68</i>
   <i type="int" name="IWAVPR">    10</i>
   <i type="int" name="NBANDS">    14</i>
   <i name="NELECT">     18.00000000</i>
   <i type="int" name="TURBO">     0</i>
   <i type="int" name="IRESTART">     0</i>
   <i type="int" name="NREBOOT">     0</i>
   <i type="int" name="NMIN">     0</i>
   <i name="EREF">      0.00000000</i>
   <separator name="electronic smearing" >
    <i type="int" name="ISMEAR">    -5</i>
    <i name="SIGMA">      0.20000000</i>
    <i name="KSPACING">      0.50000000</i>
    <i type="logical" name="KGAMMA"> T  </i>
   </separator>
   <separator name="electronic projectors" >
    <i type="logical" name="LREAL"> F  </i>
    <v name="ROPT">      0.00000000      0.00000000</v>
    <i type="int" name="LMAXPAW">  -100</i>
    <i type="int" name="LMAXMIX">     2</i>
    <i type="logical" name="NLSPLINE"> F  </i>
   </separator>
   <separator name="electronic startup" >
    <i type="int" name="ISTART">     0</i>
    <i type="int" name="ICHARG">     2</i>
    <i type="int" name="INIWAV">     1</i>
   </separator>
   <separator name="electronic spin" >
    <i type="int" name="ISPIN">     1</i>
    <i type="logical" name="LNONCOLLINEAR"> F  </i>
    <v name="MAGMOM">      1.00000000      1.00000000      1.00000000</v>
    <i name="NUPDOWN">     -1.00000000</i>
    <i type="logical" name="LSORBIT"> F  </i>
    <v name="SAXIS">      0.00000000      0.00000000      1.00000000</v>
    <i type="logical" name="LSPIRAL"> F  </i>
    <v name="QSPIRAL">      0.00000000      0.00000000      0.00000000</v>
    <i type="logical" name="LZEROZ"> F  </i>
   </separator>
   <separator name="electronic exchange-correlation" >
    <i type="logical" name="LASPH"> F  </i>
    <i type="logical" name="LMETAGGA"> F  </i>
   </separator>
   <separator name="electronic convergence" >
    <i type="int" name="NELM">    60</i>
    <i type="int" name="NELMDL">    -5</i>
    <i type="int" name="NELMIN">     4</i>
    <i name="ENINI">    600.00000000</i>
    <separator name="electronic convergence detail" >
     <i type="logical" name="LDIAG"> T  </i>
     <i type="logical" name="LSUBROT"> F  </i>
     <i name="WEIMIN">      0.00000000</i>
     <i name="EBREAK">      0.00000018</i>
     <i name="DEPER">      0.30000000</i>
     <i type="int" name="NRMM">     4</i>
     <i name="TIME">      0.40000000</i>
    </separator>
   </separator>
   <separator name="electronic mixer" >
    <i name="AMIX">      0.40000000</i>
    <i name="BMIX">      1.00000000</i>
    <i name="AMIN">      0.10000000</i>
    <i name="AMIX_MAG">      1.60000000</i>
    <i name="BMIX_MAG">      1.00000000</i>
    <separator name="electronic mixer details" >
     <i type="int" name="IMIX">     4</i>
     <i type="logical" name="MIXFIRST"> F  </i>
     <i type="int" name="MAXMIX">   -45</i>
     <i name="WC">    100.00000000</i>
     <i type="int" name="INIMIX">     1</i>
     <i type="int" name="MIXPRE">     1</i>
     <i type="int" name="MREMOVE">     5</i>
    </separator>
   </separator>
   <separator name="electronic dipolcorrection" >
    <i type="logical" name="LDIPOL"> F  </i>
    <i type="logical" name="LMONO"> F  </i>
    <i type="int" name="IDIPOL">     0</i>
    <i name="EPSILON">      1.00000000</i>
    <v name="DIPOL">   -100.00000000   -100.00000000   -100.00000000</v>
    <i name="EFIELD">      0.00000000</i>
   </separator>
  </separator>
  <separator name="grids" >
   <i type="int" name="NGX">    20</i>
   <i type="int" name="NGY">    20</i>
   <i type="int" name="NGZ">   162</i>
   <i type="int" name="NGXF">    40</i>
   <i type="int" name="NGYF">    40</i>
   <i type="int" name="NGZF">   324</i>
   <i type="logical" name="ADDGRID"> F  </i>
  </separator>
  <separator name="ionic" >
   <i type="int" name="NSW">     0</i>
   <i type="int" name="IBRION">    -1</i>
   <i type="int" name="MDALGO">     0</i>
   <i type="int" name="ISIF">     2</i>
   <i name="PSTRESS">      0.00000000</i>
   <i name="EDIFFG">      0.00010000</i>
   <i type="int" name="NFREE">     0</i>
   <i name="POTIM">      0.50000000</i>
   <i name="SMASS">     -3.00000000</i>
   <i name="SCALEE">      1.00000000</i>
  </separator>
  <separator name="ionic md" >
   <i name="TEBEG">      0.00010000</i>
   <i name="TEEND">      0.00010000</i>
   <i type="int" name="NBLOCK">     1</i>
   <i type="int" name="KBLOCK">     1</i>
   <i type="int" name="NPACO">   256</i>
   <i name="APACO">     16.00000000</i>
  </separator>
  <separator name="symmetry" >
   <i type="int" name="ISYM">     2</i>
   <i name="SYMPREC">      0.00001000</i>
  </separator>
  <separator name="dos" >
   <i type="int" name="LORBIT">     0</i>
   <v name="RWIGS">     -1.00000000     -1.00000000</v>
   <i type="int" name="NEDOS">   301</i>
   <i name="EMIN">     10.00000000</i>
   <i name="EMAX">    -10.00000000</i>
   <i name="EFERMI">      0.00000000</i>
  </separator>
  <separator name="writing" >
   <i type="int" name="NWRITE">     2</i>
   <i type="logical" name="LWAVE"> F  </i>
   <i type="logical" name="LDOWNSAMPLE"> F  </i>
   <i type="logical" name="LCHARG"> T  </i>
   <i type="logical" name="LPARD"> F  </i>
   <i type="logical" name="LVTOT"> F  </i>
   <i type="logical" name="LVHAR"> F  </i>
   <i type="logical" name="LELF"> F  </i>
   <i type="logical" name="LOPTICS"> F  </i>
   <v name="STM">      0.00000000      0.00000000      0.00000000      0.00000000      0.00000000      0.00000000      0.00000000</v>
  </separator>
  <separator name="performance" >
   <i type="int" name="NPAR">     2</i>
   <i type="int" name="NSIM">     4</i>
   <i type="int" name="NBLK">    -1</i>
   <i type="logical" name="LPLANE"> T  </i>
   <i type="logical" name="LSCALAPACK"> T  </i>
   <i type="logical" name="LSCAAWARE"> F  </i>
   <i type="logical" name="LSCALU"> F  </i>
   <i type="logical" name="LASYNC"> F  </i>
   <i type="logical" name="LORBITALREAL"> F  </i>
  </separator>
  <separator name="miscellaneous" >
   <i type="int" name="IDIOT">     3</i>
   <i type="int" name="ISPECIAL">     0</i>
   <i type="logical" name="LMUSIC"> F  </i>
   <v name="POMASS">     95.94000000     32.06600000</v>
   <v name="DARWINR">      0.00000000      0.00000000</v>
   <v name="DARWINV">      1.00000000      1.00000000</v>
   <i type="logical" name="LCORR"> T  </i>
  </separator>
  <i type="logical" name="GGA_COMPAT"> T  </i>
  <i type="logical" name="LBERRY"> F  </i>
  <i type="int" name="ICORELEVEL">     0</i>
  <i type="logical" name="LDAU"> F  </i>
  <i type="int" name="I_CONSTRAINED_M">     0</i>
  <separator name="electronic exchange-correlation" >
   <i type="string" name="GGA">--</i>
   <i type="int" name="VOSKOWN">     0</i>
   <i type="logical" name="LHFCALC"> F  </i>
   <i type="string" name="PRECFOCK"></i>
   <i type="logical" name="LSYMGRAD"> F  </i>
   <i type="logical" name="LHFONE"> F  </i>
   <i type="logical" name="LRHFCALC"> F  </i>
   <i type="logical" name="LTHOMAS"> F  </i>
   <i type="logical" name="LMODELHF"> F  </i>
   <i name="ENCUT4O">     -1.00000000</i>
   <i type="int" name="EXXOEP">     0</i>
   <i type="int" name="FOURORBIT">     0</i>
   <i name="AEXX">      0.00000000</i>
   <i name="HFALPHA">      0.00000000</i>
   <i name="MCALPHA">      0.00000000</i>
   <i name="ALDAX">      1.00000000</i>
   <i name="AGGAX">      1.00000000</i>
   <i name="ALDAC">      1.00000000</i>
   <i name="AGGAC">      1.00000000</i>
   <i type="int" name="NKREDX">     1</i>
   <i type="int" name="NKREDY">     1</i>
   <i type="int" name="NKREDZ">     1</i>
   <i type="logical" name="SHIFTRED"> F  </i>
   <i type="logical" name="ODDONLY"> F  </i>
   <i type="logical" name="EVENONLY"> F  </i>
   <i type="int" name="LMAXFOCK">     0</i>
   <i type="int" name="NMAXFOCKAE">     0</i>
   <i type="logical" name="LFOCKAEDFT"> F  </i>
   <i name="HFSCREEN">      0.00000000</i>
   <i name="HFSCREENC">      0.00000000</i>
   <i type="int" name="NBANDSGWLOW">     0</i>
  </separator>
  <separator name="vdW DFT" >
   <i type="logical" name="LUSE_VDW"> F  </i>
   <i name="Zab_VDW">     -0.84910000</i>
   <i name="PARAM1">      0.12340000</i>
   <i name="PARAM2">      1.00000000</i>
   <i name="PARAM3">      0.00000000</i>
  </separator>
  <separator name="model GW" >
   <i type="int" name="MODEL_GW">     0</i>
   <i name="MODEL_EPS0">     47.38502723</i>
   <i name="MODEL_ALPHA">      1.00000000</i>
  </separator>
  <separator name="linear response parameters" >
   <i type="logical" name="LEPSILON"> F  </i>
   <i type="logical" name="LRPA"> F  </i>
   <i type="logical" name="LNABLA"> F  </i>
   <i type="logical" name="LVEL"> F  </i>
   <i type="int" name="KINTER">     0</i>
   <i name="CSHIFT">      0.10000000</i>
   <i name="OMEGAMAX">     -1.00000000</i>
   <i name="DEG_THRESHOLD">      0.00200000</i>
   <i name="RTIME">     -0.10000000</i>
   <i name="WPLASMAI">      0.00000000</i>
   <v name="DFIELD">      0.00000000      0.00000000      0.00000000</v>
   <v name="WPLASMA">      0.00000000      0.00000000      0.00000000      0.00000000      0.00000000      0.00000000      0.00000000      0.00000000      0.00000000</v>
  </separator>
  <separator name="orbital magnetization" >
   <i type="logical" name="NUCIND"> F  </i>
   <v name="MAGPOS">      0.00000000      0.00000000      0.00000000</v>
   <i type="logical" name="LNICSALL"> T  </i>
   <i type="logical" name="ORBITALMAG"> F  </i>
   <i type="logical" name="LMAGBLOCH"> F  </i>
   <i type="logical" name="LCHIMAG"> F  </i>
   <i type="logical" name="LGAUGE"> T  </i>
   <i type="int" name="MAGATOM">     0</i>
   <v name="MAGDIPOL">      0.00000000      0.00000000      0.00000000</v>
   <v name="AVECCONST">      0.00000000      0.00000000      0.00000000</v>
  </separator>
  <separator name="response functions" >
   <i type="logical" name="LADDER"> F  </i>
   <i type="logical" name="LRPAFORCE"> F  </i>
   <i type="logical" name="LFXC"> F  </i>
   <i type="logical" name="LHARTREE"> T  </i>
   <i type="int" name="IBSE">     0</i>
   <v type="int" name="KPOINT">    -1     0     0     0</v>
   <i type="logical" name="LTCTE"> F  </i>
   <i type="logical" name="LTETE"> F  </i>
   <i type="logical" name="LTRIPLET"> F  </i>
   <i type="logical" name="LFXCEPS"> F  </i>
   <i type="logical" name="LFXHEG"> F  </i>
   <i type="int" name="NATURALO">     2</i>
   <i type="logical" name="L2ORDER"> F  </i>
   <i type="logical" name="LMP2LT"> F  </i>
   <i type="logical" name="LUSEW"> F  </i>
   <i name="ENCUTGW">     -2.00000000</i>
   <i name="ENCUTGWSOFT">     -2.00000000</i>
   <i name="ENCUTLF">     -1.00000000</i>
   <i type="int" name="LMAXMP2">    -1</i>
   <i name="SCISSOR">      0.00000000</i>
   <i type="int" name="NOMEGA">     0</i>
   <i type="int" name="NOMEGAR">     0</i>
   <i type="int" name="NBANDSGW">    -1</i>
   <i type="int" name="NBANDSO">    -1</i>
   <i type="int" name="NBANDSV">    -1</i>
   <i type="int" name="NELM">     1</i>
   <i type="int" name="NELMHF">     1</i>
   <i type="int" name="DIM">     3</i>
   <i type="int" name="ANTIRES">     0</i>
   <i name="OMEGAMAX">    -30.00000000</i>
   <i name="OMEGAMIN">    -30.00000000</i>
   <i name="OMEGATL">   -200.00000000</i>
   <i type="int" name="OMEGAGRID">   140</i>
   <i name="CSHIFT">     -0.10000000</i>
   <i type="logical" name="SELFENERGY"> F  </i>
   <i type="logical" name="LSPECTRAL"> F  </i>
   <i type="logical" name="LSPECTRALGW"> F  </i>
   <i type="logical" name="LSINGLES"> F  </i>
   <i type="logical" name="LFERMIGW"> F  </i>
   <i type="logical" name="ODDONLYGW"> F  </i>
   <i type="logical" name="EVENONLYGW"> F  </i>
   <i type="int" name="NKREDLFX">     1</i>
   <i type="int" name="NKREDLFY">     1</i>
   <i type="int" name="NKREDLFZ">     1</i>
   <i type="int" name="MAXMEM">  2800</i>
   <i type="int" name="TELESCOPE">     0</i>
   <i type="int" name="TAUPAR">     1</i>
   <i type="int" name="OMEGAPAR">    -1</i>
   <i name="LAMBDA">      1.00000000</i>
  </separator>
  <separator name="External order field" >
   <i name="OFIELD_KAPPA">      0.00000000</i>
   <v name="OFIELD_K">      0.00000000      0.00000000      0.00000000</v>
   <i name="OFIELD_Q6_NEAR">      0.00000000</i>
   <i name="OFIELD_Q6_FAR">      0.00000000</i>
   <i name="OFIELD_A">      0.00000000</i>
  </separator>
 </parameters>
 <atominfo>
  <atoms>       3 </atoms>
  <types>       2 </types>
  <array name="atoms" >
   <dimension dim="1">ion</dimension>
   <field type="string">element</field>
   <field type="int">atomtype</field>
   <set>
    <rc><c>Mo</c><c>   1</c></rc>
    <rc><c>S </c><c>   2</c></rc>
    <rc><c>S </c><c>   2</c></rc>
   </set>
  </array>
  <array name="atomtypes" >
   <dimension dim="1">type</dimension>
   <field type="int">atomspertype</field>
   <field type="string">element</field>
   <field>mass</field>
   <field>valence</field>
   <field type="string">pseudopotential</field>
   <set>
    <rc><c>   1</c><c>Mo</c><c>     95.94000000</c><c>      6.00000000</c><c> PAW_PBE Mo 08Apr2002                   </c></rc>
    <rc><c>   2</c><c>S </c><c>     32.06600000</c><c>      6.00000000</c><c>  PAW_PBE S 17Jan2003                   </c></rc>
   </set>
  </array>
 </atominfo>
 <structure name="initialpos" >
  <crystal>
   <varray name="basis" >
    <v>       3.19031573       0.00000000       0.00000000 </v>
    <v>      -1.59515786       2.76289447       0.00000000 </v>
    <v>       0.00000000       0.00000000      26.87900430 </v>
   </varray>
   <i name="volume">    236.92513614 </i>
   <varray name="rec_basis" >
    <v>       0.31344860       0.18096963       0.00000000 </v>
    <v>       0.00000000       0.36193927       0.00000000 </v>
    <v>       0.00000000       0.00000000       0.03720376 </v>
   </varray>
  </crystal>
  <varray name="positions" >
   <v>       0.33333300       0.66666700       0.13838872 </v>
   <v>       0.66666700       0.33333300       0.08016914 </v>
   <v>       0.66666600       0.33333300       0.19660830 </v>
  </varray>
 </structure>
 <calculation>
  <scstep>
   <time name="dav">    0.36    0.37</time>
   <time name="total">    0.44    0.47</time>
   <energy>
    <i name="alphaZ">     12.51390764 </i>
    <i name="ewald">   4286.25630342 </i>
    <i name="hartreedc">  -4967.71356795 </i>
    <i name="XCdc">    -36.31055821 </i>
    <i name="pawpsdc">    406.88651198 </i>
    <i name="pawaedc">   -329.34073203 </i>
    <i name="eentropy">      0.00000000 </i>
    <i name="bandstr">      4.47435088 </i>
    <i name="atom">    771.16174613 </i>
    <i name="e_fr_energy">    147.92796187 </i>
    <i name="e_wo_entrp">    147.92796187 </i>
    <i name="e_0_energy">    147.92796187 </i>
   </energy>
  </scstep>
  <scstep>
   <time name="dav">    0.52    0.52</time>
   <time name="total">    0.52    0.52</time>
   <energy>
    <i name="e_fr_energy">     -4.16967656 </i>
    <i name="e_wo_entrp">     -4.16967656 </i>
    <i name="e_0_energy">     -4.16967656 </i>
   </energy>
  </scstep>
  <scstep>
   <time name="dav">    0.46    0.47</time>
   <time name="total">    0.46    0.47</time>
   <energy>
    <i name="e_fr_energy">    -22.98701616 </i>
    <i name="e_wo_entrp">    -22.98701616 </i>
    <i name="e_0_energy">    -22.98701616 </i>
   </energy>
  </scstep>
  <scstep>
   <time name="dav">    0.43    0.43</time>
   <time name="total">    0.43    0.43</time>
   <energy>
    <i name="e_fr_energy">    -23.39805213 </i>
    <i name="e_wo_entrp">    -23.39805213 </i>
    <i name="e_0_energy">    -23.39805213 </i>
   </energy>
  </scstep>
  <scstep>
   <time name="dav">    0.46    0.47</time>
   <time name="total">    0.50    0.50</time>
   <energy>
    <i name="e_fr_energy">    -23.40955354 </i>
    <i name="e_wo_entrp">    -23.40955354 </i>
    <i name="e_0_energy">    -23.40955354 </i>
   </energy>
  </scstep>
  <scstep>
   <time name="diag">    0.07    0.07</time>
   <time name="diis">    0.32    0.32</time>
   <time name="orth">    0.01    0.01</time>
   <time name="total">    0.50    0.50</time>
   <energy>
    <i name="e_fr_energy">    -22.24910766 </i>
    <i name="e_wo_entrp">    -22.24910766 </i>
    <i name="e_0_energy">    -22.24910766 </i>
   </energy>
  </scstep>
  <scstep>
   <time name="diag">    0.07    0.07</time>
   <time name="diis">    0.31    0.31</time>
   <time name="orth">    0.00    0.01</time>
   <time name="total">    0.48    0.49</time>
   <energy>
    <i name="e_fr_energy">    -21.86404505 </i>
    <i name="e_wo_entrp">    -21.86404505 </i>
    <i name="e_0_energy">    -21.86404505 </i>
   </energy>
  </scstep>
  <scstep>
   <time name="diag">    0.07    0.07</time>
   <time name="diis">    0.32    0.32</time>
   <time name="orth">    0.01    0.01</time>
   <time name="total">    0.50    0.50</time>
   <energy>
    <i name="e_fr_energy">    -21.80428246 </i>
    <i name="e_wo_entrp">    -21.80428246 </i>
    <i name="e_0_energy">    -21.80428246 </i>
   </energy>
  </scstep>
  <scstep>
   <time name="diag">    0.07    0.07</time>
   <time name="diis">    0.35    0.35</time>
   <time name="orth">    0.01    0.01</time>
   <time name="total">    0.53    0.53</time>
   <energy>
    <i name="e_fr_energy">    -21.79944689 </i>
    <i name="e_wo_entrp">    -21.79944689 </i>
    <i name="e_0_energy">    -21.79944689 </i>
   </energy>
  </scstep>
  <scstep>
   <time name="diag">    0.07    0.07</time>
   <time name="diis">    0.35    0.35</time>
   <time name="orth">    0.01    0.01</time>
   <time name="total">    0.53    0.53</time>
   <energy>
    <i name="e_fr_energy">    -21.79868475 </i>
    <i name="e_wo_entrp">    -21.79868475 </i>
    <i name="e_0_energy">    -21.79868475 </i>
   </energy>
  </scstep>
  <scstep>
   <time name="diag">    0.07    0.07</time>
   <time name="diis">    0.34    0.34</time>
   <time name="orth">    0.01    0.01</time>
   <time name="total">    0.51    0.51</time>
   <energy>
    <i name="e_fr_energy">    -21.79860064 </i>
    <i name="e_wo_entrp">    -21.79860064 </i>
    <i name="e_0_energy">    -21.79860064 </i>
   </energy>
  </scstep>
  <scstep>
   <time name="diag">    0.07    0.07</time>
   <time name="diis">    0.32    0.32</time>
   <time name="orth">    0.01    0.01</time>
   <time name="total">    0.50    0.50</time>
   <energy>
    <i name="e_fr_energy">    -21.79840002 </i>
    <i name="e_wo_entrp">    -21.79840002 </i>
    <i name="e_0_energy">    -21.79840002 </i>
   </energy>
  </scstep>
  <scstep>
   <time name="diag">    0.07    0.07</time>
   <time name="diis">    0.29    0.29</time>
   <time name="orth">    0.01    0.01</time>
   <time name="total">    0.47    0.47</time>
   <energy>
    <i name="e_fr_energy">    -21.79865156 </i>
    <i name="e_wo_entrp">    -21.79865156 </i>
    <i name="e_0_energy">    -21.79865156 </i>
   </energy>
  </scstep>
  <scstep>
   <time name="diag">    0.07    0.07</time>
   <time name="diis">    0.28    0.28</time>
   <time name="orth">    0.01    0.01</time>
   <time name="total">    0.46    0.46</time>
   <energy>
    <i name="e_fr_energy">    -21.79868869 </i>
    <i name="e_wo_entrp">    -21.79868869 </i>
    <i name="e_0_energy">    -21.79868869 </i>
   </energy>
  </scstep>
  <scstep>
   <time name="diag">    0.07    0.07</time>
   <time name="diis">    0.23    0.23</time>
   <time name="orth">    0.00    0.01</time>
   <time name="total">    0.42    0.42</time>
   <energy>
    <i name="e_fr_energy">    -21.79879914 </i>
    <i name="e_wo_entrp">    -21.79879914 </i>
    <i name="e_0_energy">    -21.79879914 </i>
   </energy>
  </scstep>
  <scstep>
   <time name="diag">    0.07    0.07</time>
   <time name="diis">    0.22    0.22</time>
   <time name="orth">    0.01    0.01</time>
   <time name="total">    0.41    0.41</time>
   <energy>
    <i name="e_fr_energy">    -21.79883058 </i>
    <i name="e_wo_entrp">    -21.79883058 </i>
    <i name="e_0_energy">    -21.79883058 </i>
   </energy>
  </scstep>
  <scstep>
   <time name="diag">    0.07    0.07</time>
   <time name="diis">    0.20    0.20</time>
   <time name="orth">    0.01    0.01</time>
   <time name="total">    0.39    0.39</time>
   <energy>
    <i name="e_fr_energy">    -21.79887430 </i>
    <i name="e_wo_entrp">    -21.79887430 </i>
    <i name="e_0_energy">    -21.79887430 </i>
   </energy>
  </scstep>
  <scstep>
   <time name="diag">    0.07    0.07</time>
   <time name="diis">    0.18    0.18</time>
   <time name="orth">    0.01    0.01</time>
   <time name="total">    0.32    0.33</time>
   <energy>
    <i name="alphaZ">     12.51390764 </i>
    <i name="ewald">   4286.25630342 </i>
    <i name="hartreedc">  -4980.69969129 </i>
    <i name="XCdc">    -35.19765949 </i>
    <i name="pawpsdc">    471.83440110 </i>
    <i name="pawaedc">   -396.02574905 </i>
    <i name="eentropy">      0.00000000 </i>
    <i name="bandstr">   -151.64214103 </i>
    <i name="atom">    771.16174613 </i>
    <i name="e_fr_energy">    -21.79888257 </i>
    <i name="e_wo_entrp">    -21.79888257 </i>
    <i name="e_0_energy">    -21.79888257 </i>
   </energy>
  </scstep>
  <structure>
   <crystal>
    <varray name="basis" >
     <v>       3.19031573       0.00000000       0.00000000 </v>
     <v>      -1.59515786       2.76289447       0.00000000 </v>
     <v>       0.00000000       0.00000000      26.87900430 </v>
    </varray>
    <i name="volume">    236.92513614 </i>
    <varray name="rec_basis" >
     <v>       0.31344860       0.18096963       0.00000000 </v>
     <v>       0.00000000       0.36193927       0.00000000 </v>
     <v>       0.00000000       0.00000000       0.03720376 </v>
    </varray>
   </crystal>
   <varray name="positions" >
    <v>       0.33333300       0.66666700       0.13838872 </v>
    <v>       0.66666700       0.33333300       0.08016914 </v>
    <v>       0.66666600       0.33333300       0.19660830 </v>
   </varray>
  </structure>
  <varray name="forces" >
   <v>       0.00000000      -0.00000000       0.00000000 </v>
   <v>      -0.00000000       0.00000000       0.11426199 </v>
   <v>      -0.00000000       0.00000000      -0.11426199 </v>
  </varray>
  <varray name="stress" >
   <v>      -0.85969777      -0.00000000       0.00000000 </v>
   <v>       0.00000000      -0.85969777       0.00000000 </v>
   <v>       0.00000000       0.00000000      -2.49072495 </v>
  </varray>
  <energy>
   <i name="e_fr_energy">    -22.38979163 </i>
   <i name="e_wo_entrp">    -22.38979163 </i>
   <i name="e_0_energy">      0.00000000 </i>
  </energy>
  <time name="totalsc">    9.50    9.60</time>
  <eigenvalues>
   <array>
    <dimension dim="1">band</dimension>
    <dimension dim="2">kpoint</dimension>
    <dimension dim="3">spin</dimension>
    <field>eigene</field>
    <field>occ</field>
    <set>
     <set comment="spin 1">
      <set comment="kpoint 1">
       <r>  -17.4635    1.0000 </r>
       <r>  -16.2554    1.0000 </r>
       <r>   -8.9844    1.0000 </r>
       <r>   -6.0236    1.0000 </r>
       <r>   -6.0236    1.0000 </r>
       <r>   -5.1622    1.0000 </r>
       <r>   -4.9180    1.0000 </r>
       <r>   -4.9180    1.0000 </r>
       <r>   -3.4419    1.0000 </r>
       <r>   -0.6703    0.0000 </r>
       <r>   -0.6703    0.0000 </r>
       <r>   -0.4466    0.0000 </r>
       <r>   -0.4466    0.0000 </r>
       <r>    1.9925    0.0000 </r>
      </set>
      <set comment="kpoint 2">
       <r>  -17.2493    1.0000 </r>
       <r>  -16.1530    1.0000 </r>
       <r>   -8.7398    1.0000 </r>
       <r>   -6.4870    1.0000 </r>
       <r>   -5.9703    1.0000 </r>
       <r>   -5.7892    1.0000 </r>
       <r>   -5.2538    1.0000 </r>
       <r>   -4.4848    1.0000 </r>
       <r>   -3.5803    1.0000 </r>
       <r>   -0.9504    0.0000 </r>
       <r>   -0.8846    0.0000 </r>
       <r>   -0.6832    0.0000 </r>
       <r>   -0.3155    0.0000 </r>
       <r>    2.3671    0.0000 </r>
      </set>
      <set comment="kpoint 3">
       <r>  -16.6806    1.0000 </r>
       <r>  -15.8842    1.0000 </r>
       <r>   -8.3737    1.0000 </r>
       <r>   -7.2136    1.0000 </r>
       <r>   -6.9512    1.0000 </r>
       <r>   -5.8888    1.0000 </r>
       <r>   -5.2021    1.0000 </r>
       <r>   -4.7363    1.0000 </r>
       <r>   -4.1483    1.0000 </r>
       <r>   -1.2745    0.0000 </r>
       <r>   -1.0979    0.0000 </r>
       <r>   -0.5558    0.0000 </r>
       <r>    0.3014    0.0000 </r>
       <r>    3.1777    0.0000 </r>
      </set>
      <set comment="kpoint 4">
       <r>  -16.0055    1.0000 </r>
       <r>  -15.5758    1.0000 </r>
       <r>   -8.8110    1.0000 </r>
       <r>   -7.8186    1.0000 </r>
       <r>   -7.3464    1.0000 </r>
       <r>   -6.3861    1.0000 </r>
       <r>   -5.1456    1.0000 </r>
       <r>   -4.6116    1.0000 </r>
       <r>   -4.3434    1.0000 </r>
       <r>   -1.2794    0.0000 </r>
       <r>   -1.0005    0.0000 </r>
       <r>    0.1627    0.0000 </r>
       <r>    0.6948    0.0000 </r>
       <r>    3.7013    0.0000 </r>
      </set>
      <set comment="kpoint 5">
       <r>  -15.6772    1.0000 </r>
       <r>  -15.4325    1.0000 </r>
       <r>   -9.1436    1.0000 </r>
       <r>   -8.1835    1.0000 </r>
       <r>   -7.4727    1.0000 </r>
       <r>   -6.5667    1.0000 </r>
       <r>   -5.2845    1.0000 </r>
       <r>   -4.3845    1.0000 </r>
       <r>   -4.0627    1.0000 </r>
       <r>   -1.2571    0.0000 </r>
       <r>   -0.7412    0.0000 </r>
       <r>    0.4613    0.0000 </r>
       <r>    0.8102    0.0000 </r>
       <r>    2.7407    0.0000 </r>
      </set>
      <set comment="kpoint 6">
       <r>  -16.8565    1.0000 </r>
       <r>  -15.9660    1.0000 </r>
       <r>   -8.3926    1.0000 </r>
       <r>   -7.0510    1.0000 </r>
       <r>   -6.5325    1.0000 </r>
       <r>   -6.0676    1.0000 </r>
       <r>   -5.4497    1.0000 </r>
       <r>   -4.3503    1.0000 </r>
       <r>   -3.9522    1.0000 </r>
       <r>   -1.3496    0.0000 </r>
       <r>   -0.9714    0.0000 </r>
       <r>   -0.9596    0.0000 </r>
       <r>    0.2793    0.0000 </r>
       <r>    3.0214    0.0000 </r>
      </set>
      <set comment="kpoint 7">
       <r>  -16.2229    1.0000 </r>
       <r>  -15.6675    1.0000 </r>
       <r>   -8.4553    1.0000 </r>
       <r>   -7.4777    1.0000 </r>
       <r>   -7.2146    1.0000 </r>
       <r>   -6.5719    1.0000 </r>
       <r>   -5.3502    1.0000 </r>
       <r>   -4.7125    1.0000 </r>
       <r>   -4.2358    1.0000 </r>
       <r>   -1.4330    0.0000 </r>
       <r>   -0.9845    0.0000 </r>
       <r>   -0.4897    0.0000 </r>
       <r>    0.7871    0.0000 </r>
       <r>    3.9251    0.0000 </r>
      </set>
      <set comment="kpoint 8">
       <r>  -15.6924    1.0000 </r>
       <r>  -15.4235    1.0000 </r>
       <r>   -8.8563    1.0000 </r>
       <r>   -8.2408    1.0000 </r>
       <r>   -7.3450    1.0000 </r>
       <r>   -6.5887    1.0000 </r>
       <r>   -5.3351    1.0000 </r>
       <r>   -5.1943    1.0000 </r>
       <r>   -3.9089    1.0000 </r>
       <r>   -1.2382    0.0000 </r>
       <r>   -0.7279    0.0000 </r>
       <r>    0.1320    0.0000 </r>
       <r>    0.8208    0.0000 </r>
       <r>    3.2676    0.0000 </r>
      </set>
      <set comment="kpoint 9">
       <r>  -15.7074    1.0000 </r>
       <r>  -15.4145    1.0000 </r>
       <r>   -8.4959    1.0000 </r>
       <r>   -8.2916    1.0000 </r>
       <r>   -7.0178    1.0000 </r>
       <r>   -6.6370    1.0000 </r>
       <r>   -6.3179    1.0000 </r>
       <r>   -5.0609    1.0000 </r>
       <r>   -3.9378    1.0000 </r>
       <r>   -1.2892    0.0000 </r>
       <r>   -0.6782    0.0000 </r>
       <r>   -0.3665    0.0000 </r>
       <r>    1.1089    0.0000 </r>
       <r>    4.0999    0.0000 </r>
      </set>
      <set comment="kpoint 10">
       <r>  -15.4725    1.0000 </r>
       <r>  -15.2954    1.0000 </r>
       <r>   -8.6760    1.0000 </r>
       <r>   -8.3269    1.0000 </r>
       <r>   -7.3021    1.0000 </r>
       <r>   -6.6395    1.0000 </r>
       <r>   -6.4094    1.0000 </r>
       <r>   -5.4472    1.0000 </r>
       <r>   -3.5704    1.0000 </r>
       <r>   -1.6149    0.0000 </r>
       <r>   -0.3081    0.0000 </r>
       <r>   -0.1276    0.0000 </r>
       <r>    1.2542    0.0000 </r>
       <r>    3.5105    0.0000 </r>
      </set>
     </set>
    </set>
   </array>
  </eigenvalues>
  <separator name="orbital magnetization" >
   <v name="MAGDIPOLOUT">      0.00000000      0.00000000      0.00000000</v>
  </separator>
  <dos>
   <i name="efermi">     -3.42243425 </i>
   <total>
    <array>
     <dimension dim="1">gridpoints</dimension>
     <dimension dim="2">spin</dimension>
     <field>energy</field>
     <field>total</field>
     <field>integrated</field>
     <set>
      <set comment="spin 1">
       <r>   -19.4635     0.0000     0.0000 </r>
       <r>   -19.3783     0.0000     0.0000 </r>
       <r>   -19.2930     0.0000     0.0000 </r>
       <r>   -19.2078     0.0000     0.0000 </r>
       <r>   -19.1226     0.0000     0.0000 </r>
       <r>   -19.0374     0.0000     0.0000 </r>
       <r>   -18.9522     0.0000     0.0000 </r>
       <r>   -18.8670     0.0000     0.0000 </r>
       <r>   -18.7818     0.0000     0.0000 </r>
       <r>   -18.6966     0.0000     0.0000 </r>
       <r>   -18.6114     0.0000     0.0000 </r>
       <r>   -18.5261     0.0000     0.0000 </r>
       <r>   -18.4409     0.0000     0.0000 </r>
       <r>   -18.3557     0.0000     0.0000 </r>
       <r>   -18.2705     0.0000     0.0000 </r>
       <r>   -18.1853     0.0000     0.0000 </r>
       <r>   -18.1001     0.0000     0.0000 </r>
       <r>   -18.0149     0.0000     0.0000 </r>
       <r>   -17.9297     0.0000     0.0000 </r>
       <r>   -17.8444     0.0000     0.0000 </r>
       <r>   -17.7592     0.0000     0.0000 </r>
       <r>   -17.6740     0.0000     0.0000 </r>
       <r>   -17.5888     0.0000     0.0000 </r>
       <r>   -17.5036     0.0000     0.0000 </r>
       <r>   -17.4184     0.1843     0.0042 </r>
       <r>   -17.3332     0.5327     0.0347 </r>
       <r>   -17.2480     0.4780     0.0944 </r>
       <r>   -17.1628     0.5174     0.1368 </r>
       <r>   -17.0775     0.5569     0.1826 </r>
       <r>   -16.9923     0.5964     0.2317 </r>
       <r>   -16.9071     0.6359     0.2842 </r>
       <r>   -16.8219     0.6622     0.3399 </r>
       <r>   -16.7367     0.6694     0.3966 </r>
       <r>   -16.6515     0.6853     0.4541 </r>
       <r>   -16.5663     0.7183     0.5139 </r>
       <r>   -16.4811     0.7514     0.5765 </r>
       <r>   -16.3959     0.7844     0.6419 </r>
       <r>   -16.3106     0.8174     0.7102 </r>
       <r>   -16.2254     1.3863     0.7892 </r>
       <r>   -16.1402     2.0613     0.9708 </r>
       <r>   -16.0550     2.3563     1.1590 </r>
       <r>   -15.9698     2.6761     1.3728 </r>
       <r>   -15.8846     2.8920     1.6103 </r>
       <r>   -15.7994     3.2302     1.8711 </r>
       <r>   -15.7142     3.5689     2.1608 </r>
       <r>   -15.6290     4.2222     2.6175 </r>
       <r>   -15.5437     4.2449     2.9752 </r>
       <r>   -15.4585     3.7675     3.3668 </r>
       <r>   -15.3733     3.3479     3.7770 </r>
       <r>   -15.2881     0.0000     4.0000 </r>
       <r>   -15.2029     0.0000     4.0000 </r>
       <r>   -15.1177     0.0000     4.0000 </r>
       <r>   -15.0325     0.0000     4.0000 </r>
       <r>   -14.9473     0.0000     4.0000 </r>
       <r>   -14.8621     0.0000     4.0000 </r>
       <r>   -14.7768     0.0000     4.0000 </r>
       <r>   -14.6916     0.0000     4.0000 </r>
       <r>   -14.6064     0.0000     4.0000 </r>
       <r>   -14.5212     0.0000     4.0000 </r>
       <r>   -14.4360     0.0000     4.0000 </r>
       <r>   -14.3508     0.0000     4.0000 </r>
       <r>   -14.2656     0.0000     4.0000 </r>
       <r>   -14.1804     0.0000     4.0000 </r>
       <r>   -14.0952     0.0000     4.0000 </r>
       <r>   -14.0099     0.0000     4.0000 </r>
       <r>   -13.9247     0.0000     4.0000 </r>
       <r>   -13.8395     0.0000     4.0000 </r>
       <r>   -13.7543     0.0000     4.0000 </r>
       <r>   -13.6691     0.0000     4.0000 </r>
       <r>   -13.5839     0.0000     4.0000 </r>
       <r>   -13.4987     0.0000     4.0000 </r>
       <r>   -13.4135     0.0000     4.0000 </r>
       <r>   -13.3282     0.0000     4.0000 </r>
       <r>   -13.2430     0.0000     4.0000 </r>
       <r>   -13.1578     0.0000     4.0000 </r>
       <r>   -13.0726     0.0000     4.0000 </r>
       <r>   -12.9874     0.0000     4.0000 </r>
       <r>   -12.9022     0.0000     4.0000 </r>
       <r>   -12.8170     0.0000     4.0000 </r>
       <r>   -12.7318     0.0000     4.0000 </r>
       <r>   -12.6466     0.0000     4.0000 </r>
       <r>   -12.5613     0.0000     4.0000 </r>
       <r>   -12.4761     0.0000     4.0000 </r>
       <r>   -12.3909     0.0000     4.0000 </r>
       <r>   -12.3057     0.0000     4.0000 </r>
       <r>   -12.2205     0.0000     4.0000 </r>
       <r>   -12.1353     0.0000     4.0000 </r>
       <r>   -12.0501     0.0000     4.0000 </r>
       <r>   -11.9649     0.0000     4.0000 </r>
       <r>   -11.8797     0.0000     4.0000 </r>
       <r>   -11.7944     0.0000     4.0000 </r>
       <r>   -11.7092     0.0000     4.0000 </r>
       <r>   -11.6240     0.0000     4.0000 </r>
       <r>   -11.5388     0.0000     4.0000 </r>
       <r>   -11.4536     0.0000     4.0000 </r>
       <r>   -11.3684     0.0000     4.0000 </r>
       <r>   -11.2832     0.0000     4.0000 </r>
       <r>   -11.1980     0.0000     4.0000 </r>
       <r>   -11.1128     0.0000     4.0000 </r>
       <r>   -11.0275     0.0000     4.0000 </r>
       <r>   -10.9423     0.0000     4.0000 </r>
       <r>   -10.8571     0.0000     4.0000 </r>
       <r>   -10.7719     0.0000     4.0000 </r>
       <r>   -10.6867     0.0000     4.0000 </r>
       <r>   -10.6015     0.0000     4.0000 </r>
       <r>   -10.5163     0.0000     4.0000 </r>
       <r>   -10.4311     0.0000     4.0000 </r>
       <r>   -10.3459     0.0000     4.0000 </r>
       <r>   -10.2606     0.0000     4.0000 </r>
       <r>   -10.1754     0.0000     4.0000 </r>
       <r>   -10.0902     0.0000     4.0000 </r>
       <r>   -10.0050     0.0000     4.0000 </r>
       <r>    -9.9198     0.0000     4.0000 </r>
       <r>    -9.8346     0.0000     4.0000 </r>
       <r>    -9.7494     0.0000     4.0000 </r>
       <r>    -9.6642     0.0000     4.0000 </r>
       <r>    -9.5790     0.0000     4.0000 </r>
       <r>    -9.4937     0.0000     4.0000 </r>
       <r>    -9.4085     0.0000     4.0000 </r>
       <r>    -9.3233     0.0000     4.0000 </r>
       <r>    -9.2381     0.0000     4.0000 </r>
       <r>    -9.1529     0.0000     4.0000 </r>
       <r>    -9.0677     0.4705     4.0179 </r>
       <r>    -8.9825     1.0042     4.0805 </r>
       <r>    -8.8973     1.7992     4.1999 </r>
       <r>    -8.8120     2.6349     4.3965 </r>
       <r>    -8.7268     2.8513     4.6376 </r>
       <r>    -8.6416     3.8170     4.9545 </r>
       <r>    -8.5564     3.1532     5.2515 </r>
       <r>    -8.4712     4.9542     5.5223 </r>
       <r>    -8.3860     3.7862     5.9768 </r>
       <r>    -8.3008     5.2623     6.1692 </r>
       <r>    -8.2156     2.7213     6.4998 </r>
       <r>    -8.1304     1.3272     6.6388 </r>
       <r>    -8.0451     1.1916     6.7462 </r>
       <r>    -7.9599     1.0561     6.8419 </r>
       <r>    -7.8747     0.9205     6.9261 </r>
       <r>    -7.7895     0.8328     6.9995 </r>
       <r>    -7.7043     0.8376     7.0707 </r>
       <r>    -7.6191     0.8423     7.1422 </r>
       <r>    -7.5339     0.8471     7.2142 </r>
       <r>    -7.4487     1.8925     7.3027 </r>
       <r>    -7.3635     4.8476     7.5898 </r>
       <r>    -7.2782     5.1694     8.1238 </r>
       <r>    -7.1930     5.1440     8.5441 </r>
       <r>    -7.1078     3.2527     8.9019 </r>
       <r>    -7.0226     1.4447     9.0996 </r>
       <r>    -6.9374     1.1866     9.2079 </r>
       <r>    -6.8522     1.0904     9.3049 </r>
       <r>    -6.7670     0.9943     9.3937 </r>
       <r>    -6.6818     0.8981     9.4743 </r>
       <r>    -6.5966    11.7354    10.0555 </r>
       <r>    -6.5113     3.8240    10.6375 </r>
       <r>    -6.4261     2.3868    10.9039 </r>
       <r>    -6.3409     2.3831    11.1873 </r>
       <r>    -6.2557     1.8377    11.3536 </r>
       <r>    -6.1705     1.7261    11.5055 </r>
       <r>    -6.0853     1.6144    11.6478 </r>
       <r>    -6.0001     3.5185    11.8140 </r>
       <r>    -5.9149     2.1546    12.0606 </r>
       <r>    -5.8297     1.6829    12.2371 </r>
       <r>    -5.7444     0.8721    12.3356 </r>
       <r>    -5.6592     0.8657    12.4096 </r>
       <r>    -5.5740     0.8593    12.4831 </r>
       <r>    -5.4888     0.8529    12.5560 </r>
       <r>    -5.4036     3.7298    12.7358 </r>
       <r>    -5.3184     9.3188    13.2486 </r>
       <r>    -5.2332     6.9957    13.9641 </r>
       <r>    -5.1480     1.8436    14.3488 </r>
       <r>    -5.0628     1.4983    14.4857 </r>
       <r>    -4.9775     1.4512    14.6112 </r>
       <r>    -4.8923     1.4763    14.7339 </r>
       <r>    -4.8071     1.6598    14.8675 </r>
       <r>    -4.7219     4.3065    15.0346 </r>
       <r>    -4.6367     3.2667    15.4306 </r>
       <r>    -4.5515     2.2952    15.6424 </r>
       <r>    -4.4663     2.7075    15.8462 </r>
       <r>    -4.3811     0.6680    15.9897 </r>
       <r>    -4.2959     1.3776    16.0328 </r>
       <r>    -4.2106     4.2289    16.2763 </r>
       <r>    -4.1254     3.7116    16.6122 </r>
       <r>    -4.0402     3.3935    16.9154 </r>
       <r>    -3.9550     3.0282    17.1890 </r>
       <r>    -3.8698     2.1124    17.4125 </r>
       <r>    -3.7846     1.7988    17.5791 </r>
       <r>    -3.6994     1.4851    17.7190 </r>
       <r>    -3.6142     1.1715    17.8322 </r>
       <r>    -3.5289     0.8521    17.9629 </r>
       <r>    -3.4437     0.0183    18.0000 </r>
       <r>    -3.3585     0.0000    18.0000 </r>
       <r>    -3.2733     0.0000    18.0000 </r>
       <r>    -3.1881     0.0000    18.0000 </r>
       <r>    -3.1029     0.0000    18.0000 </r>
       <r>    -3.0177     0.0000    18.0000 </r>
       <r>    -2.9325     0.0000    18.0000 </r>
       <r>    -2.8473     0.0000    18.0000 </r>
       <r>    -2.7620     0.0000    18.0000 </r>
       <r>    -2.6768     0.0000    18.0000 </r>
       <r>    -2.5916     0.0000    18.0000 </r>
       <r>    -2.5064     0.0000    18.0000 </r>
       <r>    -2.4212     0.0000    18.0000 </r>
       <r>    -2.3360     0.0000    18.0000 </r>
       <r>    -2.2508     0.0000    18.0000 </r>
       <r>    -2.1656     0.0000    18.0000 </r>
       <r>    -2.0804     0.0000    18.0000 </r>
       <r>    -1.9951     0.0000    18.0000 </r>
       <r>    -1.9099     0.0000    18.0000 </r>
       <r>    -1.8247     0.0000    18.0000 </r>
       <r>    -1.7395     0.0000    18.0000 </r>
       <r>    -1.6543     0.0000    18.0000 </r>
       <r>    -1.5691     0.6954    18.0604 </r>
       <r>    -1.4839     0.9178    18.1291 </r>
       <r>    -1.3987     5.8494    18.3585 </r>
       <r>    -1.3135     8.2458    18.9761 </r>
       <r>    -1.2282     0.9480    19.7093 </r>
       <r>    -1.1430     0.8013    19.7838 </r>
       <r>    -1.0578     3.6222    19.9054 </r>
       <r>    -0.9726     5.8939    20.5089 </r>
       <r>    -0.8874     5.6243    20.9359 </r>
       <r>    -0.8022     4.7817    21.3292 </r>
       <r>    -0.7170     4.0620    21.8269 </r>
       <r>    -0.6318     3.2892    22.1427 </r>
       <r>    -0.5466     2.4542    22.3870 </r>
       <r>    -0.4613     2.7157    22.5945 </r>
       <r>    -0.3761     2.6303    22.8148 </r>
       <r>    -0.2909     1.8720    23.0728 </r>
       <r>    -0.2057     2.3696    23.2535 </r>
       <r>    -0.1205     2.0360    23.5021 </r>
       <r>    -0.0353     1.9756    23.6730 </r>
       <r>     0.0499     1.9151    23.8388 </r>
       <r>     0.1351     1.7549    23.9990 </r>
       <r>     0.2203     1.9146    24.1724 </r>
       <r>     0.3056     1.6227    24.3192 </r>
       <r>     0.3908     1.2500    24.4416 </r>
       <r>     0.4760     0.9587    24.5329 </r>
       <r>     0.5612     1.0583    24.6188 </r>
       <r>     0.6464     1.1580    24.7132 </r>
       <r>     0.7316     3.0133    24.8485 </r>
       <r>     0.8168    13.9958    25.2839 </r>
       <r>     0.9020     1.8072    25.5102 </r>
       <r>     0.9873     1.4790    25.6502 </r>
       <r>     1.0725     1.1508    25.7622 </r>
       <r>     1.1577     1.1045    25.8532 </r>
       <r>     1.2429     1.2687    25.9543 </r>
       <r>     1.3281     0.0000    26.0000 </r>
       <r>     1.4133     0.0000    26.0000 </r>
       <r>     1.4985     0.0000    26.0000 </r>
       <r>     1.5837     0.0000    26.0000 </r>
       <r>     1.6689     0.0000    26.0000 </r>
       <r>     1.7542     0.0000    26.0000 </r>
       <r>     1.8394     0.0000    26.0000 </r>
       <r>     1.9246     0.0000    26.0000 </r>
       <r>     2.0098     0.0231    26.0002 </r>
       <r>     2.0950     0.1370    26.0070 </r>
       <r>     2.1802     0.2509    26.0235 </r>
       <r>     2.2654     0.3648    26.0498 </r>
       <r>     2.3506     0.4787    26.0857 </r>
       <r>     2.4358     0.3050    26.1141 </r>
       <r>     2.5211     0.3280    26.1411 </r>
       <r>     2.6063     0.3509    26.1700 </r>
       <r>     2.6915     0.3738    26.2009 </r>
       <r>     2.7767     0.4477    26.2346 </r>
       <r>     2.8619     0.5913    26.2789 </r>
       <r>     2.9471     0.7350    26.3354 </r>
       <r>     3.0323     0.8748    26.4041 </r>
       <r>     3.1175     0.9891    26.4835 </r>
       <r>     3.2027     1.1212    26.5729 </r>
       <r>     3.2880     1.6782    26.6840 </r>
       <r>     3.3732     1.7132    26.8285 </r>
       <r>     3.4584     1.7481    26.9760 </r>
       <r>     3.5436     2.1018    27.1682 </r>
       <r>     3.6288     2.1383    27.3489 </r>
       <r>     3.7140     2.0964    27.5321 </r>
       <r>     3.7992     1.6078    27.6900 </r>
       <r>     3.8844     1.1193    27.8062 </r>
       <r>     3.9696     1.3052    27.9150 </r>
       <r>     4.0549     0.4515    27.9898 </r>
       <r>     4.1401     0.0000    28.0000 </r>
       <r>     4.2253     0.0000    28.0000 </r>
       <r>     4.3105     0.0000    28.0000 </r>
       <r>     4.3957     0.0000    28.0000 </r>
       <r>     4.4809     0.0000    28.0000 </r>
       <r>     4.5661     0.0000    28.0000 </r>
       <r>     4.6513     0.0000    28.0000 </r>
       <r>     4.7365     0.0000    28.0000 </r>
       <r>     4.8218     0.0000    28.0000 </r>
       <r>     4.9070     0.0000    28.0000 </r>
       <r>     4.9922     0.0000    28.0000 </r>
       <r>     5.0774     0.0000    28.0000 </r>
       <r>     5.1626     0.0000    28.0000 </r>
       <r>     5.2478     0.0000    28.0000 </r>
       <r>     5.3330     0.0000    28.0000 </r>
       <r>     5.4182     0.0000    28.0000 </r>
       <r>     5.5035     0.0000    28.0000 </r>
       <r>     5.5887     0.0000    28.0000 </r>
       <r>     5.6739     0.0000    28.0000 </r>
       <r>     5.7591     0.0000    28.0000 </r>
       <r>     5.8443     0.0000    28.0000 </r>
       <r>     5.9295     0.0000    28.0000 </r>
       <r>     6.0147     0.0000    28.0000 </r>
       <r>     6.0999     0.0000    28.0000 </r>
      </set>
     </set>
    </array>
   </total>
  </dos>
 </calculation>
 <structure name="finalpos" >
  <crystal>
   <varray name="basis" >
    <v>       3.19031573       0.00000000       0.00000000 </v>
    <v>      -1.59515786       2.76289447       0.00000000 </v>
    <v>       0.00000000       0.00000000      26.87900430 </v>
   </varray>
   <i name="volume">    236.92513614 </i>
   <varray name="rec_basis" >
    <v>       0.31344860       0.18096963       0.00000000 </v>
    <v>       0.00000000       0.36193927       0.00000000 </v>
    <v>       0.00000000       0.00000000       0.03720376 </v>
   </varray>
  </crystal>
  <varray name="positions" >
   <v>       0.33333300       0.66666700       0.13838872 </v>
   <v>       0.66666700       0.33333300       0.08016914 </v>
   <v>       0.66666600       0.33333300       0.19660830 </v>
  </varray>
 </structure>
</modeling>
