unknown system                          
   1.00000000000000     
     3.190316    0.000000    0.000000
    -1.595158    2.762894    0.000000
     0.000000    0.000000   28.879004
   Mo   S 
     1     2
Direct
  0.333333  0.666667  0.128805
  0.666667  0.333333  0.074617
  0.666666  0.333333  0.182992
 
   24   24  224
 0.39729     0.40308     0.41877     0.44608     0.48779     0.54321     0.60763     0.67538     0.74159     0.80208    
 0.85282     0.88783     0.89852     0.88017     0.83973     0.79135     0.74159     0.68491     0.61713     0.54675    
 0.48777     0.44600     0.41849     0.40226     0.40280     0.40335     0.41777     0.44675     0.49228     0.55500    
 0.63296     0.72174     0.81355     0.89841     0.96928      1.0238      1.0577      1.0601      1.0235     0.95611    
 0.87683     0.79805     0.71935     0.63848     0.56094     0.49578     0.44783     0.41720     0.41892     0.40955    
 0.41842     0.44725     0.49589     0.56263     0.64719     0.74921     0.86275     0.97509      1.0731      1.1498    
  1.2030      1.2285      1.2175      1.1633      1.0718     0.96073     0.84919     0.74604     0.65128     0.56580    
 0.49571     0.44673     0.44772     0.42516     0.42206     0.44516     0.49593     0.56723     0.65589     0.76551    
 0.89364      1.0271      1.1516      1.2572      1.3338      1.3740      1.3785      1.3491      1.2795      1.1663    
  1.0267     0.88893     0.76677     0.65758     0.56245     0.49134     0.48777     0.45243     0.43371     0.44157    
 0.48778     0.56295     0.65472     0.76857     0.90923      1.0606      1.2041      1.3355      1.4466      1.5133    
  1.5247      1.4980      1.4466      1.3566      1.2190      1.0592     0.90923     0.77455     0.65085     0.55091    
 0.53513     0.48686     0.45624     0.44299     0.47261     0.54612     0.63906     0.74953     0.89586      1.0677    
  1.2307      1.3762      1.5158      1.6287      1.6728      1.6474      1.5901      1.5111      1.3880      1.2240    
  1.0570     0.90553     0.75930     0.62632     0.59089     0.52166     0.48498     0.45547     0.45880     0.51994    
 0.61347     0.71532     0.84940      1.0314      1.2208      1.3799      1.5266      1.6739      1.7755      1.7878    
  1.7344      1.6547      1.5397      1.3747      1.1928      1.0301     0.87586     0.71825     0.66059     0.55738    
 0.51102     0.47646     0.45452     0.48981     0.58031     0.68057     0.79222     0.95773      1.1646      1.3495    
  1.4979      1.6468      1.7870      1.8569      1.8396      1.7756      1.6774      1.5206      1.3227      1.1403    
 0.98342     0.81965     0.74159     0.60128     0.53090     0.49554     0.46048     0.46198     0.53449     0.64001    
 0.74159     0.87436      1.0698      1.2792      1.4466      1.5888      1.7327      1.8388      1.8631      1.8273    
  1.7607      1.6383      1.4466      1.2411      1.0713     0.91293     0.81718     0.65529     0.55058     0.50506    
 0.46955     0.44459     0.48081     0.57826     0.68454     0.79521     0.95664      1.1648      1.3574      1.5115    
  1.6540      1.7757      1.8280      1.8100      1.7636      1.6849      1.5333      1.3283      1.1391     0.98140    
 0.86945     0.70889     0.57715     0.50823     0.47291     0.43990     0.43953     0.50478     0.60694     0.71165    
 0.84149      1.0215      1.2177      1.3880      1.5396      1.6782      1.7624      1.7643      1.7196      1.6595    
  1.5544      1.3818      1.1882      1.0224     0.89427     0.74681     0.60807     0.51425     0.46815     0.43774    
 0.42055     0.44824     0.52473     0.62075     0.73130     0.87792      1.0530      1.2207      1.3723      1.5199    
  1.6396      1.6853      1.6582      1.5997      1.5180      1.3864      1.2128      1.0432     0.89852     0.76172    
 0.63160     0.52621     0.46187     0.42751     0.40904     0.41636     0.46186     0.53633     0.62976     0.75025    
 0.89853      1.0504      1.1880      1.3200      1.4466      1.5338      1.5529      1.5159      1.4466      1.3436    
  1.2026      1.0456     0.88660     0.75707     0.63839     0.53716     0.46173     0.41413     0.39084     0.39145    
 0.41798     0.46834     0.54002     0.63697     0.76054     0.89653      1.0244      1.1377      1.2414      1.3297    
  1.3828      1.3866      1.3438      1.2634      1.1527      1.0221     0.85636     0.73943     0.62970     0.53857    
 0.46645     0.41031     0.37478     0.36625     0.38196     0.41478     0.46469     0.53716     0.63329     0.74703    
 0.86768     0.98084      1.0733      1.1420      1.1910      1.2174      1.2076      1.1550      1.0700     0.96819    
 0.80648     0.71142     0.61292     0.52975     0.46763     0.41625     0.37420     0.35358     0.35781     0.37719    
 0.40875     0.45944     0.52920     0.61105     0.70562     0.81338     0.91540     0.98646      1.0254      1.0485    
  1.0556      1.0297     0.96905     0.89129     0.74159     0.67218     0.59214     0.51688     0.46188     0.42090    
 0.38385     0.35826     0.35340     0.36230     0.37842     0.41032     0.46186     0.51951     0.57722     0.64982    
 0.74159     0.82544     0.87564     0.89859     0.90923     0.90082     0.86232     0.80413     0.67007     0.62277    
 0.56615     0.50478     0.45540     0.42150     0.39288     0.36970     0.36184     0.36656     0.37320     0.38737    
 0.42258     0.47092     0.51172     0.54712     0.59806     0.66483     0.72227     0.75584     0.77275     0.77580    
 0.75615     0.71589     0.60033     0.56921     0.53443     0.49292     0.45441     0.42696     0.40539     0.38594    
 0.37655     0.38023     0.38561     0.38798     0.40174     0.43629     0.47656     0.50501     0.52718     0.55762    
 0.59453     0.62581     0.64742     0.65923     0.65492     0.63187     0.53865     0.51967     0.50115     0.47948    
 0.45742     0.44137     0.42988     0.41748     0.40745     0.40730     0.41323     0.41418     0.41143     0.41908    
 0.44282     0.47171     0.49407     0.50958     0.52286     0.53579     0.54890     0.56097     0.56556     0.55683    
 0.48779     0.47900     0.47200     0.46587     0.46046     0.45891     0.46171     0.46378     0.46188     0.46016    
 0.46292     0.46604     0.46187     0.45098     0.44318     0.44679     0.46048     0.47578     0.48504     0.48730    
 0.48778     0.49115     0.49546     0.49481     0.44768     0.44740     0.44960     0.45547     0.46440     0.47659    
 0.49295     0.51169     0.52738     0.53582     0.53861     0.54000     0.53934     0.53002     0.50827     0.48082    
 0.46050     0.45380     0.45550     0.45621     0.45267     0.44854     0.44728     0.44781     0.41863     0.42397    
 0.43361     0.44957     0.47186     0.49823     0.52727     0.55920     0.59200     0.61895     0.63337     0.63553    
 0.63146     0.62381     0.60701     0.57477     0.53076     0.48832     0.45888     0.44299     0.43357     0.42541    
 0.41899     0.41667     0.40196     0.40925     0.42346     0.44686     0.48094     0.52309     0.56871     0.61532    
 0.66216     0.70589     0.73893     0.75370     0.74907     0.73158     0.70839     0.67898     0.63679     0.58058    
 0.52116     0.47309     0.44181     0.42232     0.40904     0.40174     0.53215     0.54232     0.57106     0.62022    
 0.69254     0.78638     0.89499      1.0097      1.1220      1.2236      1.3070      1.3630      1.3808      1.3549    
  1.2931      1.2122      1.1219      1.0198     0.90509     0.79015     0.69253     0.62016     0.57076     0.54144    
 0.54202     0.54258     0.56908     0.62189     0.70235     0.80986     0.94042      1.0866      1.2368      1.3762    
  1.4934      1.5819      1.6340      1.6366      1.5816      1.4795      1.3534      1.2204      1.0842     0.94626    
 0.81608     0.70601     0.62304     0.56852     0.57120     0.55407     0.57069     0.62242     0.70797     0.82387    
 0.96758      1.1359      1.3193      1.5002      1.6603      1.7869      1.8730      1.9104      1.8883      1.8013    
  1.6589      1.4851      1.3050      1.1325     0.97181     0.82717     0.70779     0.62187     0.62194     0.58090    
 0.57766     0.61928     0.70614     0.82866     0.98088      1.1637      1.3714      1.5864      1.7892      1.9633    
  2.0912      2.1590      2.1638      2.1074      1.9868      1.8048      1.5861      1.3664      1.1650     0.98266    
 0.82364     0.70131     0.69253     0.62597     0.59619     0.61450     0.69253     0.81818     0.97540      1.1669    
  1.3945      1.6384      1.8747      2.0931      2.2770      2.3923      2.4202      2.3761      2.2770      2.1153    
  1.8903      1.6368      1.3946      1.1732     0.97138     0.80549     0.77789     0.68471     0.63035     0.61635    
 0.66967     0.78950     0.94685      1.1362      1.3737      1.6459      1.9131      2.1614      2.3948      2.5806    
  2.6638      2.6371      2.5398      2.3899      2.1739      1.9060      1.6346      1.3840      1.1466     0.93342    
 0.87735     0.74937     0.67578     0.63263     0.64812     0.74758     0.90128      1.0799      1.3052      1.5910    
  1.8922      2.1653      2.4220      2.6649      2.8320      2.8663      2.7886      2.6446      2.4358      2.1598    
  1.8626      1.5896      1.3332      1.0830     0.99408     0.81890     0.72267     0.66145     0.63823     0.70022    
 0.84317      1.0153      1.2143      1.4820      1.8030      2.1079      2.3759      2.6363      2.8654      2.9842    
  2.9659      2.8533      2.6685      2.3999      2.0796      1.7773      1.5091      1.2432      1.1219     0.89843    
 0.76594     0.69161     0.64182     0.65608     0.76966     0.93933      1.1219      1.3508      1.6569      1.9866    
  2.2770      2.5385      2.7867      2.9651      3.0144      2.9528      2.8163      2.5909      2.2770      1.9463    
  1.6585      1.3916      1.2395     0.98695     0.80967     0.71392     0.65148     0.62510     0.68828     0.83886    
  1.0178      1.2162      1.4801      1.8028      2.1162      2.3903      2.6440      2.8535      2.9536      2.9346    
  2.8408      2.6767      2.4135      2.0853      1.7757      1.5062      1.3245      1.0703     0.85890     0.73017    
 0.65724     0.61013     0.62201     0.72657     0.89041      1.0731      1.2949      1.5795      1.8885      2.1739    
  2.4359      2.6696      2.8182      2.8414      2.7729      2.6498      2.4516      2.1673      1.8573      1.5804    
  1.3698      1.1297     0.90862     0.74827     0.65559     0.60036     0.58222     0.63462     0.75947     0.92211    
  1.1133      1.3524      1.6290      1.9020      2.1573      2.3993      2.5922      2.6769      2.6482      2.5500    
  2.3972      2.1722      1.8937      1.6187      1.3808      1.1556     0.94452     0.76980     0.65236     0.58433    
 0.55382     0.57250     0.65235     0.78057     0.94262      1.1434      1.3808      1.6263      1.8571      2.0766    
  2.2770      2.4138      2.4497      2.3949      2.2770      2.1016      1.8726      1.6212      1.3616      1.1507    
 0.95554     0.78613     0.65464     0.56683     0.52235     0.52287     0.57073     0.66157     0.78919     0.95400    
  1.1543      1.3722      1.5826      1.7742      1.9465      2.0869      2.1684      2.1724      2.1018      1.9699    
  1.7900      1.5800      1.3106      1.1219     0.94256     0.78762     0.66043     0.56103     0.49759     0.47949    
 0.50502     0.56569     0.65861     0.78611     0.94626      1.1299      1.3227      1.5057      1.6605      1.7790    
  1.8608      1.8991      1.8783      1.7928      1.6571      1.4922      1.2282      1.0729     0.91380     0.77359    
 0.66078     0.56719     0.49419     0.45721     0.46165     0.49736     0.55939     0.65220     0.77291     0.91175    
  1.0668      1.2355      1.3941      1.5122      1.5847      1.6256      1.6330      1.5892      1.4939      1.3688    
  1.1220      1.0047     0.87476     0.75117     0.65237     0.57380     0.50701     0.46212     0.45073     0.46635    
 0.50138     0.56281     0.65235     0.75381     0.85898     0.98118      1.1219      1.2493      1.3330      1.3767    
  1.3945      1.3789      1.3189      1.2269      1.0042     0.92110     0.82606     0.72660     0.64220     0.57796    
 0.52443     0.48315     0.46587     0.47076     0.48674     0.51870     0.57920     0.65852     0.73382     0.80603    
 0.89508     0.99858      1.0872      1.1429      1.1714      1.1745      1.1432      1.0805     0.88739     0.83143    
 0.76958     0.70105     0.63774     0.58904     0.55002     0.51718     0.49941     0.50048     0.50883     0.51927    
 0.54622     0.59887     0.66104     0.71386     0.76207     0.81918     0.88114     0.93284     0.96780     0.98441    
 0.97561     0.93925     0.78161     0.74730     0.71221     0.67455     0.63863     0.61167     0.59206     0.57373    
 0.55978     0.55788     0.56406     0.56677     0.56736     0.58069     0.61315     0.65370     0.69007     0.72119    
 0.75060     0.77851     0.80340     0.82211     0.82689     0.81171     0.69254     0.67641     0.66208     0.65025    
 0.64181     0.64020     0.64534     0.65090     0.65237     0.65303     0.65679     0.65917     0.65236     0.63749    
 0.62581     0.62735     0.64182     0.66077     0.67587     0.68513     0.69253     0.70117     0.70754     0.70497    
 0.62191     0.62064     0.62336     0.63267     0.64874     0.67159     0.70111     0.73379     0.76210     0.77994    
 0.78768     0.78915     0.78370     0.76498     0.73023     0.68828     0.65454     0.63752     0.63269     0.63031    
 0.62620     0.62287     0.62248     0.62300     0.57090     0.57967     0.59608     0.62330     0.66192     0.70918    
 0.76214     0.81881     0.87460     0.92010     0.94636     0.95246     0.94436     0.92527     0.89049     0.83525    
 0.76578     0.69868     0.64820     0.61634     0.59603     0.58118     0.57128     0.56791     0.54112     0.55380    
 0.57913     0.62004     0.67841     0.75086     0.83089     0.91331     0.99425      1.0671      1.1213      1.1471    
  1.1422      1.1135      1.0697      1.0120     0.93597     0.84343     0.74882     0.67015     0.61475     0.57791    
 0.55353     0.54086     0.71279     0.73061     0.78173     0.86696     0.98745      1.1393      1.3127      1.4954    
  1.6742      1.8358      1.9670      2.0539      2.0824      2.0453      1.9522      1.8236      1.6742      1.5062    
  1.3235      1.1433     0.98748     0.86694     0.78142     0.72966     0.73028     0.73086     0.77722     0.86832    
  1.0032      1.1782      1.3862      1.6160      1.8512      2.0707      2.2560      2.3944      2.4731      2.4758    
  2.3940      2.2411      2.0464      1.8339      1.6135      1.3924      1.1848      1.0070     0.86957     0.77665    
 0.78187     0.75247     0.78135     0.86889      1.0110      1.2006      1.4315      1.6971      1.9831      2.2653    
  2.5167      2.7163      2.8497      2.9039      2.8659      2.7315      2.5153      2.2493      1.9679      1.6934    
  1.4359      1.2040      1.0108     0.86830     0.86880     0.79953     0.79610     0.86599      1.0071      1.2056    
  1.4512      1.7417      2.0671      2.4032      2.7211      2.9938      3.1939      3.2997      3.3048      3.2111    
  3.0189      2.7377      2.4028      2.0617      1.7429      1.4531      1.2003      1.0020     0.98748     0.87458    
 0.82838     0.86241     0.98746      1.1870      1.4396      1.7448      2.1014      2.4829      2.8557      3.1982    
  3.4813      3.6601      3.7091      3.6429      3.4813      3.2217      2.8723      2.4811      2.1014      1.7517    
  1.4354      1.1735      1.1303     0.97185     0.88286     0.86803     0.95593      1.1426      1.3930      1.6972    
  2.0693      2.4907      2.9116      3.3058      3.6645      3.9417      4.0717      4.0432      3.8983      3.6592    
  3.3190      2.9041      2.4787      2.0803      1.7083      1.3788      1.2940      1.0817     0.95491     0.89230    
 0.92555      1.0798      1.3195      1.6091      1.9681      2.4079      2.8741      3.3099      3.7133      4.0738    
  4.3160      4.3745      4.2699      4.0522      3.7280      3.3041      2.8428      2.4065      1.9978      1.6123    
  1.4788      1.2009      1.0334     0.93409     0.90939      1.0095      1.2267      1.5015      1.8276      2.2460    
  2.7357      3.2138      3.6443      4.0434      4.3738      4.5449      4.5255      4.3611      4.0777      3.6698    
  3.1837      2.7084      2.2748      1.8581      1.6742      1.3321      1.1114     0.98161     0.91117     0.94386    
  1.1153      1.3755      1.6742      2.0438      2.5132      3.0187      3.4814      3.8970      4.2679      4.5247    
  4.5999      4.5117      4.2993      3.9525      3.4813      2.9759      2.5148      2.0870      1.8527      1.4705    
  1.1910      1.0244     0.92404     0.89608     0.99719      1.2219      1.5031      1.8278      2.2418      2.7333    
  3.2204      3.6580      4.0507      4.3610      4.5126      4.4923      4.3473      4.0853      3.6826      3.1877    
  2.7044      2.2695      1.9856      1.5971      1.2744      1.0626     0.93738     0.87091     0.90004      1.0588    
  1.3078      1.6001      1.9541      2.3917      2.8662      3.3156      3.7258      4.0779      4.3013      4.3484    
  4.2532      4.0568      3.7424      3.3086      2.8330      2.3927      2.0611      1.6883      1.3529      1.1020    
 0.94615     0.85737     0.83810     0.92393      1.1140      1.3674      1.6709      2.0427      2.4677      2.8951    
  3.2979      3.6675      3.9539      4.0866      4.0561      3.9092      3.6653      3.3137      2.8862      2.4569    
  2.0824      1.7308      1.4082      1.1410     0.95390     0.84209     0.79601     0.82945     0.95390      1.1525    
  1.4063      1.7179      2.0824      2.4649      2.8328      3.1784      3.4814      3.6847      3.7427      3.6645    
  3.4813      3.2050      2.8493      2.4595      2.0525      1.7256      1.4260      1.1672     0.96482     0.82742    
 0.75716     0.75759     0.83136     0.97215      1.1705      1.4243      1.7294      2.0637      2.3950      2.7028    
  2.9761      3.1917      3.3132      3.3173      3.2073      3.0009      2.7196      2.3923      1.9707      1.6801    
  1.4062      1.1688     0.97408     0.82413     0.72925     0.70059     0.73694     0.82897     0.97221      1.1672    
  1.4100      1.6886      1.9837      2.2690      2.5169      2.7103      2.8410      2.8967      2.8594      2.7249    
  2.5134      2.2547      1.8405      1.5998      1.3585      1.1450     0.97124     0.83053     0.72530     0.67213    
 0.67677     0.72864     0.82240     0.96224      1.1442      1.3563      1.5936      1.8484      2.0896      2.2780    
  2.4014      2.4692      2.4769      2.4060      2.2587      2.0629      1.6742      1.4892      1.2912      1.1052    
 0.95389     0.83461     0.73905     0.67728     0.66056     0.68171     0.73321     0.82319     0.95390      1.1078    
  1.2745      1.4644      1.6742      1.8645      1.9976      2.0727      2.1014      2.0748      1.9826      1.8409    
  1.4897      1.3561      1.2083      1.0589     0.93204     0.83530     0.75929     0.70445     0.68121     0.68628    
 0.70817     0.75335     0.83674     0.94920      1.0664      1.1871      1.3286      1.4837      1.6167      1.7045    
  1.7497      1.7530      1.7047      1.6097      1.3048      1.2143      1.1152      1.0107     0.91674     0.84540    
 0.79206     0.75171     0.73112     0.73187     0.74091     0.75382     0.78808     0.85579     0.94134      1.0243    
  1.1074      1.2013      1.2980      1.3781      1.4317      1.4550      1.4399      1.3849      1.1343      1.0796    
  1.0223     0.96344     0.91038     0.87249     0.84853     0.83085     0.81996     0.82082     0.82726     0.82722    
 0.82408     0.83654     0.87405     0.92636     0.98000      1.0318      1.0830      1.1309      1.1713      1.1987    
  1.2037      1.1801     0.98745     0.96306     0.94036     0.92216     0.91117     0.91204     0.92467     0.94110    
 0.95389     0.96320     0.97035     0.96964     0.95390     0.92698     0.90401     0.89836     0.91117     0.93338    
 0.95501     0.97228     0.98746      1.0019      1.0106      1.0059     0.86876     0.86893     0.87547     0.89234    
 0.92060     0.96039      1.0108      1.0664      1.1166      1.1517      1.1689      1.1705      1.1557      1.1198    
  1.0627     0.99713     0.94225     0.90871     0.89239     0.88282     0.87481     0.86981     0.86897     0.86950    
 0.78156     0.79825     0.82829     0.87538     0.94019      1.0191      1.1075      1.2007      1.2911      1.3651    
  1.4101      1.4226      1.4080      1.3706      1.3079      1.2181      1.1113      1.0080     0.92562     0.86798    
 0.82822     0.79984     0.78196     0.77596     0.72932     0.75223     0.79766     0.86825     0.96513      1.0833    
  1.2137      1.3479      1.4783      1.5938      1.6795      1.7217      1.7165      1.6712      1.5965      1.4971    
  1.3720      1.2270      1.0811     0.95637     0.86268     0.79638     0.75188     0.72900     0.96252     0.99158    
  1.0753      1.2123      1.4009      1.6343      1.8998      2.1812      2.4597      2.7140      2.9212      3.0584    
  3.1042      3.0491      2.9054      2.7010      2.4598      2.1928      1.9113      1.6386      1.4010      1.2123    
  1.0750     0.99054     0.99122     0.99185      1.0661      1.2109      1.4218      1.6920      2.0114      2.3654    
  2.7316      3.0796      3.3784      3.6020      3.7269      3.7297      3.6016      3.3625      3.0539      2.7133    
  2.3628      2.0180      1.6990      1.4259      1.2122      1.0655      1.0755      1.0293      1.0749      1.2114    
  1.4316      1.7245      2.0816      2.4935      2.9411      3.3901      3.7985      4.1277      4.3471      4.4319    
  4.3644      4.1440      3.7970      3.3731      2.9249      2.4896      2.0862      1.7282      1.4313      1.2108    
  1.2143      1.1072      1.1035      1.2113      1.4260      1.7298      2.1101      2.5633      3.0761      3.6150    
  4.1350      4.5878      4.9237      5.1027      5.1082      4.9422      4.6146      4.1526      3.6144      3.0702    
  2.5646      2.1121      1.7242      1.4205      1.4010      1.2263      1.1586      1.2133      1.4009      1.7013    
  2.0901      2.5666      3.1284      3.7418      4.3572      4.9303      5.4053      5.7107      5.8031      5.6924    
  5.4053      4.9554      4.3748      3.7398      3.1285      2.5739      2.0857      1.6870      1.6248      1.3785    
  1.2442      1.2284      1.3616      1.6380      2.0186      2.4935      3.0783      3.7499      4.4442      5.1123    
  5.7169      6.1802      6.4091      6.3787      6.1339      5.7112      5.1264      4.4363      3.7373      3.0901    
  2.5054      2.0035      1.8799      1.5516      1.3545      1.2668      1.3232      1.5497      1.9071      2.3581    
  2.9252      3.6199      4.3767      5.1166      5.8097      6.4122      6.8147      6.9275      6.7655      6.3892    
  5.8253      5.1105      4.3434      3.6184      2.9568      2.3614      2.1636      1.7402      1.4766      1.3277    
  1.3014      1.4511      1.7677      2.1879      2.7067      3.3696      4.1505      4.9469      5.6954      6.3797    
  6.9271      7.2143      7.1937      6.9137      6.4163      5.7224      4.9149      4.1214      3.4002      2.7391    
  2.4598      1.9442      1.6018      1.3987      1.3018      1.3584      1.6059      1.9903      2.4597      3.0511    
  3.7949      4.6144      5.4053      6.1324      6.7635      7.1928      7.3274      7.1790      6.7969      6.1916    
  5.4053      4.5688      3.7966      3.0970      2.7319      2.1541      1.7297      1.4677      1.3182      1.2884    
  1.4388      1.7626      2.1886      2.7054      3.3632      4.1459      4.9521      5.7084      6.3867      6.9132    
  7.1799      7.1583      6.8986      6.4235      5.7346      4.9173      4.1151      3.3928      2.9409      2.3439    
  1.8592      1.5331      1.3389      1.2476      1.2992      1.5292      1.8949      2.3470      2.9073      3.5990    
  4.3647      5.1196      5.8209      6.4156      6.7990      6.9000      6.7478      6.3932      5.8386      5.1122    
  4.3293      3.6002      3.0660      2.4822      1.9767      1.5982      1.3572      1.2245      1.2040      1.3336    
  1.6111      1.9922      2.4637      3.0463      3.7211      4.4225      5.1008      5.7185      6.1931      6.4257    
  6.3934      6.1455      5.7162      5.1176      4.4130      3.7095      3.1042      2.5496      2.0580      1.6578    
  1.3748      1.2043      1.1377      1.1907      1.3748      1.6702      2.0560      2.5359      3.1042      3.7181    
  4.3291      4.9073      5.4053      5.7384      5.8410      5.7168      5.4053      4.9357      4.3466      3.7123    
  3.0567      2.5442      2.0849      1.6957      1.3933      1.1876      1.0823      1.0826      1.1916      1.4011    
  1.6992      2.0830      2.5481      3.0688      3.6027      4.1133      4.5690      4.9235      5.1202      5.1245    
  4.9400      4.5955      4.1314      3.5997      2.9250      2.4734      2.0560      1.6974      1.4057      1.1841    
  1.0449      1.0012      1.0528      1.1891      1.4038      1.6956      2.0598      2.4825      2.9390      3.3921    
  3.7987      4.1234      4.3415      4.4284      4.3610      4.1390      3.7952      3.3770      2.7188      2.3466    
  1.9827      1.6622      1.4001      1.1908      1.0381     0.96062     0.96545      1.0415      1.1823      1.3906    
  1.6611      1.9802      2.3401      2.7274      3.0998      3.4036      3.6130      3.7272      3.7353      3.6178    
  3.3832      3.0714      2.4597      2.1738      1.8772      1.6018      1.3748      1.1951      1.0550     0.96600    
 0.94029     0.97064      1.0490      1.1832      1.3748      1.6043      1.8593      2.1476      2.4597      2.7459    
  2.9566      3.0821      3.1284      3.0842      2.9406      2.7209      2.1752      1.9697      1.7481      1.5294    
  1.3423      1.1970      1.0845      1.0052     0.97011     0.97542      1.0092      1.0783      1.1987      1.3604    
  1.5371      1.7257      1.9405      2.1687      2.3661      2.5014      2.5720      2.5753      2.5015      2.3588    
  1.8915      1.7545      1.6058      1.4532      1.3170      1.2118      1.1336      1.0765      1.0468      1.0449    
  1.0569      1.0786      1.1294      1.2229      1.3430      1.4677      1.5976      1.7406      1.8840      2.0027    
  2.0818      2.1141      2.0903      2.0100      1.6290      1.5494      1.4647      1.3793      1.3036      1.2492    
  1.2151      1.1923      1.1798      1.1807      1.1874      1.1872      1.1851      1.2024      1.2509      1.3206    
  1.3970      1.4749      1.5529      1.6254      1.6847      1.7226      1.7278      1.6939      1.4009      1.3692    
  1.3389      1.3150      1.3018      1.3054      1.3252      1.3518      1.3748      1.3917      1.4019      1.3985    
  1.3748      1.3369      1.3033      1.2908      1.3018      1.3270      1.3546      1.3790      1.4009      1.4205    
  1.4311      1.4246      1.2142      1.2203      1.2363      1.2668      1.3134      1.3761      1.4533      1.5372    
  1.6137      1.6691      1.6975      1.6992      1.6736      1.6172      1.5332      1.4387      1.3567      1.3007    
  1.2669      1.2442      1.2266      1.2154      1.2115      1.2121      1.0752      1.1059      1.1585      1.2362    
  1.3388      1.4614      1.5977      1.7402      1.8770      1.9895      2.0599      2.0812      2.0579      1.9955    
  1.8949      1.7586      1.6017      1.4495      1.3232      1.2283      1.1584      1.1075      1.0756      1.0648    
 0.99020      1.0291      1.1052      1.2196      1.3713      1.5533      1.7538      1.9611      2.1624      2.3404    
  2.4728      2.5399      2.5343      2.4639      2.3432      2.1824      1.9867      1.7680      1.5510      1.3620    
  1.2136      1.1039      1.0287     0.98985      1.3080      1.3517      1.4781      1.6835      1.9640      2.3116    
  2.7121      3.1456      3.5845      3.9929      4.3300      4.5541      4.6305      4.5442      4.3129      3.9789    
  3.5845      3.1581      2.7246      2.3162      1.9640      1.6835      1.4778      1.3506      1.3513      1.3521    
  1.4619      1.6762      1.9891      2.3935      2.8789      3.4283      4.0110      4.5796      5.0792      5.4573    
  5.6666      5.6696      5.4567      5.0623      4.5522      3.9916      3.4256      2.8860      2.4009      1.9935    
  1.6775      1.4611      1.4783      1.4112      1.4777      1.6767      2.0006      2.4392      2.9856      3.6309    
  4.3495      5.0902      5.7828      6.3534      6.7358      6.8789      6.7543      6.3708      5.7814      5.0721    
  4.3322      3.6266      2.9905      2.4430      2.0003      1.6761      1.6856      1.5308      1.5268      1.6822    
  1.9935      2.4447      3.0271      3.7410      4.5707      5.4680      6.3590      7.1536      7.7541      8.0779    
  8.0837      7.7738      7.1823      6.3778      5.4673      4.5642      3.7423      3.0293      2.4387      1.9878    
  1.9640      1.7093      1.6146      1.6954      1.9640      2.4033      2.9945      3.7443      4.6535      5.6783    
  6.7426      7.7587      8.6140      9.1771      9.3600      9.1576      8.6140      7.7855      6.7613      5.6760    
  4.6535      3.7523      2.9899      2.3881      2.3014      1.9360      1.7436      1.7267      1.9180      2.3156    
  2.8867      3.6307      4.5727      5.6868      6.8871      8.0842      9.1818      10.030      10.469      10.437    
  9.9807      9.1756      8.0992      6.8787      5.6733      4.5855      3.6436      2.8704      2.6910      2.1970    