unknown system                          
   1.00000000000000     
     3.190316    0.000000    0.000000
    -1.595158    2.762894    0.000000
     0.000000    0.000000   28.879004
   Mo   S 
     1     2
Direct
  0.333333  0.666667  0.128805
  0.666667  0.333333  0.074617
  0.666666  0.333333  0.182992
 
   24   24  224
 0.39728987718E+00 0.40308435481E+00 0.41877258814E+00 0.44607721501E+00 0.48778815838E+00
 0.54320914477E+00 0.60762591106E+00 0.67538498699E+00 0.74159436107E+00 0.80208250737E+00
 0.85282480912E+00 0.88783164513E+00 0.89852384809E+00 0.88016655990E+00 0.83972551057E+00
 0.79135165767E+00 0.74158973199E+00 0.68491224219E+00 0.61712644505E+00 0.54675496593E+00
 0.48777341374E+00 0.44600471312E+00 0.41848860744E+00 0.40226326895E+00 0.40279965266E+00
 0.40334586800E+00 0.41776917176E+00 0.44674842027E+00 0.49228053981E+00 0.55500099674E+00
 0.63296240378E+00 0.72173779252E+00 0.81355367946E+00 0.89841493008E+00 0.96928471043E+00
 0.10238444015E+01 0.10576967506E+01 0.10600769517E+01 0.10235050352E+01 0.95610739765E+00
 0.87682822241E+00 0.79805340753E+00 0.71935105481E+00 0.63848427780E+00 0.56093907355E+00
 0.49578325377E+00 0.44782550098E+00 0.41719809792E+00 0.41891678899E+00 0.40954767991E+00
 0.41841850391E+00 0.44724832839E+00 0.49588911196E+00 0.56263303367E+00 0.64718980715E+00
 0.74920648774E+00 0.86274508860E+00 0.97508548828E+00 0.10731060507E+01 0.11498169170E+01
 0.12030441933E+01 0.12285460737E+01 0.12174691723E+01 0.11633470144E+01 0.10717739833E+01
 0.96072640378E+00 0.84918748431E+00 0.74603992663E+00 0.65127662379E+00 0.56579588401E+00
 0.49570567490E+00 0.44672924577E+00 0.44771567093E+00 0.42515636337E+00 0.42206243201E+00
 0.44516139920E+00 0.49593266024E+00 0.56723264551E+00 0.65588674162E+00 0.76550629160E+00
 0.89363648936E+00 0.10270522981E+01 0.11516225356E+01 0.12572204068E+01 0.13338157653E+01
 0.13739775456E+01 0.13784883756E+01 0.13491204230E+01 0.12794747037E+01 0.11663004522E+01
 0.10267226340E+01 0.88892980965E+00 0.76676799939E+00 0.65757726402E+00 0.56245228640E+00
 0.49134339516E+00 0.48777339930E+00 0.45243162879E+00 0.43371353840E+00 0.44157292995E+00
 0.48777661301E+00 0.56295463414E+00 0.65471652413E+00 0.76856659676E+00 0.90922962368E+00
 0.10606463817E+01 0.12041157428E+01 0.13355257013E+01 0.14465623914E+01 0.15133424873E+01
 0.15246817596E+01 0.14979883250E+01 0.14465630891E+01 0.13565583650E+01 0.12189926194E+01
 0.10591597204E+01 0.90923274444E+00 0.77455176333E+00 0.65084845596E+00 0.55090796765E+00
 0.53513034318E+00 0.48685582543E+00 0.45624347488E+00 0.44298911733E+00 0.47261049535E+00
 0.54612084362E+00 0.63906402462E+00 0.74952872602E+00 0.89585598670E+00 0.10677392753E+01
 0.12306511272E+01 0.13761977681E+01 0.15157961629E+01 0.16286523951E+01 0.16727510586E+01
 0.16474262061E+01 0.15900815929E+01 0.15111487435E+01 0.13879952143E+01 0.12239936429E+01
 0.10570298217E+01 0.90553065114E+00 0.75929718997E+00 0.62632329777E+00 0.59088516397E+00
 0.52166099573E+00 0.48498006216E+00 0.45546518420E+00 0.45880265752E+00 0.51993665741E+00
 0.61346635905E+00 0.71532417958E+00 0.84940014911E+00 0.10314141075E+01 0.12207685224E+01
 0.13799460946E+01 0.15266096204E+01 0.16738882604E+01 0.17755362257E+01 0.17878446729E+01
 0.17344281092E+01 0.16546623125E+01 0.15397163300E+01 0.13747379772E+01 0.11927513295E+01
 0.10300662160E+01 0.87585695194E+00 0.71825482302E+00 0.66058540883E+00 0.55738434535E+00
 0.51101525039E+00 0.47646050403E+00 0.45452003046E+00 0.48980750132E+00 0.58031330647E+00
 0.68057436877E+00 0.79221952590E+00 0.95773064255E+00 0.11646461733E+01 0.13495414978E+01
 0.14979229123E+01 0.16468369282E+01 0.17870005755E+01 0.18569059603E+01 0.18395697176E+01
 0.17755653600E+01 0.16773565328E+01 0.15205857352E+01 0.13227368184E+01 0.11402626389E+01
 0.98342060724E+00 0.81965137693E+00 0.74158973961E+00 0.60127559887E+00 0.53090229769E+00
 0.49554207424E+00 0.46047872414E+00 0.46198169537E+00 0.53448560264E+00 0.64001267041E+00
 0.74159315320E+00 0.87436385483E+00 0.10697971752E+01 0.12792415062E+01 0.14465685678E+01
 0.15888477175E+01 0.17326922102E+01 0.18388200725E+01 0.18630577832E+01 0.18272558750E+01
 0.17606693928E+01 0.16383469065E+01 0.14465631223E+01 0.12411230814E+01 0.10713458100E+01
 0.91293252596E+00 0.81718361282E+00 0.65528885111E+00 0.55057520732E+00 0.50505514379E+00
 0.46955299547E+00 0.44459065498E+00 0.48081303695E+00 0.57826214592E+00 0.68454435776E+00
 0.79520733651E+00 0.95664156490E+00 0.11647760638E+01 0.13574080541E+01 0.15114557073E+01
 0.16540263992E+01 0.17756658441E+01 0.18280113435E+01 0.18100124256E+01 0.17636453520E+01
 0.16848827769E+01 0.15333150158E+01 0.13282647292E+01 0.11391477244E+01 0.98140298502E+00
 0.86944874442E+00 0.70889024921E+00 0.57714945739E+00 0.50823353625E+00 0.47290746228E+00
 0.43989947804E+00 0.43953499423E+00 0.50477628132E+00 0.60693868491E+00 0.71164630927E+00
 0.84148807618E+00 0.10215273695E+01 0.12176958773E+01 0.13880434044E+01 0.15395537395E+01
 0.16782257330E+01 0.17624154449E+01 0.17643063708E+01 0.17195717366E+01 0.16594938375E+01
 0.15544049948E+01 0.13818319823E+01 0.11881741576E+01 0.10224088184E+01 0.89427080880E+00
 0.74680821112E+00 0.60807171424E+00 0.51425217908E+00 0.46815222168E+00 0.43774095652E+00
 0.42055498853E+00 0.44823882147E+00 0.52472585700E+00 0.62075174449E+00 0.73129706402E+00
 0.87791976791E+00 0.10529586044E+01 0.12206722236E+01 0.13723065580E+01 0.15199182032E+01
 0.16395926464E+01 0.16852680031E+01 0.16581514326E+01 0.15996583518E+01 0.15179520311E+01
 0.13863708120E+01 0.12128092329E+01 0.10432438853E+01 0.89852388991E+00 0.76172385956E+00
 0.63160287731E+00 0.52621248982E+00 0.46186808673E+00 0.42751289323E+00 0.40904462700E+00
 0.41636067697E+00 0.46186003084E+00 0.53633030161E+00 0.62975849940E+00 0.75024987287E+00
 0.89852776381E+00 0.10503813835E+01 0.11879726428E+01 0.13200491145E+01 0.14465686082E+01
 0.15337767822E+01 0.15528509108E+01 0.15158938120E+01 0.14465624650E+01 0.13436318533E+01
 0.12026160243E+01 0.10456333864E+01 0.88659587271E+00 0.75707178523E+00 0.63839471003E+00
 0.53716456713E+00 0.46173364064E+00 0.41412639118E+00 0.39084464593E+00 0.39144616487E+00
 0.41797751884E+00 0.46833695162E+00 0.54002479482E+00 0.63697140251E+00 0.76054108856E+00
 0.89652506728E+00 0.10243957945E+01 0.11377083036E+01 0.12413650557E+01 0.13297157653E+01
 0.13828145413E+01 0.13865865834E+01 0.13437846683E+01 0.12634325079E+01 0.11526853868E+01
 0.10220722280E+01 0.85635718389E+00 0.73943219507E+00 0.62969613648E+00 0.53857358968E+00
 0.46645182335E+00 0.41030615989E+00 0.37478058461E+00 0.36625191519E+00 0.38195656651E+00
 0.41477856587E+00 0.46468753672E+00 0.53715635417E+00 0.63329087695E+00 0.74703395037E+00
 0.86767895668E+00 0.98084088145E+00 0.10733295527E+01 0.11419520123E+01 0.11909949202E+01
 0.12173938930E+01 0.12076481187E+01 0.11549661782E+01 0.10700019144E+01 0.96818847612E+00
 0.80648117544E+00 0.71141832702E+00 0.61291820828E+00 0.52975288458E+00 0.46762626694E+00
 0.41625350274E+00 0.37419985129E+00 0.35357874610E+00 0.35780713239E+00 0.37719090706E+00
 0.40874727133E+00 0.45943720694E+00 0.52920194403E+00 0.61104620257E+00 0.70561505184E+00
 0.81337538179E+00 0.91540319941E+00 0.98645617177E+00 0.10253828679E+01 0.10484507813E+01
 0.10555503387E+01 0.10297400135E+01 0.96905423096E+00 0.89128741303E+00 0.74159437882E+00
 0.67218268941E+00 0.59214042440E+00 0.51688258840E+00 0.46188464724E+00 0.42089676501E+00
 0.38385070862E+00 0.35826383177E+00 0.35340054428E+00 0.36230062234E+00 0.37842421338E+00
 0.41032117541E+00 0.46186001060E+00 0.51951376654E+00 0.57721547035E+00 0.64982028295E+00
 0.74159316337E+00 0.82543851547E+00 0.87564145010E+00 0.89858849355E+00 0.90922966164E+00
 0.90081769324E+00 0.86231692981E+00 0.80412517849E+00 0.67007241251E+00 0.62277125176E+00
 0.56614526450E+00 0.50477534577E+00 0.45539722339E+00 0.42149959451E+00 0.39288183023E+00
 0.36970368886E+00 0.36184337968E+00 0.36655526326E+00 0.37319714919E+00 0.38736938993E+00
 0.42257509574E+00 0.47092089039E+00 0.51172149519E+00 0.54711760386E+00 0.59805941289E+00
 0.66482539275E+00 0.72226940075E+00 0.75584074661E+00 0.77274874728E+00 0.77579514441E+00
 0.75615173343E+00 0.71588883268E+00 0.60032515696E+00 0.56921272104E+00 0.53442822244E+00
 0.49291798554E+00 0.45440847909E+00 0.42695935559E+00 0.40538703372E+00 0.38593659940E+00
 0.37654994011E+00 0.38023113470E+00 0.38561369809E+00 0.38797620762E+00 0.40174388113E+00
 0.43629186110E+00 0.47655898488E+00 0.50501235135E+00 0.52718484977E+00 0.55761912098E+00
 0.59452585316E+00 0.62580677370E+00 0.64741575760E+00 0.65923035296E+00 0.65491876733E+00
 0.63186616030E+00 0.53865390776E+00 0.51966586830E+00 0.50115020331E+00 0.47947874612E+00
 0.45742106901E+00 0.44136980087E+00 0.42988195843E+00 0.41747696425E+00 0.40744937585E+00
 0.40729960259E+00 0.41322875078E+00 0.41418053237E+00 0.41143063538E+00 0.41908151324E+00
 0.44282210462E+00 0.47171258428E+00 0.49406713643E+00 0.50957912305E+00 0.52285929212E+00
 0.53578622161E+00 0.54890467602E+00 0.56096644554E+00 0.56555564860E+00 0.55682735612E+00
 0.48778815964E+00 0.47900142118E+00 0.47199909205E+00 0.46587058058E+00 0.46045892330E+00
 0.45890732721E+00 0.46170924436E+00 0.46377879075E+00 0.46188463448E+00 0.46015862478E+00
 0.46291946534E+00 0.46603841144E+00 0.46186805377E+00 0.45097899976E+00 0.44318424342E+00
 0.44679003502E+00 0.46047872085E+00 0.47577788606E+00 0.48504394897E+00 0.48730410869E+00
 0.48777662870E+00 0.49115272293E+00 0.49546094018E+00 0.49481314668E+00 0.44767768918E+00
 0.44739644594E+00 0.44960129170E+00 0.45546811767E+00 0.46440206475E+00 0.47658829981E+00
 0.49295014927E+00 0.51168840666E+00 0.52737518707E+00 0.53581632334E+00 0.53860575439E+00
 0.54000085190E+00 0.53933995998E+00 0.53002117150E+00 0.50826568280E+00 0.48082366266E+00
 0.46050186838E+00 0.45379845070E+00 0.45549733567E+00 0.45621419461E+00 0.45266812661E+00
 0.44853716938E+00 0.44728050093E+00 0.44781251656E+00 0.41863087191E+00 0.42396948429E+00
 0.43360813368E+00 0.44956912767E+00 0.47185736667E+00 0.49822758673E+00 0.52726916838E+00
 0.55920003295E+00 0.59199869479E+00 0.61894947606E+00 0.63337019357E+00 0.63552626947E+00
 0.63146117065E+00 0.62380857318E+00 0.60701439409E+00 0.57477452118E+00 0.53076058467E+00
 0.48832105110E+00 0.45888050146E+00 0.44298622168E+00 0.43357180906E+00 0.42540602651E+00
 0.41898840680E+00 0.41667292489E+00 0.40195679977E+00 0.40924973523E+00 0.42346440562E+00
 0.44685920474E+00 0.48094284595E+00 0.52309354325E+00 0.56870762783E+00 0.61532093277E+00
 0.66216298154E+00 0.70589209941E+00 0.73892708691E+00 0.75369823504E+00 0.74906928195E+00
 0.73157644138E+00 0.70838517903E+00 0.67898309139E+00 0.63678872192E+00 0.58058364183E+00
 0.52115593463E+00 0.47309351504E+00 0.44180935264E+00 0.42231783744E+00 0.40904259798E+00
 0.40174453823E+00 0.53215151448E+00 0.54232317782E+00 0.57105959626E+00 0.62022354466E+00
 0.69253600008E+00 0.78637842467E+00 0.89498780533E+00 0.10097018389E+01 0.11219501487E+01
 0.12236113833E+01 0.13069661156E+01 0.13629618862E+01 0.13808071912E+01 0.13548707221E+01
 0.12930842119E+01 0.12121941134E+01 0.11219157647E+01 0.10198192946E+01 0.90509182087E+00
 0.79015397168E+00 0.69253252839E+00 0.62016283983E+00 0.57076262224E+00 0.54144412237E+00
 0.54201585683E+00 0.54257710953E+00 0.56908447479E+00 0.62188840660E+00 0.70234550285E+00
 0.80986067759E+00 0.94042178112E+00 0.10866173540E+01 0.12367564835E+01 0.13762427793E+01
 0.14934182860E+01 0.15819228701E+01 0.16340235882E+01 0.16365681352E+01 0.15815968254E+01
 0.14794695482E+01 0.13534055767E+01 0.12204228252E+01 0.10841685622E+01 0.94626208813E+00
 0.81607620074E+00 0.70600764935E+00 0.62304411935E+00 0.56851781446E+00 0.57119531647E+00
 0.55407436543E+00 0.57069034529E+00 0.62241770670E+00 0.70797145910E+00 0.82386923631E+00
 0.96758110650E+00 0.11359374472E+01 0.13192937665E+01 0.15002319122E+01 0.16602659692E+01
 0.17869318684E+01 0.18730295526E+01 0.19103960617E+01 0.18882857688E+01 0.18012507227E+01
 0.16589010976E+01 0.14851212342E+01 0.13049951208E+01 0.11325372281E+01 0.97180858833E+00
 0.82716748766E+00 0.70778529728E+00 0.62186811780E+00 0.62194094254E+00 0.58089711162E+00
 0.57765519403E+00 0.61927910657E+00 0.70614283522E+00 0.82865635251E+00 0.98087926125E+00
 0.11637250501E+01 0.13714473208E+01 0.15864485726E+01 0.17892296114E+01 0.19632510924E+01
 0.20912060249E+01 0.21590466611E+01 0.21638138238E+01 0.21073858006E+01 0.19867905039E+01
 0.18047695953E+01 0.15861004220E+01 0.13664233922E+01 0.11649976323E+01 0.98265668300E+00
 0.82364164804E+00 0.70130580239E+00 0.69253251396E+00 0.62596863970E+00 0.59618728753E+00
 0.61450027767E+00 0.69252616925E+00 0.81818038212E+00 0.97539627081E+00 0.11668511697E+01
 0.13945486464E+01 0.16384207239E+01 0.18746828387E+01 0.20931187857E+01 0.22770092904E+01
 0.23923287363E+01 0.24201534350E+01 0.23761162405E+01 0.22770087689E+01 0.21153085399E+01
 0.18903454116E+01 0.16368082906E+01 0.13945592410E+01 0.11732297922E+01 0.97137590780E+00
 0.80549420329E+00 0.77788738078E+00 0.68470823634E+00 0.63035345050E+00 0.61635268669E+00
 0.66966649718E+00 0.78950053140E+00 0.94685135445E+00 0.11361650809E+01 0.13736900816E+01
 0.16458631941E+01 0.19130841264E+01 0.21614214708E+01 0.23948190571E+01 0.25806229226E+01
 0.26638387786E+01 0.26370673191E+01 0.25398429159E+01 0.23898851945E+01 0.21738607280E+01
 0.19060239251E+01 0.16345519645E+01 0.13839635409E+01 0.11465515567E+01 0.93342378919E+00
 0.87735084467E+00 0.74936624728E+00 0.67578252133E+00 0.63263148254E+00 0.64812420791E+00
 0.74758321409E+00 0.90128297321E+00 0.10799465102E+01 0.13052119852E+01 0.15910195071E+01
 0.18921745100E+01 0.21653175270E+01 0.24219781360E+01 0.26648838278E+01 0.28320227380E+01
 0.28663376817E+01 0.27885619890E+01 0.26445575178E+01 0.24358456429E+01 0.21598464256E+01
 0.18626044266E+01 0.15896262460E+01 0.13331687963E+01 0.10829925841E+01 0.99408165558E+00
 0.81889672034E+00 0.72267432237E+00 0.66145298607E+00 0.63823259307E+00 0.70022263872E+00
 0.84317404017E+00 0.10153210078E+01 0.12143313536E+01 0.14819644510E+01 0.18029808794E+01
 0.21078543409E+01 0.23758922525E+01 0.26362753485E+01 0.28653621633E+01 0.29841732865E+01
 0.29658614252E+01 0.28532977274E+01 0.26685474467E+01 0.23998608295E+01 0.20795606468E+01
 0.17772538314E+01 0.15091111462E+01 0.12432367568E+01 0.11219157723E+01 0.89842714866E+00
 0.76594417366E+00 0.69160912337E+00 0.64182374654E+00 0.65608306308E+00 0.76966458639E+00
 0.93933226899E+00 0.11219207984E+01 0.13508489732E+01 0.16568658804E+01 0.19865725239E+01
 0.22770186519E+01 0.25385354427E+01 0.27867250947E+01 0.29650676644E+01 0.30143721745E+01
 0.29528462857E+01 0.28163029678E+01 0.25908623001E+01 0.22770088021E+01 0.19462596343E+01
 0.16584684117E+01 0.13915866320E+01 0.12395223731E+01 0.98695042560E+00 0.80967083870E+00
 0.71391675564E+00 0.65148258882E+00 0.62510172686E+00 0.68827611286E+00 0.83885681668E+00
 0.10177557360E+01 0.12162193906E+01 0.14800720130E+01 0.18028290663E+01 0.21161797708E+01
 0.23903499431E+01 0.26440462426E+01 0.28534846145E+01 0.29536431374E+01 0.29346028360E+01
 0.28407571534E+01 0.26766621625E+01 0.24134547766E+01 0.20853311415E+01 0.17756702254E+01
 0.15062260893E+01 0.13245107584E+01 0.10702636924E+01 0.85890420034E+00 0.73017151359E+00
 0.65724023128E+00 0.61012969913E+00 0.62201221466E+00 0.72657303650E+00 0.89040503592E+00
 0.10731330069E+01 0.12948992818E+01 0.15794713247E+01 0.18885148168E+01 0.21739196775E+01
 0.24358806523E+01 0.26696267838E+01 0.28181516422E+01 0.28413722501E+01 0.27728552410E+01
 0.26498244923E+01 0.24515799830E+01 0.21673396725E+01 0.18572919540E+01 0.15804208623E+01
 0.13697728822E+01 0.11296510955E+01 0.90861559005E+00 0.74827370963E+00 0.65558570326E+00
 0.60036461732E+00 0.58222086841E+00 0.63461578319E+00 0.75946666493E+00 0.92210804101E+00
 0.11132602178E+01 0.13524495294E+01 0.16289835045E+01 0.19020361258E+01 0.21572698228E+01
 0.23992806381E+01 0.25921903853E+01 0.26769151402E+01 0.26482339917E+01 0.25499588059E+01
 0.23972206504E+01 0.21721706938E+01 0.18937462127E+01 0.16187423142E+01 0.13808072330E+01
 0.11555671634E+01 0.94452159273E+00 0.76980424383E+00 0.65235785572E+00 0.58433177290E+00
 0.55382158120E+00 0.57249617711E+00 0.65235466575E+00 0.78056940462E+00 0.94261547084E+00
 0.11434318109E+01 0.13808181982E+01 0.16262864009E+01 0.18570882696E+01 0.20766464983E+01
 0.22770186923E+01 0.24138349565E+01 0.24497191215E+01 0.23948806460E+01 0.22770093640E+01
 0.21016329964E+01 0.18725968709E+01 0.16212468449E+01 0.13616296548E+01 0.11506767635E+01
 0.95553744027E+00 0.78613423373E+00 0.65463849820E+00 0.56683370610E+00 0.52234824810E+00
 0.52287340982E+00 0.57072504699E+00 0.66157079248E+00 0.78918732280E+00 0.95400291242E+00
 0.11543045959E+01 0.13721793932E+01 0.15825513059E+01 0.17741685425E+01 0.19464875119E+01
 0.20869444560E+01 0.21683975298E+01 0.21723557953E+01 0.21017968345E+01 0.19698569916E+01
 0.17900118944E+01 0.15800188868E+01 0.13106063471E+01 0.11218782606E+01 0.94255909428E+00
 0.78762263789E+00 0.66043184395E+00 0.56103493270E+00 0.49759147189E+00 0.47949487094E+00
 0.50502017167E+00 0.56568597866E+00 0.65861401121E+00 0.78610732602E+00 0.94625570511E+00
 0.11299101125E+01 0.13226856183E+01 0.15056525369E+01 0.16605061146E+01 0.17789910098E+01
 0.18607933560E+01 0.18990698270E+01 0.18783230714E+01 0.17927554960E+01 0.16570584888E+01
 0.14922423054E+01 0.12281575143E+01 0.10728800170E+01 0.91380177496E+00 0.77358937281E+00
 0.66077731186E+00 0.56719322522E+00 0.49418927234E+00 0.45721149939E+00 0.46164512724E+00
 0.49735901850E+00 0.55939212419E+00 0.65219693174E+00 0.77291048151E+00 0.91175205077E+00
 0.10668391896E+01 0.12355060834E+01 0.13941478831E+01 0.15122482488E+01 0.15847257075E+01
 0.16255550750E+01 0.16329566029E+01 0.15892166060E+01 0.14939380950E+01 0.13687729559E+01
 0.11219501665E+01 0.10047047766E+01 0.87476125168E+00 0.75116548914E+00 0.65236765637E+00
 0.57379699169E+00 0.50701129584E+00 0.46212406788E+00 0.45073232368E+00 0.46634827145E+00
 0.50137996182E+00 0.56280804550E+00 0.65235464552E+00 0.75381378040E+00 0.85897850862E+00
 0.98117823959E+00 0.11219208086E+01 0.12493182660E+01 0.13329529813E+01 0.13767074395E+01
 0.13945486844E+01 0.13789184969E+01 0.13188610950E+01 0.12269355147E+01 0.10041997048E+01
 0.92109778301E+00 0.82606409622E+00 0.72659606266E+00 0.64220409908E+00 0.57795958342E+00
 0.52443139368E+00 0.48314868930E+00 0.46587117321E+00 0.47075523326E+00 0.48674476172E+00
 0.51870353423E+00 0.57919906456E+00 0.65851551715E+00 0.73382290716E+00 0.80602641045E+00
 0.89507734928E+00 0.99858097995E+00 0.10871963882E+01 0.11429295100E+01 0.11713593013E+01
 0.11745008017E+01 0.11431873497E+01 0.10805434838E+01 0.88738891990E+00 0.83142784817E+00
 0.76958185314E+00 0.70105204785E+00 0.63774343803E+00 0.58904210352E+00 0.55002012587E+00
 0.51718150607E+00 0.49941239602E+00 0.50048311567E+00 0.50883057340E+00 0.51926825366E+00
 0.54622270402E+00 0.59887074923E+00 0.66103764937E+00 0.71385663466E+00 0.76206570220E+00
 0.81918414611E+00 0.88114090351E+00 0.93283703829E+00 0.96779737296E+00 0.98440511459E+00
 0.97561271069E+00 0.93924579130E+00 0.78160964456E+00 0.74730044447E+00 0.71220564554E+00
 0.67455294796E+00 0.63863354936E+00 0.61167038001E+00 0.59206315235E+00 0.57373074237E+00
 0.55977894234E+00 0.55787831915E+00 0.56405596959E+00 0.56677473715E+00 0.56735794360E+00
 0.58069371979E+00 0.61315077171E+00 0.65370330954E+00 0.69006706356E+00 0.72119152302E+00
 0.75060429479E+00 0.77850729013E+00 0.80340134011E+00 0.82210946454E+00 0.82689029723E+00
 0.81170573662E+00 0.69253600134E+00 0.67641477315E+00 0.66207848628E+00 0.65024963587E+00
 0.64181314493E+00 0.64020418432E+00 0.64534233462E+00 0.65090439245E+00 0.65236764360E+00
 0.65303304054E+00 0.65679162922E+00 0.65916889436E+00 0.65235782275E+00 0.63748540385E+00
 0.62581369967E+00 0.62735249020E+00 0.64182374325E+00 0.66077208800E+00 0.67586519448E+00
 0.68513124500E+00 0.69252618494E+00 0.70116658668E+00 0.70753877463E+00 0.70497192529E+00
 0.62191093304E+00 0.62064390235E+00 0.62335818886E+00 0.63266714281E+00 0.64873886792E+00
 0.67159223856E+00 0.70111239447E+00 0.73378559743E+00 0.76210211911E+00 0.77994355439E+00
 0.78768298550E+00 0.78915389173E+00 0.78369665655E+00 0.76498389319E+00 0.73023184304E+00
 0.68827588422E+00 0.65454372920E+00 0.63752340707E+00 0.63269181691E+00 0.63030664631E+00
 0.62619792933E+00 0.62286530165E+00 0.62247806213E+00 0.62300406634E+00 0.57090002430E+00
 0.57966774677E+00 0.59607693749E+00 0.62329784193E+00 0.66191890518E+00 0.70918458296E+00
 0.76214252348E+00 0.81881420789E+00 0.87460166635E+00 0.92009560267E+00 0.94635886380E+00
 0.95245744357E+00 0.94436203035E+00 0.92526545724E+00 0.89049030550E+00 0.83525135995E+00
 0.76578460492E+00 0.69868441452E+00 0.64820112124E+00 0.61633913206E+00 0.59602770247E+00
 0.58118103053E+00 0.57128261660E+00 0.56790848159E+00 0.54111687004E+00 0.55380423062E+00
 0.57912632373E+00 0.62004213390E+00 0.67840661151E+00 0.75086290978E+00 0.83088641060E+00
 0.91330646287E+00 0.99424919888E+00 0.10671275738E+01 0.11213368080E+01 0.11470553128E+01
 0.11421558047E+01 0.11135426619E+01 0.10697222778E+01 0.10119895289E+01 0.93597362148E+00
 0.84342806974E+00 0.74882484183E+00 0.67015251634E+00 0.61475207002E+00 0.57791268804E+00
 0.55353293914E+00 0.54085968906E+00 0.71278845337E+00 0.73061122863E+00 0.78172789582E+00
 0.86696012436E+00 0.98745088737E+00 0.11392850474E+01 0.13127064621E+01 0.14953857885E+01
 0.16742313403E+01 0.18358202225E+01 0.19669972982E+01 0.20539326654E+01 0.20823705458E+01
 0.20453293219E+01 0.19522036723E+01 0.18236355802E+01 0.16741996097E+01 0.15061944004E+01
 0.13234851566E+01 0.11433089629E+01 0.98747571425E+00 0.86694133224E+00 0.78142478012E+00
 0.72965714137E+00 0.73027534394E+00 0.73086001603E+00 0.77722045446E+00 0.86831798955E+00
 0.10031546218E+01 0.11781936874E+01 0.13861889373E+01 0.16160310150E+01 0.18511728403E+01
 0.20706945468E+01 0.22559793884E+01 0.23943549009E+01 0.24731007923E+01 0.24758135786E+01
 0.23940073546E+01 0.22411321406E+01 0.20464391394E+01 0.18339064321E+01 0.16135280058E+01
 0.13924129658E+01 0.11847520101E+01 0.10070185707E+01 0.86956560211E+00 0.77664864701E+00
 0.78187043703E+00 0.75247435896E+00 0.78134627499E+00 0.86888711780E+00 0.10110130690E+01
 0.12005728444E+01 0.14314864104E+01 0.16970822629E+01 0.19830745163E+01 0.22652699573E+01
 0.25166986278E+01 0.27163050063E+01 0.28497364930E+01 0.29039262733E+01 0.28659458952E+01
 0.27315310962E+01 0.25152948381E+01 0.22492857476E+01 0.19679161306E+01 0.16934190369E+01
 0.14358820818E+01 0.12040149721E+01 0.10108041475E+01 0.86830024781E+00 0.86879896172E+00
 0.79952908913E+00 0.79609712408E+00 0.86598524619E+00 0.10071403347E+01 0.12055876149E+01
 0.14512161288E+01 0.17416594950E+01 0.20670790577E+01 0.24031776011E+01 0.27211435691E+01
 0.29938369747E+01 0.31938797406E+01 0.32997227344E+01 0.33048102278E+01 0.32111190913E+01
 0.30188845237E+01 0.27376531948E+01 0.24027589327E+01 0.20616588058E+01 0.17429361193E+01
 0.14530766342E+01 0.12002737849E+01 0.10020120234E+01 0.98747569982E+00 0.87457814830E+00
 0.82838111096E+00 0.86240791582E+00 0.98746082313E+00 0.11869526886E+01 0.14396229088E+01
 0.17448379671E+01 0.21013881304E+01 0.24828601952E+01 0.28557056049E+01 0.31981710487E+01
 0.34813346108E+01 0.36601313510E+01 0.37090562958E+01 0.36429358776E+01 0.34813393464E+01
 0.32216923297E+01 0.28722608836E+01 0.24810905995E+01 0.21014085654E+01 0.17516821873E+01
 0.14354364386E+01 0.11735301096E+01 0.11303101939E+01 0.97184702753E+00 0.88286234030E+00
 0.86802502602E+00 0.95592504131E+00 0.11426431641E+01 0.13929857897E+01 0.16971775937E+01
 0.20693017116E+01 0.24906658496E+01 0.29115657235E+01 0.33057805579E+01 0.36644893918E+01
 0.39417326693E+01 0.40717156308E+01 0.40432480198E+01 0.38983472382E+01 0.36591918120E+01
 0.33189801955E+01 0.29040901095E+01 0.24786955303E+01 0.20802823012E+01 0.17083013644E+01
 0.13787960206E+01 0.12940325013E+01 0.10816975435E+01 0.95490810744E+00 0.89230459351E+00
 0.92555239810E+00 0.10798428589E+01 0.13195110318E+01 0.16090934045E+01 0.19681473979E+01
 0.24079366169E+01 0.28741391383E+01 0.33098640729E+01 0.37132958357E+01 0.40738237222E+01
 0.43160302798E+01 0.43744888507E+01 0.42698789016E+01 0.40522338388E+01 0.37280279160E+01
 0.33040978942E+01 0.28428082196E+01 0.24065001043E+01 0.19978144478E+01 0.16122626749E+01
 0.14788457747E+01 0.12009339870E+01 0.10334196712E+01 0.93409008136E+00 0.90938583784E+00
 0.10095061551E+01 0.12267377970E+01 0.15015418818E+01 0.18275572358E+01 0.22459623466E+01
 0.27357296010E+01 0.32137780995E+01 0.36443483939E+01 0.40433901776E+01 0.43738204396E+01
 0.45449249567E+01 0.45255482768E+01 0.43611274082E+01 0.40776989336E+01 0.36697746138E+01
 0.31837400150E+01 0.27084469175E+01 0.22747508255E+01 0.18581061768E+01 0.16741996173E+01
 0.13321082902E+01 0.11114495203E+01 0.98161012546E+00 0.91116600902E+00 0.94385569597E+00
 0.11153282768E+01 0.13754720105E+01 0.16742015788E+01 0.20437862152E+01 0.25132054010E+01
 0.30186883776E+01 0.34813506414E+01 0.38969522464E+01 0.42679277653E+01 0.45247065127E+01
 0.45999213139E+01 0.45117372167E+01 0.42993315595E+01 0.39525057079E+01 0.34813393797E+01
 0.29758672200E+01 0.25148491895E+01 0.20869806338E+01 0.18526707504E+01 0.14705271908E+01
 0.11909805105E+01 0.10243693859E+01 0.92403862396E+00 0.89607637255E+00 0.99719154561E+00
 0.12218781505E+01 0.15030527505E+01 0.18278228120E+01 0.22418059456E+01 0.27332659880E+01
 0.32204477383E+01 0.36580138382E+01 0.40506994437E+01 0.43609590441E+01 0.45125819890E+01
 0.44923082506E+01 0.43473372328E+01 0.40852819519E+01 0.36825747593E+01 0.31877086902E+01
 0.27043795092E+01 0.22695491241E+01 0.19855713470E+01 0.15971316369E+01 0.12743821971E+01
 0.10625836756E+01 0.93738074519E+00 0.87091233421E+00 0.90004071728E+00 0.10588281174E+01
 0.13078341142E+01 0.16001216545E+01 0.19540618444E+01 0.23916985745E+01 0.28661785140E+01
 0.33155533377E+01 0.37257597916E+01 0.40778510746E+01 0.43012954409E+01 0.43483553606E+01
 0.42532099757E+01 0.40568333455E+01 0.37424239719E+01 0.33085514242E+01 0.28330239150E+01
 0.23927420387E+01 0.20611412184E+01 0.16882670805E+01 0.13529394775E+01 0.11019843575E+01
 0.94614945012E+00 0.85736520033E+00 0.83809695595E+00 0.92392537518E+00 0.11140004098E+01
 0.13674026979E+01 0.16708967916E+01 0.20427023259E+01 0.24677078446E+01 0.28950600525E+01
 0.32978579256E+01 0.36674700657E+01 0.39539238327E+01 0.40865506925E+01 0.40561283289E+01
 0.39091549963E+01 0.36653395667E+01 0.33136769769E+01 0.28862308669E+01 0.24568528475E+01
 0.20823705876E+01 0.17307508497E+01 0.14082122646E+01 0.11409504482E+01 0.95390282386E+00
 0.84208820155E+00 0.79600615802E+00 0.82944640252E+00 0.95390096029E+00 0.11524836835E+01
 0.14062573099E+01 0.17178564647E+01 0.20823889614E+01 0.24648848492E+01 0.28328108387E+01
 0.31784237105E+01 0.34813506818E+01 0.36846859294E+01 0.37427485003E+01 0.36644993140E+01
 0.34813346844E+01 0.32050110302E+01 0.28492908487E+01 0.24594937361E+01 0.20524783119E+01
 0.17256063230E+01 0.14259685399E+01 0.11672451779E+01 0.96482331394E+00 0.82742058415E+00
 0.75715852183E+00 0.75759392039E+00 0.83136400463E+00 0.97214921458E+00 0.11705153163E+01
 0.14242734564E+01 0.17293909725E+01 0.20637356899E+01 0.23950364987E+01 0.27027764317E+01
 0.29760743362E+01 0.31916509917E+01 0.33132020186E+01 0.33173249385E+01 0.32073204105E+01
 0.30009161644E+01 0.27196429752E+01 0.23922823275E+01 0.19707312241E+01 0.16800586043E+01
 0.14062053778E+01 0.11688242850E+01 0.97408294493E+00 0.82412761108E+00 0.72924969984E+00
 0.70058999858E+00 0.73694208027E+00 0.82897479409E+00 0.97220925103E+00 0.11671773766E+01
 0.14099912386E+01 0.16885922436E+01 0.19836956146E+01 0.22689575592E+01 0.25169393297E+01
 0.27102645655E+01 0.28409526107E+01 0.28966834251E+01 0.28594395320E+01 0.27248848013E+01
 0.25134104157E+01 0.22547140550E+01 0.18405081769E+01 0.15998175668E+01 0.13585270856E+01
 0.11450136847E+01 0.97124395636E+00 0.83052797058E+00 0.72529758086E+00 0.67212965827E+00
 0.67677155090E+00 0.72863947411E+00 0.82240329525E+00 0.96223976655E+00 0.11441827392E+01
 0.13562787947E+01 0.15935501927E+01 0.18484029500E+01 0.20896338559E+01 0.22779989546E+01
 0.24013651730E+01 0.24692120871E+01 0.24769444627E+01 0.24060079312E+01 0.22586984956E+01
 0.20628577264E+01 0.16742313581E+01 0.14892049227E+01 0.12912339422E+01 0.11051823793E+01
 0.95389493791E+00 0.83460528901E+00 0.73904951984E+00 0.67728379379E+00 0.66056296151E+00
 0.68170801695E+00 0.73320817597E+00 0.82319397985E+00 0.95390094005E+00 0.11078129341E+01
 0.12744664588E+01 0.14643931982E+01 0.16742015890E+01 0.18645302802E+01 0.19976000731E+01
 0.20726761023E+01 0.21013881683E+01 0.20748458524E+01 0.19826288821E+01 0.18409302580E+01
 0.14896862914E+01 0.13560908707E+01 0.12083294566E+01 0.10589124152E+01 0.93203724528E+00
 0.83529869910E+00 0.75928975542E+00 0.70445212209E+00 0.68120868146E+00 0.68628422038E+00
 0.70817307322E+00 0.75334880385E+00 0.83673577176E+00 0.94920385034E+00 0.10664111719E+01
 0.11871434707E+01 0.13286128206E+01 0.14836598720E+01 0.16166764663E+01 0.17044768379E+01
 0.17497421708E+01 0.17529837781E+01 0.17046653493E+01 0.16097133136E+01 0.13047777853E+01
 0.12142802515E+01 0.11152309121E+01 0.10107297151E+01 0.91674262469E+00 0.84539813777E+00
 0.79205646613E+00 0.75170668395E+00 0.73112082860E+00 0.73186906857E+00 0.74091228723E+00
 0.75382058448E+00 0.78807748941E+00 0.85579239413E+00 0.94133707151E+00 0.10243431571E+01
 0.11073996012E+01 0.12012727371E+01 0.12979870744E+01 0.13781034745E+01 0.14316942195E+01
 0.14549573298E+01 0.14398607687E+01 0.13849235947E+01 0.11342680945E+01 0.10795731520E+01
 0.10222522827E+01 0.96344309535E+00 0.91038033166E+00 0.87248924219E+00 0.84853153850E+00
 0.83084902608E+00 0.81996392156E+00 0.82082306823E+00 0.82726099987E+00 0.82721602418E+00
 0.82408235470E+00 0.83653639355E+00 0.87404575868E+00 0.92636139681E+00 0.97999843097E+00
 0.10318378534E+01 0.10829762915E+01 0.11308942758E+01 0.11713320388E+01 0.11987130275E+01