   3   3   1   0
  0.8485138E+02  0.3190316E-09  0.3190316E-09  0.2887900E-08  0.5000000E-15
  1.000000000000000E-004
  CAR 
 unknown system                          
     12.00000000    -12.00000000 2401     -2.79000000      1.00000000
    -12.000  0.4000E+03  0.4000E+01
    -11.990  0.0000E+00  0.4000E+01
    -11.980  0.0000E+00  0.4000E+01
    -11.970  0.0000E+00  0.4000E+01
    -11.960  0.0000E+00  0.4000E+01
    -11.950  0.0000E+00  0.4000E+01
    -11.940  0.0000E+00  0.4000E+01
    -11.930  0.0000E+00  0.4000E+01
    -11.920  0.0000E+00  0.4000E+01
    -11.910  0.0000E+00  0.4000E+01
    -11.900  0.0000E+00  0.4000E+01
    -11.890  0.0000E+00  0.4000E+01
    -11.880  0.0000E+00  0.4000E+01
    -11.870  0.0000E+00  0.4000E+01
    -11.860  0.0000E+00  0.4000E+01
    -11.850  0.0000E+00  0.4000E+01
    -11.840  0.0000E+00  0.4000E+01
    -11.830  0.0000E+00  0.4000E+01
    -11.820  0.0000E+00  0.4000E+01
    -11.810  0.0000E+00  0.4000E+01
    -11.800  0.0000E+00  0.4000E+01
    -11.790  0.0000E+00  0.4000E+01
    -11.780  0.0000E+00  0.4000E+01
    -11.770  0.0000E+00  0.4000E+01
    -11.760  0.0000E+00  0.4000E+01
    -11.750  0.0000E+00  0.4000E+01
    -11.740  0.0000E+00  0.4000E+01
    -11.730  0.0000E+00  0.4000E+01
    -11.720  0.0000E+00  0.4000E+01
    -11.710  0.0000E+00  0.4000E+01
    -11.700  0.0000E+00  0.4000E+01
    -11.690  0.0000E+00  0.4000E+01
    -11.680  0.0000E+00  0.4000E+01
    -11.670  0.0000E+00  0.4000E+01
    -11.660  0.0000E+00  0.4000E+01
    -11.650  0.0000E+00  0.4000E+01
    -11.640  0.0000E+00  0.4000E+01
    -11.630  0.0000E+00  0.4000E+01
    -11.620  0.0000E+00  0.4000E+01
    -11.610  0.0000E+00  0.4000E+01
    -11.600  0.0000E+00  0.4000E+01
    -11.590  0.0000E+00  0.4000E+01
    -11.580  0.0000E+00  0.4000E+01
    -11.570  0.0000E+00  0.4000E+01
    -11.560  0.0000E+00  0.4000E+01
    -11.550  0.0000E+00  0.4000E+01
    -11.540  0.0000E+00  0.4000E+01
    -11.530  0.0000E+00  0.4000E+01
    -11.520  0.0000E+00  0.4000E+01
    -11.510  0.0000E+00  0.4000E+01
    -11.500  0.0000E+00  0.4000E+01
    -11.490  0.0000E+00  0.4000E+01
    -11.480  0.0000E+00  0.4000E+01
    -11.470  0.0000E+00  0.4000E+01
    -11.460  0.0000E+00  0.4000E+01
    -11.450  0.0000E+00  0.4000E+01
    -11.440  0.0000E+00  0.4000E+01
    -11.430  0.0000E+00  0.4000E+01
    -11.420  0.0000E+00  0.4000E+01
    -11.410  0.0000E+00  0.4000E+01
    -11.400  0.0000E+00  0.4000E+01
    -11.390  0.0000E+00  0.4000E+01
    -11.380  0.0000E+00  0.4000E+01
    -11.370  0.0000E+00  0.4000E+01
    -11.360  0.0000E+00  0.4000E+01
    -11.350  0.0000E+00  0.4000E+01
    -11.340  0.0000E+00  0.4000E+01
    -11.330  0.0000E+00  0.4000E+01
    -11.320  0.0000E+00  0.4000E+01
    -11.310  0.0000E+00  0.4000E+01
    -11.300  0.0000E+00  0.4000E+01
    -11.290  0.0000E+00  0.4000E+01
    -11.280  0.0000E+00  0.4000E+01
    -11.270  0.0000E+00  0.4000E+01
    -11.260  0.0000E+00  0.4000E+01
    -11.250  0.0000E+00  0.4000E+01
    -11.240  0.0000E+00  0.4000E+01
    -11.230  0.0000E+00  0.4000E+01
    -11.220  0.0000E+00  0.4000E+01
    -11.210  0.0000E+00  0.4000E+01
    -11.200  0.0000E+00  0.4000E+01
    -11.190  0.0000E+00  0.4000E+01
    -11.180  0.0000E+00  0.4000E+01
    -11.170  0.0000E+00  0.4000E+01
    -11.160  0.0000E+00  0.4000E+01
    -11.150  0.0000E+00  0.4000E+01
    -11.140  0.0000E+00  0.4000E+01
    -11.130  0.0000E+00  0.4000E+01
    -11.120  0.0000E+00  0.4000E+01
    -11.110  0.0000E+00  0.4000E+01
    -11.100  0.0000E+00  0.4000E+01
    -11.090  0.0000E+00  0.4000E+01
    -11.080  0.0000E+00  0.4000E+01
    -11.070  0.0000E+00  0.4000E+01
    -11.060  0.0000E+00  0.4000E+01
    -11.050  0.0000E+00  0.4000E+01
    -11.040  0.0000E+00  0.4000E+01
    -11.030  0.0000E+00  0.4000E+01
    -11.020  0.0000E+00  0.4000E+01
    -11.010  0.0000E+00  0.4000E+01
    -11.000  0.0000E+00  0.4000E+01
    -10.990  0.0000E+00  0.4000E+01
    -10.980  0.0000E+00  0.4000E+01
    -10.970  0.0000E+00  0.4000E+01
    -10.960  0.0000E+00  0.4000E+01
    -10.950  0.0000E+00  0.4000E+01
    -10.940  0.0000E+00  0.4000E+01
    -10.930  0.0000E+00  0.4000E+01
    -10.920  0.0000E+00  0.4000E+01
    -10.910  0.0000E+00  0.4000E+01
    -10.900  0.0000E+00  0.4000E+01
    -10.890  0.0000E+00  0.4000E+01
    -10.880  0.0000E+00  0.4000E+01
    -10.870  0.0000E+00  0.4000E+01
    -10.860  0.0000E+00  0.4000E+01
    -10.850  0.0000E+00  0.4000E+01
    -10.840  0.0000E+00  0.4000E+01
    -10.830  0.0000E+00  0.4000E+01
    -10.820  0.0000E+00  0.4000E+01
    -10.810  0.0000E+00  0.4000E+01
    -10.800  0.0000E+00  0.4000E+01
    -10.790  0.0000E+00  0.4000E+01
    -10.780  0.0000E+00  0.4000E+01
    -10.770  0.0000E+00  0.4000E+01
    -10.760  0.0000E+00  0.4000E+01
    -10.750  0.0000E+00  0.4000E+01
    -10.740  0.0000E+00  0.4000E+01
    -10.730  0.0000E+00  0.4000E+01
    -10.720  0.0000E+00  0.4000E+01
    -10.710  0.0000E+00  0.4000E+01
    -10.700  0.0000E+00  0.4000E+01
    -10.690  0.0000E+00  0.4000E+01
    -10.680  0.0000E+00  0.4000E+01
    -10.670  0.0000E+00  0.4000E+01
    -10.660  0.0000E+00  0.4000E+01
    -10.650  0.0000E+00  0.4000E+01
    -10.640  0.0000E+00  0.4000E+01
    -10.630  0.0000E+00  0.4000E+01
    -10.620  0.0000E+00  0.4000E+01
    -10.610  0.0000E+00  0.4000E+01
    -10.600  0.0000E+00  0.4000E+01
    -10.590  0.0000E+00  0.4000E+01
    -10.580  0.0000E+00  0.4000E+01
    -10.570  0.0000E+00  0.4000E+01
    -10.560  0.0000E+00  0.4000E+01
    -10.550  0.0000E+00  0.4000E+01
    -10.540  0.0000E+00  0.4000E+01
    -10.530  0.0000E+00  0.4000E+01
    -10.520  0.0000E+00  0.4000E+01
    -10.510  0.0000E+00  0.4000E+01
    -10.500  0.5204E-15  0.4000E+01
    -10.490  0.0000E+00  0.4000E+01
    -10.480  0.5204E-15  0.4000E+01
    -10.470  0.5204E-15  0.4000E+01
    -10.460  0.1561E-14  0.4000E+01
    -10.450  0.2602E-14  0.4000E+01
    -10.440  0.4163E-14  0.4000E+01
    -10.430  0.7286E-14  0.4000E+01
    -10.420  0.1353E-13  0.4000E+01
    -10.410  0.2238E-13  0.4000E+01
    -10.400  0.3955E-13  0.4000E+01
    -10.390  0.6765E-13  0.4000E+01
    -10.380  0.1150E-12  0.4000E+01
    -10.370  0.1962E-12  0.4000E+01
    -10.360  0.3320E-12  0.4000E+01
    -10.350  0.5589E-12  0.4000E+01
    -10.340  0.9359E-12  0.4000E+01
    -10.330  0.1560E-11  0.4000E+01
    -10.320  0.2587E-11  0.4000E+01
    -10.310  0.4270E-11  0.4000E+01
    -10.300  0.7010E-11  0.4000E+01
    -10.290  0.1145E-10  0.4000E+01
    -10.280  0.1862E-10  0.4000E+01
    -10.270  0.3012E-10  0.4000E+01
    -10.260  0.4847E-10  0.4000E+01
    -10.250  0.7763E-10  0.4000E+01
    -10.240  0.1237E-09  0.4000E+01
    -10.230  0.1961E-09  0.4000E+01
    -10.220  0.3094E-09  0.4000E+01
    -10.210  0.4857E-09  0.4000E+01
    -10.200  0.7586E-09  0.4000E+01
    -10.190  0.1179E-08  0.4000E+01
    -10.180  0.1823E-08  0.4000E+01
    -10.170  0.2805E-08  0.4000E+01
    -10.160  0.4295E-08  0.4000E+01
    -10.150  0.6543E-08  0.4000E+01
    -10.140  0.9918E-08  0.4000E+01
    -10.130  0.1496E-07  0.4000E+01
    -10.120  0.2245E-07  0.4000E+01
    -10.110  0.3352E-07  0.4000E+01
    -10.100  0.4980E-07  0.4000E+01
    -10.090  0.7363E-07  0.4000E+01
    -10.080  0.1083E-06  0.4000E+01
    -10.070  0.1585E-06  0.4000E+01
    -10.060  0.2309E-06  0.4000E+01
    -10.050  0.3346E-06  0.4000E+01
    -10.040  0.4825E-06  0.4000E+01
    -10.030  0.6922E-06  0.4000E+01
    -10.020  0.9882E-06  0.4000E+01
    -10.010  0.1404E-05  0.4000E+01
    -10.000  0.1984E-05  0.4000E+01
     -9.990  0.2790E-05  0.4000E+01
     -9.980  0.3905E-05  0.4000E+01
     -9.970  0.5437E-05  0.4000E+01
     -9.960  0.7533E-05  0.4000E+01
     -9.950  0.1038E-04  0.4000E+01
     -9.940  0.1424E-04  0.4000E+01
     -9.930  0.1944E-04  0.4000E+01
     -9.920  0.2640E-04  0.4000E+01
     -9.910  0.3568E-04  0.4000E+01
     -9.900  0.4798E-04  0.4000E+01
     -9.890  0.6419E-04  0.4000E+01
     -9.880  0.8545E-04  0.4000E+01
     -9.870  0.1132E-03  0.4000E+01
     -9.860  0.1492E-03  0.4000E+01
     -9.850  0.1957E-03  0.4000E+01
     -9.840  0.2554E-03  0.4000E+01
     -9.830  0.3316E-03  0.4000E+01
     -9.820  0.4284E-03  0.4000E+01
     -9.810  0.5508E-03  0.4000E+01
     -9.800  0.7047E-03  0.4000E+01
     -9.790  0.8970E-03  0.4000E+01
     -9.780  0.1136E-02  0.4000E+01
     -9.770  0.1432E-02  0.4000E+01
     -9.760  0.1796E-02  0.4000E+01
     -9.750  0.2242E-02  0.4000E+01
     -9.740  0.2784E-02  0.4000E+01
     -9.730  0.3440E-02  0.4000E+01
     -9.720  0.4230E-02  0.4000E+01
     -9.710  0.5176E-02  0.4000E+01
     -9.700  0.6302E-02  0.4000E+01
     -9.690  0.7636E-02  0.4000E+01
     -9.680  0.9206E-02  0.4000E+01
     -9.670  0.1105E-01  0.4001E+01
     -9.660  0.1319E-01  0.4001E+01
     -9.650  0.1567E-01  0.4001E+01
     -9.640  0.1853E-01  0.4001E+01
     -9.630  0.2181E-01  0.4001E+01
     -9.620  0.2555E-01  0.4002E+01
     -9.610  0.2978E-01  0.4002E+01
     -9.600  0.3455E-01  0.4002E+01
     -9.590  0.3989E-01  0.4003E+01
     -9.580  0.4585E-01  0.4003E+01
     -9.570  0.5246E-01  0.4004E+01
     -9.560  0.5974E-01  0.4004E+01
     -9.550  0.6773E-01  0.4005E+01
     -9.540  0.7645E-01  0.4006E+01
     -9.530  0.8591E-01  0.4006E+01
     -9.520  0.9613E-01  0.4007E+01
     -9.510  0.1071E+00  0.4009E+01
     -9.500  0.1189E+00  0.4010E+01
     -9.490  0.1314E+00  0.4011E+01
     -9.480  0.1446E+00  0.4012E+01
     -9.470  0.1586E+00  0.4014E+01
     -9.460  0.1734E+00  0.4016E+01
     -9.450  0.1888E+00  0.4018E+01
     -9.440  0.2050E+00  0.4020E+01
     -9.430  0.2219E+00  0.4022E+01
     -9.420  0.2395E+00  0.4024E+01
     -9.410  0.2579E+00  0.4027E+01
     -9.400  0.2770E+00  0.4030E+01
     -9.390  0.2969E+00  0.4033E+01
     -9.380  0.3177E+00  0.4036E+01
     -9.370  0.3395E+00  0.4039E+01
     -9.360  0.3623E+00  0.4043E+01
     -9.350  0.3863E+00  0.4047E+01
     -9.340  0.4116E+00  0.4051E+01
     -9.330  0.4384E+00  0.4055E+01
     -9.320  0.4669E+00  0.4060E+01
     -9.310  0.4973E+00  0.4065E+01
     -9.300  0.5297E+00  0.4070E+01
     -9.290  0.5645E+00  0.4076E+01
     -9.280  0.6017E+00  0.4082E+01
     -9.270  0.6417E+00  0.4088E+01
     -9.260  0.6847E+00  0.4095E+01
     -9.250  0.7308E+00  0.4102E+01
     -9.240  0.7801E+00  0.4110E+01
     -9.230  0.8328E+00  0.4119E+01
     -9.220  0.8890E+00  0.4127E+01
     -9.210  0.9487E+00  0.4137E+01
     -9.200  0.1012E+01  0.4147E+01
     -9.190  0.1078E+01  0.4158E+01
     -9.180  0.1148E+01  0.4169E+01
     -9.170  0.1221E+01  0.4181E+01
     -9.160  0.1296E+01  0.4194E+01
     -9.150  0.1373E+01  0.4208E+01
     -9.140  0.1453E+01  0.4223E+01
     -9.130  0.1533E+01  0.4238E+01
     -9.120  0.1615E+01  0.4254E+01
     -9.110  0.1696E+01  0.4271E+01
     -9.100  0.1777E+01  0.4289E+01
     -9.090  0.1857E+01  0.4307E+01
     -9.080  0.1935E+01  0.4327E+01
     -9.070  0.2011E+01  0.4347E+01
     -9.060  0.2083E+01  0.4368E+01
     -9.050  0.2152E+01  0.4389E+01
     -9.040  0.2216E+01  0.4411E+01
     -9.030  0.2275E+01  0.4434E+01
     -9.020  0.2330E+01  0.4457E+01
     -9.010  0.2378E+01  0.4481E+01
     -9.000  0.2421E+01  0.4505E+01
     -8.990  0.2458E+01  0.4530E+01
     -8.980  0.2489E+01  0.4555E+01
     -8.970  0.2514E+01  0.4580E+01
     -8.960  0.2534E+01  0.4605E+01
     -8.950  0.2548E+01  0.4631E+01
     -8.940  0.2557E+01  0.4656E+01
     -8.930  0.2562E+01  0.4682E+01
     -8.920  0.2563E+01  0.4708E+01
     -8.910  0.2562E+01  0.4733E+01
     -8.900  0.2558E+01  0.4759E+01
     -8.890  0.2553E+01  0.4784E+01
     -8.880  0.2547E+01  0.4810E+01
     -8.870  0.2542E+01  0.4835E+01
     -8.860  0.2538E+01  0.4861E+01
     -8.850  0.2536E+01  0.4886E+01
     -8.840  0.2538E+01  0.4911E+01
     -8.830  0.2543E+01  0.4937E+01
     -8.820  0.2552E+01  0.4962E+01
     -8.810  0.2567E+01  0.4988E+01
     -8.800  0.2588E+01  0.5014E+01
     -8.790  0.2614E+01  0.5040E+01
     -8.780  0.2647E+01  0.5067E+01
     -8.770  0.2686E+01  0.5093E+01
     -8.760  0.2732E+01  0.5121E+01
     -8.750  0.2784E+01  0.5149E+01
     -8.740  0.2843E+01  0.5177E+01
     -8.730  0.2907E+01  0.5206E+01
     -8.720  0.2976E+01  0.5236E+01
     -8.710  0.3050E+01  0.5266E+01
     -8.700  0.3128E+01  0.5298E+01
     -8.690  0.3209E+01  0.5330E+01
     -8.680  0.3293E+01  0.5363E+01
     -8.670  0.3377E+01  0.5396E+01
     -8.660  0.3462E+01  0.5431E+01
     -8.650  0.3546E+01  0.5467E+01
     -8.640  0.3628E+01  0.5503E+01
     -8.630  0.3708E+01  0.5540E+01
     -8.620  0.3783E+01  0.5578E+01
     -8.610  0.3853E+01  0.5616E+01
     -8.600  0.3918E+01  0.5655E+01
     -8.590  0.3975E+01  0.5695E+01
     -8.580  0.4025E+01  0.5735E+01
     -8.570  0.4066E+01  0.5776E+01
     -8.560  0.4098E+01  0.5817E+01
     -8.550  0.4121E+01  0.5858E+01
     -8.540  0.4133E+01  0.5900E+01
     -8.530  0.4135E+01  0.5941E+01
     -8.520  0.4126E+01  0.5982E+01
     -8.510  0.4106E+01  0.6023E+01
     -8.500  0.4075E+01  0.6064E+01
     -8.490  0.4033E+01  0.6104E+01
     -8.480  0.3980E+01  0.6144E+01
     -8.470  0.3916E+01  0.6183E+01
     -8.460  0.3843E+01  0.6222E+01
     -8.450  0.3760E+01  0.6259E+01
     -8.440  0.3667E+01  0.6296E+01
     -8.430  0.3567E+01  0.6332E+01
     -8.420  0.3458E+01  0.6366E+01
     -8.410  0.3343E+01  0.6400E+01
     -8.400  0.3221E+01  0.6432E+01
     -8.390  0.3095E+01  0.6463E+01
     -8.380  0.2964E+01  0.6492E+01
     -8.370  0.2829E+01  0.6521E+01
     -8.360  0.2693E+01  0.6548E+01
     -8.350  0.2555E+01  0.6573E+01
     -8.340  0.2417E+01  0.6597E+01
     -8.330  0.2279E+01  0.6620E+01
     -8.320  0.2143E+01  0.6642E+01
     -8.310  0.2010E+01  0.6662E+01
     -8.300  0.1879E+01  0.6681E+01
     -8.290  0.1753E+01  0.6698E+01
     -8.280  0.1632E+01  0.6714E+01
     -8.270  0.1516E+01  0.6730E+01
     -8.260  0.1407E+01  0.6744E+01
     -8.250  0.1303E+01  0.6757E+01
     -8.240  0.1207E+01  0.6769E+01
     -8.230  0.1118E+01  0.6780E+01
     -8.220  0.1036E+01  0.6790E+01
     -8.210  0.9613E+00  0.6800E+01
     -8.200  0.8943E+00  0.6809E+01
     -8.190  0.8347E+00  0.6817E+01
     -8.180  0.7823E+00  0.6825E+01
     -8.170  0.7369E+00  0.6832E+01
     -8.160  0.6982E+00  0.6839E+01
     -8.150  0.6658E+00  0.6846E+01
     -8.140  0.6392E+00  0.6852E+01
     -8.130  0.6182E+00  0.6859E+01
     -8.120  0.6021E+00  0.6865E+01
     -8.110  0.5904E+00  0.6870E+01
     -8.100  0.5826E+00  0.6876E+01
     -8.090  0.5783E+00  0.6882E+01
     -8.080  0.5769E+00  0.6888E+01
     -8.070  0.5778E+00  0.6894E+01
     -8.060  0.5808E+00  0.6899E+01
     -8.050  0.5852E+00  0.6905E+01
     -8.040  0.5909E+00  0.6911E+01
     -8.030  0.5974E+00  0.6917E+01
     -8.020  0.6045E+00  0.6923E+01
     -8.010  0.6121E+00  0.6929E+01
     -8.000  0.6200E+00  0.6936E+01
     -7.990  0.6281E+00  0.6942E+01
     -7.980  0.6366E+00  0.6948E+01
     -7.970  0.6456E+00  0.6955E+01
     -7.960  0.6551E+00  0.6961E+01
     -7.950  0.6656E+00  0.6968E+01
     -7.940  0.6772E+00  0.6975E+01
     -7.930  0.6903E+00  0.6982E+01
     -7.920  0.7054E+00  0.6989E+01
     -7.910  0.7229E+00  0.6996E+01
     -7.900  0.7432E+00  0.7003E+01
     -7.890  0.7668E+00  0.7011E+01
     -7.880  0.7942E+00  0.7019E+01
     -7.870  0.8258E+00  0.7027E+01
     -7.860  0.8621E+00  0.7036E+01
     -7.850  0.9035E+00  0.7045E+01
     -7.840  0.9504E+00  0.7054E+01
     -7.830  0.1003E+01  0.7064E+01
     -7.820  0.1062E+01  0.7075E+01
     -7.810  0.1126E+01  0.7086E+01
     -7.800  0.1197E+01  0.7098E+01
     -7.790  0.1275E+01  0.7111E+01
     -7.780  0.1358E+01  0.7124E+01
     -7.770  0.1448E+01  0.7139E+01
     -7.760  0.1544E+01  0.7154E+01
     -7.750  0.1645E+01  0.7171E+01
     -7.740  0.1751E+01  0.7188E+01
     -7.730  0.1862E+01  0.7207E+01
     -7.720  0.1977E+01  0.7227E+01
     -7.710  0.2096E+01  0.7248E+01
     -7.700  0.2218E+01  0.7270E+01
     -7.690  0.2341E+01  0.7293E+01
     -7.680  0.2467E+01  0.7318E+01
     -7.670  0.2593E+01  0.7344E+01
     -7.660  0.2719E+01  0.7371E+01
     -7.650  0.2845E+01  0.7400E+01
     -7.640  0.2968E+01  0.7429E+01
     -7.630  0.3090E+01  0.7460E+01
     -7.620  0.3208E+01  0.7492E+01
     -7.610  0.3322E+01  0.7525E+01
     -7.600  0.3432E+01  0.7560E+01
     -7.590  0.3536E+01  0.7595E+01
     -7.580  0.3634E+01  0.7631E+01
     -7.570  0.3726E+01  0.7669E+01
     -7.560  0.3810E+01  0.7707E+01
     -7.550  0.3886E+01  0.7746E+01
     -7.540  0.3954E+01  0.7785E+01
     -7.530  0.4014E+01  0.7825E+01
     -7.520  0.4064E+01  0.7866E+01
     -7.510  0.4106E+01  0.7907E+01
     -7.500  0.4138E+01  0.7948E+01
     -7.490  0.4161E+01  0.7990E+01
     -7.480  0.4174E+01  0.8032E+01
     -7.470  0.4178E+01  0.8074E+01
     -7.460  0.4173E+01  0.8115E+01
     -7.450  0.4160E+01  0.8157E+01
     -7.440  0.4138E+01  0.8198E+01
     -7.430  0.4107E+01  0.8239E+01
     -7.420  0.4070E+01  0.8280E+01
     -7.410  0.4025E+01  0.8320E+01
     -7.400  0.3974E+01  0.8360E+01
     -7.390  0.3917E+01  0.8399E+01
     -7.380  0.3855E+01  0.8438E+01
     -7.370  0.3788E+01  0.8476E+01
     -7.360  0.3718E+01  0.8513E+01
     -7.350  0.3644E+01  0.8549E+01
     -7.340  0.3568E+01  0.8585E+01
     -7.330  0.3489E+01  0.8620E+01
     -7.320  0.3410E+01  0.8654E+01
     -7.310  0.3329E+01  0.8687E+01
     -7.300  0.3247E+01  0.8720E+01
     -7.290  0.3166E+01  0.8751E+01
     -7.280  0.3084E+01  0.8782E+01
     -7.270  0.3003E+01  0.8812E+01
     -7.260  0.2923E+01  0.8841E+01
     -7.250  0.2844E+01  0.8870E+01
     -7.240  0.2765E+01  0.8898E+01
     -7.230  0.2687E+01  0.8924E+01
     -7.220  0.2610E+01  0.8951E+01
     -7.210  0.2535E+01  0.8976E+01
     -7.200  0.2461E+01  0.9000E+01
     -7.190  0.2388E+01  0.9024E+01
     -7.180  0.2316E+01  0.9047E+01
     -7.170  0.2246E+01  0.9070E+01
     -7.160  0.2178E+01  0.9092E+01
     -7.150  0.2113E+01  0.9113E+01
     -7.140  0.2050E+01  0.9133E+01
     -7.130  0.1989E+01  0.9153E+01
     -7.120  0.1933E+01  0.9173E+01
     -7.110  0.1880E+01  0.9191E+01
     -7.100  0.1833E+01  0.9210E+01
     -7.090  0.1790E+01  0.9228E+01
     -7.080  0.1754E+01  0.9245E+01
     -7.070  0.1725E+01  0.9262E+01
     -7.060  0.1704E+01  0.9279E+01
     -7.050  0.1691E+01  0.9296E+01
     -7.040  0.1687E+01  0.9313E+01
     -7.030  0.1694E+01  0.9330E+01
     -7.020  0.1711E+01  0.9347E+01
     -7.010  0.1740E+01  0.9365E+01
     -7.000  0.1780E+01  0.9382E+01
     -6.990  0.1832E+01  0.9401E+01
     -6.980  0.1897E+01  0.9420E+01
     -6.970  0.1974E+01  0.9440E+01
     -6.960  0.2063E+01  0.9460E+01
     -6.950  0.2163E+01  0.9482E+01
     -6.940  0.2276E+01  0.9505E+01
     -6.930  0.2398E+01  0.9529E+01
     -6.920  0.2531E+01  0.9554E+01
     -6.910  0.2672E+01  0.9581E+01
     -6.900  0.2820E+01  0.9609E+01
     -6.890  0.2975E+01  0.9638E+01
     -6.880  0.3134E+01  0.9670E+01
     -6.870  0.3296E+01  0.9703E+01
     -6.860  0.3459E+01  0.9737E+01
     -6.850  0.3622E+01  0.9774E+01
     -6.840  0.3782E+01  0.9811E+01
     -6.830  0.3938E+01  0.9851E+01
     -6.820  0.4088E+01  0.9892E+01
     -6.810  0.4230E+01  0.9934E+01
     -6.800  0.4363E+01  0.9978E+01
     -6.790  0.4485E+01  0.1002E+02
     -6.780  0.4595E+01  0.1007E+02
     -6.770  0.4692E+01  0.1012E+02
     -6.760  0.4774E+01  0.1016E+02
     -6.750  0.4841E+01  0.1021E+02
     -6.740  0.4892E+01  0.1026E+02
     -6.730  0.4928E+01  0.1031E+02
     -6.720  0.4947E+01  0.1036E+02
     -6.710  0.4950E+01  0.1041E+02
     -6.700  0.4937E+01  0.1046E+02
     -6.690  0.4909E+01  0.1051E+02
     -6.680  0.4866E+01  0.1056E+02
     -6.670  0.4809E+01  0.1060E+02
     -6.660  0.4739E+01  0.1065E+02
     -6.650  0.4656E+01  0.1070E+02
     -6.640  0.4562E+01  0.1074E+02
     -6.630  0.4459E+01  0.1079E+02
     -6.620  0.4346E+01  0.1083E+02
     -6.610  0.4226E+01  0.1087E+02
     -6.600  0.4099E+01  0.1091E+02
     -6.590  0.3967E+01  0.1095E+02
     -6.580  0.3831E+01  0.1099E+02
     -6.570  0.3691E+01  0.1103E+02
     -6.560  0.3550E+01  0.1107E+02
     -6.550  0.3408E+01  0.1110E+02
     -6.540  0.3266E+01  0.1113E+02
     -6.530  0.3126E+01  0.1116E+02
     -6.520  0.2987E+01  0.1119E+02
     -6.510  0.2851E+01  0.1122E+02
     -6.500  0.2718E+01  0.1125E+02
     -6.490  0.2590E+01  0.1127E+02
     -6.480  0.2467E+01  0.1130E+02
     -6.470  0.2350E+01  0.1132E+02
     -6.460  0.2238E+01  0.1135E+02
     -6.450  0.2133E+01  0.1137E+02
     -6.440  0.2035E+01  0.1139E+02
     -6.430  0.1945E+01  0.1141E+02
     -6.420  0.1862E+01  0.1142E+02
     -6.410  0.1787E+01  0.1144E+02
     -6.400  0.1720E+01  0.1146E+02
     -6.390  0.1662E+01  0.1148E+02
     -6.380  0.1611E+01  0.1149E+02
     -6.370  0.1569E+01  0.1151E+02
     -6.360  0.1534E+01  0.1152E+02
     -6.350  0.1508E+01  0.1154E+02
     -6.340  0.1489E+01  0.1155E+02
     -6.330  0.1477E+01  0.1157E+02
     -6.320  0.1471E+01  0.1158E+02
     -6.310  0.1472E+01  0.1160E+02
     -6.300  0.1479E+01  0.1161E+02
     -6.290  0.1491E+01  0.1163E+02
     -6.280  0.1507E+01  0.1164E+02
     -6.270  0.1527E+01  0.1166E+02
     -6.260  0.1550E+01  0.1167E+02
     -6.250  0.1575E+01  0.1169E+02
     -6.240  0.1602E+01  0.1171E+02
     -6.230  0.1630E+01  0.1172E+02
     -6.220  0.1659E+01  0.1174E+02
     -6.210  0.1687E+01  0.1175E+02
     -6.200  0.1714E+01  0.1177E+02
     -6.190  0.1740E+01  0.1179E+02
     -6.180  0.1764E+01  0.1181E+02
     -6.170  0.1785E+01  0.1183E+02
     -6.160  0.1803E+01  0.1184E+02
     -6.150  0.1818E+01  0.1186E+02
     -6.140  0.1829E+01  0.1188E+02
     -6.130  0.1836E+01  0.1190E+02
     -6.120  0.1840E+01  0.1192E+02
     -6.110  0.1839E+01  0.1193E+02
     -6.100  0.1833E+01  0.1195E+02
     -6.090  0.1824E+01  0.1197E+02
     -6.080  0.1810E+01  0.1199E+02
     -6.070  0.1792E+01  0.1201E+02
     -6.060  0.1770E+01  0.1202E+02
     -6.050  0.1744E+01  0.1204E+02
     -6.040  0.1714E+01  0.1206E+02
     -6.030  0.1681E+01  0.1208E+02
     -6.020  0.1645E+01  0.1209E+02
     -6.010  0.1607E+01  0.1211E+02
     -6.000  0.1566E+01  0.1212E+02
     -5.990  0.1523E+01  0.1214E+02
     -5.980  0.1480E+01  0.1215E+02
     -5.970  0.1435E+01  0.1217E+02
     -5.960  0.1391E+01  0.1218E+02
     -5.950  0.1347E+01  0.1220E+02
     -5.940  0.1304E+01  0.1221E+02
     -5.930  0.1262E+01  0.1222E+02
     -5.920  0.1224E+01  0.1223E+02
     -5.910  0.1188E+01  0.1225E+02
     -5.900  0.1156E+01  0.1226E+02
     -5.890  0.1128E+01  0.1227E+02
     -5.880  0.1106E+01  0.1228E+02
     -5.870  0.1089E+01  0.1229E+02
     -5.860  0.1079E+01  0.1230E+02
     -5.850  0.1076E+01  0.1231E+02
     -5.840  0.1081E+01  0.1232E+02
     -5.830  0.1093E+01  0.1233E+02
     -5.820  0.1115E+01  0.1235E+02
     -5.810  0.1145E+01  0.1236E+02
     -5.800  0.1185E+01  0.1237E+02
     -5.790  0.1235E+01  0.1238E+02
     -5.780  0.1294E+01  0.1239E+02
     -5.770  0.1364E+01  0.1241E+02
     -5.760  0.1443E+01  0.1242E+02
     -5.750  0.1533E+01  0.1244E+02
     -5.740  0.1632E+01  0.1245E+02
     -5.730  0.1740E+01  0.1247E+02
     -5.720  0.1857E+01  0.1249E+02
     -5.710  0.1983E+01  0.1251E+02
     -5.700  0.2116E+01  0.1253E+02
     -5.690  0.2256E+01  0.1255E+02
     -5.680  0.2403E+01  0.1258E+02
     -5.670  0.2555E+01  0.1260E+02
     -5.660  0.2711E+01  0.1263E+02
     -5.650  0.2871E+01  0.1266E+02
     -5.640  0.3033E+01  0.1269E+02
     -5.630  0.3196E+01  0.1272E+02
     -5.620  0.3359E+01  0.1275E+02
     -5.610  0.3521E+01  0.1279E+02
     -5.600  0.3680E+01  0.1283E+02
     -5.590  0.3836E+01  0.1286E+02
     -5.580  0.3988E+01  0.1290E+02
     -5.570  0.4134E+01  0.1295E+02
     -5.560  0.4272E+01  0.1299E+02
     -5.550  0.4403E+01  0.1303E+02
     -5.540  0.4526E+01  0.1308E+02
     -5.530  0.4638E+01  0.1312E+02
     -5.520  0.4740E+01  0.1317E+02
     -5.510  0.4831E+01  0.1322E+02
     -5.500  0.4910E+01  0.1327E+02
     -5.490  0.4977E+01  0.1332E+02
     -5.480  0.5031E+01  0.1337E+02
     -5.470  0.5072E+01  0.1342E+02
     -5.460  0.5099E+01  0.1347E+02
     -5.450  0.5113E+01  0.1352E+02
     -5.440  0.5113E+01  0.1357E+02
     -5.430  0.5100E+01  0.1362E+02
     -5.420  0.5074E+01  0.1367E+02
     -5.410  0.5034E+01  0.1373E+02
     -5.400  0.4982E+01  0.1378E+02
     -5.390  0.4917E+01  0.1382E+02
     -5.380  0.4841E+01  0.1387E+02
     -5.370  0.4754E+01  0.1392E+02
     -5.360  0.4656E+01  0.1397E+02
     -5.350  0.4549E+01  0.1401E+02
     -5.340  0.4433E+01  0.1406E+02
     -5.330  0.4309E+01  0.1410E+02
     -5.320  0.4178E+01  0.1414E+02
     -5.310  0.4042E+01  0.1418E+02
     -5.300  0.3900E+01  0.1422E+02
     -5.290  0.3755E+01  0.1426E+02
     -5.280  0.3608E+01  0.1429E+02
     -5.270  0.3459E+01  0.1433E+02
     -5.260  0.3310E+01  0.1436E+02
     -5.250  0.3161E+01  0.1439E+02
     -5.240  0.3015E+01  0.1442E+02
     -5.230  0.2871E+01  0.1445E+02
     -5.220  0.2731E+01  0.1448E+02
     -5.210  0.2597E+01  0.1451E+02
     -5.200  0.2468E+01  0.1453E+02
     -5.190  0.2346E+01  0.1455E+02
     -5.180  0.2232E+01  0.1458E+02
     -5.170  0.2125E+01  0.1460E+02
     -5.160  0.2028E+01  0.1462E+02
     -5.150  0.1940E+01  0.1464E+02
     -5.140  0.1861E+01  0.1466E+02
     -5.130  0.1793E+01  0.1467E+02
     -5.120  0.1734E+01  0.1469E+02
     -5.110  0.1687E+01  0.1471E+02
     -5.100  0.1649E+01  0.1472E+02
     -5.090  0.1621E+01  0.1474E+02
     -5.080  0.1604E+01  0.1476E+02
     -5.070  0.1596E+01  0.1477E+02
     -5.060  0.1597E+01  0.1479E+02
     -5.050  0.1607E+01  0.1480E+02
     -5.040  0.1624E+01  0.1482E+02
     -5.030  0.1649E+01  0.1484E+02
     -5.020  0.1680E+01  0.1485E+02
     -5.010  0.1717E+01  0.1487E+02
     -5.000  0.1758E+01  0.1489E+02
     -4.990  0.1803E+01  0.1491E+02
     -4.980  0.1851E+01  0.1493E+02
     -4.970  0.1901E+01  0.1494E+02
     -4.960  0.1951E+01  0.1496E+02
     -4.950  0.2002E+01  0.1498E+02
     -4.940  0.2051E+01  0.1500E+02
     -4.930  0.2099E+01  0.1503E+02
     -4.920  0.2145E+01  0.1505E+02
     -4.910  0.2187E+01  0.1507E+02
     -4.900  0.2226E+01  0.1509E+02
     -4.890  0.2261E+01  0.1511E+02
     -4.880  0.2291E+01  0.1514E+02
     -4.870  0.2317E+01  0.1516E+02
     -4.860  0.2339E+01  0.1518E+02
     -4.850  0.2356E+01  0.1521E+02
     -4.840  0.2368E+01  0.1523E+02
     -4.830  0.2376E+01  0.1525E+02
     -4.820  0.2381E+01  0.1528E+02
     -4.810  0.2382E+01  0.1530E+02
     -4.800  0.2380E+01  0.1533E+02
     -4.790  0.2376E+01  0.1535E+02
     -4.780  0.2370E+01  0.1537E+02
     -4.770  0.2364E+01  0.1540E+02
     -4.760  0.2357E+01  0.1542E+02
     -4.750  0.2350E+01  0.1544E+02
     -4.740  0.2344E+01  0.1547E+02
     -4.730  0.2340E+01  0.1549E+02
     -4.720  0.2337E+01  0.1551E+02
     -4.710  0.2337E+01  0.1554E+02
     -4.700  0.2340E+01  0.1556E+02
     -4.690  0.2346E+01  0.1558E+02
     -4.680  0.2355E+01  0.1561E+02
     -4.670  0.2368E+01  0.1563E+02
     -4.660  0.2384E+01  0.1566E+02
     -4.650  0.2403E+01  0.1568E+02
     -4.640  0.2425E+01  0.1570E+02
     -4.630  0.2451E+01  0.1573E+02
     -4.620  0.2479E+01  0.1575E+02
     -4.610  0.2509E+01  0.1578E+02
     -4.600  0.2541E+01  0.1580E+02
     -4.590  0.2575E+01  0.1583E+02
     -4.580  0.2609E+01  0.1586E+02
     -4.570  0.2644E+01  0.1588E+02
     -4.560  0.2678E+01  0.1591E+02
     -4.550  0.2711E+01  0.1594E+02
     -4.540  0.2743E+01  0.1596E+02
     -4.530  0.2774E+01  0.1599E+02
     -4.520  0.2802E+01  0.1602E+02
     -4.510  0.2827E+01  0.1605E+02
     -4.500  0.2850E+01  0.1608E+02
     -4.490  0.2869E+01  0.1610E+02
     -4.480  0.2884E+01  0.1613E+02
     -4.470  0.2896E+01  0.1616E+02
     -4.460  0.2904E+01  0.1619E+02
     -4.450  0.2908E+01  0.1622E+02
     -4.440  0.2909E+01  0.1625E+02
     -4.430  0.2907E+01  0.1628E+02
     -4.420  0.2901E+01  0.1631E+02
     -4.410  0.2892E+01  0.1634E+02
     -4.400  0.2881E+01  0.1637E+02
     -4.390  0.2868E+01  0.1639E+02
     -4.380  0.2853E+01  0.1642E+02
     -4.370  0.2837E+01  0.1645E+02
     -4.360  0.2820E+01  0.1648E+02
     -4.350  0.2803E+01  0.1651E+02
     -4.340  0.2787E+01  0.1653E+02
     -4.330  0.2771E+01  0.1656E+02
     -4.320  0.2757E+01  0.1659E+02
     -4.310  0.2744E+01  0.1662E+02
     -4.300  0.2733E+01  0.1664E+02
     -4.290  0.2724E+01  0.1667E+02
     -4.280  0.2717E+01  0.1670E+02
     -4.270  0.2713E+01  0.1673E+02
     -4.260  0.2710E+01  0.1675E+02
     -4.250  0.2710E+01  0.1678E+02
     -4.240  0.2711E+01  0.1681E+02
     -4.230  0.2713E+01  0.1683E+02
     -4.220  0.2717E+01  0.1686E+02
     -4.210  0.2721E+01  0.1689E+02
     -4.200  0.2724E+01  0.1692E+02
     -4.190  0.2726E+01  0.1694E+02
     -4.180  0.2727E+01  0.1697E+02
     -4.170  0.2726E+01  0.1700E+02
     -4.160  0.2722E+01  0.1703E+02
     -4.150  0.2714E+01  0.1705E+02
     -4.140  0.2702E+01  0.1708E+02
     -4.130  0.2686E+01  0.1711E+02
     -4.120  0.2664E+01  0.1713E+02
     -4.110  0.2638E+01  0.1716E+02
     -4.100  0.2605E+01  0.1719E+02
     -4.090  0.2568E+01  0.1721E+02
     -4.080  0.2524E+01  0.1724E+02
     -4.070  0.2475E+01  0.1726E+02
     -4.060  0.2422E+01  0.1729E+02
     -4.050  0.2363E+01  0.1731E+02
     -4.040  0.2301E+01  0.1733E+02
     -4.030  0.2236E+01  0.1735E+02
     -4.020  0.2168E+01  0.1738E+02
     -4.010  0.2098E+01  0.1740E+02
     -4.000  0.2027E+01  0.1742E+02
     -3.990  0.1956E+01  0.1744E+02
     -3.980  0.1886E+01  0.1746E+02
     -3.970  0.1817E+01  0.1747E+02
     -3.960  0.1751E+01  0.1749E+02
     -3.950  0.1688E+01  0.1751E+02
     -3.940  0.1628E+01  0.1752E+02
     -3.930  0.1573E+01  0.1754E+02
     -3.920  0.1523E+01  0.1756E+02
     -3.910  0.1477E+01  0.1757E+02
     -3.900  0.1437E+01  0.1758E+02
     -3.890  0.1401E+01  0.1760E+02
     -3.880  0.1371E+01  0.1761E+02
     -3.870  0.1345E+01  0.1763E+02
     -3.860  0.1324E+01  0.1764E+02
     -3.850  0.1307E+01  0.1765E+02
     -3.840  0.1293E+01  0.1767E+02
     -3.830  0.1283E+01  0.1768E+02
     -3.820  0.1274E+01  0.1769E+02
     -3.810  0.1267E+01  0.1770E+02
     -3.800  0.1262E+01  0.1772E+02
     -3.790  0.1256E+01  0.1773E+02
     -3.780  0.1250E+01  0.1774E+02
     -3.770  0.1243E+01  0.1775E+02
     -3.760  0.1234E+01  0.1777E+02
     -3.750  0.1224E+01  0.1778E+02