    3    3    1    1
  0.8485138E+02  0.3190316E-09  0.3190316E-09  0.2887900E-08  0.5000000E-15
  1.000000000000000E-004
  CAR 
 unknown system                          
     18     10     14
 
  0.0000000E+00  0.0000000E+00  0.0000000E+00  0.1562500E-01
    1      -17.646688   1.000000
    2      -16.438277   1.000000
    3       -9.155807   1.000000
    4       -6.194579   1.000000
    5       -6.194324   1.000000
    6       -5.334498   1.000000
    7       -5.086815   1.000000
    8       -5.086352   1.000000
    9       -3.612036   1.000000
   10       -0.838005   0.000000
   11       -0.837224   0.000000
   12       -0.615058   0.000000
   13       -0.614387   0.000000
   14        1.792616   0.000000
 
  0.1250000E+00  0.0000000E+00  0.0000000E+00  0.9375000E-01
    1      -17.432648   1.000000
    2      -16.335869   1.000000
    3       -8.911751   1.000000
    4       -6.658862   1.000000
    5       -6.141889   1.000000
    6       -5.960454   1.000000
    7       -5.423477   1.000000
    8       -4.655995   1.000000
    9       -3.751189   1.000000
   10       -1.120771   0.000000
   11       -1.054216   0.000000
   12       -0.852689   0.000000
   13       -0.484071   0.000000
   14        2.159322   0.000000
 
  0.2500000E+00  0.0000000E+00  0.0000000E+00  0.9375000E-01
    1      -16.864107   1.000000
    2      -16.066991   1.000000
    3       -8.545910   1.000000
    4       -7.387340   1.000000
    5       -7.123658   1.000000
    6       -6.060207   1.000000
    7       -5.374404   1.000000
    8       -4.908494   1.000000
    9       -4.319830   1.000000
   10       -1.445344   0.000000
   11       -1.269971   0.000000
   12       -0.726973   0.000000
   13        0.131179   0.000000
   14        3.027353   0.000000
 
  0.3750000E+00 -0.5551115E-16  0.0000000E+00  0.9375000E-01
    1      -16.189195   1.000000
    2      -15.758419   1.000000
    3       -8.985053   1.000000
    4       -7.992526   1.000000
    5       -7.518673   1.000000
    6       -6.558530   1.000000
    7       -5.317340   1.000000
    8       -4.784530   1.000000
    9       -4.514012   1.000000
   10       -1.452540   0.000000
   11       -1.172827   0.000000
   12       -0.008341   0.000000
   13        0.523743   0.000000
   14        3.547343   0.000000
 
  0.5000000E+00  0.0000000E+00  0.0000000E+00  0.4687500E-01
    1      -15.860877   1.000000
    2      -15.615050   1.000000
    3       -9.317811   1.000000
    4       -8.358391   1.000000
    5       -7.644160   1.000000
    6       -6.739540   1.000000
    7       -5.455419   1.000000
    8       -4.557396   1.000000
    9       -4.232499   1.000000
   10       -1.431012   0.000000
   11       -0.916228   0.000000
   12        0.291841   0.000000
   13        0.639102   0.000000
   14        2.593964   0.000000
 
  0.1250000E+00  0.1250000E+00  0.0000000E+00  0.9375000E-01
    1      -17.039985   1.000000
    2      -16.148794   1.000000
    3       -8.564574   1.000000
    4       -7.224586   1.000000
    5       -6.704934   1.000000
    6       -6.238084   1.000000
    7       -5.621924   1.000000
    8       -4.521685   1.000000
    9       -4.124123   1.000000
   10       -1.520487   0.000000
   11       -1.142930   0.000000
   12       -1.130736   0.000000
   13        0.110141   0.000000
   14        2.767920   0.000000
 
  0.2500000E+00  0.1250000E+00  0.0000000E+00  0.1875000E+00
    1      -16.406591   1.000000
    2      -15.850140   1.000000
    3       -8.628436   1.000000
    4       -7.650882   1.000000
    5       -7.387575   1.000000
    6       -6.743559   1.000000
    7       -5.522861   1.000000
    8       -4.884519   1.000000
    9       -4.407744   1.000000
   10       -1.604053   0.000000
   11       -1.157233   0.000000
   12       -0.660519   0.000000
   13        0.615410   0.000000
   14        3.736705   0.000000
 
  0.3750000E+00  0.1250000E+00  0.0000000E+00  0.1875000E+00
    1      -15.876180   1.000000
    2      -15.606189   1.000000
    3       -9.030472   1.000000
    4       -8.414489   1.000000
    5       -7.516604   1.000000
    6       -6.761000   1.000000
    7       -5.507865   1.000000
    8       -5.365639   1.000000
    9       -4.081035   1.000000
   10       -1.411985   0.000000
   11       -0.901895   0.000000
   12       -0.036759   0.000000
   13        0.649355   0.000000
   14        3.118625   0.000000
 
  0.2500000E+00  0.2500000E+00  0.0000000E+00  0.9375000E-01
    1      -15.891140   1.000000
    2      -15.597262   1.000000
    3       -8.669506   1.000000
    4       -8.464407   1.000000
    5       -7.190144   1.000000
    6       -6.809302   1.000000
    7       -6.490047   1.000000
    8       -5.232593   1.000000
    9       -4.110618   1.000000
   10       -1.462731   0.000000
   11       -0.851115   0.000000
   12       -0.534413   0.000000
   13        0.933775   0.000000
   14        3.949033   0.000000
 
  0.3750000E+00  0.2500000E+00  0.0000000E+00  0.9375000E-01
    1      -15.656224   1.000000
    2      -15.478204   1.000000
    3       -8.848974   1.000000
    4       -8.500342   1.000000
    5       -7.473464   1.000000
    6       -6.811620   1.000000
    7       -6.583234   1.000000
    8       -5.617869   1.000000
    9       -3.743446   1.000000
   10       -1.789152   0.000000
   11       -0.473612   0.000000
   12       -0.301703   0.000000
   13        1.076992   0.000000
   14        3.363165   0.000000
