unknown system                          
   1.00000000000000     
     3.190316    0.000000    0.000000
    -1.595158    2.762894    0.000000
     0.000000    0.000000   28.879004
   Mo   S 
     1     2
Direct
  0.333333  0.666667  0.128805
  0.666667  0.333333  0.074617
  0.666666  0.333333  0.182992
 
   12   12  112
 0.22075E-02 0.11118E-01 0.68679     0.52618E-03 0.97196     0.13156E-01 0.43924E-02 0.25211E-02 0.88424E-02 0.37844E-03
 0.14291E-01 0.61181E-02 0.32436E-02 0.14772E-02 0.13663E-02 0.23173E-02 0.16533E-01 0.77598E-02 0.36742E-01 0.42981E-02
 0.11382     0.27949E-02 0.20334E-02 0.31889E-02 0.62390E-03 0.26498E-02 0.22206E-02 0.15554E-02 0.23610E-01 0.97840E-02
 0.11395E-01 0.64522E-02 0.28869E-01 0.11206E-01 0.48386E-01 0.85686E-02 0.10209E-02 0.14193E-03 0.99039E-03 0.34090E-02
 0.36840E-02 0.19890E-02 0.55006E-02 0.57634E-02 0.11195E-01 0.94770     0.24292E-01 0.12579E-02 0.18283E-01 0.68988E-02
 0.15248E-02 0.55779E-03 0.30903E-01 0.10612E-01 0.26742E-01 0.12514E-01 0.73125E-01 0.20558E-01 0.29263E-01 0.35484E-01
 0.11565E-02 0.99161E-03 0.89108E-04 0.94138E-04 0.30845E-03 0.16099E-01 0.14623E-01 0.91615     0.23029E-01 0.37793E-02
 0.64598E-02 0.70506E-02 0.30162E-01 0.18704E-02 0.10512E-02 0.57850E-04 0.15244E-02 0.11293E-01 0.51229E-01 0.43012E-01
 0.23227E-01 0.54971E-02 0.18912E-01 0.19461E-01 0.82625E-02 0.21841     0.32620E-03 0.21901E-03 0.42572E-03 0.73965E-03
 0.13058     0.21552E-02 0.12331E-01 0.42557E-02 0.11548E-01 0.36317     0.85390E-02 0.58517     0.16015E-01 0.13182E-03
 0.10845E-01 0.11832E-02 0.33678E-03 0.77216E-03 0.38209     0.15560E-02 0.79031     0.79923     0.87407E-02 0.55592E-03
 0.79580E-01 0.98711E-01 0.66454E-02 0.68131E-04 0.27640E-03 0.73209E-04 0.52183E-02 0.64442E-02 0.99990     0.12380E-02
 0.14814E-02 0.72934E-01 0.60577E-02 0.31048E-03 0.23961E-02 0.10549E-02 0.22511E-03 0.23803E-03 0.40692E-02 0.23153E-03
 0.15274E-01 0.65021     0.27980E-02 0.16993E-02 0.10619E-02 0.11866E-02 0.31274E-02 0.10633E-02 0.11063E-01 0.34282E-03
 0.26080E-01 0.41856E-03 0.55621E-03 0.22140E-02 0.35727E-02 0.78469E-02 0.25976E-01 0.38463E-02 0.18763     0.70233    
 0.29718E-01 0.60437E-01 0.27770E-01 0.27830E-02 0.14454     0.64662E-02 0.48251E-02 0.32168E-02 0.55544E-02 0.73659E-01
 0.63712E-01 0.53592E-01 0.99125     0.34465E-01 0.73286     0.66671E-01 0.11554E-01 0.89593E-02 0.25883E-02 0.26359    
 0.60789E-02 0.10076E-01 0.80684E-01 0.32710     0.69621E-01 0.24132     0.10664     0.70140E-01 0.11368     0.57961    
 0.22645E-01 0.71109E-03 0.68408E-01 0.12739E-01 0.10110     0.19989E-01 0.19355     0.37827E-01 0.79274     0.36829    
 0.78874     0.11123E-01 0.99229     0.74750E-02 0.81219E-01 0.28116E-02 0.52670E-01 0.43099     0.10445     0.87567    
 0.35125     0.72655E-01 0.96561     0.10244     0.10190E-01 0.22558E-01 0.48203E-03 0.12736E-02 0.22712E-02 0.68134    
 0.78082E-01 0.36589     0.76527E-01 0.16614     0.46138E-01 0.21325     0.97873     0.11864E-01 0.43536E-01 0.31129E-03
 0.13550     0.31324E-01 0.10967     0.99821     0.89151     0.42173E-01 0.79195     0.96181E-01 0.44892E-01 0.95017E-01
 0.21145E-02 0.28092E-02 0.15691E-02 0.41923E-02 0.30255     0.16291E-01 0.62128E-01 0.10938     0.73823E-01 0.51931    
 0.35297E-01 0.10343     0.14034E-01 0.66807E-03 0.53900E-02 0.90437E-01 0.17249E-02 0.16646E-01 0.25094     0.13149E-01
 0.30400     0.33145     0.99982     0.28932E-02 0.10148E-01 0.14862E-01 0.56307E-01 0.38011E-03 0.61060E-02 0.41338E-03
 0.94854E-01 0.55304     0.13817     0.84701E-02 0.49871E-02 0.20343E-01 0.47548E-02 0.13145E-02 0.71862E-02 0.24669E-01
 0.13549E-02 0.47177E-02 0.31904E-02 0.10149E-02 0.13576E-01 0.48247E-01 0.44890E-02 0.30934E-02 0.29330E-02 0.54383E-01
 0.11639E-01 0.79516E-02 0.97290     0.25275E-02 0.75590E-01 0.10916E-01 0.15996E-02 0.39474E-02 0.40664E-02 0.79998E-02
 0.26830E-01 0.18196E-01 0.22379     0.66382     0.14632     0.87538     0.84458E-01 0.13746E-01 0.45245E-01 0.74871E-02
 0.65491E-02 0.54379E-02 0.16402E-01 0.92101     0.18917     0.24996     0.82256     0.21472     0.65906     0.91346    
 0.46736E-01 0.21271E-01 0.84136E-02 0.17569E-01 0.14038E-01 0.44439E-01 0.24670     0.98228     0.41764     0.94760    
 0.47848     0.31733     0.27908     0.46535     0.96964     0.28427E-02 0.57031E-01 0.36032E-01 0.99797     0.15355    
 0.92253     0.41068     0.99040     0.78380     0.89574     0.66442E-01 0.40668     0.15805E-01 0.14297E-01 0.99584E-02
 0.11923     0.93543     0.47711     0.99511     0.94497     0.57024     0.95687     0.30429     0.62742E-01 0.99383    
 0.21330E-02 0.62601E-01 0.11596E-01 0.75588     0.33624     0.78149     0.58366     0.80271     0.36651     0.99675    
 0.59238     0.47255E-01 0.10009     0.12877E-02 0.63976E-01 0.75818E-01 0.27980     0.83663     0.96882     0.34853    
 0.97134     0.38061     0.16884     0.12893     0.77096E-02 0.10660     0.28741E-02 0.11672E-01 0.20455     0.85057E-01
 0.24627     0.92455     0.33485     0.56274     0.10534     0.90987E-01 0.17392E-01 0.18350E-02 0.27227E-02 0.12990E-01
 0.59489E-02 0.83977     0.25244     0.74788E-01 0.38382     0.38232     0.18163     0.10346E-01 0.11367E-01 0.80954E-02
 0.75688E-02 0.13116E-02 0.63114E-01 0.19101E-02 0.37702E-01 0.26910     0.16515     0.39354E-01 0.12839E-01 0.15339E-01
 0.73770E-02 0.43144E-02 0.13420E-01 0.21241     0.52215E-02 0.67321     0.57759E-02 0.35682E-02 0.21056E-01 0.44762E-01
 0.63483E-02 0.55249E-02 0.69507E-02 0.16438     0.34272E-01 0.37197E-01 0.29341     0.12573E-01 0.40164E-01 0.19377    
 0.38545E-02 0.59370E-02 0.60402E-02 0.11424E-01 0.37005E-01 0.55904E-01 0.30886     0.57245     0.39118     0.80180    
 0.19068     0.45169E-01 0.47754E-01 0.11145E-01 0.10350E-01 0.93690E-02 0.33749E-01 0.41167     0.38588     0.53990    
 0.77757     0.54570     0.71109     0.79130     0.12365     0.38013E-01 0.19852E-01 0.19437E-01 0.26690E-01 0.12451    
 0.47633     0.83114     0.70135     0.91574     0.71448     0.61678     0.48894     0.34109     0.32712     0.86244E-02
 0.40885E-01 0.77087E-01 0.73453     0.49367     0.92092     0.71318     0.89976     0.80883     0.80395     0.24208    
 0.39634     0.31701E-01 0.20050E-01 0.26661E-01 0.22621     0.77992     0.71765     0.89599     0.85207     0.76072    
 0.85488     0.55042     0.23439     0.31441     0.72689E-02 0.22702     0.40540E-01 0.63231     0.62230     0.80682    
 0.76505     0.94407     0.68531     0.86888     0.60236     0.12825     0.61244E-01 0.47077E-02 0.53747E-01 0.15274    
 0.48708     0.78980     0.85681     0.67922     0.85364     0.65037     0.37681     0.19901     0.22451E-01 0.30821E-01
 0.75489E-02 0.28838E-01 0.24828     0.26984     0.52139     0.90210     0.63006     0.66490     0.22279     0.12383    
 0.30859E-01 0.57123E-02 0.60760E-02 0.16028E-01 0.16855E-01 0.35182     0.33386     0.25719     0.53444     0.50276    
 0.15762     0.26943E-01 0.20335E-01 0.14396E-01 0.12713E-01 0.46066E-02 0.31805E-01 0.67316E-02 0.47906E-01 0.19204    
 0.22765     0.11536     0.26033E-01 0.23032E-01 0.14687E-01 0.11986E-01 0.27496E-01 0.88594E-01 0.15814E-01 0.74230E-01
 0.12643E-01 0.99126E-02 0.33606E-01 0.54438E-01 0.10184E-01 0.10861E-01 0.15430E-01 0.83476E-01 0.77051E-01 0.11353    
 0.26492     0.42658E-01 0.54188E-01 0.56886E-01 0.87464E-02 0.97408E-02 0.10487E-01 0.17570E-01 0.55387E-01 0.13133    
 0.43619     0.63861     0.60601     0.72445     0.35029     0.11322     0.65085E-01 0.17459E-01 0.16669E-01 0.15791E-01
 0.58556E-01 0.39796     0.57488     0.73401     0.83813     0.76812     0.79083     0.72893     0.24253     0.61840E-01
 0.38611E-01 0.25898E-01 0.46359E-01 0.25076     0.65016     0.85528     0.86310     0.92647     0.86382     0.79581    
 0.65500     0.38519     0.29154     0.19305E-01 0.48985E-01 0.14774     0.71199     0.75410     0.92770     0.90136    
 0.94088     0.90085     0.85011     0.48482     0.48695     0.61169E-01 0.29346E-01 0.60427E-01 0.37886     0.80587    
 0.86637     0.93977     0.93931     0.91126     0.90180     0.72973     0.47462     0.28388     0.18041E-01 0.91719E-01
 0.10661     0.67668     0.79255     0.89997     0.91239     0.95063     0.87056     0.86676     0.68316     0.24517    
 0.69812E-01 0.11877E-01 0.67636E-01 0.25544     0.64522     0.84483     0.90092     0.87042     0.89935     0.80491    
 0.56792     0.29097     0.47227E-01 0.29321E-01 0.15156E-01 0.53965E-01 0.32351     0.49681     0.72308     0.87797    
 0.80128     0.77018     0.38350     0.19106     0.51280E-01 0.12863E-01 0.11774E-01 0.21941E-01 0.36878E-01 0.29395    
 0.45437     0.49668     0.67247     0.62754     0.21159     0.59291E-01 0.33811E-01 0.22890E-01 0.19797E-01 0.11409E-01
 0.33304E-01 0.17193E-01 0.76409E-01 0.23975     0.32045     0.24013     0.46508E-01 0.34928E-01 0.24888E-01 0.25515E-01
 0.48952E-01 0.86210E-01 0.36258E-01 0.63934E-01 0.22675E-01 0.21009E-01 0.53365E-01 0.74137E-01 0.16509E-01 0.18511E-01
 0.28361E-01 0.10191     0.15224     0.23433     0.32149     0.10985     0.88484E-01 0.56083E-01 0.15971E-01 0.16036E-01
 0.15948E-01 0.25434E-01 0.85255E-01 0.24442     0.56333     0.71921     0.72924     0.75958     0.50873     0.21938    
 0.96159E-01 0.25422E-01 0.24663E-01 0.23896E-01 0.96750E-01 0.46258     0.69120     0.82071     0.87690     0.85399    
 0.84167     0.75717     0.36901     0.99613E-01 0.67143E-01 0.33028E-01 0.76223E-01 0.38418     0.73914     0.88091    
 0.90880     0.93401     0.90770     0.86212     0.74146     0.46709     0.37180     0.34828E-01 0.66556E-01 0.24714    
 0.75416     0.84734     0.93365     0.93548     0.94717     0.92487     0.88106     0.64276     0.59735     0.11333    
 0.42066E-01 0.12012     0.52739     0.84481     0.90919     0.94661     0.95005     0.93829     0.92091     0.81496    
 0.64178     0.38015     0.36805E-01 0.10002     0.21768     0.74659     0.86094     0.92592     0.93850     0.94993    
 0.91666     0.88920     0.75728     0.39106     0.11398     0.25552E-01 0.11436     0.39068     0.74436     0.88094    
 0.92009     0.91648     0.91929     0.86722     0.69435     0.41890     0.10383     0.48545E-01 0.33652E-01 0.11125    
 0.44614     0.65258     0.81514     0.88947     0.86422     0.83094     0.53566     0.30337     0.96180E-01 0.30065E-01
 0.26949E-01 0.41264E-01 0.78459E-01 0.38147     0.57709     0.65134     0.75002     0.71333     0.30700     0.11609    
 0.56205E-01 0.38381E-01 0.39129E-01 0.27901E-01 0.47494E-01 0.36185E-01 0.12992     0.33696     0.42052     0.37340    
 0.77547E-01 0.51809E-01 0.38175E-01 0.48184E-01 0.93918E-01 0.14141     0.79194E-01 0.82937E-01 0.35965E-01 0.37127E-01
 0.84608E-01 0.11019     0.24555E-01 0.26547E-01 0.46238E-01 0.15402     0.27223     0.38582     0.43707     0.22347    
 0.14944     0.69767E-01 0.23875E-01 0.23979E-01 0.21136E-01 0.35294E-01 0.12659     0.35968     0.65645     0.77803    
 0.79792     0.80276     0.61286     0.33113     0.14222     0.35348E-01 0.34217E-01 0.34013E-01 0.14635     0.53192    
 0.75052     0.85404     0.88993     0.88068     0.86530     0.78613     0.46362     0.15103     0.10605     0.43225E-01
 0.11812     0.48330     0.78064     0.88354     0.91057     0.92457     0.90860     0.87626     0.78211     0.54052    
 0.48245     0.54613E-01 0.99567E-01 0.34287     0.78946     0.86860     0.92128     0.92383     0.93070     0.91608    
 0.88668     0.71493     0.67173     0.19384     0.60051E-01 0.21253     0.61984     0.86714     0.90918     0.93040    
 0.92980     0.92609     0.91503     0.85140     0.73261     0.49972     0.65646E-01 0.13881     0.34248     0.79869    
 0.88316     0.92041     0.92592     0.93158     0.91589     0.89847     0.81106     0.51337     0.18664     0.46958E-01
 0.19070     0.50450     0.80683     0.89359     0.91508     0.91255     0.91532     0.88599     0.76912     0.53513    
 0.18868     0.77847E-01 0.63661E-01 0.19566     0.55844     0.73729     0.85143     0.88932     0.87692     0.85676    
 0.64106     0.42292     0.16254     0.58876E-01 0.49419E-01 0.70874E-01 0.14225     0.50086     0.66238     0.72552    
 0.78643     0.76243     0.40636     0.19265     0.92272E-01 0.63304E-01 0.69428E-01 0.56217E-01 0.72250E-01 0.65022E-01
 0.20865     0.44350     0.50152     0.47597     0.11910     0.77582E-01 0.59487E-01 0.84072E-01 0.16015     0.22182    
 0.14625     0.12481     0.55282E-01 0.59435E-01 0.12877     0.16055     0.34565E-01 0.36858E-01 0.72199E-01 0.22707    
 0.39995     0.51883     0.54526     0.34706     0.23882     0.97057E-01 0.33581E-01 0.33579E-01 0.27842E-01 0.48434E-01
 0.17072     0.43865     0.70252     0.80226     0.82609     0.81683     0.65596     0.42509     0.19559     0.48020E-01
 0.46249E-01 0.47845E-01 0.19505     0.57959     0.76599     0.84812     0.87148     0.86826     0.85783     0.78576    
 0.51434     0.20800     0.15504     0.55528E-01 0.17053     0.53150     0.78796     0.85183     0.86274     0.86384    
 0.85900     0.84931     0.79093     0.57256     0.55853     0.79644E-01 0.13803     0.42156     0.79138     0.84454    
 0.85124     0.81195     0.82025     0.84634     0.85688     0.73659     0.68970     0.30116     0.81290E-01 0.32299    
 0.65490     0.86017     0.85909     0.82011     0.77176     0.81619     0.86291     0.85085     0.77395     0.57141    
 0.11309     0.18469     0.46146     0.81136     0.86953     0.85995     0.81581     0.81945     0.85723     0.87919    
 0.83401     0.59059     0.28657     0.82917E-01 0.29079     0.58007     0.83473     0.87571     0.86374     0.84402    
 0.86628     0.86904     0.79798     0.61910     0.28758     0.13711     0.11663     0.30381     0.62173     0.77329    
 0.84928     0.85835     0.84806     0.84902     0.69190     0.51200     0.24558     0.11237     0.95923E-01 0.12552    
 0.23280     0.58899     0.68911     0.74867     0.79019     0.77465     0.47553     0.26669     0.14502     0.10921    
 0.12611     0.10968     0.11450     0.10697     0.30797     0.51083     0.54669     0.53751     0.16250     0.11107    
 0.92443E-01 0.13580     0.24316     0.31716     0.23917     0.18313     0.79259E-01 0.89599E-01 0.18040     0.21155    
 0.47868E-01 0.51491E-01 0.10516     0.29807     0.49471     0.60964     0.61444     0.45154     0.34011     0.12731    
 0.45965E-01 0.46580E-01 0.37983E-01 0.64794E-01 0.20591     0.47897     0.72387     0.81710     0.84309     0.81973    
 0.67838     0.50158     0.23262     0.62442E-01 0.61465E-01 0.64303E-01 0.23015     0.59698     0.76279     0.83231    
 0.84803     0.84943     0.84238     0.76701     0.53743     0.25207     0.20713     0.68876E-01 0.22007     0.54125    
 0.77811     0.80762     0.78242     0.75396     0.77654     0.80854     0.78291     0.56498     0.56871     0.11663    
 0.16168     0.49112     0.77359     0.80564     0.71846     0.53206     0.53988     0.71456     0.81243     0.74402    
 0.68870     0.40589     0.10966     0.40311     0.67596     0.84492     0.77652     0.53983     0.33637     0.53790    
 0.77817     0.84034     0.80349     0.59380     0.18939     0.22089     0.57186     0.81053     0.84997     0.75056    
 0.53767     0.53615     0.75031     0.85407     0.84788     0.64860     0.37732     0.13584     0.37255     0.64658    
 0.85138     0.85205     0.77930     0.71387     0.78491     0.84625     0.81191     0.68200     0.37230     0.21270    
 0.17839     0.40344     0.65704     0.80001     0.83793     0.81398     0.80427     0.83444     0.71555     0.57456    
 0.32917     0.17810     0.15494     0.19326     0.33714     0.62578     0.69077     0.75487     0.77807     0.76881    
 0.51222     0.32702     0.20889     0.17132     0.19526     0.17506     0.16591     0.16999     0.40886     0.52092    
 0.56066     0.56284     0.19669     0.14776     0.13573     0.19785     0.32567     0.40638     0.33826     0.23395    
 0.10842     0.13325     0.22295     0.24418     0.64175E-01 0.70254E-01 0.14063     0.35798     0.56095     0.66987    
 0.66312     0.54562     0.41745     0.14719     0.62257E-01 0.63861E-01 0.52826E-01 0.83555E-01 0.22730     0.48816    
 0.73151     0.82882     0.85462     0.81942     0.69738     0.54468     0.23984     0.78747E-01 0.80279E-01 0.81195E-01
 0.24523     0.58850     0.75961     0.83249     0.85178     0.85670     0.84239     0.74986     0.54598     0.26565    
 0.24182     0.86596E-01 0.24726     0.52860     0.76847     0.79671     0.76823     0.73193     0.76178     0.79995    
 0.77248     0.54052     0.53274     0.16321     0.17002     0.53913     0.75682     0.79774     0.68109     0.46067    
 0.46483     0.67962     0.79880     0.75541     0.69133     0.43947     0.14201     0.40772     0.69739     0.84510    
 0.76196     0.46461     0.24028     0.46534     0.76126     0.84355     0.82647     0.57194     0.24855     0.23049    
 0.61886     0.80801     0.85644     0.73074     0.46543     0.45931     0.73333     0.85466     0.85678     0.66991    
 0.38323     0.17629     0.37265     0.67924     0.86088     0.85402     0.76209     0.68151     0.76867     0.85068    
 0.82011     0.69702     0.38919     0.24560     0.20977     0.41751     0.65849     0.82406     0.84117     0.80013    
 0.79275     0.83769     0.72432     0.59034     0.35523     0.21064     0.19264     0.22848     0.37250     0.60091    
 0.69153     0.76378     0.76613     0.76306     0.52309     0.35594     0.24240     0.20395     0.22767     0.20616    
 0.19358     0.22447     0.44823     0.49299     0.55777     0.55782     0.21707     0.17919     0.16877     0.23046    
 0.35005     0.42630     0.36632     0.24128     0.13804     0.18433     0.23847     0.25333     0.82318E-01 0.91866E-01
 0.17013     0.38905     0.57915     0.67898     0.67417     0.59328     0.42782     0.15852     0.85442E-01 0.84083E-01
 0.76368E-01 0.10680     0.23180     0.44449     0.68723     0.80107     0.82777     0.78087     0.66865     0.50941    
 0.22786     0.10082     0.10413     0.10126     0.24215     0.55214     0.73513     0.82586     0.85985     0.86669    
 0.83566     0.71891     0.52405     0.25455     0.24243     0.10918     0.24537     0.48702     0.74678     0.80779    
 0.81185     0.79608     0.80727     0.81071     0.74632     0.50201     0.46186     0.18156     0.16259     0.51982    
 0.72445     0.80700     0.75418     0.65415     0.65346     0.75481     0.80531     0.74417     0.65714     0.35487    
 0.14424     0.32107     0.67110     0.84038     0.80739     0.65279     0.51414     0.65671     0.80484     0.83859    
 0.80300     0.47304     0.21153     0.19314     0.52587     0.76845     0.86562     0.79778     0.65695     0.64708    
 0.80192     0.85910     0.82843     0.59603     0.30257     0.17438     0.29734     0.61050     0.83157     0.85894    
 0.80556     0.75872     0.81081     0.85892     0.78618     0.61039     0.33251     0.23987     0.21611     0.34536    
 0.57836     0.80547     0.83539     0.80642     0.80140     0.83612     0.67959     0.50143     0.29673     0.21522    
 0.22019     0.23130     0.30296     0.48666     0.65549     0.75048     0.74052     0.73822     0.48567     0.30797    
 0.20183     0.18811     0.22805     0.21134     0.18335     0.20097     0.36603     0.43228     0.53228     0.51482    
 0.22008     0.18332     0.15435     0.19232     0.29180     0.36005     0.29809     0.19210     0.13872     0.19885    
 0.22764     0.24907     0.10439     0.11263     0.17265     0.34096     0.49239     0.58896     0.59390     0.51669    
 0.34191     0.15764     0.11252     0.10711     0.12195     0.14609     0.22170     0.32902     0.53001     0.66753    
 0.70003     0.63914     0.52093     0.37879     0.21227     0.13863     0.14208     0.13564     0.23649     0.48470    
 0.63469     0.74749     0.81159     0.81901     0.76117     0.62483     0.45140     0.24475     0.22285     0.13457    
 0.22749     0.40370     0.67490     0.77769     0.80610     0.80555     0.80515     0.77497     0.66621     0.43332    
 0.34701     0.15119     0.13739     0.40559     0.62348     0.76506     0.77742     0.75654     0.75039     0.77847    
 0.76694     0.65305     0.51301     0.21881     0.11129     0.19913     0.52635     0.77385     0.80345     0.74917    
 0.70079     0.75610     0.80079     0.76489     0.66442     0.32751     0.15139     0.14828     0.34870     0.62479    
 0.81822     0.81075     0.75632     0.74465     0.81578     0.80590     0.70199     0.45719     0.23821     0.15709    
 0.23825     0.46894     0.70201     0.80469     0.80249     0.78330     0.80562     0.80880     0.64272     0.46276    
 0.28201     0.21907     0.20362     0.28725     0.44539     0.67473     0.75656     0.77087     0.76206     0.76976    
 0.52136     0.34278     0.23878     0.20232     0.21413     0.21422     0.23735     0.33064     0.51304     0.65674    
 0.66203     0.64163     0.37505     0.20125     0.14868     0.16554     0.21085     0.20032     0.16498     0.14830    
 0.22517     0.32599     0.46717     0.42896     0.20813     0.15408     0.11180     0.14202     0.23554     0.30013    
 0.23472     0.14333     0.10806     0.16137     0.20819     0.24758     0.14105     0.13224     0.14343     0.22660    
 0.33658     0.44376     0.45575     0.35256     0.21286     0.13752     0.13672     0.14403     0.21384     0.22827    
 0.22334     0.21483     0.32429     0.43265     0.46229     0.40898     0.31442     0.24830     0.21800     0.21340    
 0.21758     0.20383     0.26312     0.41433     0.43721     0.52201     0.61097     0.61235     0.54237     0.44794    
 0.36295     0.26727     0.22273     0.17884     0.22493     0.31040     0.54678     0.64405     0.66798     0.68082    
 0.67688     0.62694     0.51994     0.35357     0.23731     0.13343     0.13018     0.27840     0.42952     0.60457    
 0.68285     0.69185     0.67865     0.67844     0.61871     0.46523     0.31117     0.15205     0.10283     0.13936    
 0.32595     0.56644     0.66583     0.67699     0.66404     0.68787     0.67042     0.54542     0.42385     0.21225    
 0.10820     0.10937     0.21561     0.39573     0.61906     0.69010     0.68838     0.67238     0.69779     0.59633    
 0.46752     0.29399     0.12796     0.75210E-01 0.12987     0.30025     0.46248     0.59429     0.67446     0.68349    
 0.67426     0.60172     0.40624     0.29571     0.14197     0.77969E-01 0.72271E-01 0.14403     0.28825     0.43665    
 0.52706     0.63450     0.60452     0.56185     0.31680     0.21777     0.12903     0.71941E-01 0.66518E-01 0.75681E-01
 0.12737     0.21281     0.31510     0.46057     0.52371     0.45033     0.25650     0.14227     0.10803     0.78984E-01
 0.74265E-01 0.71944E-01 0.79409E-01 0.10600     0.15525     0.22227     0.38758     0.33727     0.20743     0.14307    
 0.10158     0.10328     0.12860     0.14993     0.12506     0.10602     0.10131     0.14248     0.20725     0.28015    
 0.21597     0.16693     0.13184     0.16147     0.21297     0.28328     0.29515     0.22220     0.14855     0.13025    
 0.17478     0.21954     0.34791     0.36252     0.26251     0.18641     0.22548     0.24256     0.24215     0.23224    
 0.21075     0.21432     0.27312     0.33177     0.33645     0.30967     0.36588     0.39619     0.26581     0.27650    
 0.31286     0.30410     0.28911     0.29659     0.33189     0.34703     0.27492     0.26209     0.26092     0.27778    
 0.43904     0.41348     0.37044     0.38093     0.39170     0.39397     0.37775     0.32720     0.21040     0.17224    
 0.18068     0.24134     0.26091     0.37441     0.44909     0.43566     0.42314     0.42933     0.38950     0.30347    
 0.20945     0.15957     0.13515     0.14814     0.22855     0.30325     0.36896     0.42425     0.42754     0.43178    
 0.38693     0.29037     0.23713     0.14061     0.80161E-01 0.80998E-01 0.13839     0.22591     0.31881     0.38323    
 0.43372     0.41797     0.39360     0.29701     0.24705     0.13771     0.38616E-01 0.16477E-01 0.39909E-01 0.13899    
 0.24084     0.29935     0.38818     0.43537     0.38503     0.30263     0.22779     0.13743     0.29163E-01 0.49855E-02
 0.44564E-02 0.29590E-01 0.13560     0.24513     0.27332     0.41568     0.36770     0.30622     0.21874     0.14198    
 0.39160E-01 0.44600E-02 0.20604E-02 0.46530E-02 0.38951E-01 0.13986     0.21725     0.28635     0.40343     0.28071    
 0.22127     0.15124     0.80295E-01 0.17318E-01 0.45171E-02 0.45956E-02 0.17439E-01 0.78080E-01 0.16110     0.19936    
 0.35543     0.31117     0.24912     0.19347     0.13230     0.77029E-01 0.39827E-01 0.30439E-01 0.37528E-01 0.79690E-01
 0.13486     0.18679     0.24989     0.38180     0.33990     0.23113     0.18110     0.16840     0.13779     0.13298    
 0.13920     0.14426     0.15642     0.17373     0.25098     0.33457     0.44517     0.46249     0.30223     0.22193    
 0.21639     0.16299     0.14354     0.16218     0.19446     0.24262     0.34239     0.42764     0.42608     0.39980    
 0.50935     0.40682     0.20125     0.17644     0.16255     0.15351     0.17710     0.24476     0.36049     0.43817    
 0.34511     0.33291     0.30081     0.32486     0.40853     0.24171     0.17457     0.17121     0.18984     0.24236    
 0.31333     0.35881     0.24077     0.23305     0.25701     0.25617     0.19955     0.24500     0.24219     0.19636    
 0.19624     0.22211     0.24170     0.24625     0.19419     0.19696     0.18000     0.18970     0.21799     0.17586    
 0.17435     0.20023     0.19527     0.19834     0.18840     0.17774     0.16244     0.12043     0.79205E-01 0.78469E-01
 0.11579     0.16178     0.16476     0.16565     0.20004     0.19446     0.17239     0.15294     0.14658     0.76666E-01
 0.16675E-01 0.58037E-02 0.17803E-01 0.75931E-01 0.14195     0.15816     0.18464     0.22947     0.18309     0.15722    
 0.15880     0.75808E-01 0.72412E-02 0.17231E-03 0.13050E-03 0.73225E-02 0.75939E-01 0.16577     0.16831     0.25846    
 0.22824     0.18450     0.20767     0.11946     0.17209E-01 0.13398E-03 0.56649E-05 0.13623E-03 0.17258E-01 0.11868    
 0.20681     0.21928     0.36383     0.21735     0.23727     0.19309     0.78673E-01 0.60430E-02 0.12842E-03 0.16280E-03
 0.60453E-02 0.76994E-01 0.19504     0.23900     0.36117     0.36519     0.31243     0.26069     0.17587     0.76719E-01
 0.17814E-01 0.72858E-02 0.16425E-01 0.78703E-01 0.18255     0.25181     0.31099     0.48901     0.44358     0.28933    
 0.26052     0.20151     0.11584     0.75103E-01 0.77602E-01 0.12124     0.19500     0.23515     0.32538     0.41495    
 0.43779     0.43850     0.28251     0.24025     0.21644     0.16257     0.15145     0.16920     0.19391     0.23744    
 0.33399     0.42386     0.41434     0.40763     0.52188     0.34574     0.20545     0.19654     0.17170     0.16158    
 0.18547     0.24978     0.35506     0.42756     0.33826     0.31740     0.28436     0.37232     0.40396     0.23295    
 0.19189     0.19078     0.20391     0.25340     0.31747     0.35655     0.23711     0.22925     0.25490     0.22778    
 0.20780     0.27990     0.25503     0.20718     0.21453     0.23867     0.25500     0.24744     0.19457     0.19073    
 0.17347     0.19399     0.21478     0.17275     0.19266     0.22119     0.21034     0.21324     0.20393     0.18602    
 0.16654     0.12263     0.79023E-01 0.76106E-01 0.11674     0.17383     0.17168     0.17936     0.21486     0.21448    
 0.18587     0.16430     0.15349     0.80722E-01 0.17479E-01 0.64505E-02 0.18976E-01 0.78454E-01 0.14946     0.17296    
 0.19616     0.24801     0.19590     0.16902     0.16701     0.79193E-01 0.83980E-02 0.22674E-03 0.18842E-03 0.83958E-02
 0.80573E-01 0.16595     0.18312     0.25877     0.25252     0.18547     0.20701     0.11974     0.18330E-01 0.19735E-03
 0.89671E-05 0.19478E-03 0.18360E-01 0.12040     0.20813     0.21902     0.37024     0.22165     0.21953     0.19575    
 0.77368E-01 0.64379E-02 0.19015E-03 0.24263E-03 0.63641E-02 0.77202E-01 0.18549     0.25084     0.32511     0.39353    
 0.32196     0.24225     0.17090     0.77711E-01 0.18875E-01 0.80233E-02 0.17818E-01 0.78011E-01 0.17868     0.23910    
 0.31662     0.45717     0.43740     0.28895     0.26208     0.18733     0.11736     0.80741E-01 0.81292E-01 0.12115    
 0.19142     0.22864     0.32176     0.39906     0.33062     0.31581     0.22819     0.23064     0.23258     0.24236    
 0.27065     0.25941     0.21689     0.20889     0.26245     0.32092     0.31197     0.32090     0.38722     0.29136    
 0.28712     0.34675     0.34435     0.33088     0.32085     0.32047     0.32764     0.32976     0.26281     0.23522    
 0.22910     0.37825     0.43649     0.38701     0.42605     0.44956     0.43163     0.42202     0.39365     0.33291    
 0.21220     0.16609     0.18177     0.18958     0.29234     0.46517     0.48322     0.46200     0.48130     0.47358    
 0.42717     0.31243     0.21848     0.15159     0.12543     0.16113     0.22988     0.29422     0.42819     0.48967    
 0.47569     0.47285     0.43589     0.32031     0.25180     0.15170     0.82805E-01 0.79073E-01 0.14506     0.27040    
 0.34109     0.42731     0.47486     0.48444     0.43216     0.34112     0.27123     0.15480     0.45118E-01 0.22131E-01
 0.47640E-01 0.14919     0.26775     0.35533     0.42298     0.48039     0.42449     0.34605     0.25811     0.15159    
 0.39747E-01 0.77142E-02 0.76828E-02 0.39474E-01 0.15582     0.24596     0.32712     0.41849     0.43548     0.31196    
 0.22660     0.14711     0.46645E-01 0.78599E-02 0.41929E-02 0.75373E-02 0.46977E-01 0.14931     0.22824     0.29101    
 0.42751     0.29725     0.19216     0.16064     0.80919E-01 0.21492E-01 0.75440E-02 0.83658E-02 0.21221E-01 0.81765E-01
 0.14655     0.23178     0.29304     0.37035     0.26707     0.16490     0.12512     0.82988E-01 0.47820E-01 0.37379E-01
 0.46433E-01 0.82251E-01 0.12987     0.16493     0.26364     0.33138     0.32486     0.23004     0.18529     0.14478    
 0.14592     0.15775     0.15514     0.14741     0.15371     0.16641     0.24145     0.30300     0.19883     0.19604    