       N       E                     dE             d eps       ncg     rms          rms(c)
DAV:   1     0.929493778560E+02    0.92949E+02   -0.43515E+03   304   0.513E+02
DAV:   2    -0.123584586401E+02   -0.10531E+03   -0.99740E+02   466   0.140E+02
DAV:   3    -0.231837066320E+02   -0.10825E+02   -0.10716E+02   382   0.560E+01
DAV:   4    -0.233667594698E+02   -0.18305E+00   -0.18102E+00   366   0.873E+00
DAV:   5    -0.233715652186E+02   -0.48057E-02   -0.48036E-02   364   0.136E+00    0.691E+00
RMM:   6    -0.222125272858E+02    0.11590E+01   -0.54098E+00   292   0.116E+01    0.263E+00
RMM:   7    -0.218294152692E+02    0.38311E+00   -0.56525E-01   290   0.330E+00    0.154E+00
RMM:   8    -0.217689369356E+02    0.60478E-01   -0.23375E-01   305   0.245E+00    0.349E-01
RMM:   9    -0.217643010037E+02    0.46359E-02   -0.81742E-03   335   0.548E-01    0.929E-02
RMM:  10    -0.217636062181E+02    0.69479E-03   -0.16446E-03   339   0.209E-01    0.435E-02
RMM:  11    -0.217635871855E+02    0.19033E-04   -0.17609E-03   315   0.185E-01    0.537E-02
RMM:  12    -0.217634965691E+02    0.90616E-04   -0.53132E-04   307   0.124E-01    0.150E-02
RMM:  13    -0.217639304726E+02   -0.43390E-03   -0.13957E-04   307   0.607E-02    0.182E-02
RMM:  14    -0.217639906819E+02   -0.60209E-04   -0.25521E-05   327   0.253E-02    0.521E-03
RMM:  15    -0.217641149449E+02   -0.12426E-03   -0.14084E-05   284   0.147E-02    0.384E-03
RMM:  16    -0.217641535401E+02   -0.38595E-04   -0.28356E-06   239   0.708E-03    0.257E-03
RMM:  17    -0.217641908877E+02   -0.37348E-04   -0.22138E-06   203   0.689E-03    0.226E-03
RMM:  18    -0.217641946679E+02   -0.37802E-05   -0.20852E-07   159   0.272E-03    0.194E-03
RMM:  19    -0.217642045344E+02   -0.98666E-05   -0.68688E-07   193   0.408E-03    0.196E-03
RMM:  20    -0.217642069038E+02   -0.23693E-05   -0.13044E-07   145   0.228E-03    0.183E-03
RMM:  21    -0.217642078396E+02   -0.93586E-06   -0.10804E-08    73   0.102E-03
   1 F= -.22355052E+02 E0= -.22355052E+02  d E =-.837413E-10
