<?xml version="1.0" encoding="ISO-8859-1"?>
<modeling>
 <generator>
  <i name="program" type="string">vasp </i>
  <i name="version" type="string">5.4.4.18Apr17-6-g9f103f2a35  </i>
  <i name="subversion" type="string">(build Jun 30 2017 11:15:00) complex            parallel </i>
  <i name="platform" type="string">STALLO_VASP_5.4.4 </i>
  <i name="date" type="string">2019 11 08 </i>
  <i name="time" type="string">11:46:58 </i>
 </generator>
 <incar>
  <i type="string" name="PREC">normal    ! low/normal/accurate</i>
  <i type="string" name="ALGO"> Fast      ! Algorithm for electronic re</i>
  <i type="int" name="ISPIN">     1</i>
  <i type="int" name="NELMIN">     4</i>
  <i name="EDIFF">      0.00000100</i>
  <i type="int" name="NSW">     0</i>
  <i name="ENCUT">    250.00000000</i>
  <i type="int" name="NEDOS">  2401</i>
  <i type="string" name="LREAL"> Auto      ! Projection in reciprocal sp</i>
  <i name="EMIN">    -12.00000000</i>
  <i name="EMAX">     12.00000000</i>
  <i type="int" name="ISMEAR">     0</i>
  <i name="SIGMA">      0.20000000</i>
  <i type="logical" name="LWAVE"> F  </i>
  <i type="int" name="LORBIT">    11</i>
  <i type="logical" name="LELF"> T  </i>
  <v type="int" name="KPOINT_BSE">    -1     0     0     0</v>
 </incar>
 <structure name="primitive_cell" >
  <crystal>
   <varray name="basis" >
    <v>       3.19031573       0.00000000       0.00000000 </v>
    <v>      -1.59515786       2.76289447       0.00000000 </v>
    <v>       0.00000000       0.00000000      28.87900430 </v>
   </varray>
   <i name="volume">    254.55414751 </i>
   <varray name="rec_basis" >
    <v>       0.31344860       0.18096963       0.00000000 </v>
    <v>       0.00000000       0.36193927       0.00000000 </v>
    <v>       0.00000000       0.00000000       0.03462723 </v>
   </varray>
  </crystal>
  <varray name="positions" >
   <v>       0.33333300      -0.33333300       0.12880469 </v>
   <v>      -0.33333400       0.33333300       0.18299230 </v>
   <v>      -0.33333300       0.33333300       0.07461707 </v>
  </varray>
 </structure>
 <varray name="primitive_index" >
  <v type="int" >        1 </v>
  <v type="int" >        3 </v>
  <v type="int" >        2 </v>
 </varray>
 <kpoints>
  <generation param="Gamma">
   <v type="int" name="divisions">       8        8        1 </v>
   <v name="usershift">      0.00000000       0.00000000       0.00000000 </v>
   <v name="genvec1">      0.12500000       0.00000000       0.00000000 </v>
   <v name="genvec2">      0.00000000       0.12500000       0.00000000 </v>
   <v name="genvec3">      0.00000000       0.00000000       1.00000000 </v>
   <v name="shift">      0.00000000       0.00000000       0.00000000 </v>
  </generation>
  <varray name="kpointlist" >
   <v>       0.00000000       0.00000000       0.00000000 </v>
   <v>       0.12500000       0.00000000       0.00000000 </v>
   <v>       0.25000000       0.00000000       0.00000000 </v>
   <v>       0.37500000      -0.00000000       0.00000000 </v>
   <v>       0.50000000       0.00000000       0.00000000 </v>
   <v>       0.12500000       0.12500000       0.00000000 </v>
   <v>       0.25000000       0.12500000       0.00000000 </v>
   <v>       0.37500000       0.12500000       0.00000000 </v>
   <v>       0.25000000       0.25000000       0.00000000 </v>
   <v>       0.37500000       0.25000000       0.00000000 </v>
  </varray>
  <varray name="weights" >
   <v>       0.01562500 </v>
   <v>       0.09375000 </v>
   <v>       0.09375000 </v>
   <v>       0.09375000 </v>
   <v>       0.04687500 </v>
   <v>       0.09375000 </v>
   <v>       0.18750000 </v>
   <v>       0.18750000 </v>
   <v>       0.09375000 </v>
   <v>       0.09375000 </v>
  </varray>
 </kpoints>
 <parameters>
  <separator name="general" >
   <i type="string" name="SYSTEM">unknown system</i>
   <i type="logical" name="LCOMPAT"> F  </i>
  </separator>
  <separator name="electronic" >
   <i type="string" name="PREC">normal</i>
   <i name="ENMAX">    250.00000000</i>
   <i name="ENAUG">    345.27800000</i>
   <i name="EDIFF">      0.00000100</i>
   <i type="int" name="IALGO">    68</i>
   <i type="int" name="IWAVPR">    10</i>
   <i type="int" name="NBANDS">    14</i>
   <i name="NELECT">     18.00000000</i>
   <i type="int" name="TURBO">     0</i>
   <i type="int" name="IRESTART">     0</i>
   <i type="int" name="NREBOOT">     0</i>
   <i type="int" name="NMIN">     0</i>
   <i name="EREF">      0.00000000</i>
   <separator name="electronic smearing" >
    <i type="int" name="ISMEAR">     0</i>
    <i name="SIGMA">      0.20000000</i>
    <i name="KSPACING">      0.50000000</i>
    <i type="logical" name="KGAMMA"> T  </i>
   </separator>
   <separator name="electronic projectors" >
    <i type="logical" name="LREAL"> T  </i>
    <v name="ROPT">     -0.00050000     -0.00050000</v>
    <i type="int" name="LMAXPAW">  -100</i>
    <i type="int" name="LMAXMIX">     2</i>
    <i type="logical" name="NLSPLINE"> F  </i>
   </separator>
   <separator name="electronic startup" >
    <i type="int" name="ISTART">     0</i>
    <i type="int" name="ICHARG">     2</i>
    <i type="int" name="INIWAV">     1</i>
   </separator>
   <separator name="electronic spin" >
    <i type="int" name="ISPIN">     1</i>
    <i type="logical" name="LNONCOLLINEAR"> F  </i>
    <v name="MAGMOM">      1.00000000      1.00000000      1.00000000</v>
    <i name="NUPDOWN">     -1.00000000</i>
    <i type="logical" name="LSORBIT"> F  </i>
    <v name="SAXIS">      0.00000000      0.00000000      1.00000000</v>
    <i type="logical" name="LSPIRAL"> F  </i>
    <v name="QSPIRAL">      0.00000000      0.00000000      0.00000000</v>
    <i type="logical" name="LZEROZ"> F  </i>
   </separator>
   <separator name="electronic exchange-correlation" >
    <i type="logical" name="LASPH"> F  </i>
    <i type="logical" name="LMETAGGA"> F  </i>
   </separator>
   <separator name="electronic convergence" >
    <i type="int" name="NELM">    60</i>
    <i type="int" name="NELMDL">    -5</i>
    <i type="int" name="NELMIN">     4</i>
    <i name="ENINI">    250.00000000</i>
    <separator name="electronic convergence detail" >
     <i type="logical" name="LDIAG"> T  </i>
     <i type="logical" name="LSUBROT"> F  </i>
     <i name="WEIMIN">      0.00000000</i>
     <i name="EBREAK">      0.00000002</i>
     <i name="DEPER">      0.30000000</i>
     <i type="int" name="NRMM">     4</i>
     <i name="TIME">      0.40000000</i>
    </separator>
   </separator>
   <separator name="electronic mixer" >
    <i name="AMIX">      0.40000000</i>
    <i name="BMIX">      1.00000000</i>
    <i name="AMIN">      0.10000000</i>
    <i name="AMIX_MAG">      1.60000000</i>
    <i name="BMIX_MAG">      1.00000000</i>
    <separator name="electronic mixer details" >
     <i type="int" name="IMIX">     4</i>
     <i type="logical" name="MIXFIRST"> F  </i>
     <i type="int" name="MAXMIX">   -45</i>
     <i name="WC">    100.00000000</i>
     <i type="int" name="INIMIX">     1</i>
     <i type="int" name="MIXPRE">     1</i>
     <i type="int" name="MREMOVE">     5</i>
    </separator>
   </separator>
   <separator name="electronic dipolcorrection" >
    <i type="logical" name="LDIPOL"> F  </i>
    <i type="logical" name="LMONO"> F  </i>
    <i type="int" name="IDIPOL">     0</i>
    <i name="EPSILON">      1.00000000</i>
    <v name="DIPOL">   -100.00000000   -100.00000000   -100.00000000</v>
    <i name="EFIELD">      0.00000000</i>
   </separator>
  </separator>
  <separator name="grids" >
   <i type="int" name="NGX">    12</i>
   <i type="int" name="NGY">    12</i>
   <i type="int" name="NGZ">   112</i>
   <i type="int" name="NGXF">    24</i>
   <i type="int" name="NGYF">    24</i>
   <i type="int" name="NGZF">   224</i>
   <i type="logical" name="ADDGRID"> F  </i>
  </separator>
  <separator name="ionic" >
   <i type="int" name="NSW">     0</i>
   <i type="int" name="IBRION">    -1</i>
   <i type="int" name="MDALGO">     0</i>
   <i type="int" name="ISIF">     2</i>
   <i name="PSTRESS">      0.00000000</i>
   <i name="EDIFFG">      0.00001000</i>
   <i type="int" name="NFREE">     0</i>
   <i name="POTIM">      0.50000000</i>
   <i name="SMASS">     -3.00000000</i>
   <i name="SCALEE">      1.00000000</i>
  </separator>
  <separator name="ionic md" >
   <i name="TEBEG">      0.00010000</i>
   <i name="TEEND">      0.00010000</i>
   <i type="int" name="NBLOCK">     1</i>
   <i type="int" name="KBLOCK">     1</i>
   <i type="int" name="NPACO">   256</i>
   <i name="APACO">     16.00000000</i>
  </separator>
  <separator name="symmetry" >
   <i type="int" name="ISYM">     2</i>
   <i name="SYMPREC">      0.00001000</i>
  </separator>
  <separator name="dos" >
   <i type="int" name="LORBIT">    11</i>
   <v name="RWIGS">     -1.00000000     -1.00000000</v>
   <i type="int" name="NEDOS">  2401</i>
   <i name="EMIN">    -12.00000000</i>
   <i name="EMAX">     12.00000000</i>
   <i name="EFERMI">      0.00000000</i>
  </separator>
  <separator name="writing" >
   <i type="int" name="NWRITE">     2</i>
   <i type="logical" name="LWAVE"> F  </i>
   <i type="logical" name="LDOWNSAMPLE"> F  </i>
   <i type="logical" name="LCHARG"> T  </i>
   <i type="logical" name="LPARD"> F  </i>
   <i type="logical" name="LVTOT"> F  </i>
   <i type="logical" name="LVHAR"> F  </i>
   <i type="logical" name="LELF"> T  </i>
   <i type="logical" name="LOPTICS"> F  </i>
   <v name="STM">      0.00000000      0.00000000      0.00000000      0.00000000      0.00000000      0.00000000      0.00000000</v>
  </separator>
  <separator name="performance" >
   <i type="int" name="NPAR">     2</i>
   <i type="int" name="NSIM">     4</i>
   <i type="int" name="NBLK">    -1</i>
   <i type="logical" name="LPLANE"> T  </i>
   <i type="logical" name="LSCALAPACK"> T  </i>
   <i type="logical" name="LSCAAWARE"> F  </i>
   <i type="logical" name="LSCALU"> F  </i>
   <i type="logical" name="LASYNC"> F  </i>
   <i type="logical" name="LORBITALREAL"> F  </i>
  </separator>
  <separator name="miscellaneous" >
   <i type="int" name="IDIOT">     3</i>
   <i type="int" name="ISPECIAL">     0</i>
   <i type="logical" name="LMUSIC"> F  </i>
   <v name="POMASS">     95.94000000     32.06600000</v>
   <v name="DARWINR">      0.00000000      0.00000000</v>
   <v name="DARWINV">      1.00000000      1.00000000</v>
   <i type="logical" name="LCORR"> T  </i>
  </separator>
  <i type="logical" name="GGA_COMPAT"> T  </i>
  <i type="logical" name="LBERRY"> F  </i>
  <i type="int" name="ICORELEVEL">     0</i>
  <i type="logical" name="LDAU"> F  </i>
  <i type="int" name="I_CONSTRAINED_M">     0</i>
  <separator name="electronic exchange-correlation" >
   <i type="string" name="GGA">--</i>
   <i type="int" name="VOSKOWN">     0</i>
   <i type="logical" name="LHFCALC"> F  </i>
   <i type="string" name="PRECFOCK"></i>
   <i type="logical" name="LSYMGRAD"> F  </i>
   <i type="logical" name="LHFONE"> F  </i>
   <i type="logical" name="LRHFCALC"> F  </i>
   <i type="logical" name="LTHOMAS"> F  </i>
   <i type="logical" name="LMODELHF"> F  </i>
   <i name="ENCUT4O">     -1.00000000</i>
   <i type="int" name="EXXOEP">     0</i>
   <i type="int" name="FOURORBIT">     0</i>
   <i name="AEXX">      0.00000000</i>
   <i name="HFALPHA">      0.00000000</i>
   <i name="MCALPHA">      0.00000000</i>
   <i name="ALDAX">      1.00000000</i>
   <i name="AGGAX">      1.00000000</i>
   <i name="ALDAC">      1.00000000</i>
   <i name="AGGAC">      1.00000000</i>
   <i type="int" name="NKREDX">     1</i>
   <i type="int" name="NKREDY">     1</i>
   <i type="int" name="NKREDZ">     1</i>
   <i type="logical" name="SHIFTRED"> F  </i>
   <i type="logical" name="ODDONLY"> F  </i>
   <i type="logical" name="EVENONLY"> F  </i>
   <i type="int" name="LMAXFOCK">     0</i>
   <i type="int" name="NMAXFOCKAE">     0</i>
   <i type="logical" name="LFOCKAEDFT"> F  </i>
   <i name="HFSCREEN">      0.00000000</i>
   <i name="HFSCREENC">      0.00000000</i>
   <i type="int" name="NBANDSGWLOW">     0</i>
  </separator>
  <separator name="vdW DFT" >
   <i type="logical" name="LUSE_VDW"> F  </i>
   <i name="Zab_VDW">     -0.84910000</i>
   <i name="PARAM1">      0.12340000</i>
   <i name="PARAM2">      1.00000000</i>
   <i name="PARAM3">      0.00000000</i>
  </separator>
  <separator name="model GW" >
   <i type="int" name="MODEL_GW">     0</i>
   <i name="MODEL_EPS0">     50.91082950</i>
   <i name="MODEL_ALPHA">      1.00000000</i>
  </separator>
  <separator name="linear response parameters" >
   <i type="logical" name="LEPSILON"> F  </i>
   <i type="logical" name="LRPA"> F  </i>
   <i type="logical" name="LNABLA"> F  </i>
   <i type="logical" name="LVEL"> F  </i>
   <i type="int" name="KINTER">     0</i>
   <i name="CSHIFT">      0.10000000</i>
   <i name="OMEGAMAX">     -1.00000000</i>
   <i name="DEG_THRESHOLD">      0.00200000</i>
   <i name="RTIME">     -0.10000000</i>
   <i name="WPLASMAI">      0.00000000</i>
   <v name="DFIELD">      0.00000000      0.00000000      0.00000000</v>
   <v name="WPLASMA">      0.00000000      0.00000000      0.00000000      0.00000000      0.00000000      0.00000000      0.00000000      0.00000000      0.00000000</v>
  </separator>
  <separator name="orbital magnetization" >
   <i type="logical" name="NUCIND"> F  </i>
   <v name="MAGPOS">      0.00000000      0.00000000      0.00000000</v>
   <i type="logical" name="LNICSALL"> T  </i>
   <i type="logical" name="ORBITALMAG"> F  </i>
   <i type="logical" name="LMAGBLOCH"> F  </i>
   <i type="logical" name="LCHIMAG"> F  </i>
   <i type="logical" name="LGAUGE"> T  </i>
   <i type="int" name="MAGATOM">     0</i>
   <v name="MAGDIPOL">      0.00000000      0.00000000      0.00000000</v>
   <v name="AVECCONST">      0.00000000      0.00000000      0.00000000</v>
  </separator>
  <separator name="response functions" >
   <i type="logical" name="LADDER"> F  </i>
   <i type="logical" name="LRPAFORCE"> F  </i>
   <i type="logical" name="LFXC"> F  </i>
   <i type="logical" name="LHARTREE"> T  </i>
   <i type="int" name="IBSE">     0</i>
   <v type="int" name="KPOINT">    -1     0     0     0</v>
   <i type="logical" name="LTCTE"> F  </i>
   <i type="logical" name="LTETE"> F  </i>
   <i type="logical" name="LTRIPLET"> F  </i>
   <i type="logical" name="LFXCEPS"> F  </i>
   <i type="logical" name="LFXHEG"> F  </i>
   <i type="int" name="NATURALO">     2</i>
   <i type="logical" name="L2ORDER"> F  </i>
   <i type="logical" name="LMP2LT"> F  </i>
   <i type="logical" name="LUSEW"> F  </i>
   <i name="ENCUTGW">     -2.00000000</i>
   <i name="ENCUTGWSOFT">     -2.00000000</i>
   <i name="ENCUTLF">     -1.00000000</i>
   <i type="int" name="LMAXMP2">    -1</i>
   <i name="SCISSOR">      0.00000000</i>
   <i type="int" name="NOMEGA">     0</i>
   <i type="int" name="NOMEGAR">     0</i>
   <i type="int" name="NBANDSGW">    -1</i>
   <i type="int" name="NBANDSO">    -1</i>
   <i type="int" name="NBANDSV">    -1</i>
   <i type="int" name="NELM">     1</i>
   <i type="int" name="NELMHF">     1</i>
   <i type="int" name="DIM">     3</i>
   <i type="int" name="ANTIRES">     0</i>
   <i name="OMEGAMAX">    -30.00000000</i>
   <i name="OMEGAMIN">    -30.00000000</i>
   <i name="OMEGATL">   -200.00000000</i>
   <i type="int" name="OMEGAGRID">   140</i>
   <i name="CSHIFT">     -0.10000000</i>
   <i type="logical" name="SELFENERGY"> F  </i>
   <i type="logical" name="LSPECTRAL"> F  </i>
   <i type="logical" name="LSPECTRALGW"> F  </i>
   <i type="logical" name="LSINGLES"> F  </i>
   <i type="logical" name="LFERMIGW"> F  </i>
   <i type="logical" name="ODDONLYGW"> F  </i>
   <i type="logical" name="EVENONLYGW"> F  </i>
   <i type="int" name="NKREDLFX">     1</i>
   <i type="int" name="NKREDLFY">     1</i>
   <i type="int" name="NKREDLFZ">     1</i>
   <i type="int" name="MAXMEM">  2800</i>
   <i type="int" name="TELESCOPE">     0</i>
   <i type="int" name="TAUPAR">     1</i>
   <i type="int" name="OMEGAPAR">    -1</i>
   <i name="LAMBDA">      1.00000000</i>
  </separator>
  <separator name="External order field" >
   <i name="OFIELD_KAPPA">      0.00000000</i>
   <v name="OFIELD_K">      0.00000000      0.00000000      0.00000000</v>
   <i name="OFIELD_Q6_NEAR">      0.00000000</i>
   <i name="OFIELD_Q6_FAR">      0.00000000</i>
   <i name="OFIELD_A">      0.00000000</i>
  </separator>
 </parameters>
 <atominfo>
  <atoms>       3 </atoms>
  <types>       2 </types>
  <array name="atoms" >
   <dimension dim="1">ion</dimension>
   <field type="string">element</field>
   <field type="int">atomtype</field>
   <set>
    <rc><c>Mo</c><c>   1</c></rc>
    <rc><c>S </c><c>   2</c></rc>
    <rc><c>S </c><c>   2</c></rc>
   </set>
  </array>
  <array name="atomtypes" >
   <dimension dim="1">type</dimension>
   <field type="int">atomspertype</field>
   <field type="string">element</field>
   <field>mass</field>
   <field>valence</field>
   <field type="string">pseudopotential</field>
   <set>
    <rc><c>   1</c><c>Mo</c><c>     95.94000000</c><c>      6.00000000</c><c> PAW_PBE Mo 08Apr2002                   </c></rc>
    <rc><c>   2</c><c>S </c><c>     32.06600000</c><c>      6.00000000</c><c>  PAW_PBE S 17Jan2003                   </c></rc>
   </set>
  </array>
 </atominfo>
 <structure name="initialpos" >
  <crystal>
   <varray name="basis" >
    <v>       3.19031573       0.00000000       0.00000000 </v>
    <v>      -1.59515786       2.76289447       0.00000000 </v>
    <v>       0.00000000       0.00000000      28.87900430 </v>
   </varray>
   <i name="volume">    254.55414751 </i>
   <varray name="rec_basis" >
    <v>       0.31344860       0.18096963       0.00000000 </v>
    <v>       0.00000000       0.36193927       0.00000000 </v>
    <v>       0.00000000       0.00000000       0.03462723 </v>
   </varray>
  </crystal>
  <varray name="positions" >
   <v>       0.33333300       0.66666700       0.12880469 </v>
   <v>       0.66666700       0.33333300       0.07461707 </v>
   <v>       0.66666600       0.33333300       0.18299230 </v>
  </varray>
 </structure>
 <calculation>
  <scstep>
   <time name="dav">    0.11    0.11</time>
   <time name="total">    0.13    0.17</time>
   <energy>
    <i name="alphaZ">     11.64726366 </i>
    <i name="ewald">   4826.55038937 </i>
    <i name="hartreedc">  -5503.78067892 </i>
    <i name="XCdc">    -36.31055256 </i>
    <i name="pawpsdc">    406.88651198 </i>
    <i name="pawaedc">   -329.34073203 </i>
    <i name="eentropy">     -0.04737644 </i>
    <i name="bandstr">    -53.72402295 </i>
    <i name="atom">    771.06857575 </i>
    <i name="e_fr_energy">     92.94937786 </i>
    <i name="e_wo_entrp">     92.99675429 </i>
    <i name="e_0_energy">     92.97306607 </i>
   </energy>
  </scstep>
  <scstep>
   <time name="dav">    0.15    0.15</time>
   <time name="total">    0.15    0.15</time>
   <energy>
    <i name="e_fr_energy">    -12.35845864 </i>
    <i name="e_wo_entrp">    -12.35845864 </i>
    <i name="e_0_energy">    -12.35845864 </i>
   </energy>
  </scstep>
  <scstep>
   <time name="dav">    0.13    0.13</time>
   <time name="total">    0.13    0.13</time>
   <energy>
    <i name="e_fr_energy">    -23.18370663 </i>
    <i name="e_wo_entrp">    -23.18370663 </i>
    <i name="e_0_energy">    -23.18370663 </i>
   </energy>
  </scstep>
  <scstep>
   <time name="dav">    0.12    0.12</time>
   <time name="total">    0.12    0.12</time>
   <energy>
    <i name="e_fr_energy">    -23.36675947 </i>
    <i name="e_wo_entrp">    -23.36675947 </i>
    <i name="e_0_energy">    -23.36675947 </i>
   </energy>
  </scstep>
  <scstep>
   <time name="dav">    0.12    0.12</time>
   <time name="total">    0.13    0.13</time>
   <energy>
    <i name="e_fr_energy">    -23.37156522 </i>
    <i name="e_wo_entrp">    -23.37156522 </i>
    <i name="e_0_energy">    -23.37156522 </i>
   </energy>
  </scstep>
  <scstep>
   <time name="diag">    0.02    0.02</time>
   <time name="diis">    0.06    0.06</time>
   <time name="orth">    0.00    0.00</time>
   <time name="total">    0.11    0.11</time>
   <energy>
    <i name="e_fr_energy">    -22.21252729 </i>
    <i name="e_wo_entrp">    -22.21252725 </i>
    <i name="e_0_energy">    -22.21252727 </i>
   </energy>
  </scstep>
  <scstep>
   <time name="diag">    0.02    0.02</time>
   <time name="diis">    0.06    0.06</time>
   <time name="orth">    0.00    0.00</time>
   <time name="total">    0.11    0.11</time>
   <energy>
    <i name="e_fr_energy">    -21.82941527 </i>
    <i name="e_wo_entrp">    -21.82941527 </i>
    <i name="e_0_energy">    -21.82941527 </i>
   </energy>
  </scstep>
  <scstep>
   <time name="diag">    0.02    0.02</time>
   <time name="diis">    0.06    0.07</time>
   <time name="orth">    0.00    0.00</time>
   <time name="total">    0.11    0.12</time>
   <energy>
    <i name="e_fr_energy">    -21.76893694 </i>
    <i name="e_wo_entrp">    -21.76893694 </i>
    <i name="e_0_energy">    -21.76893694 </i>
   </energy>
  </scstep>
  <scstep>
   <time name="diag">    0.02    0.02</time>
   <time name="diis">    0.07    0.07</time>
   <time name="orth">    0.00    0.00</time>
   <time name="total">    0.12    0.12</time>
   <energy>
    <i name="e_fr_energy">    -21.76430100 </i>
    <i name="e_wo_entrp">    -21.76430100 </i>
    <i name="e_0_energy">    -21.76430100 </i>
   </energy>
  </scstep>
  <scstep>
   <time name="diag">    0.02    0.02</time>
   <time name="diis">    0.07    0.07</time>
   <time name="orth">    0.00    0.00</time>
   <time name="total">    0.12    0.12</time>
   <energy>
    <i name="e_fr_energy">    -21.76360622 </i>
    <i name="e_wo_entrp">    -21.76360622 </i>
    <i name="e_0_energy">    -21.76360622 </i>
   </energy>
  </scstep>
  <scstep>
   <time name="diag">    0.02    0.02</time>
   <time name="diis">    0.07    0.07</time>
   <time name="orth">    0.00    0.00</time>
   <time name="total">    0.12    0.12</time>
   <energy>
    <i name="e_fr_energy">    -21.76358719 </i>
    <i name="e_wo_entrp">    -21.76358719 </i>
    <i name="e_0_energy">    -21.76358719 </i>
   </energy>
  </scstep>
  <scstep>
   <time name="diag">    0.02    0.02</time>
   <time name="diis">    0.07    0.07</time>
   <time name="orth">    0.00    0.00</time>
   <time name="total">    0.12    0.12</time>
   <energy>
    <i name="e_fr_energy">    -21.76349657 </i>
    <i name="e_wo_entrp">    -21.76349657 </i>
    <i name="e_0_energy">    -21.76349657 </i>
   </energy>
  </scstep>
  <scstep>
   <time name="diag">    0.02    0.02</time>
   <time name="diis">    0.06    0.07</time>
   <time name="orth">    0.00    0.00</time>
   <time name="total">    0.11    0.11</time>
   <energy>
    <i name="e_fr_energy">    -21.76393047 </i>
    <i name="e_wo_entrp">    -21.76393047 </i>
    <i name="e_0_energy">    -21.76393047 </i>
   </energy>
  </scstep>
  <scstep>
   <time name="diag">    0.02    0.02</time>
   <time name="diis">    0.07    0.07</time>
   <time name="orth">    0.00    0.00</time>
   <time name="total">    0.12    0.12</time>
   <energy>
    <i name="e_fr_energy">    -21.76399068 </i>
    <i name="e_wo_entrp">    -21.76399068 </i>
    <i name="e_0_energy">    -21.76399068 </i>
   </energy>
  </scstep>
  <scstep>
   <time name="diag">    0.02    0.02</time>
   <time name="diis">    0.06    0.06</time>
   <time name="orth">    0.00    0.00</time>
   <time name="total">    0.11    0.11</time>
   <energy>
    <i name="e_fr_energy">    -21.76411494 </i>
    <i name="e_wo_entrp">    -21.76411494 </i>
    <i name="e_0_energy">    -21.76411494 </i>
   </energy>
  </scstep>
  <scstep>
   <time name="diag">    0.02    0.02</time>
   <time name="diis">    0.06    0.06</time>
   <time name="orth">    0.00    0.00</time>
   <time name="total">    0.10    0.10</time>
   <energy>
    <i name="e_fr_energy">    -21.76415354 </i>
    <i name="e_wo_entrp">    -21.76415354 </i>
    <i name="e_0_energy">    -21.76415354 </i>
   </energy>
  </scstep>
  <scstep>
   <time name="diag">    0.02    0.02</time>
   <time name="diis">    0.05    0.05</time>
   <time name="orth">    0.00    0.00</time>
   <time name="total">    0.10    0.10</time>
   <energy>
    <i name="e_fr_energy">    -21.76419089 </i>
    <i name="e_wo_entrp">    -21.76419089 </i>
    <i name="e_0_energy">    -21.76419089 </i>
   </energy>
  </scstep>
  <scstep>
   <time name="diag">    0.02    0.02</time>
   <time name="diis">    0.05    0.05</time>
   <time name="orth">    0.00    0.00</time>
   <time name="total">    0.09    0.10</time>
   <energy>
    <i name="e_fr_energy">    -21.76419467 </i>
    <i name="e_wo_entrp">    -21.76419467 </i>
    <i name="e_0_energy">    -21.76419467 </i>
   </energy>
  </scstep>
  <scstep>
   <time name="diag">    0.02    0.02</time>
   <time name="diis">    0.05    0.05</time>
   <time name="orth">    0.00    0.00</time>
   <time name="total">    0.10    0.10</time>
   <energy>
    <i name="e_fr_energy">    -21.76420453 </i>
    <i name="e_wo_entrp">    -21.76420453 </i>
    <i name="e_0_energy">    -21.76420453 </i>
   </energy>
  </scstep>
  <scstep>
   <time name="diag">    0.02    0.02</time>
   <time name="diis">    0.04    0.04</time>
   <time name="orth">    0.00    0.00</time>
   <time name="total">    0.09    0.09</time>
   <energy>
    <i name="e_fr_energy">    -21.76420690 </i>
    <i name="e_wo_entrp">    -21.76420690 </i>
    <i name="e_0_energy">    -21.76420690 </i>
   </energy>
  </scstep>
  <scstep>
   <time name="diag">    0.02    0.02</time>
   <time name="diis">    0.04    0.04</time>
   <time name="orth">    0.00    0.00</time>
   <time name="total">    0.07    0.08</time>
   <energy>
    <i name="alphaZ">     11.64726366 </i>
    <i name="ewald">   4826.55038937 </i>
    <i name="hartreedc">  -5516.88010432 </i>
    <i name="XCdc">    -35.17226695 </i>
    <i name="pawpsdc">    478.67352012 </i>
    <i name="pawaedc">   -402.86456010 </i>
    <i name="eentropy">     -0.00000000 </i>
    <i name="bandstr">   -154.78702536 </i>
    <i name="atom">    771.06857575 </i>
    <i name="e_fr_energy">    -21.76420784 </i>
    <i name="e_wo_entrp">    -21.76420784 </i>
    <i name="e_0_energy">    -21.76420784 </i>
   </energy>
  </scstep>
  <structure>
   <crystal>
    <varray name="basis" >
     <v>       3.19031573       0.00000000       0.00000000 </v>
     <v>      -1.59515786       2.76289447       0.00000000 </v>
     <v>       0.00000000       0.00000000      28.87900430 </v>
    </varray>
    <i name="volume">    254.55414751 </i>
    <varray name="rec_basis" >
     <v>       0.31344860       0.18096963       0.00000000 </v>
     <v>       0.00000000       0.36193927       0.00000000 </v>
     <v>       0.00000000       0.00000000       0.03462723 </v>
    </varray>
   </crystal>
   <varray name="positions" >
    <v>       0.33333300       0.66666700       0.12880469 </v>
    <v>       0.66666700       0.33333300       0.07461707 </v>
    <v>       0.66666600       0.33333300       0.18299230 </v>
   </varray>
  </structure>
  <varray name="forces" >
   <v>      -0.00000000       0.00000000       0.00000000 </v>
   <v>       0.00000000      -0.00000000       0.10352685 </v>
   <v>       0.00000000       0.00000000      -0.10352685 </v>
  </varray>
  <varray name="stress" >
   <v>      -3.82830473      -0.00000000       0.00000000 </v>
   <v>       0.00000000      -3.82830473       0.00000000 </v>
   <v>       0.00000000       0.00000000      -5.56647198 </v>
  </varray>
  <energy>
   <i name="e_fr_energy">    -22.35505169 </i>
   <i name="e_wo_entrp">    -22.35505169 </i>
   <i name="e_0_energy">     -0.00000000 </i>
  </energy>
  <time name="totalsc">    2.71    2.97</time>
  <eigenvalues>
   <array>
    <dimension dim="1">band</dimension>
    <dimension dim="2">kpoint</dimension>
    <dimension dim="3">spin</dimension>
    <field>eigene</field>
    <field>occ</field>
    <set>
     <set comment="spin 1">
      <set comment="kpoint 1">
       <r>  -17.6467    1.0000 </r>
       <r>  -16.4383    1.0000 </r>
       <r>   -9.1558    1.0000 </r>
       <r>   -6.1946    1.0000 </r>
       <r>   -6.1943    1.0000 </r>
       <r>   -5.3345    1.0000 </r>
       <r>   -5.0868    1.0000 </r>
       <r>   -5.0864    1.0000 </r>
       <r>   -3.6120    1.0000 </r>
       <r>   -0.8380    0.0000 </r>
       <r>   -0.8372    0.0000 </r>
       <r>   -0.6151    0.0000 </r>
       <r>   -0.6144    0.0000 </r>
       <r>    1.7926    0.0000 </r>
      </set>
      <set comment="kpoint 2">
       <r>  -17.4326    1.0000 </r>
       <r>  -16.3359    1.0000 </r>
       <r>   -8.9118    1.0000 </r>
       <r>   -6.6589    1.0000 </r>
       <r>   -6.1419    1.0000 </r>
       <r>   -5.9605    1.0000 </r>
       <r>   -5.4235    1.0000 </r>
       <r>   -4.6560    1.0000 </r>
       <r>   -3.7512    1.0000 </r>
       <r>   -1.1208    0.0000 </r>
       <r>   -1.0542    0.0000 </r>
       <r>   -0.8527    0.0000 </r>
       <r>   -0.4841    0.0000 </r>
       <r>    2.1593    0.0000 </r>
      </set>
      <set comment="kpoint 3">
       <r>  -16.8641    1.0000 </r>
       <r>  -16.0670    1.0000 </r>
       <r>   -8.5459    1.0000 </r>
       <r>   -7.3873    1.0000 </r>
       <r>   -7.1237    1.0000 </r>
       <r>   -6.0602    1.0000 </r>
       <r>   -5.3744    1.0000 </r>
       <r>   -4.9085    1.0000 </r>
       <r>   -4.3198    1.0000 </r>
       <r>   -1.4453    0.0000 </r>
       <r>   -1.2700    0.0000 </r>
       <r>   -0.7270    0.0000 </r>
       <r>    0.1312    0.0000 </r>
       <r>    3.0274    0.0000 </r>
      </set>
      <set comment="kpoint 4">
       <r>  -16.1892    1.0000 </r>
       <r>  -15.7584    1.0000 </r>
       <r>   -8.9851    1.0000 </r>
       <r>   -7.9925    1.0000 </r>
       <r>   -7.5187    1.0000 </r>
       <r>   -6.5585    1.0000 </r>
       <r>   -5.3173    1.0000 </r>
       <r>   -4.7845    1.0000 </r>
       <r>   -4.5140    1.0000 </r>
       <r>   -1.4525    0.0000 </r>
       <r>   -1.1728    0.0000 </r>
       <r>   -0.0083    0.0000 </r>
       <r>    0.5237    0.0000 </r>
       <r>    3.5473    0.0000 </r>
      </set>
      <set comment="kpoint 5">
       <r>  -15.8609    1.0000 </r>
       <r>  -15.6151    1.0000 </r>
       <r>   -9.3178    1.0000 </r>
       <r>   -8.3584    1.0000 </r>
       <r>   -7.6442    1.0000 </r>
       <r>   -6.7395    1.0000 </r>
       <r>   -5.4554    1.0000 </r>
       <r>   -4.5574    1.0000 </r>
       <r>   -4.2325    1.0000 </r>
       <r>   -1.4310    0.0000 </r>
       <r>   -0.9162    0.0000 </r>
       <r>    0.2918    0.0000 </r>
       <r>    0.6391    0.0000 </r>
       <r>    2.5940    0.0000 </r>
      </set>
      <set comment="kpoint 6">
       <r>  -17.0400    1.0000 </r>
       <r>  -16.1488    1.0000 </r>
       <r>   -8.5646    1.0000 </r>
       <r>   -7.2246    1.0000 </r>
       <r>   -6.7049    1.0000 </r>
       <r>   -6.2381    1.0000 </r>
       <r>   -5.6219    1.0000 </r>
       <r>   -4.5217    1.0000 </r>
       <r>   -4.1241    1.0000 </r>
       <r>   -1.5205    0.0000 </r>
       <r>   -1.1429    0.0000 </r>
       <r>   -1.1307    0.0000 </r>
       <r>    0.1101    0.0000 </r>
       <r>    2.7679    0.0000 </r>
      </set>
      <set comment="kpoint 7">
       <r>  -16.4066    1.0000 </r>
       <r>  -15.8501    1.0000 </r>
       <r>   -8.6284    1.0000 </r>
       <r>   -7.6509    1.0000 </r>
       <r>   -7.3876    1.0000 </r>
       <r>   -6.7436    1.0000 </r>
       <r>   -5.5229    1.0000 </r>
       <r>   -4.8845    1.0000 </r>
       <r>   -4.4077    1.0000 </r>
       <r>   -1.6041    0.0000 </r>
       <r>   -1.1572    0.0000 </r>
       <r>   -0.6605    0.0000 </r>
       <r>    0.6154    0.0000 </r>
       <r>    3.7367    0.0000 </r>
      </set>
      <set comment="kpoint 8">
       <r>  -15.8762    1.0000 </r>
       <r>  -15.6062    1.0000 </r>
       <r>   -9.0305    1.0000 </r>
       <r>   -8.4145    1.0000 </r>
       <r>   -7.5166    1.0000 </r>
       <r>   -6.7610    1.0000 </r>
       <r>   -5.5079    1.0000 </r>
       <r>   -5.3656    1.0000 </r>
       <r>   -4.0810    1.0000 </r>
       <r>   -1.4120    0.0000 </r>
       <r>   -0.9019    0.0000 </r>
       <r>   -0.0368    0.0000 </r>
       <r>    0.6494    0.0000 </r>
       <r>    3.1186    0.0000 </r>
      </set>
      <set comment="kpoint 9">
       <r>  -15.8911    1.0000 </r>
       <r>  -15.5973    1.0000 </r>
       <r>   -8.6695    1.0000 </r>
       <r>   -8.4644    1.0000 </r>
       <r>   -7.1901    1.0000 </r>
       <r>   -6.8093    1.0000 </r>
       <r>   -6.4900    1.0000 </r>
       <r>   -5.2326    1.0000 </r>
       <r>   -4.1106    1.0000 </r>
       <r>   -1.4627    0.0000 </r>
       <r>   -0.8511    0.0000 </r>
       <r>   -0.5344    0.0000 </r>
       <r>    0.9338    0.0000 </r>
       <r>    3.9490    0.0000 </r>
      </set>
      <set comment="kpoint 10">
       <r>  -15.6562    1.0000 </r>
       <r>  -15.4782    1.0000 </r>
       <r>   -8.8490    1.0000 </r>
       <r>   -8.5003    1.0000 </r>
       <r>   -7.4735    1.0000 </r>
       <r>   -6.8116    1.0000 </r>
       <r>   -6.5832    1.0000 </r>
       <r>   -5.6179    1.0000 </r>
       <r>   -3.7434    1.0000 </r>
       <r>   -1.7892    0.0000 </r>
       <r>   -0.4736    0.0000 </r>
       <r>   -0.3017    0.0000 </r>
       <r>    1.0770    0.0000 </r>
       <r>    3.3632    0.0000 </r>
      </set>
     </set>
    </set>
   </array>
  </eigenvalues>
  <separator name="orbital magnetization" >
   <v name="MAGDIPOLOUT">      0.00000000      0.00000000      0.00000000</v>
  </separator>
  <dos>
   <i name="efermi">     -2.79000000 </i>
   <total>
    <array>
     <dimension dim="1">gridpoints</dimension>
     <dimension dim="2">spin</dimension>
     <field>energy</field>
     <field>total</field>
     <field>integrated</field>
     <set>
      <set comment="spin 1">
       <r>   -12.0000   400.0000     4.0000 </r>
       <r>   -11.9900     0.0000     4.0000 </r>
       <r>   -11.9800     0.0000     4.0000 </r>
       <r>   -11.9700     0.0000     4.0000 </r>
       <r>   -11.9600     0.0000     4.0000 </r>
       <r>   -11.9500     0.0000     4.0000 </r>
       <r>   -11.9400     0.0000     4.0000 </r>
       <r>   -11.9300     0.0000     4.0000 </r>
       <r>   -11.9200     0.0000     4.0000 </r>
       <r>   -11.9100     0.0000     4.0000 </r>
       <r>   -11.9000     0.0000     4.0000 </r>
       <r>   -11.8900     0.0000     4.0000 </r>
       <r>   -11.8800     0.0000     4.0000 </r>
       <r>   -11.8700     0.0000     4.0000 </r>
       <r>   -11.8600     0.0000     4.0000 </r>
       <r>   -11.8500     0.0000     4.0000 </r>
       <r>   -11.8400     0.0000     4.0000 </r>
       <r>   -11.8300     0.0000     4.0000 </r>
       <r>   -11.8200     0.0000     4.0000 </r>
       <r>   -11.8100     0.0000     4.0000 </r>
       <r>   -11.8000     0.0000     4.0000 </r>
       <r>   -11.7900     0.0000     4.0000 </r>
       <r>   -11.7800     0.0000     4.0000 </r>
       <r>   -11.7700     0.0000     4.0000 </r>
       <r>   -11.7600     0.0000     4.0000 </r>
       <r>   -11.7500     0.0000     4.0000 </r>
       <r>   -11.7400     0.0000     4.0000 </r>
       <r>   -11.7300     0.0000     4.0000 </r>
       <r>   -11.7200     0.0000     4.0000 </r>
       <r>   -11.7100     0.0000     4.0000 </r>
       <r>   -11.7000     0.0000     4.0000 </r>
       <r>   -11.6900     0.0000     4.0000 </r>
       <r>   -11.6800     0.0000     4.0000 </r>
       <r>   -11.6700     0.0000     4.0000 </r>
       <r>   -11.6600     0.0000     4.0000 </r>
       <r>   -11.6500     0.0000     4.0000 </r>
       <r>   -11.6400     0.0000     4.0000 </r>
       <r>   -11.6300     0.0000     4.0000 </r>
       <r>   -11.6200     0.0000     4.0000 </r>
       <r>   -11.6100     0.0000     4.0000 </r>
       <r>   -11.6000     0.0000     4.0000 </r>
       <r>   -11.5900     0.0000     4.0000 </r>
       <r>   -11.5800     0.0000     4.0000 </r>
       <r>   -11.5700     0.0000     4.0000 </r>
       <r>   -11.5600     0.0000     4.0000 </r>
       <r>   -11.5500     0.0000     4.0000 </r>
       <r>   -11.5400     0.0000     4.0000 </r>
       <r>   -11.5300     0.0000     4.0000 </r>
       <r>   -11.5200     0.0000     4.0000 </r>
       <r>   -11.5100     0.0000     4.0000 </r>
       <r>   -11.5000     0.0000     4.0000 </r>
       <r>   -11.4900     0.0000     4.0000 </r>
       <r>   -11.4800     0.0000     4.0000 </r>
       <r>   -11.4700     0.0000     4.0000 </r>
       <r>   -11.4600     0.0000     4.0000 </r>
       <r>   -11.4500     0.0000     4.0000 </r>
       <r>   -11.4400     0.0000     4.0000 </r>
       <r>   -11.4300     0.0000     4.0000 </r>
       <r>   -11.4200     0.0000     4.0000 </r>
       <r>   -11.4100     0.0000     4.0000 </r>
       <r>   -11.4000     0.0000     4.0000 </r>
       <r>   -11.3900     0.0000     4.0000 </r>
       <r>   -11.3800     0.0000     4.0000 </r>
       <r>   -11.3700     0.0000     4.0000 </r>
       <r>   -11.3600     0.0000     4.0000 </r>
       <r>   -11.3500     0.0000     4.0000 </r>
       <r>   -11.3400     0.0000     4.0000 </r>
       <r>   -11.3300     0.0000     4.0000 </r>
       <r>   -11.3200     0.0000     4.0000 </r>
       <r>   -11.3100     0.0000     4.0000 </r>
       <r>   -11.3000     0.0000     4.0000 </r>
       <r>   -11.2900     0.0000     4.0000 </r>
       <r>   -11.2800     0.0000     4.0000 </r>
       <r>   -11.2700     0.0000     4.0000 </r>
       <r>   -11.2600     0.0000     4.0000 </r>
       <r>   -11.2500     0.0000     4.0000 </r>
       <r>   -11.2400     0.0000     4.0000 </r>
       <r>   -11.2300     0.0000     4.0000 </r>
       <r>   -11.2200     0.0000     4.0000 </r>
       <r>   -11.2100     0.0000     4.0000 </r>
       <r>   -11.2000     0.0000     4.0000 </r>
       <r>   -11.1900     0.0000     4.0000 </r>
       <r>   -11.1800     0.0000     4.0000 </r>
       <r>   -11.1700     0.0000     4.0000 </r>
       <r>   -11.1600     0.0000     4.0000 </r>
       <r>   -11.1500     0.0000     4.0000 </r>
       <r>   -11.1400     0.0000     4.0000 </r>
       <r>   -11.1300     0.0000     4.0000 </r>
       <r>   -11.1200     0.0000     4.0000 </r>
       <r>   -11.1100     0.0000     4.0000 </r>
       <r>   -11.1000     0.0000     4.0000 </r>
       <r>   -11.0900     0.0000     4.0000 </r>
       <r>   -11.0800     0.0000     4.0000 </r>
       <r>   -11.0700     0.0000     4.0000 </r>
       <r>   -11.0600     0.0000     4.0000 </r>
       <r>   -11.0500     0.0000     4.0000 </r>
       <r>   -11.0400     0.0000     4.0000 </r>
       <r>   -11.0300     0.0000     4.0000 </r>
       <r>   -11.0200     0.0000     4.0000 </r>
       <r>   -11.0100     0.0000     4.0000 </r>
       <r>   -11.0000     0.0000     4.0000 </r>
       <r>   -10.9900     0.0000     4.0000 </r>
       <r>   -10.9800     0.0000     4.0000 </r>
       <r>   -10.9700     0.0000     4.0000 </r>
       <r>   -10.9600     0.0000     4.0000 </r>
       <r>   -10.9500     0.0000     4.0000 </r>
       <r>   -10.9400     0.0000     4.0000 </r>
       <r>   -10.9300     0.0000     4.0000 </r>
       <r>   -10.9200     0.0000     4.0000 </r>
       <r>   -10.9100     0.0000     4.0000 </r>
       <r>   -10.9000     0.0000     4.0000 </r>
       <r>   -10.8900     0.0000     4.0000 </r>
       <r>   -10.8800     0.0000     4.0000 </r>
       <r>   -10.8700     0.0000     4.0000 </r>
       <r>   -10.8600     0.0000     4.0000 </r>
       <r>   -10.8500     0.0000     4.0000 </r>
       <r>   -10.8400     0.0000     4.0000 </r>
       <r>   -10.8300     0.0000     4.0000 </r>
       <r>   -10.8200     0.0000     4.0000 </r>
       <r>   -10.8100     0.0000     4.0000 </r>
       <r>   -10.8000     0.0000     4.0000 </r>
       <r>   -10.7900     0.0000     4.0000 </r>
       <r>   -10.7800     0.0000     4.0000 </r>
       <r>   -10.7700     0.0000     4.0000 </r>
       <r>   -10.7600     0.0000     4.0000 </r>
       <r>   -10.7500     0.0000     4.0000 </r>
       <r>   -10.7400     0.0000     4.0000 </r>
       <r>   -10.7300     0.0000     4.0000 </r>
       <r>   -10.7200     0.0000     4.0000 </r>
       <r>   -10.7100     0.0000     4.0000 </r>
       <r>   -10.7000     0.0000     4.0000 </r>
       <r>   -10.6900     0.0000     4.0000 </r>
       <r>   -10.6800     0.0000     4.0000 </r>
       <r>   -10.6700     0.0000     4.0000 </r>
       <r>   -10.6600     0.0000     4.0000 </r>
       <r>   -10.6500     0.0000     4.0000 </r>
       <r>   -10.6400     0.0000     4.0000 </r>
       <r>   -10.6300     0.0000     4.0000 </r>
       <r>   -10.6200     0.0000     4.0000 </r>
       <r>   -10.6100     0.0000     4.0000 </r>
       <r>   -10.6000     0.0000     4.0000 </r>
       <r>   -10.5900     0.0000     4.0000 </r>
       <r>   -10.5800     0.0000     4.0000 </r>
       <r>   -10.5700     0.0000     4.0000 </r>
       <r>   -10.5600     0.0000     4.0000 </r>
       <r>   -10.5500     0.0000     4.0000 </r>
       <r>   -10.5400     0.0000     4.0000 </r>
       <r>   -10.5300     0.0000     4.0000 </r>
       <r>   -10.5200     0.0000     4.0000 </r>
       <r>   -10.5100     0.0000     4.0000 </r>
       <r>   -10.5000     0.0000     4.0000 </r>
       <r>   -10.4900     0.0000     4.0000 </r>
       <r>   -10.4800     0.0000     4.0000 </r>
       <r>   -10.4700     0.0000     4.0000 </r>
       <r>   -10.4600     0.0000     4.0000 </r>
       <r>   -10.4500     0.0000     4.0000 </r>
       <r>   -10.4400     0.0000     4.0000 </r>
       <r>   -10.4300     0.0000     4.0000 </r>
       <r>   -10.4200     0.0000     4.0000 </r>
       <r>   -10.4100     0.0000     4.0000 </r>
       <r>   -10.4000     0.0000     4.0000 </r>
       <r>   -10.3900     0.0000     4.0000 </r>
       <r>   -10.3800     0.0000     4.0000 </r>
       <r>   -10.3700     0.0000     4.0000 </r>
       <r>   -10.3600     0.0000     4.0000 </r>
       <r>   -10.3500     0.0000     4.0000 </r>
       <r>   -10.3400     0.0000     4.0000 </r>
       <r>   -10.3300     0.0000     4.0000 </r>
       <r>   -10.3200     0.0000     4.0000 </r>
       <r>   -10.3100     0.0000     4.0000 </r>
       <r>   -10.3000     0.0000     4.0000 </r>
       <r>   -10.2900     0.0000     4.0000 </r>
       <r>   -10.2800     0.0000     4.0000 </r>
       <r>   -10.2700     0.0000     4.0000 </r>
       <r>   -10.2600     0.0000     4.0000 </r>
       <r>   -10.2500     0.0000     4.0000 </r>
       <r>   -10.2400     0.0000     4.0000 </r>
       <r>   -10.2300     0.0000     4.0000 </r>
       <r>   -10.2200     0.0000     4.0000 </r>
       <r>   -10.2100     0.0000     4.0000 </r>
       <r>   -10.2000     0.0000     4.0000 </r>
       <r>   -10.1900     0.0000     4.0000 </r>
       <r>   -10.1800     0.0000     4.0000 </r>
       <r>   -10.1700     0.0000     4.0000 </r>
       <r>   -10.1600     0.0000     4.0000 </r>
       <r>   -10.1500     0.0000     4.0000 </r>
       <r>   -10.1400     0.0000     4.0000 </r>
       <r>   -10.1300     0.0000     4.0000 </r>
       <r>   -10.1200     0.0000     4.0000 </r>
       <r>   -10.1100     0.0000     4.0000 </r>
       <r>   -10.1000     0.0000     4.0000 </r>
       <r>   -10.0900     0.0000     4.0000 </r>
       <r>   -10.0800     0.0000     4.0000 </r>
       <r>   -10.0700     0.0000     4.0000 </r>
       <r>   -10.0600     0.0000     4.0000 </r>
       <r>   -10.0500     0.0000     4.0000 </r>
       <r>   -10.0400     0.0000     4.0000 </r>
       <r>   -10.0300     0.0000     4.0000 </r>
       <r>   -10.0200     0.0000     4.0000 </r>
       <r>   -10.0100     0.0000     4.0000 </r>
       <r>   -10.0000     0.0000     4.0000 </r>
       <r>    -9.9900     0.0000     4.0000 </r>
       <r>    -9.9800     0.0000     4.0000 </r>
       <r>    -9.9700     0.0000     4.0000 </r>
       <r>    -9.9600     0.0000     4.0000 </r>
       <r>    -9.9500     0.0000     4.0000 </r>
       <r>    -9.9400     0.0000     4.0000 </r>
       <r>    -9.9300     0.0000     4.0000 </r>
       <r>    -9.9200     0.0000     4.0000 </r>
       <r>    -9.9100     0.0000     4.0000 </r>
       <r>    -9.9000     0.0000     4.0000 </r>
       <r>    -9.8900     0.0001     4.0000 </r>
       <r>    -9.8800     0.0001     4.0000 </r>
       <r>    -9.8700     0.0001     4.0000 </r>
       <r>    -9.8600     0.0001     4.0000 </r>
       <r>    -9.8500     0.0002     4.0000 </r>
       <r>    -9.8400     0.0003     4.0000 </r>
       <r>    -9.8300     0.0003     4.0000 </r>
       <r>    -9.8200     0.0004     4.0000 </r>
       <r>    -9.8100     0.0006     4.0000 </r>
       <r>    -9.8000     0.0007     4.0000 </r>
       <r>    -9.7900     0.0009     4.0000 </r>
       <r>    -9.7800     0.0011     4.0001 </r>
       <r>    -9.7700     0.0014     4.0001 </r>
       <r>    -9.7600     0.0018     4.0001 </r>
       <r>    -9.7500     0.0022     4.0001 </r>
       <r>    -9.7400     0.0028     4.0001 </r>
       <r>    -9.7300     0.0034     4.0002 </r>
       <r>    -9.7200     0.0042     4.0002 </r>
       <r>    -9.7100     0.0052     4.0003 </r>
       <r>    -9.7000     0.0063     4.0003 </r>
       <r>    -9.6900     0.0076     4.0004 </r>
       <r>    -9.6800     0.0092     4.0005 </r>
       <r>    -9.6700     0.0110     4.0006 </r>
       <r>    -9.6600     0.0132     4.0007 </r>
       <r>    -9.6500     0.0157     4.0009 </r>
       <r>    -9.6400     0.0185     4.0011 </r>
       <r>    -9.6300     0.0218     4.0013 </r>
       <r>    -9.6200     0.0255     4.0016 </r>
       <r>    -9.6100     0.0298     4.0018 </r>
       <r>    -9.6000     0.0345     4.0022 </r>
       <r>    -9.5900     0.0399     4.0026 </r>
       <r>    -9.5800     0.0459     4.0031 </r>
       <r>    -9.5700     0.0525     4.0036 </r>
       <r>    -9.5600     0.0597     4.0042 </r>
       <r>    -9.5500     0.0677     4.0049 </r>
       <r>    -9.5400     0.0764     4.0056 </r>
       <r>    -9.5300     0.0859     4.0065 </r>
       <r>    -9.5200     0.0961     4.0074 </r>
       <r>    -9.5100     0.1071     4.0085 </r>
       <r>    -9.5000     0.1189     4.0097 </r>
       <r>    -9.4900     0.1314     4.0110 </r>
       <r>    -9.4800     0.1446     4.0125 </r>
       <r>    -9.4700     0.1586     4.0140 </r>
       <r>    -9.4600     0.1734     4.0158 </r>
       <r>    -9.4500     0.1888     4.0177 </r>
       <r>    -9.4400     0.2050     4.0197 </r>
       <r>    -9.4300     0.2219     4.0219 </r>
       <r>    -9.4200     0.2395     4.0243 </r>
       <r>    -9.4100     0.2579     4.0269 </r>
       <r>    -9.4000     0.2770     4.0297 </r>
       <r>    -9.3900     0.2969     4.0326 </r>
       <r>    -9.3800     0.3177     4.0358 </r>
       <r>    -9.3700     0.3395     4.0392 </r>
       <r>    -9.3600     0.3623     4.0428 </r>
       <r>    -9.3500     0.3863     4.0467 </r>
       <r>    -9.3400     0.4116     4.0508 </r>
       <r>    -9.3300     0.4384     4.0552 </r>
       <r>    -9.3200     0.4669     4.0599 </r>
       <r>    -9.3100     0.4973     4.0648 </r>
       <r>    -9.3000     0.5297     4.0701 </r>
       <r>    -9.2900     0.5645     4.0758 </r>
       <r>    -9.2800     0.6017     4.0818 </r>
       <r>    -9.2700     0.6417     4.0882 </r>
       <r>    -9.2600     0.6847     4.0951 </r>
       <r>    -9.2500     0.7308     4.1024 </r>
       <r>    -9.2400     0.7801     4.1102 </r>
       <r>    -9.2300     0.8328     4.1185 </r>
       <r>    -9.2200     0.8890     4.1274 </r>
       <r>    -9.2100     0.9487     4.1369 </r>
       <r>    -9.2000     1.0119     4.1470 </r>
       <r>    -9.1900     1.0784     4.1578 </r>
       <r>    -9.1800     1.1480     4.1693 </r>
       <r>    -9.1700     1.2206     4.1815 </r>
       <r>    -9.1600     1.2959     4.1944 </r>
       <r>    -9.1500     1.3734     4.2082 </r>
       <r>    -9.1400     1.4527     4.2227 </r>
       <r>    -9.1300     1.5333     4.2380 </r>
       <r>    -9.1200     1.6147     4.2542 </r>
       <r>    -9.1100     1.6962     4.2711 </r>
       <r>    -9.1000     1.7772     4.2889 </r>
       <r>    -9.0900     1.8571     4.3075 </r>
       <r>    -9.0800     1.9351     4.3268 </r>
       <r>    -9.0700     2.0106     4.3469 </r>
       <r>    -9.0600     2.0830     4.3678 </r>
       <r>    -9.0500     2.1516     4.3893 </r>
       <r>    -9.0400     2.2159     4.4114 </r>
       <r>    -9.0300     2.2753     4.4342 </r>
       <r>    -9.0200     2.3296     4.4575 </r>
       <r>    -9.0100     2.3782     4.4813 </r>
       <r>    -9.0000     2.4211     4.5055 </r>
       <r>    -8.9900     2.4580     4.5301 </r>
       <r>    -8.9800     2.4890     4.5550 </r>
       <r>    -8.9700     2.5141     4.5801 </r>
       <r>    -8.9600     2.5336     4.6054 </r>
       <r>    -8.9500     2.5478     4.6309 </r>
       <r>    -8.9400     2.5571     4.6565 </r>
       <r>    -8.9300     2.5621     4.6821 </r>
       <r>    -8.9200     2.5635     4.7077 </r>
       <r>    -8.9100     2.5619     4.7334 </r>
       <r>    -8.9000     2.5580     4.7589 </r>
       <r>    -8.8900     2.5529     4.7845 </r>
       <r>    -8.8800     2.5473     4.8099 </r>
       <r>    -8.8700     2.5421     4.8354 </r>
       <r>    -8.8600     2.5382     4.8607 </r>
       <r>    -8.8500     2.5364     4.8861 </r>
       <r>    -8.8400     2.5378     4.9115 </r>
       <r>    -8.8300     2.5429     4.9369 </r>
       <r>    -8.8200     2.5525     4.9624 </r>
       <r>    -8.8100     2.5672     4.9881 </r>
       <r>    -8.8000     2.5876     5.0140 </r>
       <r>    -8.7900     2.6140     5.0401 </r>
       <r>    -8.7800     2.6468     5.0666 </r>
       <r>    -8.7700     2.6861     5.0934 </r>
       <r>    -8.7600     2.7319     5.1208 </r>
       <r>    -8.7500     2.7842     5.1486 </r>
       <r>    -8.7400     2.8426     5.1770 </r>
       <r>    -8.7300     2.9067     5.2061 </r>
       <r>    -8.7200     2.9762     5.2359 </r>
       <r>    -8.7100     3.0503     5.2664 </r>
       <r>    -8.7000     3.1283     5.2977 </r>
       <r>    -8.6900     3.2095     5.3297 </r>
       <r>    -8.6800     3.2928     5.3627 </r>
       <r>    -8.6700     3.3774     5.3964 </r>
       <r>    -8.6600     3.4623     5.4311 </r>
       <r>    -8.6500     3.5463     5.4665 </r>
       <r>    -8.6400     3.6285     5.5028 </r>
       <r>    -8.6300     3.7077     5.5399 </r>
       <r>    -8.6200     3.7830     5.5777 </r>
       <r>    -8.6100     3.8532     5.6163 </r>
       <r>    -8.6000     3.9175     5.6554 </r>
       <r>    -8.5900     3.9750     5.6952 </r>
       <r>    -8.5800     4.0248     5.7354 </r>
       <r>    -8.5700     4.0661     5.7761 </r>
       <r>    -8.5600     4.0983     5.8171 </r>
       <r>    -8.5500     4.1207     5.8583 </r>
       <r>    -8.5400     4.1330     5.8996 </r>
       <r>    -8.5300     4.1348     5.9410 </r>
       <r>    -8.5200     4.1257     5.9822 </r>
       <r>    -8.5100     4.1056     6.0233 </r>
       <r>    -8.5000     4.0746     6.0640 </r>
       <r>    -8.4900     4.0325     6.1043 </r>
       <r>    -8.4800     3.9797     6.1441 </r>
       <r>    -8.4700     3.9163     6.1833 </r>
       <r>    -8.4600     3.8429     6.2217 </r>
       <r>    -8.4500     3.7597     6.2593 </r>
       <r>    -8.4400     3.6674     6.2960 </r>
       <r>    -8.4300     3.5667     6.3317 </r>
       <r>    -8.4200     3.4582     6.3663 </r>
       <r>    -8.4100     3.3428     6.3997 </r>
       <r>    -8.4000     3.2213     6.4319 </r>
       <r>    -8.3900     3.0946     6.4628 </r>
       <r>    -8.3800     2.9636     6.4925 </r>
       <r>    -8.3700     2.8293     6.5208 </r>
       <r>    -8.3600     2.6927     6.5477 </r>
       <r>    -8.3500     2.5548     6.5732 </r>
       <r>    -8.3400     2.4166     6.5974 </r>
       <r>    -8.3300     2.2791     6.6202 </r>
       <r>    -8.3200     2.1431     6.6416 </r>
       <r>    -8.3100     2.0096     6.6617 </r>
       <r>    -8.3000     1.8794     6.6805 </r>
       <r>    -8.2900     1.7533     6.6981 </r>
       <r>    -8.2800     1.6320     6.7144 </r>
       <r>    -8.2700     1.5163     6.7295 </r>
       <r>    -8.2600     1.4065     6.7436 </r>
       <r>    -8.2500     1.3032     6.7566 </r>
       <r>    -8.2400     1.2069     6.7687 </r>
       <r>    -8.2300     1.1176     6.7799 </r>
       <r>    -8.2200     1.0357     6.7902 </r>
       <r>    -8.2100     0.9613     6.7999 </r>
       <r>    -8.2000     0.8943     6.8088 </r>
       <r>    -8.1900     0.8347     6.8171 </r>
       <r>    -8.1800     0.7823     6.8250 </r>
       <r>    -8.1700     0.7369     6.8323 </r>
       <r>    -8.1600     0.6982     6.8393 </r>
       <r>    -8.1500     0.6658     6.8460 </r>
       <r>    -8.1400     0.6392     6.8524 </r>
       <r>    -8.1300     0.6182     6.8585 </r>
       <r>    -8.1200     0.6021     6.8646 </r>
       <r>    -8.1100     0.5904     6.8705 </r>
       <r>    -8.1000     0.5826     6.8763 </r>
       <r>    -8.0900     0.5783     6.8821 </r>
       <r>    -8.0800     0.5769     6.8878 </r>
       <r>    -8.0700     0.5778     6.8936 </r>
       <r>    -8.0600     0.5808     6.8994 </r>
       <r>    -8.0500     0.5852     6.9053 </r>
       <r>    -8.0400     0.5909     6.9112 </r>
       <r>    -8.0300     0.5974     6.9172 </r>
       <r>    -8.0200     0.6045     6.9232 </r>
       <r>    -8.0100     0.6121     6.9293 </r>
       <r>    -8.0000     0.6200     6.9355 </r>
       <r>    -7.9900     0.6281     6.9418 </r>
       <r>    -7.9800     0.6366     6.9482 </r>
       <r>    -7.9700     0.6456     6.9546 </r>
       <r>    -7.9600     0.6551     6.9612 </r>
       <r>    -7.9500     0.6656     6.9678 </r>
       <r>    -7.9400     0.6772     6.9746 </r>
       <r>    -7.9300     0.6903     6.9815 </r>
       <r>    -7.9200     0.7054     6.9886 </r>
       <r>    -7.9100     0.7229     6.9958 </r>
       <r>    -7.9000     0.7432     7.0032 </r>
       <r>    -7.8900     0.7668     7.0109 </r>
       <r>    -7.8800     0.7942     7.0188 </r>
       <r>    -7.8700     0.8258     7.0271 </r>
       <r>    -7.8600     0.8621     7.0357 </r>
       <r>    -7.8500     0.9035     7.0448 </r>
       <r>    -7.8400     0.9504     7.0543 </r>
       <r>    -7.8300     1.0030     7.0643 </r>
       <r>    -7.8200     1.0616     7.0749 </r>
       <r>    -7.8100     1.1264     7.0862 </r>
       <r>    -7.8000     1.1975     7.0981 </r>
       <r>    -7.7900     1.2749     7.1109 </r>
       <r>    -7.7800     1.3585     7.1245 </r>
       <r>    -7.7700     1.4482     7.1390 </r>
       <r>    -7.7600     1.5437     7.1544 </r>
       <r>    -7.7500     1.6448     7.1709 </r>
       <r>    -7.7400     1.7511     7.1884 </r>
       <r>    -7.7300     1.8620     7.2070 </r>
       <r>    -7.7200     1.9772     7.2268 </r>
       <r>    -7.7100     2.0959     7.2477 </r>
       <r>    -7.7000     2.2175     7.2699 </r>
       <r>    -7.6900     2.3414     7.2933 </r>
       <r>    -7.6800     2.4669     7.3180 </r>
       <r>    -7.6700     2.5931     7.3439 </r>
       <r>    -7.6600     2.7193     7.3711 </r>
       <r>    -7.6500     2.8446     7.3995 </r>
       <r>    -7.6400     2.9684     7.4292 </r>
       <r>    -7.6300     3.0898     7.4601 </r>
       <r>    -7.6200     3.2080     7.4922 </r>
       <r>    -7.6100     3.3223     7.5254 </r>
       <r>    -7.6000     3.4319     7.5597 </r>
       <r>    -7.5900     3.5361     7.5951 </r>
       <r>    -7.5800     3.6342     7.6314 </r>
       <r>    -7.5700     3.7256     7.6687 </r>
       <r>    -7.5600     3.8098     7.7068 </r>
       <r>    -7.5500     3.8862     7.7457 </r>
       <r>    -7.5400     3.9543     7.7852 </r>
       <r>    -7.5300     4.0139     7.8253 </r>
       <r>    -7.5200     4.0645     7.8660 </r>
       <r>    -7.5100     4.1059     7.9070 </r>
       <r>    -7.5000     4.1381     7.9484 </r>
       <r>    -7.4900     4.1608     7.9900 </r>
       <r>    -7.4800     4.1742     8.0318 </r>
       <r>    -7.4700     4.1784     8.0736 </r>
       <r>    -7.4600     4.1735     8.1153 </r>
       <r>    -7.4500     4.1598     8.1569 </r>
       <r>    -7.4400     4.1377     8.1983 </r>
       <r>    -7.4300     4.1075     8.2393 </r>
       <r>    -7.4200     4.0698     8.2800 </r>
       <r>    -7.4100     4.0250     8.3203 </r>
       <r>    -7.4000     3.9739     8.3600 </r>
       <r>    -7.3900     3.9169     8.3992 </r>
       <r>    -7.3800     3.8548     8.4378 </r>
       <r>    -7.3700     3.7882     8.4756 </r>
       <r>    -7.3600     3.7177     8.5128 </r>
       <r>    -7.3500     3.6439     8.5492 </r>
       <r>    -7.3400     3.5676     8.5849 </r>
       <r>    -7.3300     3.4893     8.6198 </r>
       <r>    -7.3200     3.4095     8.6539 </r>
       <r>    -7.3100     3.3287     8.6872 </r>
       <r>    -7.3000     3.2474     8.7197 </r>
       <r>    -7.2900     3.1658     8.7513 </r>
       <r>    -7.2800     3.0845     8.7822 </r>
       <r>    -7.2700     3.0035     8.8122 </r>
       <r>    -7.2600     2.9231     8.8414 </r>
       <r>    -7.2500     2.8435     8.8699 </r>
       <r>    -7.2400     2.7648     8.8975 </r>
       <r>    -7.2300     2.6871     8.9244 </r>
       <r>    -7.2200     2.6104     8.9505 </r>
       <r>    -7.2100     2.5349     8.9759 </r>
       <r>    -7.2000     2.4606     9.0005 </r>
       <r>    -7.1900     2.3877     9.0243 </r>
       <r>    -7.1800     2.3162     9.0475 </r>
       <r>    -7.1700     2.2464     9.0700 </r>
       <r>    -7.1600     2.1785     9.0917 </r>
       <r>    -7.1500     2.1128     9.1129 </r>
       <r>    -7.1400     2.0496     9.1334 </r>
       <r>    -7.1300     1.9895     9.1533 </r>
       <r>    -7.1200     1.9329     9.1726 </r>
       <r>    -7.1100     1.8804     9.1914 </r>
       <r>    -7.1000     1.8326     9.2097 </r>
       <r>    -7.0900     1.7903     9.2276 </r>
       <r>    -7.0800     1.7542     9.2452 </r>
       <r>    -7.0700     1.7251     9.2624 </r>
       <r>    -7.0600     1.7037     9.2795 </r>
       <r>    -7.0500     1.6909     9.2964 </r>
       <r>    -7.0400     1.6875     9.3132 </r>
       <r>    -7.0300     1.6940     9.3302 </r>
       <r>    -7.0200     1.7113     9.3473 </r>
       <r>    -7.0100     1.7398     9.3647 </r>
       <r>    -7.0000     1.7800     9.3825 </r>
       <r>    -6.9900     1.8323     9.4008 </r>
       <r>    -6.9800     1.8968     9.4198 </r>
       <r>    -6.9700     1.9737     9.4395 </r>
       <r>    -6.9600     2.0626     9.4601 </r>
       <r>    -6.9500     2.1634     9.4818 </r>
       <r>    -6.9400     2.2755     9.5045 </r>
       <r>    -6.9300     2.3983     9.5285 </r>
       <r>    -6.9200     2.5307     9.5538 </r>
       <r>    -6.9100     2.6719     9.5805 </r>
       <r>    -6.9000     2.8204     9.6087 </r>
       <r>    -6.8900     2.9751     9.6385 </r>
       <r>    -6.8800     3.1342     9.6698 </r>
       <r>    -6.8700     3.2963     9.7028 </r>
       <r>    -6.8600     3.4595     9.7374 </r>
       <r>    -6.8500     3.6221     9.7736 </r>
       <r>    -6.8400     3.7822     9.8114 </r>
       <r>    -6.8300     3.9382     9.8508 </r>
       <r>    -6.8200     4.0881     9.8917 </r>
       <r>    -6.8100     4.2303     9.9340 </r>
       <r>    -6.8000     4.3631     9.9776 </r>
       <r>    -6.7900     4.4852    10.0225 </r>
       <r>    -6.7800     4.5950    10.0684 </r>
       <r>    -6.7700     4.6916    10.1154 </r>
       <r>    -6.7600     4.7738    10.1631 </r>
       <r>    -6.7500     4.8409    10.2115 </r>
       <r>    -6.7400     4.8924    10.2604 </r>
       <r>    -6.7300     4.9278    10.3097 </r>
       <r>    -6.7200     4.9471    10.3592 </r>
       <r>    -6.7100     4.9502    10.4087 </r>
       <r>    -6.7000     4.9374    10.4581 </r>
       <r>    -6.6900     4.9092    10.5071 </r>
       <r>    -6.6800     4.8662    10.5558 </r>
       <r>    -6.6700     4.8091    10.6039 </r>
       <r>    -6.6600     4.7388    10.6513 </r>
       <r>    -6.6500     4.6562    10.6978 </r>
       <r>    -6.6400     4.5625    10.7435 </r>
       <r>    -6.6300     4.4587    10.7881 </r>
       <r>    -6.6200     4.3461    10.8315 </r>
       <r>    -6.6100     4.2257    10.8738 </r>
       <r>    -6.6000     4.0989    10.9148 </r>
       <r>    -6.5900     3.9668    10.9544 </r>
       <r>    -6.5800     3.8306    10.9927 </r>
       <r>    -6.5700     3.6913    11.0297 </r>
       <r>    -6.5600     3.5502    11.0652 </r>
       <r>    -6.5500     3.4082    11.0992 </r>
       <r>    -6.5400     3.2664    11.1319 </r>
       <r>    -6.5300     3.1256    11.1632 </r>
       <r>    -6.5200     2.9868    11.1930 </r>
       <r>    -6.5100     2.8508    11.2215 </r>
       <r>    -6.5000     2.7184    11.2487 </r>
       <r>    -6.4900     2.5903    11.2746 </r>
       <r>    -6.4800     2.4672    11.2993 </r>
       <r>    -6.4700     2.3495    11.3228 </r>
       <r>    -6.4600     2.2380    11.3452 </r>
       <r>    -6.4500     2.1331    11.3665 </r>
       <r>    -6.4400     2.0353    11.3869 </r>
       <r>    -6.4300     1.9447    11.4063 </r>
       <r>    -6.4200     1.8619    11.4249 </r>
       <r>    -6.4100     1.7870    11.4428 </r>
       <r>    -6.4000     1.7202    11.4600 </r>
       <r>    -6.3900     1.6616    11.4766 </r>
       <r>    -6.3800     1.6111    11.4927 </r>
       <r>    -6.3700     1.5688    11.5084 </r>
       <r>    -6.3600     1.5344    11.5238 </r>
       <r>    -6.3500     1.5078    11.5388 </r>
       <r>    -6.3400     1.4887    11.5537 </r>
       <r>    -6.3300     1.4767    11.5685 </r>
       <r>    -6.3200     1.4715    11.5832 </r>
       <r>    -6.3100     1.4724    11.5979 </r>
       <r>    -6.3000     1.4790    11.6127 </r>
       <r>    -6.2900     1.4907    11.6276 </r>
       <r>    -6.2800     1.5068    11.6427 </r>
       <r>    -6.2700     1.5267    11.6580 </r>
       <r>    -6.2600     1.5497    11.6735 </r>
       <r>    -6.2500     1.5751    11.6892 </r>
       <r>    -6.2400     1.6022    11.7052 </r>
       <r>    -6.2300     1.6304    11.7215 </r>
       <r>    -6.2200     1.6588    11.7381 </r>
       <r>    -6.2100     1.6870    11.7550 </r>
       <r>    -6.2000     1.7142    11.7721 </r>
       <r>    -6.1900     1.7400    11.7895 </r>
       <r>    -6.1800     1.7636    11.8072 </r>
       <r>    -6.1700     1.7848    11.8250 </r>
       <r>    -6.1600     1.8030    11.8430 </r>
       <r>    -6.1500     1.8179    11.8612 </r>
       <r>    -6.1400     1.8291    11.8795 </r>
       <r>    -6.1300     1.8364    11.8979 </r>
       <r>    -6.1200     1.8397    11.9163 </r>
       <r>    -6.1100     1.8387    11.9347 </r>
       <r>    -6.1000     1.8334    11.9530 </r>
       <r>    -6.0900     1.8238    11.9712 </r>
       <r>    -6.0800     1.8099    11.9893 </r>
       <r>    -6.0700     1.7918    12.0073 </r>
       <r>    -6.0600     1.7697    12.0249 </r>
       <r>    -6.0500     1.7437    12.0424 </r>
       <r>    -6.0400     1.7140    12.0595 </r>
       <r>    -6.0300     1.6811    12.0763 </r>
       <r>    -6.0200     1.6452    12.0928 </r>
       <r>    -6.0100     1.6066    12.1089 </r>
       <r>    -6.0000     1.5659    12.1245 </r>
       <r>    -5.9900     1.5234    12.1397 </r>
       <r>    -5.9800     1.4797    12.1545 </r>
       <r>    -5.9700     1.4353    12.1689 </r>
       <r>    -5.9600     1.3907    12.1828 </r>
       <r>    -5.9500     1.3467    12.1963 </r>
       <r>    -5.9400     1.3037    12.2093 </r>
       <r>    -5.9300     1.2624    12.2219 </r>
       <r>    -5.9200     1.2236    12.2342 </r>
       <r>    -5.9100     1.1878    12.2460 </r>
       <r>    -5.9000     1.1558    12.2576 </r>
       <r>    -5.8900     1.1283    12.2689 </r>
       <r>    -5.8800     1.1058    12.2799 </r>
       <r>    -5.8700     1.0892    12.2908 </r>
       <r>    -5.8600     1.0791    12.3016 </r>
       <r>    -5.8500     1.0760    12.3124 </r>
       <r>    -5.8400     1.0805    12.3232 </r>
       <r>    -5.8300     1.0933    12.3341 </r>
       <r>    -5.8200     1.1147    12.3453 </r>
       <r>    -5.8100     1.1452    12.3567 </r>
       <r>    -5.8000     1.1852    12.3686 </r>
       <r>    -5.7900     1.2348    12.3809 </r>
       <r>    -5.7800     1.2943    12.3939 </r>
       <r>    -5.7700     1.3638    12.4075 </r>
       <r>    -5.7600     1.4433    12.4219 </r>
       <r>    -5.7500     1.5326    12.4373 </r>
       <r>    -5.7400     1.6316    12.4536 </r>
       <r>    -5.7300     1.7399    12.4710 </r>
       <r>    -5.7200     1.8571    12.4895 </r>
       <r>    -5.7100     1.9826    12.5094 </r>
       <r>    -5.7000     2.1160    12.5305 </r>
       <r>    -5.6900     2.2563    12.5531 </r>
       <r>    -5.6800     2.4029    12.5771 </r>
       <r>    -5.6700     2.5549    12.6027 </r>
       <r>    -5.6600     2.7112    12.6298 </r>
       <r>    -5.6500     2.8708    12.6585 </r>
       <r>    -5.6400     3.0328    12.6888 </r>
       <r>    -5.6300     3.1958    12.7208 </r>
       <r>    -5.6200     3.3589    12.7544 </r>
       <r>    -5.6100     3.5208    12.7896 </r>
       <r>    -5.6000     3.6804    12.8264 </r>
       <r>    -5.5900     3.8364    12.8647 </r>
       <r>    -5.5800     3.9878    12.9046 </r>
       <r>    -5.5700     4.1335    12.9460 </r>
       <r>    -5.5600     4.2724    12.9887 </r>
       <r>    -5.5500     4.4034    13.0327 </r>
       <r>    -5.5400     4.5256    13.0780 </r>
       <r>    -5.5300     4.6382    13.1244 </r>
       <r>    -5.5200     4.7402    13.1718 </r>
       <r>    -5.5100     4.8311    13.2201 </r>
       <r>    -5.5000     4.9102    13.2692 </r>
       <r>    -5.4900     4.9770    13.3189 </r>
       <r>    -5.4800     5.0309    13.3693 </r>
       <r>    -5.4700     5.0717    13.4200 </r>
       <r>    -5.4600     5.0991    13.4710 </r>
       <r>    -5.4500     5.1130    13.5221 </r>
       <r>    -5.4400     5.1133    13.5732 </r>
       <r>    -5.4300     5.1002    13.6242 </r>
       <r>    -5.4200     5.0737    13.6750 </r>
       <r>    -5.4100     5.0342    13.7253 </r>
       <r>    -5.4000     4.9819    13.7751 </r>
       <r>    -5.3900     4.9174    13.8243 </r>
       <r>    -5.3800     4.8412    13.8727 </r>
       <r>    -5.3700     4.7539    13.9202 </r>
       <r>    -5.3600     4.6562    13.9668 </r>
       <r>    -5.3500     4.5489    14.0123 </r>
       <r>    -5.3400     4.4328    14.0566 </r>
       <r>    -5.3300     4.3090    14.0997 </r>
       <r>    -5.3200     4.1783    14.1415 </r>
       <r>    -5.3100     4.0417    14.1819 </r>
       <r>    -5.3000     3.9004    14.2209 </r>
       <r>    -5.2900     3.7554    14.2585 </r>
       <r>    -5.2800     3.6079    14.2946 </r>
       <r>    -5.2700     3.4589    14.3291 </r>
       <r>    -5.2600     3.3097    14.3622 </r>
       <r>    -5.2500     3.1612    14.3938 </r>
       <r>    -5.2400     3.0146    14.4240 </r>
       <r>    -5.2300     2.8710    14.4527 </r>
       <r>    -5.2200     2.7314    14.4800 </r>
       <r>    -5.2100     2.5968    14.5060 </r>
       <r>    -5.2000     2.4680    14.5307 </r>
       <r>    -5.1900     2.3460    14.5541 </r>
       <r>    -5.1800     2.2315    14.5764 </r>
       <r>    -5.1700     2.1252    14.5977 </r>
       <r>    -5.1600     2.0277    14.6180 </r>
       <r>    -5.1500     1.9396    14.6374 </r>
       <r>    -5.1400     1.8611    14.6560 </r>
       <r>    -5.1300     1.7927    14.6739 </r>
       <r>    -5.1200     1.7345    14.6913 </r>
       <r>    -5.1100     1.6866    14.7081 </r>
       <r>    -5.1000     1.6489    14.7246 </r>
       <r>    -5.0900     1.6214    14.7408 </r>
       <r>    -5.0800     1.6039    14.7569 </r>
       <r>    -5.0700     1.5959    14.7728 </r>
       <r>    -5.0600     1.5969    14.7888 </r>
       <r>    -5.0500     1.6066    14.8049 </r>
       <r>    -5.0400     1.6241    14.8211 </r>
       <r>    -5.0300     1.6489    14.8376 </r>
       <r>    -5.0200     1.6800    14.8544 </r>
       <r>    -5.0100     1.7167    14.8715 </r>
       <r>    -5.0000     1.7581    14.8891 </r>
       <r>    -4.9900     1.8031    14.9072 </r>
       <r>    -4.9800     1.8510    14.9257 </r>
       <r>    -4.9700     1.9007    14.9447 </r>
       <r>    -4.9600     1.9512    14.9642 </r>
       <r>    -4.9500     2.0017    14.9842 </r>
       <r>    -4.9400     2.0513    15.0047 </r>
       <r>    -4.9300     2.0993    15.0257 </r>
       <r>    -4.9200     2.1448    15.0472 </r>
       <r>    -4.9100     2.1872    15.0690 </r>
       <r>    -4.9000     2.2261    15.0913 </r>
       <r>    -4.8900     2.2609    15.1139 </r>
       <r>    -4.8800     2.2915    15.1368 </r>
       <r>    -4.8700     2.3174    15.1600 </r>
       <r>    -4.8600     2.3388    15.1834 </r>
       <r>    -4.8500     2.3556    15.2069 </r>
       <r>    -4.8400     2.3679    15.2306 </r>
       <r>    -4.8300     2.3762    15.2544 </r>
       <r>    -4.8200     2.3806    15.2782 </r>
       <r>    -4.8100     2.3817    15.3020 </r>
       <r>    -4.8000     2.3799    15.3258 </r>
       <r>    -4.7900     2.3759    15.3496 </r>
       <r>    -4.7800     2.3703    15.3733 </r>
       <r>    -4.7700     2.3636    15.3969 </r>
       <r>    -4.7600     2.3566    15.4205 </r>
       <r>    -4.7500     2.3499    15.4440 </r>
       <r>    -4.7400     2.3441    15.4674 </r>
       <r>    -4.7300     2.3397    15.4908 </r>
       <r>    -4.7200     2.3373    15.5142 </r>
       <r>    -4.7100     2.3373    15.5375 </r>
       <r>    -4.7000     2.3401    15.5609 </r>
       <r>    -4.6900     2.3460    15.5844 </r>
       <r>    -4.6800     2.3551    15.6080 </r>
       <r>    -4.6700     2.3677    15.6316 </r>
       <r>    -4.6600     2.3836    15.6555 </r>
       <r>    -4.6500     2.4030    15.6795 </r>
       <r>    -4.6400     2.4255    15.7038 </r>
       <r>    -4.6300     2.4509    15.7283 </r>
       <r>    -4.6200     2.4790    15.7531 </r>
       <r>    -4.6100     2.5093    15.7781 </r>
       <r>    -4.6000     2.5414    15.8036 </r>
       <r>    -4.5900     2.5748    15.8293 </r>
       <r>    -4.5800     2.6091    15.8554 </r>
       <r>    -4.5700     2.6436    15.8818 </r>
       <r>    -4.5600     2.6779    15.9086 </r>
       <r>    -4.5500     2.7113    15.9357 </r>
       <r>    -4.5400     2.7435    15.9632 </r>
       <r>    -4.5300     2.7738    15.9909 </r>
       <r>    -4.5200     2.8018    16.0189 </r>
       <r>    -4.5100     2.8272    16.0472 </r>
       <r>    -4.5000     2.8495    16.0757 </r>
       <r>    -4.4900     2.8686    16.1044 </r>
       <r>    -4.4800     2.8841    16.1332 </r>
       <r>    -4.4700     2.8959    16.1622 </r>
       <r>    -4.4600     2.9040    16.1912 </r>
       <r>    -4.4500     2.9084    16.2203 </r>
       <r>    -4.4400     2.9092    16.2494 </r>
       <r>    -4.4300     2.9066    16.2785 </r>
       <r>    -4.4200     2.9008    16.3075 </r>
       <r>    -4.4100     2.8921    16.3364 </r>
       <r>    -4.4000     2.8809    16.3652 </r>
       <r>    -4.3900     2.8677    16.3939 </r>
       <r>    -4.3800     2.8528    16.4224 </r>
       <r>    -4.3700     2.8368    16.4508 </r>
       <r>    -4.3600     2.8201    16.4790 </r>
       <r>    -4.3500     2.8034    16.5070 </r>
       <r>    -4.3400     2.7869    16.5349 </r>
       <r>    -4.3300     2.7713    16.5626 </r>
       <r>    -4.3200     2.7569    16.5902 </r>
       <r>    -4.3100     2.7440    16.6176 </r>
       <r>    -4.3000     2.7330    16.6449 </r>
       <r>    -4.2900     2.7240    16.6722 </r>
       <r>    -4.2800     2.7173    16.6993 </r>
       <r>    -4.2700     2.7127    16.7265 </r>
       <r>    -4.2600     2.7103    16.7536 </r>
       <r>    -4.2500     2.7098    16.7807 </r>
       <r>    -4.2400     2.7110    16.8078 </r>
       <r>    -4.2300     2.7135    16.8349 </r>
       <r>    -4.2200     2.7168    16.8621 </r>
       <r>    -4.2100     2.7205    16.8893 </r>
       <r>    -4.2000     2.7239    16.9165 </r>
       <r>    -4.1900     2.7264    16.9438 </r>
       <r>    -4.1800     2.7274    16.9711 </r>
       <r>    -4.1700     2.7261    16.9983 </r>
       <r>    -4.1600     2.7219    17.0255 </r>
       <r>    -4.1500     2.7142    17.0527 </r>
       <r>    -4.1400     2.7024    17.0797 </r>
       <r>    -4.1300     2.6859    17.1066 </r>
       <r>    -4.1200     2.6645    17.1332 </r>
       <r>    -4.1100     2.6377    17.1596 </r>
       <r>    -4.1000     2.6054    17.1856 </r>
       <r>    -4.0900     2.5676    17.2113 </r>
       <r>    -4.0800     2.5242    17.2366 </r>
       <r>    -4.0700     2.4755    17.2613 </r>
       <r>    -4.0600     2.4217    17.2855 </r>
       <r>    -4.0500     2.3635    17.3092 </r>
       <r>    -4.0400     2.3012    17.3322 </r>
       <r>    -4.0300     2.2357    17.3545 </r>
       <r>    -4.0200     2.1675    17.3762 </r>
       <r>    -4.0100     2.0976    17.3972 </r>
       <r>    -4.0000     2.0267    17.4174 </r>
       <r>    -3.9900     1.9557    17.4370 </r>
       <r>    -3.9800     1.8855    17.4559 </r>
       <r>    -3.9700     1.8170    17.4740 </r>
       <r>    -3.9600     1.7508    17.4915 </r>
       <r>    -3.9500     1.6877    17.5084 </r>
       <r>    -3.9400     1.6283    17.5247 </r>
       <r>    -3.9300     1.5731    17.5404 </r>
       <r>    -3.9200     1.5226    17.5557 </r>
       <r>    -3.9100     1.4771    17.5704 </r>
       <r>    -3.9000     1.4366    17.5848 </r>
       <r>    -3.8900     1.4012    17.5988 </r>
       <r>    -3.8800     1.3708    17.6125 </r>
       <r>    -3.8700     1.3452    17.6260 </r>
       <r>    -3.8600     1.3240    17.6392 </r>
       <r>    -3.8500     1.3069    17.6523 </r>
       <r>    -3.8400     1.2933    17.6652 </r>
       <r>    -3.8300     1.2826    17.6780 </r>
       <r>    -3.8200     1.2742    17.6908 </r>
       <r>    -3.8100     1.2674    17.7034 </r>
       <r>    -3.8000     1.2616    17.7161 </r>
       <r>    -3.7900     1.2560    17.7286 </r>
       <r>    -3.7800     1.2500    17.7411 </r>
       <r>    -3.7700     1.2430    17.7536 </r>
       <r>    -3.7600     1.2345    17.7659 </r>
       <r>    -3.7500     1.2239    17.7781 </r>
       <r>    -3.7400     1.2108    17.7902 </r>
       <r>    -3.7300     1.1950    17.8022 </r>
       <r>    -3.7200     1.1760    17.8140 </r>
       <r>    -3.7100     1.1539    17.8255 </r>
       <r>    -3.7000     1.1284    17.8368 </r>
       <r>    -3.6900     1.0997    17.8478 </r>
       <r>    -3.6800     1.0678    17.8585 </r>
       <r>    -3.6700     1.0330    17.8688 </r>
       <r>    -3.6600     0.9953    17.8787 </r>
       <r>    -3.6500     0.9553    17.8883 </r>
       <r>    -3.6400     0.9131    17.8974 </r>
       <r>    -3.6300     0.8691    17.9061 </r>
       <r>    -3.6200     0.8238    17.9144 </r>
       <r>    -3.6100     0.7776    17.9221 </r>
       <r>    -3.6000     0.7308    17.9294 </r>
       <r>    -3.5900     0.6839    17.9363 </r>
       <r>    -3.5800     0.6373    17.9426 </r>
       <r>    -3.5700     0.5913    17.9486 </r>
       <r>    -3.5600     0.5463    17.9540 </r>
       <r>    -3.5500     0.5025    17.9590 </r>
       <r>    -3.5400     0.4603    17.9637 </r>
       <r>    -3.5300     0.4198    17.9678 </r>
       <r>    -3.5200     0.3813    17.9717 </r>
       <r>    -3.5100     0.3448    17.9751 </r>
       <r>    -3.5000     0.3106    17.9782 </r>
       <r>    -3.4900     0.2785    17.9810 </r>
       <r>    -3.4800     0.2487    17.9835 </r>
       <r>    -3.4700     0.2212    17.9857 </r>
       <r>    -3.4600     0.1959    17.9877 </r>
       <r>    -3.4500     0.1728    17.9894 </r>
       <r>    -3.4400     0.1518    17.9909 </r>
       <r>    -3.4300     0.1329    17.9922 </r>
       <r>    -3.4200     0.1158    17.9934 </r>
       <r>    -3.4100     0.1005    17.9944 </r>
       <r>    -3.4000     0.0869    17.9953 </r>
       <r>    -3.3900     0.0748    17.9960 </r>
       <r>    -3.3800     0.0642    17.9967 </r>
       <r>    -3.3700     0.0548    17.9972 </r>
       <r>    -3.3600     0.0467    17.9977 </r>
       <r>    -3.3500     0.0396    17.9981 </r>
       <r>    -3.3400     0.0334    17.9984 </r>
       <r>    -3.3300     0.0281    17.9987 </r>
       <r>    -3.3200     0.0235    17.9989 </r>
       <r>    -3.3100     0.0197    17.9991 </r>
       <r>    -3.3000     0.0163    17.9993 </r>
       <r>    -3.2900     0.0135    17.9994 </r>
       <r>    -3.2800     0.0112    17.9995 </r>
       <r>    -3.2700     0.0092    17.9996 </r>
       <r>    -3.2600     0.0075    17.9997 </r>
       <r>    -3.2500     0.0061    17.9998 </r>
       <r>    -3.2400     0.0050    17.9998 </r>
       <r>    -3.2300     0.0040    17.9998 </r>
       <r>    -3.2200     0.0032    17.9999 </r>
       <r>    -3.2100     0.0026    17.9999 </r>
       <r>    -3.2000     0.0021    17.9999 </r>
       <r>    -3.1900     0.0017    17.9999 </r>
       <r>    -3.1800     0.0013    18.0000 </r>
       <r>    -3.1700     0.0010    18.0000 </r>
       <r>    -3.1600     0.0008    18.0000 </r>
       <r>    -3.1500     0.0006    18.0000 </r>
       <r>    -3.1400     0.0005    18.0000 </r>
       <r>    -3.1300     0.0004    18.0000 </r>
       <r>    -3.1200     0.0003    18.0000 </r>
       <r>    -3.1100     0.0002    18.0000 </r>
       <r>    -3.1000     0.0002    18.0000 </r>
       <r>    -3.0900     0.0001    18.0000 </r>
       <r>    -3.0800     0.0001    18.0000 </r>
       <r>    -3.0700     0.0001    18.0000 </r>
       <r>    -3.0600     0.0001    18.0000 </r>
       <r>    -3.0500     0.0000    18.0000 </r>
       <r>    -3.0400     0.0000    18.0000 </r>
       <r>    -3.0300     0.0000    18.0000 </r>
       <r>    -3.0200     0.0000    18.0000 </r>
       <r>    -3.0100     0.0000    18.0000 </r>
       <r>    -3.0000     0.0000    18.0000 </r>
       <r>    -2.9900     0.0000    18.0000 </r>
       <r>    -2.9800     0.0000    18.0000 </r>
       <r>    -2.9700     0.0000    18.0000 </r>
       <r>    -2.9600     0.0000    18.0000 </r>
       <r>    -2.9500     0.0000    18.0000 </r>
       <r>    -2.9400     0.0000    18.0000 </r>
       <r>    -2.9300     0.0000    18.0000 </r>
       <r>    -2.9200     0.0000    18.0000 </r>
       <r>    -2.9100     0.0000    18.0000 </r>
       <r>    -2.9000     0.0000    18.0000 </r>
       <r>    -2.8900     0.0000    18.0000 </r>
       <r>    -2.8800     0.0000    18.0000 </r>
       <r>    -2.8700     0.0000    18.0000 </r>
       <r>    -2.8600     0.0000    18.0000 </r>
       <r>    -2.8500     0.0000    18.0000 </r>
       <r>    -2.8400     0.0000    18.0000 </r>
       <r>    -2.8300     0.0000    18.0000 </r>
       <r>    -2.8200     0.0000    18.0000 </r>
       <r>    -2.8100     0.0000    18.0000 </r>
       <r>    -2.8000     0.0000    18.0000 </r>
       <r>    -2.7900     0.0000    18.0000 </r>
       <r>    -2.7800     0.0000    18.0000 </r>
       <r>    -2.7700     0.0000    18.0000 </r>
       <r>    -2.7600     0.0000    18.0000 </r>
       <r>    -2.7500     0.0000    18.0000 </r>
       <r>    -2.7400     0.0000    18.0000 </r>
       <r>    -2.7300     0.0000    18.0000 </r>
       <r>    -2.7200     0.0000    18.0000 </r>
       <r>    -2.7100     0.0000    18.0000 </r>
       <r>    -2.7000     0.0000    18.0000 </r>
       <r>    -2.6900     0.0000    18.0000 </r>
       <r>    -2.6800     0.0000    18.0000 </r>
       <r>    -2.6700     0.0000    18.0000 </r>
       <r>    -2.6600     0.0000    18.0000 </r>
       <r>    -2.6500     0.0000    18.0000 </r>
       <r>    -2.6400     0.0000    18.0000 </r>
       <r>    -2.6300     0.0000    18.0000 </r>
       <r>    -2.6200     0.0000    18.0000 </r>
       <r>    -2.6100     0.0000    18.0000 </r>
       <r>    -2.6000     0.0000    18.0000 </r>
[...]
        <r>  0.0072  0.0713  0.0134  0.0405  0.0000  0.0000  0.0000  0.0000  0.0000 </r>
        <r>  0.0072  0.0713  0.0134  0.0405  0.0000  0.0000  0.0000  0.0000  0.0000 </r>
       </set>
       <set comment="band 11">
        <r>  0.0059  0.0061  0.0000  0.0055  0.2851  0.0000  0.0991  0.0000  0.1012 </r>
        <r>  0.0007  0.0397  0.0049  0.0955  0.0000  0.0000  0.0000  0.0000  0.0000 </r>
        <r>  0.0007  0.0397  0.0049  0.0956  0.0000  0.0000  0.0000  0.0000  0.0000 </r>
       </set>
       <set comment="band 12">
        <r>  0.0000  0.0000  0.0002  0.0000  0.0000  0.2432  0.0000  0.3034  0.0000 </r>
        <r>  0.0257  0.0395  0.0135  0.0145  0.0000  0.0000  0.0000  0.0000  0.0000 </r>
        <r>  0.0257  0.0395  0.0134  0.0145  0.0000  0.0000  0.0000  0.0000  0.0000 </r>
       </set>
       <set comment="band 13">
        <r>  0.0000  0.0000  0.0027  0.0000  0.0000  0.2525  0.0000  0.1916  0.0000 </r>
        <r>  0.0025  0.0406  0.0086  0.1196  0.0000  0.0000  0.0000  0.0000  0.0000 </r>
        <r>  0.0025  0.0406  0.0086  0.1196  0.0000  0.0000  0.0000  0.0000  0.0000 </r>
       </set>
       <set comment="band 14">
        <r>  0.0063  0.0032  0.0001  0.0015  0.0012  0.0006  0.0177  0.0003  0.0030 </r>
        <r>  0.0075  0.0056  0.0134  0.0024  0.0000  0.0000  0.0000  0.0000  0.0000 </r>
        <r>  0.0045  0.0037  0.0011  0.0010  0.0000  0.0000  0.0000  0.0000  0.0000 </r>
       </set>
      </set>
      <set comment="kpoint 7">
       <set comment="band 1">
        <r>  0.0576  0.0184  0.0000  0.0166  0.0142  0.0000  0.0008  0.0000  0.0116 </r>
        <r>  0.3024  0.0013  0.0053  0.0010  0.0000  0.0000  0.0000  0.0000  0.0000 </r>
        <r>  0.3024  0.0013  0.0053  0.0010  0.0000  0.0000  0.0000  0.0000  0.0000 </r>
       </set>
       <set comment="band 2">
        <r>  0.0000  0.0000  0.0239  0.0000  0.0000  0.0400  0.0000  0.0372  0.0000 </r>
        <r>  0.3250  0.0007  0.0018  0.0006  0.0000  0.0000  0.0000  0.0000  0.0000 </r>
        <r>  0.3250  0.0007  0.0018  0.0006  0.0000  0.0000  0.0000  0.0000  0.0000 </r>
       </set>
       <set comment="band 3">
        <r>  0.0219  0.0058  0.0000  0.0251  0.1217  0.0000  0.0656  0.0000  0.1287 </r>
        <r>  0.0017  0.0523  0.0478  0.0481  0.0000  0.0000  0.0000  0.0000  0.0000 </r>
        <r>  0.0017  0.0523  0.0478  0.0482  0.0000  0.0000  0.0000  0.0000  0.0000 </r>
       </set>
       <set comment="band 4">
        <r>  0.0000  0.0000  0.0208  0.0000  0.0000  0.0062  0.0000  0.2846  0.0000 </r>
        <r>  0.0062  0.0662  0.0150  0.0979  0.0000  0.0000  0.0000  0.0000  0.0000 </r>
        <r>  0.0062  0.0662  0.0150  0.0979  0.0000  0.0000  0.0000  0.0000  0.0000 </r>
       </set>
       <set comment="band 5">
        <r>  0.1216  0.0191  0.0000  0.0235  0.0287  0.0000  0.0522  0.0000  0.0057 </r>
        <r>  0.0328  0.0238  0.1106  0.0311  0.0000  0.0000  0.0000  0.0000  0.0000 </r>
        <r>  0.0328  0.0238  0.1106  0.0311  0.0000  0.0000  0.0000  0.0000  0.0000 </r>
       </set>
       <set comment="band 6">
        <r>  0.0000  0.0000  0.0056  0.0000  0.0000  0.3935  0.0000  0.0047  0.0000 </r>
        <r>  0.0029  0.0868  0.0506  0.0342  0.0000  0.0000  0.0000  0.0000  0.0000 </r>
        <r>  0.0029  0.0869  0.0506  0.0342  0.0000  0.0000  0.0000  0.0000  0.0000 </r>
       </set>
       <set comment="band 7">
        <r>  0.0135  0.0434  0.0000  0.0225  0.0265  0.0000  0.1134  0.0000  0.1178 </r>
        <r>  0.0016  0.0793  0.0035  0.0967  0.0000  0.0000  0.0000  0.0000  0.0000 </r>
        <r>  0.0016  0.0793  0.0035  0.0967  0.0000  0.0000  0.0000  0.0000  0.0000 </r>
       </set>
       <set comment="band 8">
        <r>  0.0000  0.0000  0.0647  0.0000  0.0000  0.0064  0.0000  0.0673  0.0000 </r>
        <r>  0.0087  0.0383  0.1533  0.0651  0.0000  0.0000  0.0000  0.0000  0.0000 </r>
        <r>  0.0087  0.0383  0.1533  0.0651  0.0000  0.0000  0.0000  0.0000  0.0000 </r>
       </set>
       <set comment="band 9">
        <r>  0.0025  0.0077  0.0000  0.0016  0.2466  0.0000  0.2341  0.0000  0.1593 </r>
        <r>  0.0043  0.0375  0.0216  0.0219  0.0000  0.0000  0.0000  0.0000  0.0000 </r>
        <r>  0.0043  0.0375  0.0216  0.0219  0.0000  0.0000  0.0000  0.0000  0.0000 </r>
       </set>
       <set comment="band 10">
        <r>  0.0080  0.0088  0.0000  0.0051  0.1225  0.0000  0.0882  0.0000  0.3459 </r>
        <r>  0.0034  0.0445  0.0233  0.0137  0.0000  0.0000  0.0000  0.0000  0.0000 </r>
        <r>  0.0034  0.0444  0.0233  0.0137  0.0000  0.0000  0.0000  0.0000  0.0000 </r>
       </set>
       <set comment="band 11">
        <r>  0.0114  0.0028  0.0000  0.0006  0.3143  0.0000  0.3113  0.0000  0.0885 </r>
        <r>  0.0004  0.0205  0.0071  0.0399  0.0000  0.0000  0.0000  0.0000  0.0000 </r>
        <r>  0.0004  0.0205  0.0071  0.0399  0.0000  0.0000  0.0000  0.0000  0.0000 </r>
       </set>
       <set comment="band 12">
        <r>  0.0000  0.0000  0.0065  0.0000  0.0000  0.1057  0.0000  0.4327  0.0000 </r>
        <r>  0.0211  0.0366  0.0268  0.0058  0.0000  0.0000  0.0000  0.0000  0.0000 </r>
        <r>  0.0211  0.0366  0.0268  0.0058  0.0000  0.0000  0.0000  0.0000  0.0000 </r>
       </set>
       <set comment="band 13">
        <r>  0.0000  0.0000  0.0026  0.0000  0.0000  0.3984  0.0000  0.0885  0.0000 </r>
        <r>  0.0083  0.0430  0.0288  0.0702  0.0000  0.0000  0.0000  0.0000  0.0000 </r>
        <r>  0.0083  0.0430  0.0288  0.0702  0.0000  0.0000  0.0000  0.0000  0.0000 </r>
       </set>
       <set comment="band 14">
        <r>  0.0020  0.0108  0.0000  0.0160  0.0051  0.0000  0.0144  0.0000  0.0089 </r>
        <r>  0.0089  0.0053  0.0057  0.0012  0.0000  0.0000  0.0000  0.0000  0.0000 </r>
        <r>  0.0090  0.0054  0.0067  0.0014  0.0000  0.0000  0.0000  0.0000  0.0000 </r>
       </set>
      </set>
      <set comment="kpoint 8">
       <set comment="band 1">
        <r>  0.0208  0.0185  0.0000  0.0307  0.0314  0.0000  0.0003  0.0000  0.0158 </r>
        <r>  0.3194  0.0004  0.0059  0.0003  0.0000  0.0000  0.0000  0.0000  0.0000 </r>
        <r>  0.3195  0.0004  0.0059  0.0003  0.0000  0.0000  0.0000  0.0000  0.0000 </r>
       </set>
       <set comment="band 2">
        <r>  0.0000  0.0000  0.0071  0.0000  0.0000  0.0407  0.0000  0.0721  0.0000 </r>
        <r>  0.3310  0.0003  0.0027  0.0003  0.0000  0.0000  0.0000  0.0000  0.0000 </r>
        <r>  0.3310  0.0003  0.0027  0.0003  0.0000  0.0000  0.0000  0.0000  0.0000 </r>
       </set>
       <set comment="band 3">
        <r>  0.1026  0.0024  0.0000  0.0266  0.0645  0.0000  0.0342  0.0000  0.0433 </r>
        <r>  0.0043  0.0508  0.0087  0.1019  0.0000  0.0000  0.0000  0.0000  0.0000 </r>
        <r>  0.0043  0.0508  0.0087  0.1019  0.0000  0.0000  0.0000  0.0000  0.0000 </r>
       </set>
       <set comment="band 4">
        <r>  0.0000  0.0000  0.0350  0.0000  0.0000  0.0692  0.0000  0.1796  0.0000 </r>
        <r>  0.0071  0.0573  0.0054  0.1112  0.0000  0.0000  0.0000  0.0000  0.0000 </r>
        <r>  0.0071  0.0573  0.0054  0.1112  0.0000  0.0000  0.0000  0.0000  0.0000 </r>
       </set>
       <set comment="band 5">
        <r>  0.0162  0.0240  0.0000  0.0179  0.1402  0.0000  0.0904  0.0000  0.0527 </r>
        <r>  0.0206  0.0058  0.1294  0.0199  0.0000  0.0000  0.0000  0.0000  0.0000 </r>
        <r>  0.0206  0.0058  0.1295  0.0199  0.0000  0.0000  0.0000  0.0000  0.0000 </r>
       </set>
       <set comment="band 6">
        <r>  0.0000  0.0000  0.0256  0.0000  0.0000  0.3185  0.0000  0.0261  0.0000 </r>
        <r>  0.0020  0.1085  0.0279  0.0475  0.0000  0.0000  0.0000  0.0000  0.0000 </r>
        <r>  0.0020  0.1085  0.0279  0.0475  0.0000  0.0000  0.0000  0.0000  0.0000 </r>
       </set>
       <set comment="band 7">
        <r>  0.0233  0.0416  0.0000  0.0489  0.0014  0.0000  0.0710  0.0000  0.0230 </r>
        <r>  0.0063  0.1215  0.0320  0.0561  0.0000  0.0000  0.0000  0.0000  0.0000 </r>
        <r>  0.0063  0.1215  0.0320  0.0561  0.0000  0.0000  0.0000  0.0000  0.0000 </r>
       </set>
       <set comment="band 8">
        <r>  0.0000  0.0000  0.0363  0.0000  0.0000  0.0160  0.0000  0.1502  0.0000 </r>
        <r>  0.0118  0.0172  0.1757  0.0390  0.0000  0.0000  0.0000  0.0000  0.0000 </r>
        <r>  0.0118  0.0171  0.1757  0.0390  0.0000  0.0000  0.0000  0.0000  0.0000 </r>
       </set>
       <set comment="band 9">
        <r>  0.0034  0.0196  0.0000  0.0198  0.1840  0.0000  0.1603  0.0000  0.1971 </r>
        <r>  0.0008  0.0478  0.0257  0.0261  0.0000  0.0000  0.0000  0.0000  0.0000 </r>
        <r>  0.0008  0.0478  0.0257  0.0261  0.0000  0.0000  0.0000  0.0000  0.0000 </r>
       </set>
       <set comment="band 10">
        <r>  0.0051  0.0091  0.0000  0.0018  0.0649  0.0000  0.3341  0.0000  0.3775 </r>
        <r>  0.0002  0.0266  0.0149  0.0068  0.0000  0.0000  0.0000  0.0000  0.0000 </r>
        <r>  0.0002  0.0266  0.0149  0.0068  0.0000  0.0000  0.0000  0.0000  0.0000 </r>
       </set>
       <set comment="band 11">
        <r>  0.0154  0.0057  0.0000  0.0106  0.3789  0.0000  0.2184  0.0000  0.1807 </r>
        <r>  0.0021  0.0014  0.0171  0.0181  0.0000  0.0000  0.0000  0.0000  0.0000 </r>
        <r>  0.0021  0.0014  0.0171  0.0181  0.0000  0.0000  0.0000  0.0000  0.0000 </r>
       </set>
       <set comment="band 12">
        <r>  0.0000  0.0000  0.0063  0.0000  0.0000  0.1640  0.0000  0.3325  0.0000 </r>
        <r>  0.0091  0.0683  0.0151  0.0162  0.0000  0.0000  0.0000  0.0000  0.0000 </r>
        <r>  0.0091  0.0683  0.0151  0.0162  0.0000  0.0000  0.0000  0.0000  0.0000 </r>
       </set>
       <set comment="band 13">
        <r>  0.0000  0.0000  0.0004  0.0000  0.0000  0.3332  0.0000  0.1444  0.0000 </r>
        <r>  0.0189  0.0144  0.0665  0.0290  0.0000  0.0000  0.0000  0.0000  0.0000 </r>
        <r>  0.0189  0.0144  0.0665  0.0290  0.0000  0.0000  0.0000  0.0000  0.0000 </r>
       </set>
       <set comment="band 14">
        <r>  0.1877  0.0089  0.0000  0.0533  0.0404  0.0000  0.0061  0.0000  0.0387 </r>
        <r>  0.0001  0.0013  0.0115  0.0051  0.0000  0.0000  0.0000  0.0000  0.0000 </r>
        <r>  0.0001  0.0013  0.0115  0.0051  0.0000  0.0000  0.0000  0.0000  0.0000 </r>
       </set>
      </set>
      <set comment="kpoint 9">
       <set comment="band 1">
        <r>  0.0218  0.0321  0.0000  0.0178  0.0177  0.0000  0.0004  0.0000  0.0266 </r>
        <r>  0.3183  0.0009  0.0058  0.0003  0.0000  0.0000  0.0000  0.0000  0.0000 </r>
        <r>  0.3183  0.0009  0.0058  0.0003  0.0000  0.0000  0.0000  0.0000  0.0000 </r>
       </set>
       <set comment="band 2">
        <r>  0.0000  0.0000  0.0084  0.0000  0.0000  0.0705  0.0000  0.0376  0.0000 </r>
        <r>  0.3319  0.0005  0.0027  0.0002  0.0000  0.0000  0.0000  0.0000  0.0000 </r>
        <r>  0.3319  0.0005  0.0027  0.0002  0.0000  0.0000  0.0000  0.0000  0.0000 </r>
       </set>
       <set comment="band 3">
        <r>  0.0649  0.0098  0.0000  0.0293  0.0359  0.0000  0.0617  0.0000  0.1071 </r>
        <r>  0.0004  0.1066  0.0171  0.0360  0.0000  0.0000  0.0000  0.0000  0.0000 </r>
        <r>  0.0004  0.1067  0.0171  0.0360  0.0000  0.0000  0.0000  0.0000  0.0000 </r>
       </set>
       <set comment="band 4">
        <r>  0.0000  0.0000  0.0084  0.0000  0.0000  0.1284  0.0000  0.2208  0.0000 </r>
        <r>  0.0041  0.0958  0.0001  0.0665  0.0000  0.0000  0.0000  0.0000  0.0000 </r>
        <r>  0.0041  0.0958  0.0001  0.0665  0.0000  0.0000  0.0000  0.0000  0.0000 </r>
       </set>
       <set comment="band 5">
        <r>  0.0785  0.0205  0.0000  0.0103  0.0692  0.0000  0.0001  0.0000  0.0673 </r>
        <r>  0.0339  0.0203  0.1495  0.0151  0.0000  0.0000  0.0000  0.0000  0.0000 </r>
        <r>  0.0339  0.0203  0.1496  0.0151  0.0000  0.0000  0.0000  0.0000  0.0000 </r>
       </set>
       <set comment="band 6">
        <r>  0.0000  0.0000  0.0470  0.0000  0.0000  0.1649  0.0000  0.0581  0.0000 </r>
        <r>  0.0039  0.0671  0.0535  0.0781  0.0000  0.0000  0.0000  0.0000  0.0000 </r>
        <r>  0.0039  0.0671  0.0535  0.0781  0.0000  0.0000  0.0000  0.0000  0.0000 </r>
       </set>
       <set comment="band 7">
        <r>  0.0102  0.0636  0.0000  0.0362  0.0089  0.0000  0.1207  0.0000  0.0185 </r>
        <r>  0.0005  0.0419  0.0089  0.1233  0.0000  0.0000  0.0000  0.0000  0.0000 </r>
        <r>  0.0005  0.0419  0.0089  0.1233  0.0000  0.0000  0.0000  0.0000  0.0000 </r>
       </set>
       <set comment="band 8">
        <r>  0.0000  0.0000  0.0523  0.0000  0.0000  0.0593  0.0000  0.0753  0.0000 </r>
        <r>  0.0130  0.0383  0.1560  0.0459  0.0000  0.0000  0.0000  0.0000  0.0000 </r>
        <r>  0.0130  0.0383  0.1560  0.0459  0.0000  0.0000  0.0000  0.0000  0.0000 </r>
       </set>
       <set comment="band 9">
        <r>  0.0074  0.0001  0.0000  0.0000  0.2535  0.0000  0.1474  0.0000  0.2690 </r>
        <r>  0.0010  0.0277  0.0016  0.0449  0.0000  0.0000  0.0000  0.0000  0.0000 </r>
        <r>  0.0010  0.0277  0.0016  0.0449  0.0000  0.0000  0.0000  0.0000  0.0000 </r>
       </set>
       <set comment="band 10">
        <r>  0.0074  0.0139  0.0000  0.0052  0.0463  0.0000  0.5213  0.0000  0.1099 </r>
        <r>  0.0006  0.0275  0.0274  0.0128  0.0000  0.0000  0.0000  0.0000  0.0000 </r>
        <r>  0.0006  0.0275  0.0274  0.0128  0.0000  0.0000  0.0000  0.0000  0.0000 </r>
       </set>
       <set comment="band 11">
        <r>  0.0246  0.0117  0.0000  0.0045  0.4757  0.0000  0.0544  0.0000  0.2307 </r>
        <r>  0.0023  0.0029  0.0262  0.0081  0.0000  0.0000  0.0000  0.0000  0.0000 </r>
        <r>  0.0023  0.0029  0.0262  0.0081  0.0000  0.0000  0.0000  0.0000  0.0000 </r>
       </set>
       <set comment="band 12">
        <r>  0.0000  0.0000  0.0020  0.0000  0.0000  0.1394  0.0000  0.3940  0.0000 </r>
        <r>  0.0076  0.0257  0.0088  0.0394  0.0000  0.0000  0.0000  0.0000  0.0000 </r>
        <r>  0.0076  0.0257  0.0088  0.0394  0.0000  0.0000  0.0000  0.0000  0.0000 </r>
       </set>
       <set comment="band 13">
        <r>  0.0000  0.0000  0.0016  0.0000  0.0000  0.3945  0.0000  0.1490  0.0000 </r>
        <r>  0.0208  0.0094  0.0755  0.0248  0.0000  0.0000  0.0000  0.0000  0.0000 </r>
        <r>  0.0208  0.0094  0.0755  0.0248  0.0000  0.0000  0.0000  0.0000  0.0000 </r>
       </set>
       <set comment="band 14">
        <r>  0.1320  0.0178  0.0000  0.0490  0.0233  0.0000  0.0105  0.0000  0.0694 </r>
        <r>  0.0001  0.0023  0.0278  0.0034  0.0000  0.0000  0.0000  0.0000  0.0000 </r>
        <r>  0.0001  0.0023  0.0278  0.0034  0.0000  0.0000  0.0000  0.0000  0.0000 </r>
       </set>
      </set>
      <set comment="kpoint 10">
       <set comment="band 1">
        <r>  0.0037  0.0239  0.0000  0.0333  0.0320  0.0000  0.0001  0.0000  0.0232 </r>
        <r>  0.3268  0.0001  0.0062  0.0000  0.0000  0.0000  0.0000  0.0000  0.0000 </r>
        <r>  0.3268  0.0001  0.0062  0.0000  0.0000  0.0000  0.0000  0.0000  0.0000 </r>
       </set>
       <set comment="band 2">
        <r>  0.0000  0.0000  0.0012  0.0000  0.0000  0.0490  0.0000  0.0725  0.0000 </r>
        <r>  0.3361  0.0001  0.0031  0.0001  0.0000  0.0000  0.0000  0.0000  0.0000 </r>
        <r>  0.3361  0.0001  0.0031  0.0001  0.0000  0.0000  0.0000  0.0000  0.0000 </r>
       </set>
       <set comment="band 3">
        <r>  0.0000  0.0000  0.0052  0.0000  0.0000  0.1909  0.0000  0.1715  0.0000 </r>
        <r>  0.0014  0.0682  0.0002  0.0892  0.0000  0.0000  0.0000  0.0000  0.0000 </r>
        <r>  0.0014  0.0682  0.0002  0.0893  0.0000  0.0000  0.0000  0.0000  0.0000 </r>
       </set>
       <set comment="band 4">
        <r>  0.1158  0.0140  0.0000  0.0182  0.0234  0.0000  0.0697  0.0000  0.0119 </r>
        <r>  0.0010  0.0456  0.0008  0.1278  0.0000  0.0000  0.0000  0.0000  0.0000 </r>
        <r>  0.0010  0.0456  0.0008  0.1277  0.0000  0.0000  0.0000  0.0000  0.0000 </r>
       </set>
       <set comment="band 5">
        <r>  0.0099  0.0426  0.0000  0.0147  0.1350  0.0000  0.0570  0.0000  0.0583 </r>
        <r>  0.0128  0.0514  0.0918  0.0171  0.0000  0.0000  0.0000  0.0000  0.0000 </r>
        <r>  0.0128  0.0514  0.0919  0.0171  0.0000  0.0000  0.0000  0.0000  0.0000 </r>
       </set>
       <set comment="band 6">
        <r>  0.0254  0.0245  0.0000  0.0604  0.0232  0.0000  0.0166  0.0000  0.0498 </r>
        <r>  0.0174  0.0805  0.0843  0.0298  0.0000  0.0000  0.0000  0.0000  0.0000 </r>
        <r>  0.0174  0.0805  0.0843  0.0298  0.0000  0.0000  0.0000  0.0000  0.0000 </r>
       </set>
       <set comment="band 7">
        <r>  0.0000  0.0000  0.0880  0.0000  0.0000  0.0673  0.0000  0.0296  0.0000 </r>
        <r>  0.0021  0.1084  0.0206  0.0916  0.0000  0.0000  0.0000  0.0000  0.0000 </r>
        <r>  0.0021  0.1084  0.0206  0.0916  0.0000  0.0000  0.0000  0.0000  0.0000 </r>
       </set>
       <set comment="band 8">
        <r>  0.0000  0.0000  0.0202  0.0000  0.0000  0.0930  0.0000  0.1434  0.0000 </r>
        <r>  0.0174  0.0143  0.1844  0.0176  0.0000  0.0000  0.0000  0.0000  0.0000 </r>
        <r>  0.0174  0.0143  0.1844  0.0176  0.0000  0.0000  0.0000  0.0000  0.0000 </r>
       </set>
       <set comment="band 9">
        <r>  0.0039  0.0023  0.0000  0.0065  0.3005  0.0000  0.0598  0.0000  0.3202 </r>
        <r>  0.0000  0.0395  0.0037  0.0253  0.0000  0.0000  0.0000  0.0000  0.0000 </r>
        <r>  0.0000  0.0395  0.0037  0.0253  0.0000  0.0000  0.0000  0.0000  0.0000 </r>
       </set>
       <set comment="band 10">
        <r>  0.0367  0.0018  0.0000  0.0007  0.0402  0.0000  0.7004  0.0000  0.0491 </r>
        <r>  0.0000  0.0133  0.0025  0.0204  0.0000  0.0000  0.0000  0.0000  0.0000 </r>
        <r>  0.0000  0.0133  0.0025  0.0204  0.0000  0.0000  0.0000  0.0000  0.0000 </r>
       </set>
       <set comment="band 11">
        <r>  0.0000  0.0000  0.0013  0.0000  0.0000  0.3129  0.0000  0.1959  0.0000 </r>
        <r>  0.0008  0.0487  0.0001  0.0299  0.0000  0.0000  0.0000  0.0000  0.0000 </r>
        <r>  0.0008  0.0487  0.0001  0.0299  0.0000  0.0000  0.0000  0.0000  0.0000 </r>
       </set>
       <set comment="band 12">
        <r>  0.0025  0.0104  0.0000  0.0214  0.2945  0.0000  0.0103  0.0000  0.3826 </r>
        <r>  0.0037  0.0009  0.0672  0.0012  0.0000  0.0000  0.0000  0.0000  0.0000 </r>
        <r>  0.0037  0.0009  0.0672  0.0012  0.0000  0.0000  0.0000  0.0000  0.0000 </r>
       </set>
       <set comment="band 13">
        <r>  0.0000  0.0000  0.0003  0.0000  0.0000  0.2357  0.0000  0.3391  0.0000 </r>
        <r>  0.0266  0.0010  0.0996  0.0019  0.0000  0.0000  0.0000  0.0000  0.0000 </r>
        <r>  0.0266  0.0010  0.0996  0.0019  0.0000  0.0000  0.0000  0.0000  0.0000 </r>
       </set>
       <set comment="band 14">
        <r>  0.1173  0.0533  0.0000  0.0641  0.0537  0.0000  0.0084  0.0000  0.0326 </r>
        <r>  0.0003  0.0020  0.0027  0.0043  0.0000  0.0000  0.0000  0.0000  0.0000 </r>
        <r>  0.0003  0.0020  0.0027  0.0043  0.0000  0.0000  0.0000  0.0000  0.0000 </r>
       </set>
      </set>
     </set>
    </set>
   </array>
  </projected>
 </calculation>
 <structure name="finalpos" >
  <crystal>
   <varray name="basis" >
    <v>       3.19031573       0.00000000       0.00000000 </v>
    <v>      -1.59515786       2.76289447       0.00000000 </v>
    <v>       0.00000000       0.00000000      28.87900430 </v>
   </varray>
   <i name="volume">    254.55414751 </i>
   <varray name="rec_basis" >
    <v>       0.31344860       0.18096963       0.00000000 </v>
    <v>       0.00000000       0.36193927       0.00000000 </v>
    <v>       0.00000000       0.00000000       0.03462723 </v>
   </varray>
  </crystal>
  <varray name="positions" >
   <v>       0.33333300       0.66666700       0.12880469 </v>
   <v>       0.66666700       0.33333300       0.07461707 </v>
   <v>       0.66666600       0.33333300       0.18299230 </v>
  </varray>
 </structure>
</modeling>
