   3   3   0   0
  0.9045187E+02  0.3189857E-09  0.3189857E-09  0.3079398E-08  0.5000000E-15
  1.000000000000000E-004
  CAR 
 unknown system                          
      5.77705241    -19.80623065  301     -3.67810262      1.00000000
    -19.806  0.0000E+00  0.0000E+00
    -19.721  0.0000E+00  0.0000E+00
    -19.636  0.0000E+00  0.0000E+00
    -19.550  0.0000E+00  0.0000E+00
    -19.465  0.0000E+00  0.0000E+00
    -19.380  0.0000E+00  0.0000E+00
    -19.295  0.0000E+00  0.0000E+00
    -19.209  0.0000E+00  0.0000E+00
    -19.124  0.0000E+00  0.0000E+00
    -19.039  0.0000E+00  0.0000E+00
    -18.953  0.0000E+00  0.0000E+00
    -18.868  0.0000E+00  0.0000E+00
    -18.783  0.0000E+00  0.0000E+00
    -18.698  0.0000E+00  0.0000E+00
    -18.612  0.0000E+00  0.0000E+00
    -18.527  0.0000E+00  0.0000E+00
    -18.442  0.0000E+00  0.0000E+00
    -18.357  0.0000E+00  0.0000E+00
    -18.271  0.0000E+00  0.0000E+00
    -18.186  0.0000E+00  0.0000E+00
    -18.101  0.0000E+00  0.0000E+00
    -18.015  0.0000E+00  0.0000E+00
    -17.930  0.0000E+00  0.0000E+00
    -17.845  0.0000E+00  0.0000E+00
    -17.760  0.2912E+00  0.6795E-02
    -17.674  0.8235E+00  0.5432E-01
    -17.589  0.5058E+00  0.9780E-01
    -17.504  0.5593E+00  0.1432E+00
    -17.418  0.6128E+00  0.1932E+00
    -17.333  0.6001E+00  0.2454E+00
    -17.248  0.5964E+00  0.2958E+00
    -17.163  0.6263E+00  0.3480E+00
    -17.077  0.6562E+00  0.4026E+00
    -16.992  0.6861E+00  0.4599E+00
    -16.907  0.7177E+00  0.5197E+00
    -16.822  0.7552E+00  0.5825E+00
    -16.736  0.7929E+00  0.6485E+00
    -16.651  0.8342E+00  0.7178E+00
    -16.566  0.1212E+01  0.7928E+00
    -16.480  0.1977E+01  0.9595E+00
    -16.395  0.2407E+01  0.1146E+01
    -16.310  0.2543E+01  0.1356E+01
    -16.225  0.2858E+01  0.1586E+01
    -16.139  0.3274E+01  0.1847E+01
    -16.054  0.3734E+01  0.2146E+01
    -15.969  0.4077E+01  0.2575E+01
    -15.883  0.4012E+01  0.2917E+01
    -15.798  0.3917E+01  0.3327E+01
    -15.713  0.3619E+01  0.3730E+01
    -15.628  0.2885E+01  0.3966E+01
    -15.542  0.0000E+00  0.4000E+01
    -15.457  0.0000E+00  0.4000E+01
    -15.372  0.0000E+00  0.4000E+01
    -15.287  0.0000E+00  0.4000E+01
    -15.201  0.0000E+00  0.4000E+01
    -15.116  0.0000E+00  0.4000E+01
    -15.031  0.0000E+00  0.4000E+01
    -14.945  0.0000E+00  0.4000E+01
    -14.860  0.0000E+00  0.4000E+01
    -14.775  0.0000E+00  0.4000E+01
    -14.690  0.0000E+00  0.4000E+01
    -14.604  0.0000E+00  0.4000E+01
    -14.519  0.0000E+00  0.4000E+01
    -14.434  0.0000E+00  0.4000E+01
    -14.348  0.0000E+00  0.4000E+01
    -14.263  0.0000E+00  0.4000E+01
    -14.178  0.0000E+00  0.4000E+01
    -14.093  0.0000E+00  0.4000E+01
    -14.007  0.0000E+00  0.4000E+01
    -13.922  0.0000E+00  0.4000E+01
    -13.837  0.0000E+00  0.4000E+01
    -13.752  0.0000E+00  0.4000E+01
    -13.666  0.0000E+00  0.4000E+01
    -13.581  0.0000E+00  0.4000E+01
    -13.496  0.0000E+00  0.4000E+01
    -13.410  0.0000E+00  0.4000E+01
    -13.325  0.0000E+00  0.4000E+01
    -13.240  0.0000E+00  0.4000E+01
    -13.155  0.0000E+00  0.4000E+01
    -13.069  0.0000E+00  0.4000E+01
    -12.984  0.0000E+00  0.4000E+01
    -12.899  0.0000E+00  0.4000E+01
    -12.813  0.0000E+00  0.4000E+01
    -12.728  0.0000E+00  0.4000E+01
    -12.643  0.0000E+00  0.4000E+01
    -12.558  0.0000E+00  0.4000E+01
    -12.472  0.0000E+00  0.4000E+01
    -12.387  0.0000E+00  0.4000E+01
    -12.302  0.0000E+00  0.4000E+01
    -12.217  0.0000E+00  0.4000E+01
    -12.131  0.0000E+00  0.4000E+01
    -12.046  0.0000E+00  0.4000E+01
    -11.961  0.0000E+00  0.4000E+01
    -11.875  0.0000E+00  0.4000E+01
    -11.790  0.0000E+00  0.4000E+01
    -11.705  0.0000E+00  0.4000E+01
    -11.620  0.0000E+00  0.4000E+01
    -11.534  0.0000E+00  0.4000E+01
    -11.449  0.0000E+00  0.4000E+01
    -11.364  0.0000E+00  0.4000E+01
    -11.278  0.0000E+00  0.4000E+01
    -11.193  0.0000E+00  0.4000E+01
    -11.108  0.0000E+00  0.4000E+01
    -11.023  0.0000E+00  0.4000E+01
    -10.937  0.0000E+00  0.4000E+01
    -10.852  0.0000E+00  0.4000E+01
    -10.767  0.0000E+00  0.4000E+01
    -10.682  0.0000E+00  0.4000E+01
    -10.596  0.0000E+00  0.4000E+01
    -10.511  0.0000E+00  0.4000E+01
    -10.426  0.0000E+00  0.4000E+01
    -10.340  0.0000E+00  0.4000E+01
    -10.255  0.0000E+00  0.4000E+01
    -10.170  0.0000E+00  0.4000E+01
    -10.085  0.0000E+00  0.4000E+01
     -9.999  0.0000E+00  0.4000E+01
     -9.914  0.0000E+00  0.4000E+01
     -9.829  0.0000E+00  0.4000E+01
     -9.743  0.0000E+00  0.4000E+01
     -9.658  0.0000E+00  0.4000E+01
     -9.573  0.0000E+00  0.4000E+01
     -9.488  0.0000E+00  0.4000E+01
     -9.402  0.7141E+00  0.4028E+01
     -9.317  0.1513E+01  0.4122E+01
     -9.232  0.1655E+01  0.4257E+01
     -9.147  0.1869E+01  0.4418E+01
     -9.061  0.2124E+01  0.4588E+01
     -8.976  0.4421E+01  0.4906E+01
     -8.891  0.3475E+01  0.5292E+01
     -8.805  0.5440E+01  0.5622E+01
     -8.720  0.3910E+01  0.6008E+01
     -8.635  0.1873E+01  0.6242E+01
     -8.550  0.3456E+01  0.6467E+01
     -8.464  0.1417E+01  0.6645E+01
     -8.379  0.1216E+01  0.6757E+01
     -8.294  0.1015E+01  0.6852E+01
     -8.208  0.9070E+00  0.6933E+01
     -8.123  0.8277E+00  0.7007E+01
     -8.038  0.7943E+00  0.7075E+01
     -7.953  0.8779E+00  0.7147E+01
     -7.867  0.8892E+00  0.7223E+01
     -7.782  0.2218E+01  0.7317E+01
     -7.697  0.4302E+01  0.7647E+01
     -7.612  0.5106E+01  0.8053E+01
     -7.526  0.4914E+01  0.8501E+01
     -7.441  0.2138E+01  0.8936E+01
     -7.356  0.1870E+01  0.9107E+01
     -7.270  0.1106E+01  0.9253E+01
     -7.185  0.1362E+01  0.9375E+01
     -7.100  0.1524E+01  0.9496E+01
     -7.015  0.2701E+01  0.9649E+01
     -6.929  0.6004E+01  0.9996E+01
     -6.844  0.4449E+01  0.1068E+02
     -6.759  0.2002E+01  0.1090E+02
     -6.673  0.2567E+01  0.1111E+02
     -6.588  0.2389E+01  0.1132E+02
     -6.503  0.2247E+01  0.1152E+02
     -6.418  0.1699E+01  0.1170E+02
     -6.332  0.1680E+01  0.1183E+02
     -6.247  0.2079E+01  0.1199E+02
     -6.162  0.1047E+01  0.1210E+02
     -6.077  0.2851E+01  0.1224E+02
     -5.991  0.1283E+01  0.1247E+02
     -5.906  0.1475E+01  0.1256E+02
     -5.821  0.2470E+01  0.1272E+02
     -5.735  0.3569E+01  0.1299E+02
     -5.650  0.3377E+01  0.1329E+02
     -5.565  0.5214E+01  0.1357E+02
     -5.480  0.3655E+01  0.1410E+02
     -5.394  0.3060E+01  0.1439E+02
     -5.309  0.1900E+01  0.1460E+02
     -5.224  0.2692E+01  0.1474E+02
     -5.138  0.2491E+01  0.1496E+02
     -5.053  0.2290E+01  0.1517E+02
     -4.968  0.2100E+01  0.1535E+02
     -4.883  0.2067E+01  0.1553E+02
     -4.797  0.3093E+01  0.1581E+02
     -4.712  0.9415E+00  0.1598E+02
     -4.627  0.1557E+01  0.1603E+02
     -4.542  0.2662E+01  0.1624E+02
     -4.456  0.2716E+01  0.1666E+02
     -4.371  0.2842E+01  0.1690E+02
     -4.286  0.2837E+01  0.1714E+02
     -4.200  0.2258E+01  0.1736E+02
     -4.115  0.1872E+01  0.1754E+02
     -4.030  0.1471E+01  0.1768E+02
     -3.945  0.1454E+01  0.1780E+02
     -3.859  0.5358E+00  0.1792E+02
     -3.774  0.5502E+00  0.1799E+02
     -3.689  0.0000E+00  0.1800E+02
     -3.603  0.0000E+00  0.1800E+02
     -3.518  0.0000E+00  0.1800E+02
     -3.433  0.0000E+00  0.1800E+02
     -3.348  0.0000E+00  0.1800E+02
     -3.262  0.0000E+00  0.1800E+02
     -3.177  0.0000E+00  0.1800E+02
     -3.092  0.0000E+00  0.1800E+02
     -3.007  0.0000E+00  0.1800E+02
     -2.921  0.0000E+00  0.1800E+02
     -2.836  0.0000E+00  0.1800E+02
     -2.751  0.0000E+00  0.1800E+02
     -2.665  0.0000E+00  0.1800E+02
     -2.580  0.0000E+00  0.1800E+02
     -2.495  0.0000E+00  0.1800E+02
     -2.410  0.0000E+00  0.1800E+02
     -2.324  0.0000E+00  0.1800E+02
     -2.239  0.0000E+00  0.1800E+02
     -2.154  0.0000E+00  0.1800E+02
     -2.068  0.0000E+00  0.1800E+02
     -1.983  0.5698E+00  0.1802E+02
     -1.898  0.6534E+00  0.1807E+02
     -1.813  0.7370E+00  0.1813E+02
     -1.727  0.4475E+01  0.1828E+02
     -1.642  0.6962E+01  0.1874E+02
     -1.557  0.8656E+01  0.1965E+02
     -1.472  0.1200E+01  0.1980E+02
     -1.386  0.2493E+01  0.1995E+02
     -1.301  0.8485E+01  0.2038E+02
     -1.216  0.3770E+01  0.2083E+02
     -1.130  0.6046E+01  0.2119E+02
     -1.045  0.4255E+01  0.2181E+02
     -0.960  0.2715E+01  0.2209E+02
     -0.875  0.2501E+01  0.2231E+02
     -0.789  0.2161E+01  0.2251E+02
     -0.704  0.2315E+01  0.2275E+02
     -0.619  0.1757E+01  0.2301E+02
     -0.533  0.2389E+01  0.2319E+02
     -0.448  0.3023E+01  0.2342E+02
     -0.363  0.1606E+01  0.2368E+02
     -0.278  0.1543E+01  0.2382E+02
     -0.192  0.1486E+01  0.2395E+02
     -0.107  0.1445E+01  0.2407E+02
     -0.022  0.1707E+01  0.2419E+02
      0.063  0.1840E+01  0.2438E+02
      0.149  0.8650E+00  0.2449E+02
      0.234  0.1203E+01  0.2457E+02
      0.319  0.1356E+01  0.2468E+02
      0.405  0.1508E+01  0.2480E+02
      0.490  0.4265E+01  0.2522E+02
      0.575  0.1904E+01  0.2541E+02
      0.660  0.1782E+01  0.2557E+02
      0.746  0.1571E+01  0.2571E+02
      0.831  0.1178E+01  0.2583E+02
      0.916  0.8684E+00  0.2591E+02
      1.002  0.5585E+00  0.2597E+02
      1.087  0.0000E+00  0.2600E+02
      1.172  0.0000E+00  0.2600E+02
      1.257  0.0000E+00  0.2600E+02
      1.343  0.0000E+00  0.2600E+02
      1.428  0.0000E+00  0.2600E+02
      1.513  0.0000E+00  0.2600E+02
      1.598  0.0000E+00  0.2600E+02
      1.684  0.3087E-01  0.2600E+02
      1.769  0.1915E+00  0.2601E+02
      1.854  0.3521E+00  0.2603E+02
      1.940  0.3058E+00  0.2607E+02
      2.025  0.3321E+00  0.2609E+02
      2.110  0.3584E+00  0.2612E+02
      2.195  0.3846E+00  0.2615E+02
      2.281  0.4109E+00  0.2619E+02
      2.366  0.4136E+00  0.2622E+02
      2.451  0.4421E+00  0.2626E+02
      2.537  0.6113E+00  0.2630E+02
      2.622  0.7949E+00  0.2636E+02
      2.707  0.9785E+00  0.2644E+02
      2.792  0.1417E+01  0.2653E+02
      2.878  0.1293E+01  0.2665E+02
      2.963  0.1170E+01  0.2675E+02
      3.048  0.1238E+01  0.2686E+02
      3.133  0.1436E+01  0.2697E+02
      3.219  0.1791E+01  0.2710E+02
      3.304  0.1855E+01  0.2726E+02
      3.389  0.1796E+01  0.2742E+02
      3.475  0.1601E+01  0.2758E+02
      3.560  0.1840E+01  0.2773E+02
      3.645  0.1580E+01  0.2786E+02
      3.730  0.8589E+00  0.2798E+02
      3.816  0.0000E+00  0.2800E+02
      3.901  0.0000E+00  0.2800E+02
      3.986  0.0000E+00  0.2800E+02
      4.072  0.0000E+00  0.2800E+02
      4.157  0.0000E+00  0.2800E+02
      4.242  0.0000E+00  0.2800E+02
      4.327  0.0000E+00  0.2800E+02
      4.413  0.0000E+00  0.2800E+02
      4.498  0.0000E+00  0.2800E+02
      4.583  0.0000E+00  0.2800E+02
      4.668  0.0000E+00  0.2800E+02
      4.754  0.0000E+00  0.2800E+02
      4.839  0.0000E+00  0.2800E+02
      4.924  0.0000E+00  0.2800E+02
      5.010  0.0000E+00  0.2800E+02
      5.095  0.0000E+00  0.2800E+02
      5.180  0.0000E+00  0.2800E+02
      5.265  0.0000E+00  0.2800E+02
      5.351  0.0000E+00  0.2800E+02
      5.436  0.0000E+00  0.2800E+02
      5.521  0.0000E+00  0.2800E+02
      5.606  0.0000E+00  0.2800E+02
      5.692  0.0000E+00  0.2800E+02
      5.777  0.0000E+00  0.2800E+02
