    3    3    1    1
  0.9045187E+02  0.3189857E-09  0.3189857E-09  0.3079398E-08  0.5000000E-15
  1.000000000000000E-004
  CAR 
 unknown system                          
     18     14     14
 
  0.0000000E+00  0.0000000E+00  0.0000000E+00  0.1000000E-01
    1      -17.806231   1.000000
    2      -16.577731   1.000000
    3       -9.324018   1.000000
    4       -6.379177   1.000000
    5       -6.379171   1.000000
    6       -5.467999   1.000000
    7       -5.263753   1.000000
    8       -5.263721   1.000000
    9       -3.742355   1.000000
   10       -0.985618   0.000000
   11       -0.985587   0.000000
   12       -0.747519   0.000000
   13       -0.747505   0.000000
   14        1.667339   0.000000
 
  0.1000000E+00 -0.1387779E-16  0.0000000E+00  0.6000000E-01
    1      -17.667569   1.000000
    2      -16.512226   1.000000
    3       -9.163156   1.000000
    4       -6.689577   1.000000
    5       -6.226327   1.000000
    6       -6.107457   1.000000
    7       -5.489631   1.000000
    8       -4.851911   1.000000
    9       -3.825486   1.000000
   10       -1.160535   0.000000
   11       -1.112140   0.000000
   12       -0.908081   0.000000
   13       -0.743246   0.000000
   14        1.919748   0.000000
 
  0.2000000E+00 -0.1387779E-16  0.0000000E+00  0.6000000E-01
    1      -17.281320   1.000000
    2      -16.330934   1.000000
    3       -8.808169   1.000000
    4       -7.323298   1.000000
    5       -6.890298   1.000000
    6       -5.980368   1.000000
    7       -5.814274   1.000000
    8       -4.875735   1.000000
    9       -4.196850   1.000000
   10       -1.539434   0.000000
   11       -1.249073   0.000000
   12       -1.100310   0.000000
   13       -0.240840   0.000000
   14        2.487056   0.000000
 
  0.3000000E+00 -0.2775558E-16  0.0000000E+00  0.6000000E-01
    1      -16.743622   1.000000
    2      -16.083261   1.000000
    3       -8.819389   1.000000
    4       -7.662807   1.000000
    5       -7.631575   1.000000
    6       -6.465621   1.000000
    7       -5.289061   1.000000
    8       -5.231724   1.000000
    9       -4.663786   1.000000
   10       -1.523272   0.000000
   11       -1.507581   0.000000
   12       -0.564211   0.000000
   13        0.196576   0.000000
   14        3.244157   0.000000
 
  0.4000000E+00 -0.2775558E-16  0.0000000E+00  0.6000000E-01
    1      -16.237209   1.000000
    2      -15.858199   1.000000
    3       -9.262939   1.000000
    4       -8.273858   1.000000
    5       -7.713378   1.000000
    6       -6.797842   1.000000
    7       -5.503695   1.000000
    8       -4.872096   1.000000
    9       -4.598831   1.000000
   10       -1.599969   0.000000
   11       -1.234984   0.000000
   12       -0.032802   0.000000
   13        0.443566   0.000000
   14        3.104758   0.000000
 
  0.5000000E+00 -0.2775558E-16  0.0000000E+00  0.3000000E-01
    1      -16.019389   1.000000
    2      -15.764831   1.000000
    3       -9.481756   1.000000
    4       -8.510954   1.000000
    5       -7.809866   1.000000
    6       -6.914300   1.000000
    7       -5.591739   1.000000
    8       -4.722880   1.000000
    9       -4.383597   1.000000
   10       -1.580991   0.000000
   11       -1.057854   0.000000
   12        0.159381   0.000000
   13        0.517766   0.000000
   14        2.427676   0.000000
 
  0.1000000E+00  0.1000000E+00  0.0000000E+00  0.6000000E-01
    1      -17.404747   1.000000
    2      -16.388442   1.000000
    3       -8.894279   1.000000
    4       -7.147543   1.000000
    5       -6.599052   1.000000
    6       -6.027776   1.000000
    7       -5.964475   1.000000
    8       -4.671073   1.000000
    9       -4.057603   1.000000
   10       -1.482949   0.000000
   11       -1.296002   0.000000
   12       -1.166604   0.000000
   13       -0.305052   0.000000
   14        2.320092   0.000000
 
  0.2000000E+00  0.1000000E+00  0.0000000E+00  0.1200000E+00
    1      -16.939795   1.000000
    2      -16.171054   1.000000
    3       -8.674562   1.000000
    4       -7.561501   1.000000
    5       -7.274005   1.000000
    6       -6.634568   1.000000
    7       -5.637182   1.000000
    8       -4.824016   1.000000
    9       -4.490469   1.000000
   10       -1.735615   0.000000
   11       -1.335133   0.000000
   12       -1.065622   0.000000
   13        0.215773   0.000000
   14        3.012329   0.000000
 
  0.3000000E+00  0.1000000E+00  0.0000000E+00  0.1200000E+00
    1      -16.407601   1.000000
    2      -15.926894   1.000000
    3       -8.968906   1.000000
    4       -8.061927   1.000000
    5       -7.585845   1.000000
    6       -6.868881   1.000000
    7       -5.529529   1.000000
    8       -5.230778   1.000000
    9       -4.534071   1.000000
   10       -1.649448   0.000000
   11       -1.293066   0.000000
   12       -0.509899   0.000000
   13        0.495752   0.000000
   14        3.686358   0.000000
 
  0.4000000E+00  0.1000000E+00  0.0000000E+00  0.1200000E+00
    1      -16.029834   1.000000
    2      -15.758451   1.000000
    3       -9.290179   1.000000
    4       -8.557179   1.000000
    5       -7.728188   1.000000
    6       -6.917956   1.000000
    7       -5.535435   1.000000
    8       -5.408053   1.000000
    9       -4.245113   1.000000
   10       -1.553850   0.000000
   11       -1.054273   0.000000
   12       -0.004732   0.000000
   13        0.444227   0.000000
   14        2.781640   0.000000
 
  0.2000000E+00  0.2000000E+00  0.0000000E+00  0.6000000E-01
    1      -16.472675   1.000000
    2      -15.950665   1.000000
    3       -8.773829   1.000000
    4       -7.928674   1.000000
    5       -7.459262   1.000000
    6       -7.041716   1.000000
    7       -5.985048   1.000000
    8       -4.973880   1.000000
    9       -4.528509   1.000000
   10       -1.729416   0.000000
   11       -1.262478   0.000000
   12       -0.891520   0.000000
   13        0.608068   0.000000
   14        3.777052   0.000000
 
  0.3000000E+00  0.2000000E+00  0.0000000E+00  0.1200000E+00
    1      -16.046464   1.000000
    2      -15.748060   1.000000
    3       -8.913663   1.000000
    4       -8.624363   1.000000
    5       -7.465910   1.000000
    6       -6.953324   1.000000
    7       -6.410429   1.000000
    8       -5.399385   1.000000
    9       -4.260281   1.000000
   10       -1.591967   0.000000
   11       -1.005559   0.000000
   12       -0.575040   0.000000
   13        0.757431   0.000000
   14        3.560039   0.000000
 
  0.4000000E+00  0.2000000E+00  0.0000000E+00  0.6000000E-01
    1      -15.868869   1.000000
    2      -15.663294   1.000000
    3       -8.934121   1.000000
    4       -8.892839   1.000000
    5       -7.663262   1.000000
    6       -6.827112   1.000000
    7       -6.466515   1.000000
    8       -5.658450   1.000000
    9       -4.009816   1.000000
   10       -1.773578   0.000000
   11       -0.634138   0.000000
   12       -0.432115   0.000000
   13        0.780234   0.000000
   14        2.971457   0.000000
 
  0.3000000E+00  0.3000000E+00  0.0000000E+00  0.6000000E-01
    1      -15.809970   1.000000
    2      -15.622917   1.000000
    3       -9.043379   1.000000
    4       -8.542843   1.000000
    5       -7.549284   1.000000
    6       -7.227326   1.000000
    7       -6.713168   1.000000
    8       -5.767194   1.000000
    9       -3.887061   1.000000
   10       -1.984722   0.000000
   11       -0.667543   0.000000
   12       -0.401717   0.000000
   13        1.013807   0.000000
   14        3.439861   0.000000
