       N       E                     dE             d eps       ncg     rms          rms(c)
DAV:   1     0.137207055021E+03    0.13721E+03   -0.53586E+03   392   0.809E+02
DAV:   2    -0.602078368812E+01   -0.14323E+03   -0.13348E+03   702   0.161E+02
DAV:   3    -0.230455118798E+02   -0.17025E+02   -0.16864E+02   518   0.731E+01
DAV:   4    -0.233921172873E+02   -0.34661E+00   -0.34469E+00   530   0.130E+01
DAV:   5    -0.234007281331E+02   -0.86108E-02   -0.86066E-02   526   0.199E+00    0.687E+00
RMM:   6    -0.222357703712E+02    0.11650E+01   -0.53814E+00   415   0.123E+01    0.258E+00
RMM:   7    -0.218615929889E+02    0.37418E+00   -0.54708E-01   408   0.339E+00    0.149E+00
RMM:   8    -0.218022913082E+02    0.59302E-01   -0.22882E-01   433   0.249E+00    0.354E-01
RMM:   9    -0.217974506722E+02    0.48406E-02   -0.87989E-03   467   0.606E-01    0.957E-02
RMM:  10    -0.217967076587E+02    0.74301E-03   -0.16822E-03   468   0.220E-01    0.443E-02
RMM:  11    -0.217966389175E+02    0.68741E-04   -0.16151E-03   439   0.188E-01    0.536E-02
RMM:  12    -0.217964802958E+02    0.15862E-03   -0.51762E-04   426   0.128E-01    0.175E-02
RMM:  13    -0.217968113369E+02   -0.33104E-03   -0.16596E-04   415   0.719E-02    0.199E-02
RMM:  14    -0.217968671007E+02   -0.55764E-04   -0.27498E-05   445   0.277E-02    0.497E-03
RMM:  15    -0.217969944678E+02   -0.12737E-03   -0.12205E-05   424   0.162E-02    0.301E-03
RMM:  16    -0.217970343421E+02   -0.39874E-04   -0.26500E-06   330   0.666E-03    0.164E-03
RMM:  17    -0.217970638380E+02   -0.29496E-04   -0.27636E-06   289   0.697E-03    0.118E-03
RMM:  18    -0.217970685667E+02   -0.47288E-05   -0.26427E-07   241   0.295E-03    0.573E-04
RMM:  19    -0.217970752269E+02   -0.66602E-05   -0.52285E-07   264   0.315E-03    0.428E-04
RMM:  20    -0.217970777355E+02   -0.25085E-05   -0.17688E-07   223   0.207E-03    0.145E-04
RMM:  21    -0.217970787686E+02   -0.10331E-05   -0.54925E-08   118   0.105E-03    0.105E-04
RMM:  22    -0.217970792305E+02   -0.46192E-06   -0.19155E-08    99   0.100E-03
   1 F= -.22388354E+02 E0= -.22388354E+02  d E =0.000000E+00
