 vasp.5.4.4.18Apr17-6-g9f103f2a35 (build Jun 30 2017 11:15:00) complex          
  
 executed on    STALLO_VASP_5.4.4 date 2019.11.08  15:17:23
 running on    4 total cores
 distrk:  each k-point on    4 cores,    1 groups
 distr:  one band on NCORES_PER_BAND=   2 cores,    2 groups


--------------------------------------------------------------------------------------------------------


 INCAR:
 POTCAR:   PAW_PBE Mo 08Apr2002                   
 POTCAR:    PAW_PBE S 17Jan2003                   
 POTCAR:   PAW_PBE Mo 08Apr2002                   
   VRHFIN =Mo: 4p5s4d                                                           
   LEXCH  = PE                                                                  
   EATOM  =   217.5180 eV,   15.9871 Ry                                         
                                                                                
   TITEL  = PAW_PBE Mo 08Apr2002                                                
   LULTRA =        F    use ultrasoft PP ?                                      
   IUNSCR =        1    unscreen: 0-lin 1-nonlin 2-no                           
   RPACOR =    2.200    partial core radius                                     
   POMASS =   95.940; ZVAL   =    6.000    mass and valenz                      
   RCORE  =    2.750    outmost cutoff radius                                   
   RWIGS  =    2.750; RWIGS  =    1.455    wigner-seitz radius (au A)           
   ENMAX  =  224.584; ENMIN  =  168.438 eV                                      
   RCLOC  =    2.111    cutoff for local pot                                    
   LCOR   =        T    correct aug charges                                     
   LPAW   =        T    paw PP                                                  
   EAUG   =  345.278                                                            
   DEXC   =    -.088                                                            
   RMAX   =    3.077    core radius for proj-oper                               
   RAUG   =    1.300    factor for augmentation sphere                          
   RDEP   =    2.815    radius for radial grids                                 
   QCUT   =   -4.063; QGAM   =    8.126    optimization parameters              
                                                                                
   Description                                                                  
     l     E      TYP  RCUT    TYP  RCUT                                        
     2   .000     23  2.500                                                     
     2   .000     23  2.500                                                     
     0   .000     23  2.600                                                     
     0  1.000     23  2.600                                                     
     1   .400     23  2.750                                                     
     1  2.000     23  2.750                                                     
     3   .000      7   .000                                                     
  local pseudopotential read in
  partial core-charges read in
  atomic valenz-charges read in
  non local Contribution for L=           2  read in
    real space projection operators read in
  non local Contribution for L=           2  read in
    real space projection operators read in
  non local Contribution for L=           0  read in
    real space projection operators read in
  non local Contribution for L=           0  read in
    real space projection operators read in
  non local Contribution for L=           1  read in
    real space projection operators read in
  non local Contribution for L=           1  read in
    real space projection operators read in
    PAW grid and wavefunctions read in
 
   number of l-projection  operators is LMAX  =           6
   number of lm-projection operators is LMMAX =          18
 
 POTCAR:    PAW_PBE S 17Jan2003                   
   VRHFIN =S : s2p4                                                             
   LEXCH  = PE                                                                  
   EATOM  =   276.8230 eV,   20.3459 Ry                                         
                                                                                
   TITEL  = PAW_PBE S 17Jan2003                                                 
   LULTRA =        F    use ultrasoft PP ?                                      
   IUNSCR =        1    unscreen: 0-lin 1-nonlin 2-no                           
   RPACOR =    1.500    partial core radius                                     
   POMASS =   32.066; ZVAL   =    6.000    mass and valenz                      
   RCORE  =    1.900    outmost cutoff radius                                   
   RWIGS  =    2.200; RWIGS  =    1.164    wigner-seitz radius (au A)           
   ENMAX  =  280.000; ENMIN  =  194.016 eV                                      
   ICORE  =        2    local potential                                         
   LCOR   =        T    correct aug charges                                     
   LPAW   =        T    paw PP                                                  
   EAUG   =  335.092                                                            
   DEXC   =     .000                                                            
   RMAX   =    2.867    core radius for proj-oper                               
   RAUG   =    1.300    factor for augmentation sphere                          
   RDEP   =    1.954    radius for radial grids                                 
   QCUT   =   -4.360; QGAM   =    8.721    optimization parameters              
                                                                                
   Description                                                                  
     l     E      TYP  RCUT    TYP  RCUT                                        
     0   .000     23  1.900                                                     
     0   .000     23  1.900                                                     
     1   .000     23  1.900                                                     
     1   .000     23  1.900                                                     
     2   .000     23  1.900                                                     
  local pseudopotential read in
  partial core-charges read in
  atomic valenz-charges read in
  non local Contribution for L=           0  read in
    real space projection operators read in
  non local Contribution for L=           0  read in
    real space projection operators read in
  non local Contribution for L=           1  read in
    real space projection operators read in
  non local Contribution for L=           1  read in
    real space projection operators read in
    PAW grid and wavefunctions read in
 
   number of l-projection  operators is LMAX  =           4
   number of lm-projection operators is LMMAX =           8
 
 PAW_PBE Mo 08Apr2002                   :
 energy of atom  1       EATOM= -217.5180
 kinetic energy error for atom=    0.0023 (will be added to EATOM!!)
  PAW_PBE S 17Jan2003                   :
 energy of atom  2       EATOM= -276.8230
 kinetic energy error for atom=    0.0033 (will be added to EATOM!!)
 
 
 POSCAR: MoS2_mp-2815_computed                   
  positions in direct lattice
  velocities in cartesian coordinates
 exchange correlation table for  LEXCH =        8
   RHO(1)=    0.500       N(1)  =     2000
   RHO(2)=  100.500       N(2)  =     4000
 


--------------------------------------------------------------------------------------------------------


 ion  position               nearest neighbor table
   1  0.333  0.667  0.120-   3 2.41   2 2.41   2 2.41   3 2.41   3 2.41   2 2.41
   2  0.667  0.333  0.070-   1 2.41   1 2.41   1 2.41
   3  0.667  0.333  0.171-   1 2.41   1 2.41   1 2.41
 
  LATTYP: Found a hexagonal cell.
 ALAT       =     3.1898568304
 C/A-ratio  =     9.6537181778
  
  Lattice vectors:
  
 A1 = (   3.1898568304,   0.0000000000,   0.0000000000)
 A2 = (  -1.5949284152,   2.7624970496,   0.0000000000)
 A3 = (   0.0000000000,   0.0000000000,  30.7939788683)


Analysis of symmetry for initial positions (statically):
=====================================================================
 Subroutine PRICEL returns:
 Original cell was already a primitive cell.
 

 Routine SETGRP: Setting up the symmetry group for a 
 hexagonal supercell.


 Subroutine GETGRP returns: Found 12 space group operations
 (whereof  6 operations were pure point group operations)
 out of a pool of 24 trial point group operations.


The static configuration has the point symmetry C_3v.
 The point group associated with its full space group is D_3h.


Analysis of symmetry for dynamics (positions and initial velocities):
=====================================================================
 Subroutine PRICEL returns:
 Original cell was already a primitive cell.
 

 Routine SETGRP: Setting up the symmetry group for a 
 hexagonal supercell.


 Subroutine GETGRP returns: Found 12 space group operations
 (whereof  6 operations were pure point group operations)
 out of a pool of 24 trial point group operations.


The dynamic configuration has the point symmetry C_3v.
 The point group associated with its full space group is D_3h.


 Subroutine INISYM returns: Found 12 space group operations
 (whereof  6 operations are pure point group operations),
 and found     1 'primitive' translations

 
 
 KPOINTS: k-density: 5.0                          

Automatic generation of k-mesh.
Space group operators:
 irot       det(A)        alpha          n_x          n_y          n_z        tau_x        tau_y        tau_z
    1     1.000000     0.000000     1.000000     0.000000     0.000000     0.000000     0.000000     0.000000
    2     1.000000   120.000000     0.000000     0.000000    -1.000000     0.000000     0.000000     0.000000
    3     1.000000   120.000000     0.000000     0.000000     1.000000     0.000000     0.000000     0.000000
    4    -1.000000   180.000000     1.000000    -0.000000     0.000000     0.000000     0.000000     0.000000
    5    -1.000000   180.000000     0.500000    -0.866025     0.000000     0.000000     0.000000     0.000000
    6    -1.000000   180.000000    -0.500000    -0.866025     0.000000     0.000000     0.000000     0.000000
    7    -1.000000    60.000000     0.000000     0.000000    -1.000000     0.000000     0.000000     0.240924
    8    -1.000000   180.000000     0.000000     0.000000     1.000000     0.000000     0.000000     0.240924
    9    -1.000000    60.000000     0.000000     0.000000     1.000000     0.000000     0.000001     0.240924
   10     1.000000   180.000000     0.866025    -0.500000     0.000000     0.000000     0.000000     0.240924
   11     1.000000   180.000000     0.000000     1.000000     0.000000     0.000000     0.000000     0.240924
   12     1.000000   180.000000     0.866025     0.500000     0.000000     0.000000     0.000001     0.240924
 
 Subroutine IBZKPT returns following result:
 ===========================================
 
 Found     14 irreducible k-points:
 
 Following reciprocal coordinates:
            Coordinates               Weight
  0.000000  0.000000  0.000000      1.000000
  0.100000 -0.000000  0.000000      6.000000
  0.200000 -0.000000  0.000000      6.000000
  0.300000 -0.000000  0.000000      6.000000
  0.400000 -0.000000  0.000000      6.000000
  0.500000 -0.000000  0.000000      3.000000
  0.100000  0.100000  0.000000      6.000000
  0.200000  0.100000  0.000000     12.000000
  0.300000  0.100000  0.000000     12.000000
  0.400000  0.100000  0.000000     12.000000
  0.200000  0.200000  0.000000      6.000000
  0.300000  0.200000  0.000000     12.000000
  0.400000  0.200000  0.000000      6.000000
  0.300000  0.300000  0.000000      6.000000
 
 Following cartesian coordinates:
            Coordinates               Weight
  0.000000  0.000000  0.000000      1.000000
  0.031349  0.018100  0.000000      6.000000
  0.062699  0.036199  0.000000      6.000000
  0.094048  0.054299  0.000000      6.000000
  0.125397  0.072398  0.000000      6.000000
  0.156747  0.090498  0.000000      3.000000
  0.031349  0.054299  0.000000      6.000000
  0.062699  0.072398  0.000000     12.000000
  0.094048  0.090498  0.000000     12.000000
  0.125397  0.108597  0.000000     12.000000
  0.062699  0.108597  0.000000      6.000000
  0.094048  0.126697  0.000000     12.000000
  0.125397  0.144797  0.000000      6.000000
  0.094048  0.162896  0.000000      6.000000
 
 TETIRR: Found     55 inequivalent tetrahedra from      600


--------------------------------------------------------------------------------------------------------




 Dimension of arrays:
   k-points           NKPTS =     14   k-points in BZ     NKDIM =     14   number of bands    NBANDS=     14
   number of dos      NEDOS =    301   number of ions     NIONS =      3
   non local maximal  LDIM  =      6   non local SUM 2l+1 LMDIM =     18
   total plane-waves  NPLWV = 124416
   max r-space proj   IRMAX =      1   max aug-charges    IRDMAX=  29634
   dimension x,y,z NGX =    24 NGY =   24 NGZ =  216
   dimension x,y,z NGXF=    48 NGYF=   48 NGZF=  432
   support grid    NGXF=    48 NGYF=   48 NGZF=  432
   ions per type =               1   2
   NGX,Y,Z   is equivalent  to a cutoff of  12.51, 12.51, 11.66 a.u.
   NGXF,Y,Z  is equivalent  to a cutoff of  25.02, 25.02, 23.32 a.u.

 SYSTEM =  unknown system                          
 POSCAR =  MoS2_mp-2815_computed                   

 Startparameter for this run:
   NWRITE =      2    write-flag & timer
   PREC   = accura    normal or accurate (medium, high low for compatibility)
   ISTART =      0    job   : 0-new  1-cont  2-samecut
   ICHARG =      2    charge: 1-file 2-atom 10-const
   ISPIN  =      1    spin polarized calculation?
   LNONCOLLINEAR =      F non collinear calculations
   LSORBIT =      F    spin-orbit coupling
   INIWAV =      1    electr: 0-lowe 1-rand  2-diag
   LASPH  =      F    aspherical Exc in radial PAW
   METAGGA=      F    non-selfconsistent MetaGGA calc.

 Electronic Relaxation 1
   ENCUT  =  450.0 eV  33.07 Ry    5.75 a.u.   5.52  5.52 53.26*2*pi/ulx,y,z
   ENINI  =  450.0     initial cutoff
   ENAUG  =  345.3 eV  augmentation charge cutoff
   NELM   =     60;   NELMIN=  4; NELMDL= -5     # of ELM steps 
   EDIFF  = 0.1E-05   stopping-criterion for ELM
   LREAL  =      F    real-space projection
   NLSPLINE    = F    spline interpolate recip. space projectors
   LCOMPAT=      F    compatible to vasp.4.4
   GGA_COMPAT  = T    GGA compatible to vasp.4.4-vasp.4.6
   LMAXPAW     = -100 max onsite density
   LMAXMIX     =    2 max onsite mixed and CHGCAR
   VOSKOWN=      0    Vosko Wilk Nusair interpolation
   ROPT   =    0.00000   0.00000
 Ionic relaxation
   EDIFFG = 0.1E-04   stopping-criterion for IOM
   NSW    =      0    number of steps for IOM
   NBLOCK =      1;   KBLOCK =      1    inner block; outer block 
   IBRION =     -1    ionic relax: 0-MD 1-quasi-New 2-CG
   NFREE  =      0    steps in history (QN), initial steepest desc. (CG)
   ISIF   =      2    stress and relaxation
   IWAVPR =     10    prediction:  0-non 1-charg 2-wave 3-comb
   ISYM   =      2    0-nonsym 1-usesym 2-fastsym
   LCORR  =      T    Harris-Foulkes like correction to forces

   POTIM  = 0.5000    time-step for ionic-motion
   TEIN   =    0.0    initial temperature
   TEBEG  =    0.0;   TEEND  =   0.0 temperature during run
   SMASS  =  -3.00    Nose mass-parameter (am)
   estimated Nose-frequenzy (Omega)   =  0.10E-29 period in steps =****** mass=  -0.233E-27a.u.
   SCALEE = 1.0000    scale energy and forces
   NPACO  =    256;   APACO  = 16.0  distance and # of slots for P.C.
   PSTRESS=    0.0 pullay stress

  Mass of Ions in am
   POMASS =  95.94 32.07
  Ionic Valenz
   ZVAL   =   6.00  6.00
  Atomic Wigner-Seitz radii
   RWIGS  =  -1.00 -1.00
  virtual crystal weights 
   VCA    =   1.00  1.00
   NELECT =      18.0000    total number of electrons
   NUPDOWN=      -1.0000    fix difference up-down

 DOS related values:
   EMIN   =  10.00;   EMAX   =-10.00  energy-range for DOS
   EFERMI =   0.00
   ISMEAR =    -5;   SIGMA  =   0.20  broadening in eV -4-tet -1-fermi 0-gaus

 Electronic relaxation 2 (details)
   IALGO  =     68    algorithm
   LDIAG  =      T    sub-space diagonalisation (order eigenvalues)
   LSUBROT=      F    optimize rotation matrix (better conditioning)
   TURBO    =      0    0=normal 1=particle mesh
   IRESTART =      0    0=no restart 2=restart with 2 vectors
   NREBOOT  =      0    no. of reboots
   NMIN     =      0    reboot dimension
   EREF     =   0.00    reference energy to select bands
   IMIX   =      4    mixing-type and parameters
     AMIX     =   0.40;   BMIX     =  1.00
     AMIX_MAG =   1.60;   BMIX_MAG =  1.00
     AMIN     =   0.10
     WC   =   100.;   INIMIX=   1;  MIXPRE=   1;  MAXMIX= -45

 Intra band minimization:
   WEIMIN = 0.0000     energy-eigenvalue tresh-hold
   EBREAK =  0.18E-07  absolut break condition
   DEPER  =   0.30     relativ break condition  

   TIME   =   0.40     timestep for ELM

  volume/ion in A,a.u.               =      90.45       610.40
  Fermi-wavevector in a.u.,A,eV,Ry     =   0.662704  1.252328  5.975355  0.439176
  Thomas-Fermi vector in A             =   1.735856
 
 Write flags
   LWAVE        =      F    write WAVECAR
   LDOWNSAMPLE  =      F    k-point downsampling of WAVECAR
   LCHARG       =      T    write CHGCAR
   LVTOT        =      F    write LOCPOT, total local potential
   LVHAR        =      F    write LOCPOT, Hartree potential only
   LELF         =      F    write electronic localiz. function (ELF)
   LORBIT       =      0    0 simple, 1 ext, 2 COOP (PROOUT), +10 PAW based schemes


 Dipole corrections
   LMONO  =      F    monopole corrections only (constant potential shift)
   LDIPOL =      F    correct potential (dipole corrections)
   IDIPOL =      0    1-x, 2-y, 3-z, 4-all directions 
   EPSILON=  1.0000000 bulk dielectric constant

 Exchange correlation treatment:
   GGA     =    --    GGA type
   LEXCH   =     8    internal setting for exchange type
   VOSKOWN=      0    Vosko Wilk Nusair interpolation
   LHFCALC =     F    Hartree Fock is set to
   LHFONE  =     F    Hartree Fock one center treatment
   AEXX    =    0.0000 exact exchange contribution

 Linear response parameters
   LEPSILON=     F    determine dielectric tensor
   LRPA    =     F    only Hartree local field effects (RPA)
   LNABLA  =     F    use nabla operator in PAW spheres
   LVEL    =     F    velocity operator in full k-point grid
   LINTERFAST=   F  fast interpolation
   KINTER  =     0    interpolate to denser k-point grid
   CSHIFT  =0.1000    complex shift for real part using Kramers Kronig
   OMEGAMAX=  -1.0    maximum frequency
   DEG_THRESHOLD= 0.2000000E-02 threshold for treating states as degnerate
   RTIME   =   -0.100 relaxation time in fs
  (WPLASMAI=    0.000 imaginary part of plasma frequency in eV, 0.658/RTIME)
   DFIELD  = 0.0000000 0.0000000 0.0000000 field for delta impulse in time
 
 Orbital magnetization related:
   ORBITALMAG=     F  switch on orbital magnetization
   LCHIMAG   =     F  perturbation theory with respect to B field
   DQ        =  0.001000  dq finite difference perturbation B field
   LLRAUG    =     F  two centre corrections for induced B field



--------------------------------------------------------------------------------------------------------


 Static calculation
 charge density and potential will be updated during run
 non-spin polarized calculation
 RMM-DIIS sequential band-by-band and
  variant of blocked Davidson during initial phase
 perform sub-space diagonalisation
    before iterative eigenvector-optimisation
 modified Broyden-mixing scheme, WC =      100.0
 initial mixing is a Kerker type mixing with AMIX =  0.4000 and BMIX =      1.0000
 Hartree-type preconditioning will be used
 using additional bands            5
 reciprocal scheme for non local part
 use partial core corrections
 calculate Harris-corrections to forces 
   (improved forces if not selfconsistent)
 use gradient corrections 
 use of overlap-Matrix (Vanderbilt PP)
 Fermi weights with tetrahedron method with Bloechl corrections


--------------------------------------------------------------------------------------------------------


  energy-cutoff  :      450.00
  volume of cell :      271.36
      direct lattice vectors                 reciprocal lattice vectors
     3.189856830  0.000000000  0.000000000     0.313493694  0.180995668  0.000000000
    -1.594928415  2.762497050  0.000000000     0.000000000  0.361991337  0.000000000
     0.000000000  0.000000000 30.793978868     0.000000000  0.000000000  0.032473881

  length of vectors
     3.189856830  3.189856830 30.793978868     0.361991337  0.361991337  0.032473881


 
 k-points in units of 2pi/SCALE and weight: k-density: 5.0                          
   0.00000000  0.00000000  0.00000000       0.010
   0.03134937  0.01809957  0.00000000       0.060
   0.06269874  0.03619913  0.00000000       0.060
   0.09404811  0.05429870  0.00000000       0.060
   0.12539748  0.07239827  0.00000000       0.060
   0.15674685  0.09049783  0.00000000       0.030
   0.03134937  0.05429870  0.00000000       0.060
   0.06269874  0.07239827  0.00000000       0.120
   0.09404811  0.09049783  0.00000000       0.120
   0.12539748  0.10859740  0.00000000       0.120
   0.06269874  0.10859740  0.00000000       0.060
   0.09404811  0.12669697  0.00000000       0.120
   0.12539748  0.14479653  0.00000000       0.060
   0.09404811  0.16289610  0.00000000       0.060
 
 k-points in reciprocal lattice and weights: k-density: 5.0                          
   0.00000000  0.00000000  0.00000000       0.010
   0.10000000 -0.00000000  0.00000000       0.060
   0.20000000 -0.00000000  0.00000000       0.060
   0.30000000 -0.00000000  0.00000000       0.060
   0.40000000 -0.00000000  0.00000000       0.060
   0.50000000 -0.00000000  0.00000000       0.030
   0.10000000  0.10000000  0.00000000       0.060
   0.20000000  0.10000000  0.00000000       0.120
   0.30000000  0.10000000  0.00000000       0.120
   0.40000000  0.10000000  0.00000000       0.120
   0.20000000  0.20000000  0.00000000       0.060
   0.30000000  0.20000000  0.00000000       0.120
   0.40000000  0.20000000  0.00000000       0.060
   0.30000000  0.30000000  0.00000000       0.060
 
 position of ions in fractional coordinates (direct lattice) 
   0.33333300  0.66666700  0.12046214
   0.66666700  0.33333300  0.06984045
   0.66666600  0.33333300  0.17108384
 
 position of ions in cartesian coordinates  (Angst):
  -0.00000160  1.84166562  3.70950873
   1.59493001  0.92083143  2.15066543
   1.59492682  0.92083143  5.26835203
 


--------------------------------------------------------------------------------------------------------


 k-point  1 :   0.0000 0.0000 0.0000  plane waves:    5987
 k-point  2 :   0.1000-0.0000 0.0000  plane waves:    5969
 k-point  3 :   0.2000-0.0000 0.0000  plane waves:    5925
 k-point  4 :   0.3000-0.0000 0.0000  plane waves:    5880
 k-point  5 :   0.4000-0.0000 0.0000  plane waves:    5864
 k-point  6 :   0.5000-0.0000 0.0000  plane waves:    5812
 k-point  7 :   0.1000 0.1000 0.0000  plane waves:    5947
 k-point  8 :   0.2000 0.1000 0.0000  plane waves:    5903
 k-point  9 :   0.3000 0.1000 0.0000  plane waves:    5877
 k-point 10 :   0.4000 0.1000 0.0000  plane waves:    5836
 k-point 11 :   0.2000 0.2000 0.0000  plane waves:    5887
 k-point 12 :   0.3000 0.2000 0.0000  plane waves:    5858
 k-point 13 :   0.4000 0.2000 0.0000  plane waves:    5842
 k-point 14 :   0.3000 0.3000 0.0000  plane waves:    5868

 maximum and minimum number of plane-waves per node :      2994     2869

 maximum number of plane-waves:      5987
 maximum index in each direction: 
   IXMAX=    5   IYMAX=    5   IZMAX=   53
   IXMIN=   -6   IYMIN=   -5   IZMIN=  -53


 parallel 3D FFT for wavefunctions:
    minimum data exchange during FFTs selected (reduces bandwidth)
 parallel 3D FFT for charge:
    minimum data exchange during FFTs selected (reduces bandwidth)


 total amount of memory used by VASP MPI-rank0    73662. kBytes
=======================================================================

   base      :      30000. kBytes
   nonl-proj :      12215. kBytes
   fftplans  :      10208. kBytes
   grid      :      16473. kBytes
   one-center:         31. kBytes
   wavefun   :       4735. kBytes
 
     INWAV:  cpu time    0.0000: real time    0.0000
 Broyden mixing: mesh for mixing (old mesh)
   NGX = 11   NGY = 11   NGZ =107
  (NGX  = 48   NGY  = 48   NGZ  =432)
  gives a total of  12947 points

 initial charge density was supplied:
 charge density of overlapping atoms calculated
 number of electron      18.0000000 magnetization 
 keeping initial charge density in first step


--------------------------------------------------------------------------------------------------------


 Maximum index for augmentation-charges         7169 (set IRDMAX)


--------------------------------------------------------------------------------------------------------


 First call to EWALD:  gamma=   0.274
 Maximum number of real-space cells 6x 6x 1
 Maximum number of reciprocal cells 2x 2x11

    FEWALD:  cpu time    0.0020: real time    0.0015


--------------------------------------- Iteration      1(   1)  ---------------------------------------


    POTLOK:  cpu time    0.1470: real time    0.4727
    SETDIJ:  cpu time    0.0050: real time    0.0056
     EDDAV:  cpu time    0.7119: real time    0.7160
 BZINTS: Fermi energy:  6.475395; 18.000000 electrons
         Band energy: -12.745862;  BLOECHL correction: -0.247680
       DOS:  cpu time    0.0010: real time    0.0015
    --------------------------------------------
      LOOP:  cpu time    0.8649: real time    1.1958

 eigenvalue-minimisations  :   392
 total energy-change (2. order) : 0.1372071E+03  (-0.5358608E+03)
 number of electron      18.0000000 magnetization 
 augmentation part       18.0000000 magnetization 

 Free energy of the ion-electron system (eV)
  ---------------------------------------------------
  alpha Z        PSCENC =        10.92610231
  Ewald energy   TEWEN  =      5354.53473861
  -Hartree energ DENC   =     -6027.92195658
  -exchange      EXHF   =         0.00000000
  -V(xc)+E(xc)   XCENC  =       -36.28686144
  PAW double counting   =       406.88651198     -329.34073203
  entropy T*S    EENTRO =         0.00000000
  eigenvalues    EBANDS =       -12.74586182
  atomic energy  EATOM  =       771.15511399
  Solvation  Ediel_sol  =         0.00000000
  ---------------------------------------------------
  free energy    TOTEN  =       137.20705502 eV

  energy without entropy =      137.20705502  energy(sigma->0) =      137.20705502


--------------------------------------------------------------------------------------------------------




--------------------------------------- Iteration      1(   2)  ---------------------------------------


     EDDAV:  cpu time    1.0968: real time    1.0996
 BZINTS: Fermi energy: -2.592589; 18.000000 electrons
         Band energy:-155.973701;  BLOECHL correction:  0.000000
       DOS:  cpu time    0.0000: real time    0.0003
    --------------------------------------------
      LOOP:  cpu time    1.0968: real time    1.0999

 eigenvalue-minimisations  :   702
 total energy-change (2. order) :-0.1432278E+03  (-0.1334784E+03)
 number of electron      18.0000000 magnetization 
 augmentation part       18.0000000 magnetization 

 Free energy of the ion-electron system (eV)
  ---------------------------------------------------
  alpha Z        PSCENC =        10.92610231
  Ewald energy   TEWEN  =      5354.53473861
  -Hartree energ DENC   =     -6027.92195658
  -exchange      EXHF   =         0.00000000
  -V(xc)+E(xc)   XCENC  =       -36.28686144
  PAW double counting   =       406.88651198     -329.34073203
  entropy T*S    EENTRO =         0.00000000
  eigenvalues    EBANDS =      -155.97370053
  atomic energy  EATOM  =       771.15511399
  Solvation  Ediel_sol  =         0.00000000
  ---------------------------------------------------
  free energy    TOTEN  =        -6.02078369 eV

  energy without entropy =       -6.02078369  energy(sigma->0) =       -6.02078369


--------------------------------------------------------------------------------------------------------




--------------------------------------- Iteration      1(   3)  ---------------------------------------


     EDDAV:  cpu time    0.8629: real time    0.8653
 BZINTS: Fermi energy: -3.620107; 18.000000 electrons
         Band energy:-172.998429;  BLOECHL correction:  0.000000
       DOS:  cpu time    0.0000: real time    0.0004
    --------------------------------------------
      LOOP:  cpu time    0.8639: real time    0.8657

 eigenvalue-minimisations  :   518
 total energy-change (2. order) :-0.1702473E+02  (-0.1686414E+02)
 number of electron      18.0000000 magnetization 
 augmentation part       18.0000000 magnetization 

 Free energy of the ion-electron system (eV)
  ---------------------------------------------------
  alpha Z        PSCENC =        10.92610231
  Ewald energy   TEWEN  =      5354.53473861
  -Hartree energ DENC   =     -6027.92195658
  -exchange      EXHF   =         0.00000000
  -V(xc)+E(xc)   XCENC  =       -36.28686144
  PAW double counting   =       406.88651198     -329.34073203
  entropy T*S    EENTRO =         0.00000000
  eigenvalues    EBANDS =      -172.99842872
  atomic energy  EATOM  =       771.15511399
  Solvation  Ediel_sol  =         0.00000000
  ---------------------------------------------------
  free energy    TOTEN  =       -23.04551188 eV

  energy without entropy =      -23.04551188  energy(sigma->0) =      -23.04551188


--------------------------------------------------------------------------------------------------------




--------------------------------------- Iteration      1(   4)  ---------------------------------------


     EDDAV:  cpu time    0.8789: real time    0.8784
 BZINTS: Fermi energy: -3.702844; 18.000000 electrons
         Band energy:-173.345034;  BLOECHL correction:  0.000000
       DOS:  cpu time    0.0000: real time    0.0003
    --------------------------------------------
      LOOP:  cpu time    0.8779: real time    0.8787

 eigenvalue-minimisations  :   530
 total energy-change (2. order) :-0.3466054E+00  (-0.3446859E+00)
 number of electron      18.0000000 magnetization 
 augmentation part       18.0000000 magnetization 

 Free energy of the ion-electron system (eV)
  ---------------------------------------------------
  alpha Z        PSCENC =        10.92610231
  Ewald energy   TEWEN  =      5354.53473861
  -Hartree energ DENC   =     -6027.92195658
  -exchange      EXHF   =         0.00000000
  -V(xc)+E(xc)   XCENC  =       -36.28686144
  PAW double counting   =       406.88651198     -329.34073203
  entropy T*S    EENTRO =         0.00000000
  eigenvalues    EBANDS =      -173.34503413
  atomic energy  EATOM  =       771.15511399
  Solvation  Ediel_sol  =         0.00000000
  ---------------------------------------------------
  free energy    TOTEN  =       -23.39211729 eV

  energy without entropy =      -23.39211729  energy(sigma->0) =      -23.39211729


--------------------------------------------------------------------------------------------------------




--------------------------------------- Iteration      1(   5)  ---------------------------------------


     EDDAV:  cpu time    0.8729: real time    0.8745
 BZINTS: Fermi energy: -3.644158; 18.000000 electrons
         Band energy:-173.353645;  BLOECHL correction:  0.000000
       DOS:  cpu time    0.0000: real time    0.0003
    CHARGE:  cpu time    0.0750: real time    0.0744
    MIXING:  cpu time    0.0040: real time    0.0041
    --------------------------------------------
      LOOP:  cpu time    0.9519: real time    0.9533

 eigenvalue-minimisations  :   526
 total energy-change (2. order) :-0.8610846E-02  (-0.8606569E-02)
 number of electron      18.0000005 magnetization 
 augmentation part       -0.9434585 magnetization 

 Broyden mixing:
  rms(total) = 0.68734E+00    rms(broyden)= 0.68733E+00
  rms(prec ) = 0.73108E+00
  weight for this iteration     100.00

 Free energy of the ion-electron system (eV)
  ---------------------------------------------------
  alpha Z        PSCENC =        10.92610231
  Ewald energy   TEWEN  =      5354.53473861
  -Hartree energ DENC   =     -6027.92195658
  -exchange      EXHF   =         0.00000000
  -V(xc)+E(xc)   XCENC  =       -36.28686144
  PAW double counting   =       406.88651198     -329.34073203
  entropy T*S    EENTRO =         0.00000000
  eigenvalues    EBANDS =      -173.35364498
  atomic energy  EATOM  =       771.15511399
  Solvation  Ediel_sol  =         0.00000000
  ---------------------------------------------------
  free energy    TOTEN  =       -23.40072813 eV

  energy without entropy =      -23.40072813  energy(sigma->0) =      -23.40072813


--------------------------------------------------------------------------------------------------------




--------------------------------------- Iteration      1(   6)  ---------------------------------------


    POTLOK:  cpu time    0.1430: real time    0.1441
    SETDIJ:  cpu time    0.0060: real time    0.0052
    EDDIAG:  cpu time    0.1490: real time    0.1495
  RMM-DIIS:  cpu time    0.6639: real time    0.6635
    ORTHCH:  cpu time    0.0060: real time    0.0070
 BZINTS: Fermi energy: -4.717898; 18.000000 electrons
         Band energy:-173.789922;  BLOECHL correction:  0.000000
       DOS:  cpu time    0.0000: real time    0.0003
    CHARGE:  cpu time    0.0740: real time    0.0739
    MIXING:  cpu time    0.0040: real time    0.0038
    --------------------------------------------
      LOOP:  cpu time    1.0458: real time    1.0473

 eigenvalue-minimisations  :   415
 total energy-change (2. order) : 0.1164958E+01  (-0.5381398E+00)
 number of electron      18.0000005 magnetization 
 augmentation part       -0.4029090 magnetization 

 Broyden mixing:
  rms(total) = 0.25811E+00    rms(broyden)= 0.25811E+00
  rms(prec ) = 0.29263E+00
  weight for this iteration     100.00

 eigenvalues of (default mixing * dielectric matrix)
  average eigenvalue GAMMA=   0.8393
  0.8393

 Free energy of the ion-electron system (eV)
  ---------------------------------------------------
  alpha Z        PSCENC =        10.92610231
  Ewald energy   TEWEN  =      5354.53473861
  -Hartree energ DENC   =     -6026.31097174
  -exchange      EXHF   =         0.00000000
  -V(xc)+E(xc)   XCENC  =       -35.40038060
  PAW double counting   =       424.48791635     -347.83836695
  entropy T*S    EENTRO =         0.00000000
  eigenvalues    EBANDS =      -173.78992235
  atomic energy  EATOM  =       771.15511399
  Solvation  Ediel_sol  =         0.00000000
  ---------------------------------------------------
  free energy    TOTEN  =       -22.23577037 eV

  energy without entropy =      -22.23577037  energy(sigma->0) =      -22.23577037


--------------------------------------------------------------------------------------------------------




--------------------------------------- Iteration      1(   7)  ---------------------------------------


    POTLOK:  cpu time    0.1330: real time    0.1350
    SETDIJ:  cpu time    0.0060: real time    0.0053
    EDDIAG:  cpu time    0.1470: real time    0.1482
  RMM-DIIS:  cpu time    0.6439: real time    0.6433
    ORTHCH:  cpu time    0.0070: real time    0.0071
 BZINTS: Fermi energy: -4.126011; 18.000000 electrons
         Band energy:-167.502042;  BLOECHL correction:  0.000000
       DOS:  cpu time    0.0000: real time    0.0003
    CHARGE:  cpu time    0.0740: real time    0.0739
    MIXING:  cpu time    0.0040: real time    0.0039
    --------------------------------------------
      LOOP:  cpu time    1.0148: real time    1.0169

 eigenvalue-minimisations  :   408
 total energy-change (2. order) : 0.3741774E+00  (-0.5470840E-01)
 number of electron      18.0000005 magnetization 
 augmentation part       -0.5989231 magnetization 

 Broyden mixing:
  rms(total) = 0.14950E+00    rms(broyden)= 0.14950E+00
  rms(prec ) = 0.15587E+00
  weight for this iteration     100.00

 eigenvalues of (default mixing * dielectric matrix)
  average eigenvalue GAMMA=   1.3651
  0.6711  2.0591

 Free energy of the ion-electron system (eV)
  ---------------------------------------------------
  alpha Z        PSCENC =        10.92610231
  Ewald energy   TEWEN  =      5354.53473861
  -Hartree energ DENC   =     -6031.84560772
  -exchange      EXHF   =         0.00000000
  -V(xc)+E(xc)   XCENC  =       -35.53928647
  PAW double counting   =       442.36731996     -365.95793188
  entropy T*S    EENTRO =         0.00000000
  eigenvalues    EBANDS =      -167.50204180
  atomic energy  EATOM  =       771.15511399
  Solvation  Ediel_sol  =         0.00000000
  ---------------------------------------------------
  free energy    TOTEN  =       -21.86159299 eV

  energy without entropy =      -21.86159299  energy(sigma->0) =      -21.86159299


--------------------------------------------------------------------------------------------------------




--------------------------------------- Iteration      1(   8)  ---------------------------------------


    POTLOK:  cpu time    0.1330: real time    0.1348
    SETDIJ:  cpu time    0.0050: real time    0.0052
    EDDIAG:  cpu time    0.1480: real time    0.1483
  RMM-DIIS:  cpu time    0.6889: real time    0.6878
    ORTHCH:  cpu time    0.0060: real time    0.0070
 BZINTS: Fermi energy: -4.012346; 18.000000 electrons
         Band energy:-163.187910;  BLOECHL correction:  0.000000
       DOS:  cpu time    0.0000: real time    0.0003
    CHARGE:  cpu time    0.0740: real time    0.0739
    MIXING:  cpu time    0.0050: real time    0.0046
    --------------------------------------------
      LOOP:  cpu time    1.0598: real time    1.0620

 eigenvalue-minimisations  :   433
 total energy-change (2. order) : 0.5930168E-01  (-0.2288195E-01)
 number of electron      18.0000005 magnetization 
 augmentation part       -0.5517583 magnetization 

 Broyden mixing:
  rms(total) = 0.35364E-01    rms(broyden)= 0.35363E-01
  rms(prec ) = 0.37177E-01
  weight for this iteration     100.00

 eigenvalues of (default mixing * dielectric matrix)
  average eigenvalue GAMMA=   1.5039
  1.9210  1.9210  0.6698

 Free energy of the ion-electron system (eV)
  ---------------------------------------------------
  alpha Z        PSCENC =        10.92610231
  Ewald energy   TEWEN  =      5354.53473861
  -Hartree energ DENC   =     -6035.85242177
  -exchange      EXHF   =         0.00000000
  -V(xc)+E(xc)   XCENC  =       -35.26743884
  PAW double counting   =       466.32911113     -390.43958668
  entropy T*S    EENTRO =         0.00000000
  eigenvalues    EBANDS =      -163.18791006
  atomic energy  EATOM  =       771.15511399
  Solvation  Ediel_sol  =         0.00000000
  ---------------------------------------------------
  free energy    TOTEN  =       -21.80229131 eV

  energy without entropy =      -21.80229131  energy(sigma->0) =      -21.80229131


--------------------------------------------------------------------------------------------------------




--------------------------------------- Iteration      1(   9)  ---------------------------------------


    POTLOK:  cpu time    0.1340: real time    0.1365
    SETDIJ:  cpu time    0.0050: real time    0.0051
    EDDIAG:  cpu time    0.1480: real time    0.1482
  RMM-DIIS:  cpu time    0.7429: real time    0.7419
    ORTHCH:  cpu time    0.0060: real time    0.0070
 BZINTS: Fermi energy: -3.901395; 18.000000 electrons
         Band energy:-161.831039;  BLOECHL correction:  0.000000
       DOS:  cpu time    0.0010: real time    0.0003
    CHARGE:  cpu time    0.0740: real time    0.0739
    MIXING:  cpu time    0.0040: real time    0.0040
    --------------------------------------------
      LOOP:  cpu time    1.1148: real time    1.1169

 eigenvalue-minimisations  :   467
 total energy-change (2. order) : 0.4840636E-02  (-0.8798864E-03)
 number of electron      18.0000005 magnetization 
 augmentation part       -0.5466481 magnetization 

 Broyden mixing:
  rms(total) = 0.95710E-02    rms(broyden)= 0.95705E-02
  rms(prec ) = 0.11368E-01
  weight for this iteration     100.00

 eigenvalues of (default mixing * dielectric matrix)
  average eigenvalue GAMMA=   1.5090
  0.6724  1.0482  2.4381  1.8772

 Free energy of the ion-electron system (eV)
  ---------------------------------------------------
  alpha Z        PSCENC =        10.92610231
  Ewald energy   TEWEN  =      5354.53473861
  -Hartree energ DENC   =     -6037.17842613
  -exchange      EXHF   =         0.00000000
  -V(xc)+E(xc)   XCENC  =       -35.21382021
  PAW double counting   =       471.73329378     -395.92341411
  entropy T*S    EENTRO =         0.00000000
  eigenvalues    EBANDS =      -161.83103893
  atomic energy  EATOM  =       771.15511399
  Solvation  Ediel_sol  =         0.00000000
  ---------------------------------------------------
  free energy    TOTEN  =       -21.79745067 eV

  energy without entropy =      -21.79745067  energy(sigma->0) =      -21.79745067


--------------------------------------------------------------------------------------------------------




--------------------------------------- Iteration      1(  10)  ---------------------------------------


    POTLOK:  cpu time    0.1340: real time    0.1365
    SETDIJ:  cpu time    0.0060: real time    0.0051
    EDDIAG:  cpu time    0.1480: real time    0.1487
  RMM-DIIS:  cpu time    0.7419: real time    0.7410
    ORTHCH:  cpu time    0.0060: real time    0.0070
 BZINTS: Fermi energy: -3.861300; 18.000000 electrons
         Band energy:-160.680011;  BLOECHL correction:  0.000000
       DOS:  cpu time    0.0000: real time    0.0003
    CHARGE:  cpu time    0.0740: real time    0.0740
    MIXING:  cpu time    0.0040: real time    0.0041
    --------------------------------------------
      LOOP:  cpu time    1.1138: real time    1.1167

 eigenvalue-minimisations  :   468
 total energy-change (2. order) : 0.7430136E-03  (-0.1682158E-03)
 number of electron      18.0000005 magnetization 
 augmentation part       -0.5512858 magnetization 

 Broyden mixing:
  rms(total) = 0.44299E-02    rms(broyden)= 0.44298E-02
  rms(prec ) = 0.57803E-02
  weight for this iteration     100.00

 eigenvalues of (default mixing * dielectric matrix)
  average eigenvalue GAMMA=   1.6716
  0.6731  1.0366  2.1651  2.2416  2.2416

 Free energy of the ion-electron system (eV)
  ---------------------------------------------------
  alpha Z        PSCENC =        10.92610231
  Ewald energy   TEWEN  =      5354.53473861
  -Hartree energ DENC   =     -6038.31968456
  -exchange      EXHF   =         0.00000000
  -V(xc)+E(xc)   XCENC  =       -35.19351333
  PAW double counting   =       473.95224307     -398.17169709
  entropy T*S    EENTRO =         0.00000000
  eigenvalues    EBANDS =      -160.68001066
  atomic energy  EATOM  =       771.15511399
  Solvation  Ediel_sol  =         0.00000000
  ---------------------------------------------------
  free energy    TOTEN  =       -21.79670766 eV

  energy without entropy =      -21.79670766  energy(sigma->0) =      -21.79670766


--------------------------------------------------------------------------------------------------------




--------------------------------------- Iteration      1(  11)  ---------------------------------------


    POTLOK:  cpu time    0.1360: real time    0.1367
    SETDIJ:  cpu time    0.0060: real time    0.0052
    EDDIAG:  cpu time    0.1470: real time    0.1480
  RMM-DIIS:  cpu time    0.6989: real time    0.6977
    ORTHCH:  cpu time    0.0060: real time    0.0070
 BZINTS: Fermi energy: -3.819446; 18.000000 electrons
         Band energy:-159.538535;  BLOECHL correction:  0.000000
       DOS:  cpu time    0.0000: real time    0.0003
    CHARGE:  cpu time    0.0750: real time    0.0742
    MIXING:  cpu time    0.0040: real time    0.0042
    --------------------------------------------
      LOOP:  cpu time    1.0728: real time    1.0735

 eigenvalue-minimisations  :   439
 total energy-change (2. order) : 0.6874116E-04  (-0.1615077E-03)
 number of electron      18.0000005 magnetization 
 augmentation part       -0.5475992 magnetization 

 Broyden mixing:
  rms(total) = 0.53556E-02    rms(broyden)= 0.53556E-02
  rms(prec ) = 0.60405E-02
  weight for this iteration     100.00

 eigenvalues of (default mixing * dielectric matrix)
  average eigenvalue GAMMA=   1.6755
  2.9361  2.6727  0.6738  0.9302  1.4202  1.4202

 Free energy of the ion-electron system (eV)
  ---------------------------------------------------
  alpha Z        PSCENC =        10.92610231
  Ewald energy   TEWEN  =      5354.53473861
  -Hartree energ DENC   =     -6039.48387088
  -exchange      EXHF   =         0.00000000
  -V(xc)+E(xc)   XCENC  =       -35.17998931
  PAW double counting   =       473.41710242     -397.62730139
  entropy T*S    EENTRO =         0.00000000
  eigenvalues    EBANDS =      -159.53853466
  atomic energy  EATOM  =       771.15511399
  Solvation  Ediel_sol  =         0.00000000
  ---------------------------------------------------
  free energy    TOTEN  =       -21.79663892 eV

  energy without entropy =      -21.79663892  energy(sigma->0) =      -21.79663892


--------------------------------------------------------------------------------------------------------




--------------------------------------- Iteration      1(  12)  ---------------------------------------


    POTLOK:  cpu time    0.1350: real time    0.1369
    SETDIJ:  cpu time    0.0060: real time    0.0052
    EDDIAG:  cpu time    0.1470: real time    0.1479
  RMM-DIIS:  cpu time    0.6819: real time    0.6809
    ORTHCH:  cpu time    0.0070: real time    0.0070
 BZINTS: Fermi energy: -3.791269; 18.000000 electrons
         Band energy:-158.840263;  BLOECHL correction:  0.000000
       DOS:  cpu time    0.0000: real time    0.0003
    CHARGE:  cpu time    0.0740: real time    0.0740
    MIXING:  cpu time    0.0040: real time    0.0043
    --------------------------------------------
      LOOP:  cpu time    1.0548: real time    1.0566

 eigenvalue-minimisations  :   426
 total energy-change (2. order) : 0.1586217E-03  (-0.5176233E-04)
 number of electron      18.0000005 magnetization 
 augmentation part       -0.5502891 magnetization 

 Broyden mixing:
  rms(total) = 0.17466E-02    rms(broyden)= 0.17466E-02
  rms(prec ) = 0.22449E-02
  weight for this iteration     100.00

 eigenvalues of (default mixing * dielectric matrix)
  average eigenvalue GAMMA=   1.9510
  3.8803  2.7268  2.7268  0.6738  0.9633  1.4173  1.2690

 Free energy of the ion-electron system (eV)
  ---------------------------------------------------
  alpha Z        PSCENC =        10.92610231
  Ewald energy   TEWEN  =      5354.53473861
  -Hartree energ DENC   =     -6040.18784078
  -exchange      EXHF   =         0.00000000
  -V(xc)+E(xc)   XCENC  =       -35.17644755
  PAW double counting   =       473.58688870     -397.79477261
  entropy T*S    EENTRO =         0.00000000
  eigenvalues    EBANDS =      -158.84026297
  atomic energy  EATOM  =       771.15511399
  Solvation  Ediel_sol  =         0.00000000
  ---------------------------------------------------
  free energy    TOTEN  =       -21.79648030 eV

  energy without entropy =      -21.79648030  energy(sigma->0) =      -21.79648030


--------------------------------------------------------------------------------------------------------




--------------------------------------- Iteration      1(  13)  ---------------------------------------


    POTLOK:  cpu time    0.1370: real time    0.1385
    SETDIJ:  cpu time    0.0060: real time    0.0052
    EDDIAG:  cpu time    0.1470: real time    0.1480
  RMM-DIIS:  cpu time    0.6539: real time    0.6534
    ORTHCH:  cpu time    0.0070: real time    0.0070
 BZINTS: Fermi energy: -3.737041; 18.000000 electrons
         Band energy:-158.075004;  BLOECHL correction:  0.000000
       DOS:  cpu time    0.0000: real time    0.0003
    CHARGE:  cpu time    0.0740: real time    0.0740
    MIXING:  cpu time    0.0050: real time    0.0044
    --------------------------------------------
      LOOP:  cpu time    1.0298: real time    1.0307

 eigenvalue-minimisations  :   415
 total energy-change (2. order) :-0.3310411E-03  (-0.1659560E-04)
 number of electron      18.0000005 magnetization 
 augmentation part       -0.5487059 magnetization 

 Broyden mixing:
  rms(total) = 0.19883E-02    rms(broyden)= 0.19883E-02
  rms(prec ) = 0.21807E-02
  weight for this iteration     100.00

 eigenvalues of (default mixing * dielectric matrix)
  average eigenvalue GAMMA=   1.9179
  4.8502  2.7040  2.3815  1.4239  1.4239  0.6740  0.9428  0.9428

 Free energy of the ion-electron system (eV)
  ---------------------------------------------------
  alpha Z        PSCENC =        10.92610231
  Ewald energy   TEWEN  =      5354.53473861
  -Hartree energ DENC   =     -6040.95553636
  -exchange      EXHF   =         0.00000000
  -V(xc)+E(xc)   XCENC  =       -35.16934667
  PAW double counting   =       473.53656602     -397.74944531
  entropy T*S    EENTRO =         0.00000000
  eigenvalues    EBANDS =      -158.07500393
  atomic energy  EATOM  =       771.15511399
  Solvation  Ediel_sol  =         0.00000000
  ---------------------------------------------------
  free energy    TOTEN  =       -21.79681134 eV

  energy without entropy =      -21.79681134  energy(sigma->0) =      -21.79681134


--------------------------------------------------------------------------------------------------------




--------------------------------------- Iteration      1(  14)  ---------------------------------------


    POTLOK:  cpu time    0.1360: real time    0.1382
    SETDIJ:  cpu time    0.0060: real time    0.0051
    EDDIAG:  cpu time    0.1470: real time    0.1480
  RMM-DIIS:  cpu time    0.6999: real time    0.6991
    ORTHCH:  cpu time    0.0070: real time    0.0070
 BZINTS: Fermi energy: -3.719882; 18.000000 electrons
         Band energy:-157.903997;  BLOECHL correction:  0.000000
       DOS:  cpu time    0.0000: real time    0.0003
    CHARGE:  cpu time    0.0740: real time    0.0740
    MIXING:  cpu time    0.0040: real time    0.0046
    --------------------------------------------
      LOOP:  cpu time    1.0738: real time    1.0762

 eigenvalue-minimisations  :   445
 total energy-change (2. order) :-0.5576381E-04  (-0.2749833E-05)
 number of electron      18.0000005 magnetization 
 augmentation part       -0.5498558 magnetization 

 Broyden mixing:
  rms(total) = 0.49722E-03    rms(broyden)= 0.49721E-03
  rms(prec ) = 0.63257E-03
  weight for this iteration     100.00

 eigenvalues of (default mixing * dielectric matrix)
  average eigenvalue GAMMA=   2.1969
  6.7309  2.9860  2.3880  2.3880  1.5165  0.6740  1.1777  0.9553  0.9553

 Free energy of the ion-electron system (eV)
  ---------------------------------------------------
  alpha Z        PSCENC =        10.92610231
  Ewald energy   TEWEN  =      5354.53473861
  -Hartree energ DENC   =     -6041.12910039
  -exchange      EXHF   =         0.00000000
  -V(xc)+E(xc)   XCENC  =       -35.17141117
  PAW double counting   =       473.35398507     -397.56229819
  entropy T*S    EENTRO =         0.00000000
  eigenvalues    EBANDS =      -157.90399734
  atomic energy  EATOM  =       771.15511399
  Solvation  Ediel_sol  =         0.00000000
  ---------------------------------------------------
  free energy    TOTEN  =       -21.79686710 eV

  energy without entropy =      -21.79686710  energy(sigma->0) =      -21.79686710


--------------------------------------------------------------------------------------------------------




--------------------------------------- Iteration      1(  15)  ---------------------------------------


    POTLOK:  cpu time    0.1380: real time    0.1391
    SETDIJ:  cpu time    0.0060: real time    0.0052
    EDDIAG:  cpu time    0.1480: real time    0.1479
  RMM-DIIS:  cpu time    0.6719: real time    0.6719
    ORTHCH:  cpu time    0.0070: real time    0.0070
 BZINTS: Fermi energy: -3.690475; 18.000000 electrons
         Band energy:-157.747070;  BLOECHL correction:  0.000000
       DOS:  cpu time    0.0000: real time    0.0003
    CHARGE:  cpu time    0.0740: real time    0.0739
    MIXING:  cpu time    0.0040: real time    0.0047
    --------------------------------------------
      LOOP:  cpu time    1.0488: real time    1.0500

 eigenvalue-minimisations  :   424
 total energy-change (2. order) :-0.1273671E-03  (-0.1220493E-05)
 number of electron      18.0000005 magnetization 
 augmentation part       -0.5495737 magnetization 

 Broyden mixing:
  rms(total) = 0.30124E-03    rms(broyden)= 0.30123E-03
  rms(prec ) = 0.36531E-03
  weight for this iteration     100.00

 eigenvalues of (default mixing * dielectric matrix)
  average eigenvalue GAMMA=   2.1573
  6.6912  3.4890  2.6293  1.7365  1.7365  1.6327  0.6740  1.0169  1.0169  0.9502

 Free energy of the ion-electron system (eV)
  ---------------------------------------------------
  alpha Z        PSCENC =        10.92610231
  Ewald energy   TEWEN  =      5354.53473861
  -Hartree energ DENC   =     -6041.28625209
  -exchange      EXHF   =         0.00000000
  -V(xc)+E(xc)   XCENC  =       -35.17112449
  PAW double counting   =       473.37257234     -397.58107512
  entropy T*S    EENTRO =         0.00000000
  eigenvalues    EBANDS =      -157.74707002
  atomic energy  EATOM  =       771.15511399
  Solvation  Ediel_sol  =         0.00000000
  ---------------------------------------------------
  free energy    TOTEN  =       -21.79699447 eV

  energy without entropy =      -21.79699447  energy(sigma->0) =      -21.79699447


--------------------------------------------------------------------------------------------------------




--------------------------------------- Iteration      1(  16)  ---------------------------------------


    POTLOK:  cpu time    0.1390: real time    0.1399
    SETDIJ:  cpu time    0.0060: real time    0.0051
    EDDIAG:  cpu time    0.1470: real time    0.1479
  RMM-DIIS:  cpu time    0.5539: real time    0.5533
    ORTHCH:  cpu time    0.0060: real time    0.0070
 BZINTS: Fermi energy: -3.740237; 18.000000 electrons
         Band energy:-157.688230;  BLOECHL correction:  0.000000
       DOS:  cpu time    0.0010: real time    0.0003
    CHARGE:  cpu time    0.0740: real time    0.0740
    MIXING:  cpu time    0.0050: real time    0.0049
    --------------------------------------------
      LOOP:  cpu time    0.9319: real time    0.9322

 eigenvalue-minimisations  :   330
 total energy-change (2. order) :-0.3987425E-04  (-0.2650050E-06)
 number of electron      18.0000005 magnetization 
 augmentation part       -0.5497916 magnetization 

 Broyden mixing:
  rms(total) = 0.16427E-03    rms(broyden)= 0.16427E-03
  rms(prec ) = 0.19242E-03
  weight for this iteration     100.00

 eigenvalues of (default mixing * dielectric matrix)
  average eigenvalue GAMMA=   2.3461
  7.4356  4.5111  2.8145  2.6463  2.0747  1.5683  0.6740  1.1468  1.0095  1.0095
  0.9171

 Free energy of the ion-electron system (eV)
  ---------------------------------------------------
  alpha Z        PSCENC =        10.92610231
  Ewald energy   TEWEN  =      5354.53473861
  -Hartree energ DENC   =     -6041.34429728
  -exchange      EXHF   =         0.00000000
  -V(xc)+E(xc)   XCENC  =       -35.17111755
  PAW double counting   =       473.42339409     -397.63273832
  entropy T*S    EENTRO =         0.00000000
  eigenvalues    EBANDS =      -157.68823020
  atomic energy  EATOM  =       771.15511399
  Solvation  Ediel_sol  =         0.00000000
  ---------------------------------------------------
  free energy    TOTEN  =       -21.79703434 eV

  energy without entropy =      -21.79703434  energy(sigma->0) =      -21.79703434


--------------------------------------------------------------------------------------------------------




--------------------------------------- Iteration      1(  17)  ---------------------------------------


    POTLOK:  cpu time    0.1330: real time    0.1333
    SETDIJ:  cpu time    0.0060: real time    0.0052
    EDDIAG:  cpu time    0.1470: real time    0.1478
  RMM-DIIS:  cpu time    0.4959: real time    0.4958
    ORTHCH:  cpu time    0.0070: real time    0.0071
 BZINTS: Fermi energy: -3.671615; 18.000000 electrons
         Band energy:-157.659106;  BLOECHL correction:  0.000000
       DOS:  cpu time    0.0000: real time    0.0003
    CHARGE:  cpu time    0.0740: real time    0.0740
    MIXING:  cpu time    0.0060: real time    0.0050
    --------------------------------------------
      LOOP:  cpu time    0.8689: real time    0.8685

 eigenvalue-minimisations  :   289
 total energy-change (2. order) :-0.2949589E-04  (-0.2763605E-06)
 number of electron      18.0000005 magnetization 
 augmentation part       -0.5497479 magnetization 

 Broyden mixing:
  rms(total) = 0.11811E-03    rms(broyden)= 0.11811E-03
  rms(prec ) = 0.13092E-03
  weight for this iteration     100.00

 eigenvalues of (default mixing * dielectric matrix)
  average eigenvalue GAMMA=   2.2729
  7.6031  4.6846  2.9417  2.4674  2.1395  1.5399  0.6740  1.3609  1.0129  1.0129
  0.9413  0.8966

 Free energy of the ion-electron system (eV)
  ---------------------------------------------------
  alpha Z        PSCENC =        10.92610231
  Ewald energy   TEWEN  =      5354.53473861
  -Hartree energ DENC   =     -6041.37413060
  -exchange      EXHF   =         0.00000000
  -V(xc)+E(xc)   XCENC  =       -35.17125705
  PAW double counting   =       473.39127747     -397.59980228
  entropy T*S    EENTRO =         0.00000000
  eigenvalues    EBANDS =      -157.65910629
  atomic energy  EATOM  =       771.15511399
  Solvation  Ediel_sol  =         0.00000000
  ---------------------------------------------------
  free energy    TOTEN  =       -21.79706384 eV

  energy without entropy =      -21.79706384  energy(sigma->0) =      -21.79706384


--------------------------------------------------------------------------------------------------------




--------------------------------------- Iteration      1(  18)  ---------------------------------------


    POTLOK:  cpu time    0.1330: real time    0.1363
    SETDIJ:  cpu time    0.0060: real time    0.0052
    EDDIAG:  cpu time    0.1480: real time    0.1481
  RMM-DIIS:  cpu time    0.4719: real time    0.4710
    ORTHCH:  cpu time    0.0070: real time    0.0070
 BZINTS: Fermi energy: -3.672637; 18.000000 electrons
         Band energy:-157.656324;  BLOECHL correction:  0.000000
       DOS:  cpu time    0.0000: real time    0.0003
    CHARGE:  cpu time    0.0740: real time    0.0740
    MIXING:  cpu time    0.0050: real time    0.0051
    --------------------------------------------
      LOOP:  cpu time    0.8449: real time    0.8470

 eigenvalue-minimisations  :   241
 total energy-change (2. order) :-0.4728769E-05  (-0.2642731E-07)
 number of electron      18.0000005 magnetization 
 augmentation part       -0.5497173 magnetization 

 Broyden mixing:
  rms(total) = 0.57284E-04    rms(broyden)= 0.57284E-04
  rms(prec ) = 0.65796E-04
  weight for this iteration     100.00

 eigenvalues of (default mixing * dielectric matrix)
  average eigenvalue GAMMA=   2.3384
  7.5907  5.4938  2.7584  2.7584  2.4100  1.9199  1.6792  0.6740  1.1107  1.1107
  1.0424  0.9639  0.8872

 Free energy of the ion-electron system (eV)
  ---------------------------------------------------
  alpha Z        PSCENC =        10.92610231
  Ewald energy   TEWEN  =      5354.53473861
  -Hartree energ DENC   =     -6041.37681869
  -exchange      EXHF   =         0.00000000
  -V(xc)+E(xc)   XCENC  =       -35.17118150
  PAW double counting   =       473.39712626     -397.60582562
  entropy T*S    EENTRO =         0.00000000
  eigenvalues    EBANDS =      -157.65632393
  atomic energy  EATOM  =       771.15511399
  Solvation  Ediel_sol  =         0.00000000
  ---------------------------------------------------
  free energy    TOTEN  =       -21.79706857 eV

  energy without entropy =      -21.79706857  energy(sigma->0) =      -21.79706857


--------------------------------------------------------------------------------------------------------




--------------------------------------- Iteration      1(  19)  ---------------------------------------


    POTLOK:  cpu time    0.1350: real time    0.1363
    SETDIJ:  cpu time    0.0060: real time    0.0051
    EDDIAG:  cpu time    0.1480: real time    0.1479
  RMM-DIIS:  cpu time    0.4689: real time    0.4681
    ORTHCH:  cpu time    0.0060: real time    0.0070
 BZINTS: Fermi energy: -3.674492; 18.000000 electrons
         Band energy:-157.651948;  BLOECHL correction:  0.000000
       DOS:  cpu time    0.0010: real time    0.0003
    CHARGE:  cpu time    0.0740: real time    0.0740
    MIXING:  cpu time    0.0050: real time    0.0053
    --------------------------------------------
      LOOP:  cpu time    0.8439: real time    0.8440

 eigenvalue-minimisations  :   264
 total energy-change (2. order) :-0.6660219E-05  (-0.5228536E-07)
 number of electron      18.0000005 magnetization 
 augmentation part       -0.5497467 magnetization 

 Broyden mixing:
  rms(total) = 0.42770E-04    rms(broyden)= 0.42770E-04
  rms(prec ) = 0.47431E-04
  weight for this iteration     100.00

 eigenvalues of (default mixing * dielectric matrix)
  average eigenvalue GAMMA=   2.3636
  7.6261  5.7793  3.4209  2.7485  2.3377  1.9761  1.9761  1.5396  0.6740  1.0861
  1.0861  0.9664  0.9664  0.9076

 Free energy of the ion-electron system (eV)
  ---------------------------------------------------
  alpha Z        PSCENC =        10.92610231
  Ewald energy   TEWEN  =      5354.53473861
  -Hartree energ DENC   =     -6041.38104708
  -exchange      EXHF   =         0.00000000
  -V(xc)+E(xc)   XCENC  =       -35.17123135
  PAW double counting   =       473.40011576     -397.60891922
  entropy T*S    EENTRO =         0.00000000
  eigenvalues    EBANDS =      -157.65194825
  atomic energy  EATOM  =       771.15511399
  Solvation  Ediel_sol  =         0.00000000
  ---------------------------------------------------
  free energy    TOTEN  =       -21.79707523 eV

  energy without entropy =      -21.79707523  energy(sigma->0) =      -21.79707523


--------------------------------------------------------------------------------------------------------




--------------------------------------- Iteration      1(  20)  ---------------------------------------


    POTLOK:  cpu time    0.1380: real time    0.1397
    SETDIJ:  cpu time    0.0050: real time    0.0051
    EDDIAG:  cpu time    0.1490: real time    0.1487
  RMM-DIIS:  cpu time    0.4489: real time    0.4493
    ORTHCH:  cpu time    0.0070: real time    0.0070
 BZINTS: Fermi energy: -3.676593; 18.000000 electrons
         Band energy:-157.645873;  BLOECHL correction:  0.000000
       DOS:  cpu time    0.0000: real time    0.0003
    CHARGE:  cpu time    0.0740: real time    0.0740
    MIXING:  cpu time    0.0060: real time    0.0054
    --------------------------------------------
      LOOP:  cpu time    0.8279: real time    0.8295

 eigenvalue-minimisations  :   223
 total energy-change (2. order) :-0.2508522E-05  (-0.1768766E-07)
 number of electron      18.0000005 magnetization 
 augmentation part       -0.5497262 magnetization 

 Broyden mixing:
  rms(total) = 0.14530E-04    rms(broyden)= 0.14530E-04
  rms(prec ) = 0.17694E-04
  weight for this iteration     100.00

 eigenvalues of (default mixing * dielectric matrix)
  average eigenvalue GAMMA=   2.3899
  7.8376  6.1404  3.9534  2.9659  2.6091  1.9202  1.8242  1.8242  0.6740  1.1277
  1.1277  1.0524  0.9555  0.9184  0.9184

 Free energy of the ion-electron system (eV)
  ---------------------------------------------------
  alpha Z        PSCENC =        10.92610231
  Ewald energy   TEWEN  =      5354.53473861
  -Hartree energ DENC   =     -6041.38721050
  -exchange      EXHF   =         0.00000000
  -V(xc)+E(xc)   XCENC  =       -35.17118709
  PAW double counting   =       473.39788974     -397.60665182
  entropy T*S    EENTRO =         0.00000000
  eigenvalues    EBANDS =      -157.64587299
  atomic energy  EATOM  =       771.15511399
  Solvation  Ediel_sol  =         0.00000000
  ---------------------------------------------------
  free energy    TOTEN  =       -21.79707774 eV

  energy without entropy =      -21.79707774  energy(sigma->0) =      -21.79707774


--------------------------------------------------------------------------------------------------------




--------------------------------------- Iteration      1(  21)  ---------------------------------------


    POTLOK:  cpu time    0.1370: real time    0.1373
    SETDIJ:  cpu time    0.0060: real time    0.0052
    EDDIAG:  cpu time    0.1470: real time    0.1481
  RMM-DIIS:  cpu time    0.3629: real time    0.3621
    ORTHCH:  cpu time    0.0060: real time    0.0072
 BZINTS: Fermi energy: -3.677718; 18.000000 electrons
         Band energy:-157.643918;  BLOECHL correction:  0.000000
       DOS:  cpu time    0.0010: real time    0.0003
    CHARGE:  cpu time    0.0740: real time    0.0741
    MIXING:  cpu time    0.0060: real time    0.0056
    --------------------------------------------
      LOOP:  cpu time    0.7399: real time    0.7397

 eigenvalue-minimisations  :   118
 total energy-change (2. order) :-0.1033142E-05  (-0.5492505E-08)
 number of electron      18.0000005 magnetization 
 augmentation part       -0.5497263 magnetization 

 Broyden mixing:
  rms(total) = 0.10478E-04    rms(broyden)= 0.10478E-04
  rms(prec ) = 0.12164E-04
  weight for this iteration     100.00

 eigenvalues of (default mixing * dielectric matrix)
  average eigenvalue GAMMA=   2.4070
  7.6643  6.7154  4.2555  2.7048  2.7048  2.0759  2.0189  2.0189  1.6067  0.6740
  1.1063  1.1063  1.0203  0.9547  0.9547  0.9309

 Free energy of the ion-electron system (eV)
  ---------------------------------------------------
  alpha Z        PSCENC =        10.92610231
  Ewald energy   TEWEN  =      5354.53473861
  -Hartree energ DENC   =     -6041.38912084
  -exchange      EXHF   =         0.00000000
  -V(xc)+E(xc)   XCENC  =       -35.17119871
  PAW double counting   =       473.39973020     -397.60852654
  entropy T*S    EENTRO =         0.00000000
  eigenvalues    EBANDS =      -157.64391779
  atomic energy  EATOM  =       771.15511399
  Solvation  Ediel_sol  =         0.00000000
  ---------------------------------------------------
  free energy    TOTEN  =       -21.79707877 eV

  energy without entropy =      -21.79707877  energy(sigma->0) =      -21.79707877


--------------------------------------------------------------------------------------------------------




--------------------------------------- Iteration      1(  22)  ---------------------------------------


    POTLOK:  cpu time    0.1370: real time    0.1386
    SETDIJ:  cpu time    0.0060: real time    0.0052
    EDDIAG:  cpu time    0.1480: real time    0.1481
  RMM-DIIS:  cpu time    0.3389: real time    0.3389
    ORTHCH:  cpu time    0.0070: real time    0.0070
 BZINTS: Fermi energy: -3.678103; 18.000000 electrons
         Band energy:-157.642584;  BLOECHL correction:  0.000000
       DOS:  cpu time    0.0000: real time    0.0003
    --------------------------------------------
      LOOP:  cpu time    0.6369: real time    0.6382

 eigenvalue-minimisations  :    99
 total energy-change (2. order) :-0.4619246E-06  (-0.1915453E-08)
 number of electron      18.0000005 magnetization 
 augmentation part       -0.5497263 magnetization 

 Free energy of the ion-electron system (eV)
  ---------------------------------------------------
  alpha Z        PSCENC =        10.92610231
  Ewald energy   TEWEN  =      5354.53473861
  -Hartree energ DENC   =     -6041.39047151
  -exchange      EXHF   =         0.00000000
  -V(xc)+E(xc)   XCENC  =       -35.17121358
  PAW double counting   =       473.39869166     -397.60745713
  entropy T*S    EENTRO =         0.00000000
  eigenvalues    EBANDS =      -157.64258358
  atomic energy  EATOM  =       771.15511399
  Solvation  Ediel_sol  =         0.00000000
  ---------------------------------------------------
  free energy    TOTEN  =       -21.79707923 eV

  energy without entropy =      -21.79707923  energy(sigma->0) =      -21.79707923


--------------------------------------------------------------------------------------------------------




 average (electrostatic) potential at core
  the test charge radii are     1.2296  0.9698
  (the norm of the test charge is              1.0000)
       1 -47.1894       2 -95.0371       3 -95.0371
 
 
 
 E-fermi :  -3.6781     XC(G=0):  -2.4843     alpha+bet : -2.3288


 k-point     1 :       0.0000    0.0000    0.0000
  band No.  band energies     occupation 
      1     -17.8062      2.00000
      2     -16.5777      2.00000
      3      -9.3240      2.00000
      4      -6.3792      2.00000
      5      -6.3792      2.00000
      6      -5.4680      2.00000
      7      -5.2638      2.00000
      8      -5.2637      2.00000
      9      -3.7424      2.00000
     10      -0.9856      0.00000
     11      -0.9856      0.00000
     12      -0.7475      0.00000
     13      -0.7475      0.00000
     14       1.6673      0.00000

 k-point     2 :       0.1000   -0.0000    0.0000
  band No.  band energies     occupation 
      1     -17.6676      2.00000
      2     -16.5122      2.00000
      3      -9.1632      2.00000
      4      -6.6896      2.00000
      5      -6.2263      2.00000
      6      -6.1075      2.00000
      7      -5.4896      2.00000
      8      -4.8519      2.00000
      9      -3.8255      2.00000
     10      -1.1605      0.00000
     11      -1.1121      0.00000
     12      -0.9081      0.00000
     13      -0.7432      0.00000
     14       1.9197      0.00000

 k-point     3 :       0.2000   -0.0000    0.0000
  band No.  band energies     occupation 
      1     -17.2813      2.00000
      2     -16.3309      2.00000
      3      -8.8082      2.00000
      4      -7.3233      2.00000
      5      -6.8903      2.00000
      6      -5.9804      2.00000
      7      -5.8143      2.00000
      8      -4.8757      2.00000
      9      -4.1969      2.00000
     10      -1.5394      0.00000
     11      -1.2491      0.00000
     12      -1.1003      0.00000
     13      -0.2408      0.00000
     14       2.4871      0.00000

 k-point     4 :       0.3000   -0.0000    0.0000
  band No.  band energies     occupation 
      1     -16.7436      2.00000
      2     -16.0833      2.00000
      3      -8.8194      2.00000
      4      -7.6628      2.00000
      5      -7.6316      2.00000
      6      -6.4656      2.00000
      7      -5.2891      2.00000
      8      -5.2317      2.00000
      9      -4.6638      2.00000
     10      -1.5233      0.00000
     11      -1.5076      0.00000
     12      -0.5642      0.00000
     13       0.1966      0.00000
     14       3.2442      0.00000

 k-point     5 :       0.4000   -0.0000    0.0000
  band No.  band energies     occupation 
      1     -16.2372      2.00000
      2     -15.8582      2.00000
      3      -9.2629      2.00000
      4      -8.2739      2.00000
      5      -7.7134      2.00000
      6      -6.7978      2.00000
      7      -5.5037      2.00000
      8      -4.8721      2.00000
      9      -4.5988      2.00000
     10      -1.6000      0.00000
     11      -1.2350      0.00000
     12      -0.0328      0.00000
     13       0.4436      0.00000
     14       3.1048      0.00000

 k-point     6 :       0.5000   -0.0000    0.0000
  band No.  band energies     occupation 
      1     -16.0194      2.00000
      2     -15.7648      2.00000
      3      -9.4818      2.00000
      4      -8.5110      2.00000
      5      -7.8099      2.00000
      6      -6.9143      2.00000
      7      -5.5917      2.00000
      8      -4.7229      2.00000
      9      -4.3836      2.00000
     10      -1.5810      0.00000
     11      -1.0579      0.00000
     12       0.1594      0.00000
     13       0.5178      0.00000
     14       2.4277      0.00000

 k-point     7 :       0.1000    0.1000    0.0000
  band No.  band energies     occupation 
      1     -17.4047      2.00000
      2     -16.3884      2.00000
      3      -8.8943      2.00000
      4      -7.1475      2.00000
      5      -6.5991      2.00000
      6      -6.0278      2.00000
      7      -5.9645      2.00000
      8      -4.6711      2.00000
      9      -4.0576      2.00000
     10      -1.4829      0.00000
     11      -1.2960      0.00000
     12      -1.1666      0.00000
     13      -0.3051      0.00000
     14       2.3201      0.00000

 k-point     8 :       0.2000    0.1000    0.0000
  band No.  band energies     occupation 
      1     -16.9398      2.00000
      2     -16.1711      2.00000
      3      -8.6746      2.00000
      4      -7.5615      2.00000
      5      -7.2740      2.00000
      6      -6.6346      2.00000
      7      -5.6372      2.00000
      8      -4.8240      2.00000
      9      -4.4905      2.00000
     10      -1.7356      0.00000
     11      -1.3351      0.00000
     12      -1.0656      0.00000
     13       0.2158      0.00000
     14       3.0123      0.00000

 k-point     9 :       0.3000    0.1000    0.0000
  band No.  band energies     occupation 
      1     -16.4076      2.00000
      2     -15.9269      2.00000
      3      -8.9689      2.00000
      4      -8.0619      2.00000
      5      -7.5858      2.00000
      6      -6.8689      2.00000
      7      -5.5295      2.00000
      8      -5.2308      2.00000
      9      -4.5341      2.00000
     10      -1.6494      0.00000
     11      -1.2931      0.00000
     12      -0.5099      0.00000
     13       0.4958      0.00000
     14       3.6864      0.00000

 k-point    10 :       0.4000    0.1000    0.0000
  band No.  band energies     occupation 
      1     -16.0298      2.00000
      2     -15.7585      2.00000
      3      -9.2902      2.00000
      4      -8.5572      2.00000
      5      -7.7282      2.00000
      6      -6.9180      2.00000
      7      -5.5354      2.00000
      8      -5.4081      2.00000
      9      -4.2451      2.00000
     10      -1.5539      0.00000
     11      -1.0543      0.00000
     12      -0.0047      0.00000
     13       0.4442      0.00000
     14       2.7816      0.00000

 k-point    11 :       0.2000    0.2000    0.0000
  band No.  band energies     occupation 
      1     -16.4727      2.00000
      2     -15.9507      2.00000
      3      -8.7738      2.00000
      4      -7.9287      2.00000
      5      -7.4593      2.00000
      6      -7.0417      2.00000
      7      -5.9850      2.00000
      8      -4.9739      2.00000
      9      -4.5285      2.00000
     10      -1.7294      0.00000
     11      -1.2625      0.00000
     12      -0.8915      0.00000
     13       0.6081      0.00000
     14       3.7771      0.00000

 k-point    12 :       0.3000    0.2000    0.0000
  band No.  band energies     occupation 
      1     -16.0465      2.00000
      2     -15.7481      2.00000
      3      -8.9137      2.00000
      4      -8.6244      2.00000
      5      -7.4659      2.00000
      6      -6.9533      2.00000
      7      -6.4104      2.00000
      8      -5.3994      2.00000
      9      -4.2603      2.00000
     10      -1.5920      0.00000
     11      -1.0056      0.00000
     12      -0.5750      0.00000
     13       0.7574      0.00000
     14       3.5600      0.00000

 k-point    13 :       0.4000    0.2000    0.0000
  band No.  band energies     occupation 
      1     -15.8689      2.00000
      2     -15.6633      2.00000
      3      -8.9341      2.00000
      4      -8.8928      2.00000
      5      -7.6633      2.00000
      6      -6.8271      2.00000
      7      -6.4665      2.00000
      8      -5.6584      2.00000
      9      -4.0098      2.00000
     10      -1.7736      0.00000
     11      -0.6341      0.00000
     12      -0.4321      0.00000
     13       0.7802      0.00000
     14       2.9715      0.00000

 k-point    14 :       0.3000    0.3000    0.0000
  band No.  band energies     occupation 
      1     -15.8100      2.00000
      2     -15.6229      2.00000
      3      -9.0434      2.00000
      4      -8.5428      2.00000
      5      -7.5493      2.00000
      6      -7.2273      2.00000
      7      -6.7132      2.00000
      8      -5.7672      2.00000
      9      -3.8871      2.00000
     10      -1.9847      0.00000
     11      -0.6675      0.00000
     12      -0.4017      0.00000
     13       1.0138      0.00000
     14       3.4399      0.00000


--------------------------------------------------------------------------------------------------------


 soft charge-density along one line, spin component           1
         0         1         2         3         4         5         6         7         8         9
 total charge-density along one line
 
 pseudopotential strength for first ion, spin component:           1
-10.070  -0.000  -0.000  -0.000  -0.000   0.111   0.000   0.000
 -0.000 -10.070  -0.000  -0.000  -0.000   0.000   0.111   0.000
 -0.000  -0.000 -10.049  -0.000  -0.000   0.000   0.000   0.109
 -0.000  -0.000  -0.000 -10.070  -0.000   0.000   0.000   0.000
 -0.000  -0.000  -0.000  -0.000 -10.070   0.000   0.000   0.000
  0.111   0.000   0.000   0.000   0.000   0.097  -0.000   0.000
  0.000   0.111   0.000   0.000   0.000  -0.000   0.097  -0.000
  0.000   0.000   0.109   0.000   0.000   0.000  -0.000   0.097
  0.000   0.000   0.000   0.111   0.000  -0.000  -0.000  -0.000
  0.000   0.000   0.000   0.000   0.111  -0.000  -0.000  -0.000
  0.000   0.000  -0.005   0.000  -0.000  -0.000  -0.000   0.000
 -0.000  -0.000   0.001  -0.000   0.000   0.000   0.000  -0.000
 -0.000  -0.000  -0.000  -0.000  -0.007   0.000  -0.000   0.000
 -0.000   0.000   0.000  -0.000  -0.000  -0.000  -0.000   0.000
 -0.007  -0.000   0.000  -0.000  -0.000  -0.000  -0.000  -0.000
  0.000   0.000   0.000   0.000   0.004  -0.000  -0.000  -0.000
  0.000  -0.000  -0.000   0.000   0.000  -0.000   0.000  -0.000
  0.004   0.000  -0.000   0.000   0.000   0.000  -0.000   0.000
 total augmentation occupancy for first ion, spin component:           1
  0.965   0.000  -0.000  -0.000   0.000   0.607   0.000  -0.000  -0.000   0.000  -0.000   0.000   0.000   0.000  -0.067  -0.000
  0.000   0.909  -0.000   0.000   0.000   0.000   0.846   0.000   0.000   0.000   0.000   0.000  -0.000   0.000   0.000   0.000
 -0.000  -0.000   1.030   0.000   0.000  -0.000  -0.000   0.504   0.000   0.000   0.114  -0.019  -0.000  -0.000   0.000   0.000
  0.000   0.000   0.000   0.909  -0.000   0.000   0.000   0.000   0.846   0.000   0.000   0.000   0.000   0.000   0.000   0.000
 -0.000   0.000   0.000  -0.000   0.965   0.000  -0.000   0.000  -0.000   0.607   0.000   0.000  -0.067   0.000  -0.000   0.007
  0.607   0.000  -0.000   0.000   0.000   0.689   0.000  -0.000   0.000  -0.000  -0.000   0.000   0.000   0.000  -0.138  -0.000
 -0.000   0.846   0.000   0.000  -0.000   0.000   1.095   0.000   0.000   0.000   0.000   0.000   0.000   0.000  -0.000   0.000
 -0.000   0.000   0.504  -0.000   0.000  -0.000   0.000   0.481   0.000   0.000   0.058  -0.021  -0.000   0.000   0.000   0.000
  0.000   0.000   0.000   0.846   0.000   0.000   0.000   0.000   1.095  -0.000   0.000  -0.000  -0.000  -0.000   0.000  -0.000
  0.000  -0.000   0.000   0.000   0.607  -0.000   0.000   0.000   0.000   0.689  -0.000   0.000  -0.138   0.000  -0.000   0.023
 -0.000   0.000   0.114   0.000   0.000   0.000   0.000   0.058  -0.000  -0.000   1.213  -0.187   0.000  -0.000   0.000   0.000
  0.000   0.000  -0.019   0.000   0.000   0.000   0.000  -0.021  -0.000   0.000  -0.187   0.042   0.000   0.000   0.000  -0.000
  0.000  -0.000  -0.000  -0.000  -0.067   0.000   0.000  -0.000   0.000  -0.138  -0.000   0.000   0.219   0.000   0.000  -0.033
  0.000   0.000  -0.000   0.000   0.000   0.000   0.000  -0.000  -0.000   0.000  -0.000   0.000   0.000   0.266   0.000   0.000
 -0.067   0.000   0.000   0.000  -0.000  -0.138   0.000   0.000   0.000  -0.000  -0.000  -0.000   0.000   0.000   0.219  -0.000
 -0.000   0.000   0.000  -0.000   0.007  -0.000  -0.000   0.000   0.000   0.023   0.000   0.000  -0.033   0.000  -0.000   0.005
  0.000   0.000   0.000   0.000   0.000   0.000   0.000   0.000  -0.000   0.000  -0.000   0.000   0.000  -0.039   0.000   0.000
  0.007   0.000  -0.000   0.000   0.000   0.023   0.000  -0.000  -0.000   0.000  -0.000   0.000  -0.000   0.000  -0.033   0.000


------------------------ aborting loop because EDIFF is reached ----------------------------------------


    CHARGE:  cpu time    0.0730: real time    0.0746
    FORLOC:  cpu time    0.0130: real time    0.0114
    FORNL :  cpu time    0.0630: real time    0.0639
    STRESS:  cpu time    0.3369: real time    0.3375
    FORCOR:  cpu time    0.1530: real time    0.1524
    FORHAR:  cpu time    0.0350: real time    0.0358
    MIXING:  cpu time    0.0060: real time    0.0057
    OFIELD:  cpu time    0.0000: real time    0.0000

  DFT-D2 method for vdW energy calculation
  -------------------------------------------------------------------

  Parameters of vdW forcefield:
         C6(Jnm^6/mol)     R0(A)
   -----------------------------
   Mo      24.670          1.639
   S        5.570          1.683

  IVDW =   1
  VDW_RADIUS =    50.000 A
  VDW_S6 =     0.750
  VDW_SR =     1.000
  VDW_D =    20.000
  LVDW_EWALD = F

  Number of pair interactions contributing to vdW energy:   12009
  Edisp (eV):   -0.59127
    FORVDW:  cpu time    0.0120: real time    0.0157

  FORCE on cell =-STRESS in cart. coord.  units (eV):
  Direction    XX          YY          ZZ          XY          YZ          ZX
  --------------------------------------------------------------------------------------
  Alpha Z    10.92610    10.92610    10.92610
  Ewald    5921.93836  5921.93880 -6489.34278     0.00019     0.00000     0.00013
  Hartree  6003.13230  6003.13231 -5964.87339     0.00002    -0.00000    -0.00000
  E(xc)     -70.35099   -70.35100   -70.96339    -0.00000     0.00000    -0.00000
  Local  -12204.19837-12204.19865 12169.00124    -0.00016    -0.00000    -0.00006
  n-local   127.33255   125.86795   131.81711    -0.24300    -0.00000    -0.00001
  augment   -25.56068   -25.56067   -26.67472     0.00002     0.00000    -0.00000
  Kinetic   236.21975   238.48204   240.22760    -7.46813     0.00001     0.00002
  Fock        0.00000     0.00000     0.00000     0.00000     0.00000     0.00000
  vdW         0.15762     0.15762    -0.13635     0.00000     0.00000    -0.00000
  -------------------------------------------------------------------------------------
  Total      -0.00442    -0.00442    -0.01858    -0.00000     0.00000     0.00000
  in kB      -0.02611    -0.02611    -0.10967    -0.00000     0.00000     0.00000
  external pressure =       -0.05 kB  Pullay stress =        0.00 kB


 VOLUME and BASIS-vectors are now :
 -----------------------------------------------------------------------------
  energy-cutoff  :      450.00
  volume of cell :      271.36
      direct lattice vectors                 reciprocal lattice vectors
     3.189856830  0.000000000  0.000000000     0.313493694  0.180995668  0.000000000
    -1.594928415  2.762497050  0.000000000     0.000000000  0.361991337  0.000000000
     0.000000000  0.000000000 30.793978868     0.000000000  0.000000000  0.032473881

  length of vectors
     3.189856830  3.189856830 30.793978868     0.361991337  0.361991337  0.032473881


 FORCES acting on ions
    electron-ion (+dipol)            ewald-force                    non-local-force                 convergence-correction
 -----------------------------------------------------------------------------------------------
   -.103E-04 -.137E-05 0.109E-05   0.942E-04 -.109E-03 0.348E-06   -.347E-16 -.694E-17 0.424E-21   0.279E-09 -.287E-09 -.537E-08
   -.853E-03 0.494E-03 0.596E+03   -.873E-04 0.544E-04 -.601E+03   -.226E-16 -.226E-16 0.472E+01   -.139E-09 0.162E-09 0.784E-04
   0.864E-03 0.494E-03 -.596E+03   -.692E-05 0.544E-04 0.601E+03   0.260E-17 -.330E-16 -.472E+01   0.201E-09 0.162E-09 -.784E-04
 -----------------------------------------------------------------------------------------------
   0.143E-05 0.986E-03 0.389E-04   0.592E-14 -.327E-14 0.000E+00   -.546E-16 -.625E-16 -.888E-15   0.342E-09 0.374E-10 -.143E-07
 
 
 POSITION                                       TOTAL-FORCE (eV/Angst)
 -----------------------------------------------------------------------------------
     -0.00000      1.84167      3.70951         0.000000     -0.000000     -0.000000
      1.59493      0.92083      2.15067         0.000000      0.000000     -0.001389
      1.59493      0.92083      5.26835        -0.000000     -0.000000      0.001389
 -----------------------------------------------------------------------------------
    total drift:                                0.000001      0.000986      0.000039


--------------------------------------------------------------------------------------------------------



  FREE ENERGIE OF THE ION-ELECTRON SYSTEM (eV)
  ---------------------------------------------------
  free  energy   TOTEN  =       -22.38835365 eV

  energy  without entropy=      -22.38835365  energy(sigma->0) =      -22.38835365
 


--------------------------------------------------------------------------------------------------------


    POTLOK:  cpu time    0.1430: real time    0.1434


--------------------------------------------------------------------------------------------------------


     LOOP+:  cpu time   22.8245: real time   23.3308
    4ORBIT:  cpu time    0.0000: real time    0.0000
 BZINTS: Fermi energy: -3.678103; 18.000000 electrons
         Band energy:-157.642584;  BLOECHL correction:  0.000000

 total amount of memory used by VASP MPI-rank0    73662. kBytes
=======================================================================

   base      :      30000. kBytes
   nonl-proj :      12215. kBytes
   fftplans  :      10208. kBytes
   grid      :      16473. kBytes
   one-center:         31. kBytes
   wavefun   :       4735. kBytes
 
  
  
 General timing and accounting informations for this job:
 ========================================================
  
                  Total CPU time used (sec):       24.777
                            User time (sec):       23.991
                          System time (sec):        0.786
                         Elapsed time (sec):       26.190
  
                   Maximum memory used (kb):       78004.
                   Average memory used (kb):           0.
  
                          Minor page faults:        75581
                          Major page faults:          170
                 Voluntary context switches:         2821
