unknown system                          
   1.00000000000000     
     3.190316    0.000000    0.000000
    -1.595158    2.762894    0.000000
     0.000000    0.000000   42.879004
   Mo   S 
     1     2
Direct
  0.333333  0.666667  0.086750
  0.666667  0.333333  0.050255
  0.666666  0.333333  0.123245
 
   24   24  336
 0.58978     0.59844     0.62178     0.66235     0.72437     0.80681     0.90259      1.0032      1.1013      1.1908    
  1.2658      1.3176      1.3333      1.3059      1.2459      1.1745      1.1013      1.0177     0.91704     0.81220    
 0.72434     0.66224     0.62135     0.59719     0.59800     0.59883     0.62028     0.66330     0.73085     0.82396    
 0.93978      1.0717      1.2081      1.3337      1.4382      1.5184      1.5684      1.5721      1.5179      1.4181    
  1.3008      1.1844      1.0681     0.94818     0.83300     0.73619     0.66494     0.61941     0.62199     0.60806    
 0.62124     0.66406     0.73622     0.83511     0.96044      1.1119      1.2805      1.4469      1.5913      1.7036    
  1.7814      1.8190      1.8034      1.7242      1.5892      1.4250      1.2598      1.1071     0.96668     0.83993    
 0.73594     0.66327     0.66484     0.63136     0.62666     0.66097     0.73643     0.84213     0.97335      1.1358    
  1.3258      1.5231      1.7063      1.8603      1.9710      2.0287      2.0356      1.9943      1.8942      1.7287    
  1.5227      1.3187      1.1377     0.97592     0.83484     0.72943     0.72434     0.67210     0.64410     0.65557    
 0.72435     0.83608     0.97195      1.1405      1.3490      1.5727      1.7829      1.9736      2.1334      2.2280    
  2.2426      2.2046      2.1334      2.0057      1.8056      1.5705      1.3490      1.1496     0.96604     0.81773    
 0.79449     0.72337     0.67788     0.65768     0.70165     0.81122     0.94907      1.1124      1.3293      1.5836    
  1.8222      2.0320      2.2317      2.3921      2.4523      2.4138      2.3333      2.2246      2.0500      1.8120    
  1.5672      1.3440      1.1273     0.92966     0.87705     0.77488     0.72086     0.67648     0.68097     0.77225    
 0.91144      1.0619      1.2601      1.5299      1.8084      2.0378      2.2455      2.4540      2.5968      2.6111    
  2.5342      2.4247      2.2655      2.0298      1.7656      1.5278      1.3005      1.0664     0.98061     0.82755    
 0.75956     0.70815     0.67472     0.72726     0.86250      1.0110      1.1755      1.4204      1.7262      1.9950    
  2.2045      2.4128      2.6097      2.7063      2.6798      2.5923      2.4593      2.2390      1.9541      1.6890    
  1.4596      1.2173      1.1013     0.89256     0.78884     0.73693     0.68412     0.68579     0.79432     0.95161    
  1.1013      1.2970      1.5862      1.8938      2.1334      2.3314      2.5316      2.6787      2.7102      2.6611    
  2.5742      2.4069      2.1334      1.8357      1.5886      1.3558      1.2138     0.97302     0.81788     0.75135    
 0.69857     0.66051     0.71439     0.86010      1.0177      1.1804      1.4189      1.7264      2.0070      2.2251    
  2.4238      2.5925      2.6622      2.6348      2.5742      2.4708      2.2584      1.9626      1.6873      1.4566    
  1.2912      1.0531     0.85764     0.75645     0.70484     0.65525     0.65397     0.75117     0.90304      1.0573    
  1.2486      1.5150      1.8037      2.0501      2.2653      2.4607      2.5768      2.5752      2.5116      2.4321    
  2.2879      2.0407      1.7587      1.5163      1.3274      1.1096     0.90427     0.76619     0.69929     0.65464    
 0.62846     0.66895     0.78210     0.92355      1.0860      1.3025      1.5612      1.8070      2.0262      2.2380    
  2.4088      2.4714      2.4301      2.3479      2.2350      2.0476      1.7950      1.5464      1.3333      1.1317    
 0.93984     0.78506     0.69162     0.64220     0.61510     0.62526     0.69161     0.80042     0.93700      1.1142    
  1.3333      1.5573      1.7584      1.9501      2.1334      2.2591      2.2855      2.2319      2.1334      1.9860    
  1.7807      1.5501      1.3158      1.1246     0.95008     0.80218     0.69294     0.62469     0.59157     0.59255    
 0.63065     0.70299     0.80650     0.94793      1.1299      1.3308      1.5193      1.6851      1.8361      1.9647    
  2.0421      2.0479      1.9862      1.8697      1.7079      1.5158      1.2713      1.0984     0.93689     0.80430    
 0.70072     0.62065     0.57030     0.55871     0.58133     0.62751     0.69800     0.80217     0.94245      1.1100    
  1.2884      1.4558      1.5916      1.6916      1.7629      1.8020      1.7884      1.7114      1.5865      1.4365    
  1.1975      1.0570     0.91162     0.79041     0.70193     0.62976     0.57067     0.54211     0.54859     0.57526    
 0.61826     0.68942     0.78965     0.90883      1.0481      1.2080      1.3596      1.4642      1.5206      1.5541    
  1.5650      1.5273      1.4377      1.3228      1.1013     0.99882     0.88049     0.77015     0.69164     0.63508    
 0.58420     0.54928     0.54340     0.55546     0.57588     0.61887     0.69161     0.77425     0.85775     0.96467    
  1.1013      1.2262      1.3001      1.3333      1.3490      1.3368      1.2798      1.1936     0.99505     0.92534    
 0.84163     0.75115     0.67983     0.63306     0.59471     0.56399     0.55477     0.56198     0.56934     0.58625    
 0.63464     0.70354     0.76179     0.81259     0.88763     0.98709      1.0725      1.1220      1.1468      1.1515    
  1.1225      1.0628     0.89142     0.84558     0.79423     0.73284     0.67663     0.63820     0.60949     0.58408    
 0.57303     0.57991     0.58692     0.58724     0.60392     0.65243     0.71043     0.75127     0.78314     0.82791    
 0.88263     0.92888     0.96078     0.97843     0.97225     0.93811     0.79985     0.77183     0.74454     0.71246    
 0.68007     0.65750     0.64267     0.62690     0.61450     0.61604     0.62513     0.62484     0.61772     0.62620    
 0.65972     0.70186     0.73467     0.75737     0.77672     0.79550     0.81466     0.83257     0.83958     0.82676    
 0.72437     0.71140     0.70109     0.69202     0.68408     0.68235     0.68780     0.69266     0.69164     0.69048    
 0.69527     0.69947     0.69162     0.67313     0.65955     0.66389     0.68412     0.70711     0.72096     0.72405    
 0.72435     0.72914     0.73558     0.73473     0.66479     0.66444     0.66776     0.67649     0.68977     0.70803    
 0.73289     0.76173     0.78621     0.79971     0.80435     0.80646     0.80503     0.79020     0.75650     0.71442    
 0.68352     0.67361     0.67652     0.67783     0.67247     0.66610     0.66411     0.66492     0.62156     0.62956    
 0.64394     0.66771     0.70087     0.74006     0.78328     0.83100     0.88026     0.92086     0.94257     0.94575    
 0.93962     0.92823     0.90315     0.85476     0.78861     0.72497     0.68109     0.65768     0.64388     0.63174    
 0.62210     0.61861     0.59672     0.60762     0.62880     0.66362     0.71437     0.77707     0.84481     0.91395    
 0.98347      1.0485      1.0976      1.1195      1.1124      1.0864      1.0523      1.0091     0.94668     0.86291    
 0.77412     0.70240     0.65592     0.62704     0.60730     0.59639     0.78808     0.80311     0.84547     0.91797    
  1.0248      1.1635      1.3241      1.4937      1.6594      1.8093      1.9321      2.0146      2.0408      2.0023    
  1.9110      1.7920      1.6593      1.5090      1.3395      1.1692      1.0248     0.91788     0.84502     0.80177    
 0.80264     0.80349     0.84259     0.92043      1.0391      1.1979      1.3909      1.6071      1.8291      2.0350    
  2.2077      2.3381      2.4150      2.4189      2.3376      2.1865      2.0003      1.8042      1.6033      1.3997    
  1.2073      1.0447     0.92219     0.84172     0.84567     0.82041     0.84491     0.92124      1.0475      1.2184    
  1.4305      1.6793      1.9504      2.2179      2.4541      2.6406      2.7674      2.8228      2.7906      2.6624    
  2.4520      2.1949      1.9287      1.6741      1.4369      1.2234      1.0472     0.92040     0.92057     0.86001    
 0.85510     0.91654      1.0449      1.2257      1.4502      1.7200      2.0269      2.3446      2.6439      2.9003    
  3.0884      3.1880      3.1953      3.1130      2.9360      2.6675      2.3441      2.0193      1.7220      1.4529    
  1.2181      1.0376      1.0248     0.92670     0.88249     0.90929      1.0247      1.2105      1.4424      1.7248    
  2.0611      2.4212      2.7695      3.0910      3.3614      3.5303      3.5704      3.5057      3.3614      3.1247    
  2.7933      2.4188      2.0611      1.7345      1.4363      1.1913      1.1506      1.0135     0.93318     0.91191    
 0.99067      1.1682      1.4006      1.6797      2.0304      2.4326      2.8263      3.1910      3.5337      3.8065    
  3.9275      3.8869      3.7445      3.5263      3.2100      2.8156      2.4154      2.0460      1.6954      1.3802    
  1.2973      1.1088      1.0006     0.93617     0.95854      1.1061      1.3337      1.5969      1.9290      2.3516    
  2.7961      3.1970      3.5726      3.9288      4.1737      4.2226      4.1077      3.8980      3.5937      3.1887    
  2.7512      2.3495      1.9715      1.6015      1.4699      1.2111      1.0699     0.97925     0.94397      1.0358    
  1.2480      1.5022      1.7949      2.1901      2.6648      3.1134      3.5050      3.8854      4.2210      4.3944    
  4.3665      4.2026      3.9344      3.5414      3.0704      2.6257      2.2314      1.8389      1.6593      1.3285    
  1.1334      1.0242     0.94978     0.97023      1.1391      1.3906      1.6594      1.9964      2.4488      2.9357    
  3.3614      3.7425      4.1049      4.3653      4.4364      4.3468      4.1498      3.8221      3.3614      2.8744    
  2.4513      2.0583      1.8335      1.4595      1.1977      1.0573     0.96486     0.92475      1.0183      1.2421    
  1.5063      1.7981      2.1874      2.6647      3.1263      3.5273      3.8975      4.2030      4.3480      4.3190    
  4.1837      3.9470      3.5624      3.0795      2.6235      2.2272      1.9588      1.5829      1.2704      1.0812    
 0.97419     0.90385     0.92064      1.0757      1.3183      1.5873      1.9138      2.3344      2.7910      3.2106    
  3.5942      3.9363      4.1527      4.1845      4.0838      3.9062      3.6181      3.2006      2.7435      2.3358    
  2.0249      1.6707      1.3442      1.1081     0.97246     0.89116     0.86360     0.94058      1.1251      1.3647    
  1.6458      1.9986      2.4073      2.8101      3.1853      3.5409      3.8241      3.9471      3.9035      3.7599    
  3.5378      3.2079      2.7975      2.3918      2.0408      1.7087      1.3976      1.1405     0.96839     0.86903    
 0.82406     0.85110     0.96839      1.1567      1.3947      1.6903      2.0408      2.4032      2.7432      3.0663    
  3.3614      3.5626      3.6148      3.5339      3.3614      3.1042      2.7668      2.3956      2.0126      1.7013    
  1.4139      1.1651     0.97253     0.84437     0.77957     0.78044     0.85037     0.98306      1.1697      1.4116    
  1.7068      2.0286      2.3390      2.6212      2.8748      3.0816      3.2016      3.2077      3.1042      2.9103    
  2.6453      2.3352      1.9377      1.6589      1.3946      1.1673     0.98161     0.83672     0.74438     0.71837    
 0.75577     0.84383     0.97881      1.1650      1.4003      1.6711      1.9560      2.2263      2.4544      2.6283    
  2.7484      2.8051      2.7751      2.6492      2.4491      2.2059      1.8162      1.5869      1.3521      1.1462    
 0.98188     0.84613     0.74016     0.68673     0.69350     0.74500     0.83421     0.96880      1.1452      1.3490    
  1.5777      1.8274      2.0623      2.2362      2.3420      2.4017      2.4130      2.3489      2.2083      2.0236    
  1.6594      1.4865      1.2945      1.1125     0.96840     0.85503     0.75878     0.69423     0.67827     0.70067    
 0.75017     0.83822     0.96839      1.1166      1.2705      1.4507      1.6594      1.8482      1.9712      2.0349    
  2.0611      2.0384      1.9498      1.8141      1.4853      1.3629      1.2226      1.0757     0.95209     0.85937    
 0.78278     0.72394     0.69995     0.70741     0.72943     0.77401     0.86119     0.97693      1.0868      1.1921    
  1.3233      1.4768      1.6080      1.6899      1.7316      1.7364      1.6903      1.5978      1.3125      1.2302    
  1.1390      1.0377     0.94454     0.87394     0.81826     0.77172     0.74719     0.74978     0.76158     0.77493    
 0.81247     0.88888     0.97999      1.0572      1.1275      1.2116      1.3031      1.3793      1.4308      1.4555    
  1.4428      1.3891      1.1563      1.1057      1.0540     0.99831     0.94533     0.90620     0.87855     0.85292    
 0.83363     0.83189     0.84133     0.84434     0.84326     0.86126     0.90846     0.96824      1.0219      1.0676    
  1.1107      1.1516      1.1881      1.2158      1.2230      1.2007      1.0248      1.0009     0.97976     0.96223    
 0.94976     0.94772     0.95614     0.96537     0.96840     0.97004     0.97600     0.97939     0.96839     0.94495    
 0.92644     0.92820     0.94978     0.97821      1.0007      1.0142      1.0247      1.0373      1.0468      1.0431    
 0.92053     0.91862     0.92256     0.93623     0.95993     0.99378      1.0378      1.0867      1.1292      1.1559    
  1.1674      1.1696      1.1615      1.1335      1.0813      1.0183     0.96788     0.94288     0.93626     0.93311    
 0.92706     0.92198     0.92133     0.92213     0.84523     0.85815     0.88232     0.92247     0.97951      1.0493    
  1.1276      1.2116      1.2943      1.3617      1.4004      1.4093      1.3974      1.3695      1.3184      1.2366    
  1.1332      1.0334     0.95866     0.91189     0.88224     0.86045     0.84580     0.84080     0.80128     0.82001    
 0.85733     0.91771      1.0040      1.1111      1.2294      1.3511      1.4705      1.5781      1.6581      1.6958    
  1.6884      1.6462      1.5821      1.4975      1.3855      1.2484      1.1080     0.99142     0.90966     0.85548    
 0.81959     0.80088      1.0525      1.0787      1.1537      1.2787      1.4557      1.6791      1.9345      2.2036    
  2.4669      2.7046      2.8974      3.0252      3.0669      3.0122      2.8750      2.6861      2.4668      2.2199    
  1.9508      1.6852      1.4558      1.2787      1.1532      1.0773      1.0782      1.0791      1.1471      1.2808    
  1.4789      1.7362      2.0424      2.3811      2.7277      3.0512      3.3241      3.5280      3.6443      3.6484    
  3.5275      3.3016      3.0144      2.7015      2.3773      2.0519      1.7462      1.4847      1.2827      1.1463    
  1.1539      1.1107      1.1531      1.2817      1.4905      1.7691      2.1088      2.4999      2.9215      3.3378    
  3.7090      4.0039      4.2014      4.2819      4.2259      4.0269      3.7068      3.3136      2.8985      2.4943    
  2.1154      1.7744      1.4902      1.2808      1.2815      1.1798      1.1746      1.2773      1.4849      1.7768    
  2.1379      2.5652      3.0447      3.5405      4.0105      4.4146      4.7119      4.8694      4.8772      4.7380    
  4.4526      4.0355      3.5399      3.0365      2.5672      2.1407      1.7687      1.4771      1.4558      1.2900    
  1.2219      1.2716      1.4557      1.7495      2.1211      2.5701      3.0953      3.6579      4.2091      4.7175    
  5.1399      5.4076      5.4809      5.3816      5.1399      4.7531      4.2342      3.6553      3.0953      2.5804    
  2.1148      1.7292      1.6655      1.4329      1.3020      1.2796      1.4088      1.6842      2.0527      2.5001    
  3.0481      3.6698      4.2920      4.8772      5.4134      5.8305      6.0268      5.9837      5.7648      5.4054    
  4.8972      4.2807      3.6517      3.0647      2.5169      2.0312      1.9062      1.5942      1.4081      1.3154    
  1.3637      1.5914      1.9448      2.3706      2.8989      3.5478      4.2371      4.8834      5.4861      6.0294    
  6.3967      6.4858      6.3267      5.9967      5.5085      4.8747      4.1896      3.5456      2.9438      2.3754    
  2.1785      1.7692      1.5235      1.3772      1.3398      1.4873      1.8083      2.2129      2.6919      3.3085    
  4.0326      4.7412      5.3829      5.9833      6.4845      6.7455      6.7162      6.4653      6.0353      5.4214    
  4.6956      3.9913      3.3522      2.7382      2.4668      1.9620      1.6377      1.4473      1.3427      1.3901    
  1.6436      2.0277      2.4668      3.0104      3.7036      4.4522      5.1399      5.7626      6.3238      6.7149    
  6.8301      6.6952      6.3714      5.8468      5.1399      4.3874      3.7061      3.0759      2.7301      2.1659    
  1.7539      1.5095      1.3616      1.3192      1.4683      1.8007      2.2152      2.6925      3.3026      4.0295    
  4.7521      5.4044      5.9949      6.4653      6.6965      6.6658      6.4446      6.0474      5.4416      4.7025    
  3.9858      3.3447      2.9256      2.3523      1.8758      1.5641      1.3802      1.2814      1.3236      1.5584    
  1.9265      2.3569      2.8779      3.5240      4.2263      4.8934      5.5062      6.0361      6.3743      6.4459    
  6.3015      6.0042      5.5314      4.8828      4.1761      3.5256      3.0361      2.4861      1.9908      1.6203    
  1.3909      1.2597      1.2305      1.3572      1.6385      2.0126      2.4598      3.0082      3.6362      4.2685    
  4.8666      5.4188      5.8490      6.0487      6.0026      5.7811      5.4155      4.8906      4.2551      3.6197    
  3.0669      2.5482      2.0716      1.6763      1.3997      1.2342      1.1657      1.2151      1.3997      1.6937    
  2.0686      2.5286      3.0670      3.6319      4.1757      4.6884      5.1399      5.4440      5.5308      5.4135    
  5.1399      4.7287      4.2007      3.6237      3.0230      2.5403      2.0974      1.7143      1.4138      1.2093    
  1.1046      1.1053      1.2154      1.4249      1.7192      2.0949      2.5461      3.0401      3.5290      3.9834    
  4.3877      4.7076      4.8884      4.8947      4.7314      4.4253      4.0089      3.5249      2.9032      2.4737    
  2.0685      1.7167      1.4269      1.2026      1.0600      1.0170      1.0718      1.2100      1.4241      1.7142    
  2.0744      2.4866      2.9227      3.3438      3.7093      3.9940      4.1868      4.2694      4.2148      4.0162    
  3.7039      3.3222      2.7117      2.3564      1.9992      1.6824      1.4236      1.2124      1.0532     0.97236    
 0.97943      1.0583      1.2000      1.4099      1.6812      1.9959      2.3468      2.7236      3.0799      3.3571    
  3.5378      3.6373      3.6490      3.5449      3.3278      3.0393      2.4669      2.1942      1.9013      1.6251    
  1.3996      1.2203      1.0750     0.98020     0.95432     0.98693      1.0661      1.2029      1.3997      1.6292    
  1.8759      2.1565      2.4668      2.7480      2.9435      3.0531      3.0953      3.0565      2.9208      2.7121    
  2.1949      1.9984      1.7802      1.5586      1.3695      1.2239      1.1079      1.0228     0.98618     0.99392    
  1.0285      1.0988      1.2261      1.3955      1.5700      1.7480      1.9567      2.1858      2.3821      2.5111    
  2.5775      2.5824      2.5114      2.3715      1.9225      1.7894      1.6435      1.4888      1.3489      1.2416    
  1.1597      1.0963      1.0629      1.0632      1.0779      1.0996      1.1537      1.2573      1.3862      1.5094    
  1.6316      1.7697      1.9122      2.0302      2.1091      2.1435      2.1215      2.0405      1.6715      1.5910    
  1.5066      1.4197      1.3409      1.2838      1.2463      1.2172      1.1980      1.1976      1.2074      1.2091    
  1.2069      1.2282      1.2862      1.3651      1.4448      1.5211      1.5961      1.6664      1.7258      1.7663    
  1.7739      1.7391      1.4557      1.4196      1.3861      1.3592      1.3427      1.3434      1.3609      1.3833    
  1.3996      1.4113      1.4212      1.4211      1.3997      1.3618      1.3296      1.3227      1.3427      1.3761    
  1.4083      1.4336      1.4557      1.4770      1.4899      1.4830      1.2815      1.2815      1.2908      1.3154    
  1.3568      1.4151      1.4889      1.5700      1.6425      1.6925      1.7168      1.7192      1.6987      1.6473    
  1.5643      1.4682      1.3876      1.3388      1.3155      1.3020      1.2904      1.2830      1.2818      1.2826    
  1.1534      1.1778      1.2217      1.2907      1.3858      1.5018      1.6317      1.7686      1.9011      2.0092    
  2.0745      2.0924      2.0714      2.0176      1.9266      1.7950      1.6375      1.4849      1.3638      1.2795    
  1.2216      1.1802      1.1540      1.1452      1.0768      1.1104      1.1769      1.2805      1.4228      1.5966    
  1.7885      1.9859      2.1776      2.3473      2.4728      2.5344      2.5265      2.4602      2.3514      2.2061    
  2.0224      1.8086      1.5933      1.4095      1.2720      1.1750      1.1098      1.0763      1.4165      1.4591    
  1.5816      1.7821      2.0582      2.4003      2.7896      3.2022      3.6106      3.9829      4.2861      4.4867    
  4.5536      4.4727      4.2622      3.9632      3.6106      3.2198      2.8070      2.4067      2.0582      1.7821    
  1.5811      1.4576      1.4586      1.4595      1.5683      1.7802      2.0890      2.4849      2.9531      3.4723    
  4.0093      4.5191      4.9560      5.2830      5.4658      5.4701      5.2824      4.9321      4.4801      3.9817    
  3.4684      2.9632      2.4954      2.0952      1.7821      1.5673      1.5819      1.5143      1.5810      1.7810    
  2.1036      2.5327      3.0558      3.6597      4.3158      4.9735      5.5710      6.0523      6.3730      6.4974    
  6.3991      6.0768      5.5688      4.9478      4.2914      3.6537      3.0628      2.5382      2.1032      1.7801    
  1.7850      1.6281      1.6226      1.7804      2.0953      2.5407      3.0979      3.7618      4.5131      5.3021    
  6.0629      6.7251      7.2161      7.4777      7.4860      7.2440      6.7655      6.0895      5.3013      4.5042    
  3.7638      3.1008      2.5321      2.0871      2.0582      1.8025      1.7029      1.7829      2.0582      2.4989    
  3.0688      3.7668      4.5899      5.4877      6.3876      7.2256      7.9206      8.3674      8.5020      8.3398    
  7.9206      7.2635      6.4142      5.4847      4.5899      3.7779      3.0621      2.4773      2.3858      2.0253    
  1.8283      1.8044      1.9997      2.4058      2.9641      3.6597      4.5164      5.5001      6.5153      7.4915    
  8.3764      9.0558      9.3908      9.3449      8.9858      8.3678      7.5128      6.5033      5.4809      4.5343    
  3.6777      2.9412      2.7595      2.2786      1.9900      1.8607      1.9427      2.2757      2.8007      3.4613    
  4.2917      5.3096      6.4171      7.4980      8.5114      9.3953      9.9869      10.152      9.9126      9.3605    
  8.5351      7.4888      6.3668      5.3074      4.3395      3.4664      3.1757      2.5547      2.1690      1.9505    
  1.9107      2.1304      2.5962      3.2124      3.9716      4.9425      6.0864      7.2508      8.3439      9.3462    
  10.151      10.574      10.543      10.131      9.4015      8.3848      7.2024      6.0424      4.9888      4.0206    
  3.6106      2.8536      2.3521      2.0549      1.9118      1.9941      2.3583      2.9233      3.6106      4.4759    
  5.5655      6.7652      7.9206      8.9835      9.9094      10.541      10.739      10.520      9.9600      9.0730    
  7.9206      6.6962      5.5681      4.5453      4.0100      3.1616      2.5390      2.1557      1.9363      1.8913    
  2.1121      2.5887      3.2137      3.9699      4.9331      6.0796      7.2590      8.3640      9.3570      10.130    
  10.522      10.489      10.108      9.4126      8.4036      7.2063      6.0331      4.9778      4.3159      3.4401    
  2.7284      2.2507      1.9664      1.8315      1.9063      2.2448      2.7823      3.4448      4.2651      5.2786    
  6.3995      7.5033      8.5288      9.4007      9.9632      10.110      9.8858      9.3669      8.5557      7.4920    
  6.3461      5.2803      4.4982      3.6427      2.9004      2.3450      1.9921      1.7972      1.7661      1.9563    
  2.3645      2.9239      3.6147      4.4684      5.4570      6.4832      7.4748      8.3792      9.0753      9.4158    
  9.3668      9.0033      8.3758      7.5002      6.4689      5.4395      4.5536      3.7411      3.0196      2.4316    
  2.0161      1.7658      1.6676      1.7453      2.0161      2.4504      3.0165      3.7203      4.5536      5.4525    
  6.3458      7.1912      7.9206      8.4089      8.5588      8.3763      7.9206      7.2341      6.3723      5.4438    
  4.4842      3.7328      3.0588      2.4870      2.0422      1.7393      1.5840      1.5846      1.7454      2.0540    
  2.4923      3.0560      3.7389      4.5024      5.2840      6.0305      6.6965      7.2152      7.5035      7.5100    
  7.2403      6.7366      6.0577      5.2796      4.2919      3.6295      3.0164      2.4895      2.0601      1.7329    
  1.5268      1.4623      1.5389      1.7406      2.0572      2.4868      3.0224      3.6432      4.3130      4.9768    
  5.5714      6.0454      6.3639      6.4913      6.3934      6.0689      5.5659      4.9540      3.9903      3.4443    
  2.9095      2.4382      2.0524      1.7431      1.5163      1.4010      1.4083      1.5215      1.7302      2.0381    
  2.4367      2.9058      3.4344      4.0032      4.5495      4.9939      5.2992      5.4657      5.4780      5.3065    
  4.9631      4.5066      3.6106      3.1914      2.7556      2.3503      2.0161      1.7506      1.5423      1.4091    
  1.3706      1.4162      1.5331      1.7326      2.0161      2.3543      2.7286      3.1517      3.6106      4.0309    
  4.3392      4.5221      4.5899      4.5254      4.3151      3.9931      3.1933      2.8921      2.5669      2.2450    
  1.9695      1.7548      1.5873      1.4684      1.4154      1.4234      1.4744      1.5780      1.7573      1.9969    
  2.2568      2.5329      2.8480      3.1834      3.4734      3.6716      3.7749      3.7799      3.6717      3.4623    
  2.7770      2.5762      2.3581      2.1339      1.9332      1.7779      1.6614      1.5753      1.5297      1.5267    
  1.5452      1.5785      1.6551      1.7946      1.9726      2.1558      2.3457      2.5552      2.7658      2.9401    
  3.0562      3.1039      3.0691      2.9511      2.3923      2.2753      2.1510      2.0256      1.9143      1.8339    
  1.7829      1.7477      1.7274      1.7277      1.7379      1.7387      1.7368      1.7637      1.8365      1.9400    
  2.0523      2.1665      2.2806      2.3867      2.4738      2.5297      2.5377      2.4878      2.0582      2.0112    
  1.9666      1.9313      1.9119      1.9169      1.9458      1.9838      2.0161      2.0397      2.0543      2.0499    
  2.0161      1.9613      1.9126      1.8949      1.9118      1.9494      1.9902      2.0260      2.0582      2.0870    
  2.1028      2.0933      1.7849      1.7934      1.8164      1.8607      1.9288      2.0208      2.1340      2.2569    
  2.3685      2.4488      2.4897      2.4923      2.4555      2.3737      2.2509      2.1119      1.9915      1.9097    
  1.8609      1.8282      1.8029      1.7866      1.7812      1.7820      1.5814      1.6261      1.7028      1.8162    
  1.9663      2.1461      2.3458      2.5548      2.7553      2.9199      3.0225      3.0533      3.0193      2.9290    
  2.7824      2.5827      2.3519      2.1281      1.9429      1.8043      1.7026      1.6286      1.5820      1.5662    
  1.4570      1.5139      1.6251      1.7923      2.0145      2.2812      2.5752      2.8790      3.1741      3.4348    
  3.6285      3.7264      3.7180      3.6151      3.4391      3.2043      2.9177      2.5966      2.2776      2.0003    
  1.7833      1.6230      1.5133      1.4565      1.9187      1.9825      2.1672      2.4670      2.8767      3.3845    
  3.9692      4.6015      5.2411      5.8357      6.3259      6.6518      6.7627      6.6369      6.3002      5.8146    
  5.2412      4.6204      3.9879      3.3914      2.8768      2.4670      2.1666      1.9809      1.9820      1.9830    
  2.1436      2.4566      2.9138      3.5042      4.2126      5.0139      5.8628      6.6899      7.4155      7.9641    
  8.2679      8.2724      7.9632      7.3900      6.6486      5.8335      5.0098      4.2233      3.5154      2.9204    
  2.4587      2.1425      2.1674      2.0693      2.1665      2.4575      2.9307      3.5710      4.3681      5.3089    
  6.3555      7.4325      8.4375      9.2638      9.8173      10.025      9.8451      9.2901      8.4353      7.4051    
  6.3294      5.3025      4.3755      3.5768      2.9303      2.4565      2.4702      2.2438      2.2379      2.4652    
  2.9204      3.5794      4.4289      5.4694      6.6772      7.9812      9.2730      10.422      11.289      11.756    
  11.765      11.319      10.466      9.3013      7.9801      6.6675      5.4714      4.4321      3.5703      2.9117    
  2.8768      2.5046      2.3658      2.4837      2.8768      3.5190      4.3817      5.4744      6.7980      8.2869    
  9.8288      11.297      12.531      13.341      13.603      13.311      12.531      11.338      9.8571      8.2835    
  6.7980      5.4864      4.3747      3.4960      3.3691      2.8357      2.5543      2.5288      2.8086      3.3905    
  4.2243      5.3087      6.6803      8.2997      10.039      11.767      13.348      14.569      15.198      15.149    
  14.494      13.339      11.790      10.026      8.2795      6.6996      5.3281      4.1998      3.9373      3.2166    