unknown system                          
   1.00000000000000     
     3.190316    0.000000    0.000000
    -1.595158    2.762894    0.000000
     0.000000    0.000000   42.879004
   Mo   S 
     1     2
Direct
  0.333333  0.666667  0.086750
  0.666667  0.333333  0.050255
  0.666666  0.333333  0.123245
 
   24   24  336
 0.58978095805E+00 0.59843790530E+00 0.62178203737E+00 0.66235472161E+00 0.72436939050E+00
 0.80681026845E+00 0.90258790252E+00 0.10031932549E+01 0.11013075448E+01 0.11907892438E+01
 0.12658131506E+01 0.13175963138E+01 0.13333418162E+01 0.13059387377E+01 0.12458870481E+01
 0.11744639378E+01 0.11013012381E+01 0.10176886999E+01 0.91703915197E+00 0.81219886850E+00
 0.72434227953E+00 0.66224221236E+00 0.62134739867E+00 0.59718575231E+00 0.59799798910E+00
 0.59883247574E+00 0.62028269737E+00 0.66329784661E+00 0.73085481417E+00 0.82396020346E+00
 0.93978130927E+00 0.10717236692E+01 0.12080554973E+01 0.13336773398E+01 0.14381505003E+01
 0.15184403150E+01 0.15684205689E+01 0.15720629689E+01 0.15179478275E+01 0.14180697742E+01
 0.13007526544E+01 0.11843990785E+01 0.10680606170E+01 0.94818093090E+00 0.83300278577E+00
 0.73619304999E+00 0.66494048115E+00 0.61941008991E+00 0.62199038488E+00 0.60806447474E+00
 0.62123633952E+00 0.66406263686E+00 0.73621999858E+00 0.83510987388E+00 0.96043937497E+00
 0.11118724122E+01 0.12804779148E+01 0.14469027808E+01 0.15913108960E+01 0.17035972028E+01
 0.17813584889E+01 0.18189969779E+01 0.18033540121E+01 0.17242022371E+01 0.15892345870E+01
 0.14249871443E+01 0.12598255046E+01 0.11070728253E+01 0.96667883457E+00 0.83992692029E+00
 0.73593615672E+00 0.66326700636E+00 0.66484344494E+00 0.63136327403E+00 0.62665768449E+00
 0.66096504872E+00 0.73643102729E+00 0.84212952525E+00 0.97334548437E+00 0.11357823037E+01
 0.13257935463E+01 0.15231497512E+01 0.17063030191E+01 0.18603007681E+01 0.19710409150E+01
 0.20287177531E+01 0.20355878746E+01 0.19943446393E+01 0.18941852404E+01 0.17286677113E+01
 0.15226882167E+01 0.13186707950E+01 0.11377236534E+01 0.97591588773E+00 0.83483997524E+00
 0.72943262437E+00 0.72434226511E+00 0.67210254930E+00 0.64410211175E+00 0.65556769865E+00
 0.72435011602E+00 0.83608398543E+00 0.97194782673E+00 0.11404952114E+01 0.13489767403E+01
 0.15727065989E+01 0.17829172507E+01 0.19735961090E+01 0.21333664170E+01 0.22280184629E+01
 0.22426306400E+01 0.22046142358E+01 0.21333646230E+01 0.20056679125E+01 0.18056346625E+01
 0.15704792405E+01 0.13489764586E+01 0.11495836112E+01 0.96603586206E+00 0.81772935820E+00
 0.79448528599E+00 0.72336883863E+00 0.67787661284E+00 0.65767701318E+00 0.70165306119E+00
 0.81122291085E+00 0.94907451114E+00 0.11124155906E+01 0.13292534789E+01 0.15835714215E+01
 0.18221603135E+01 0.20320404069E+01 0.22316999785E+01 0.23920615201E+01 0.24523372072E+01
 0.24137570977E+01 0.23333108855E+01 0.22246433590E+01 0.20500336400E+01 0.18120136337E+01
 0.15672268506E+01 0.13439570164E+01 0.11272721211E+01 0.92965513802E+00 0.87704818506E+00
 0.77488373780E+00 0.72086229624E+00 0.67647510706E+00 0.68097097643E+00 0.77225024803E+00
 0.91144397183E+00 0.10619048395E+01 0.12601428310E+01 0.15298535626E+01 0.18083705484E+01
 0.20377869696E+01 0.22455089657E+01 0.24540242520E+01 0.25968320570E+01 0.26110514038E+01
 0.25341949091E+01 0.24247378422E+01 0.22654867543E+01 0.20298343704E+01 0.17656436868E+01
 0.15277751461E+01 0.13004594627E+01 0.10663871656E+01 0.98061406969E+00 0.82755388210E+00
 0.75955901218E+00 0.70814519549E+00 0.67471891593E+00 0.72725815248E+00 0.86249894633E+00
 0.10110480071E+01 0.11754678232E+01 0.14204017572E+01 0.17261510665E+01 0.19949834426E+01
 0.22044919792E+01 0.24128235977E+01 0.26097444764E+01 0.27062827685E+01 0.26798487457E+01
 0.25922937696E+01 0.24593267867E+01 0.22390330425E+01 0.19541321005E+01 0.16889918264E+01
 0.14595760720E+01 0.12173145526E+01 0.11013012457E+01 0.89255509249E+00 0.78883724534E+00
 0.73693204634E+00 0.68411543021E+00 0.68578894673E+00 0.79431601059E+00 0.95161397760E+00
 0.11013059695E+01 0.12969714169E+01 0.15861904750E+01 0.18938110868E+01 0.21333692903E+01
 0.23314328470E+01 0.25315507132E+01 0.26787059129E+01 0.27101551102E+01 0.26610799778E+01
 0.25741858786E+01 0.24068678810E+01 0.21333646562E+01 0.18357406212E+01 0.15885916090E+01
 0.13557838270E+01 0.12138302236E+01 0.97302473266E+00 0.81788007879E+00 0.75135047767E+00
 0.69856538219E+00 0.66050958965E+00 0.71439151718E+00 0.86009765738E+00 0.10176601640E+01
 0.11803688148E+01 0.14188759887E+01 0.17263531423E+01 0.20069576519E+01 0.22251332935E+01
 0.24238027035E+01 0.25924639497E+01 0.26622287925E+01 0.26348132517E+01 0.25741708249E+01
 0.24708369588E+01 0.22584417258E+01 0.19625510350E+01 0.16873216892E+01 0.14566238391E+01
 0.12911761112E+01 0.10530833737E+01 0.85764224810E+00 0.75645268803E+00 0.70484044740E+00
 0.65524723187E+00 0.65397094198E+00 0.75116558107E+00 0.90303564192E+00 0.10573127139E+01
 0.12486103319E+01 0.15149537553E+01 0.18036892132E+01 0.20501264076E+01 0.22652833250E+01
 0.24606832954E+01 0.25768397771E+01 0.25751555475E+01 0.25115520529E+01 0.24321379537E+01
 0.22879197045E+01 0.20406748288E+01 0.17587079728E+01 0.15162743911E+01 0.13274188295E+01
 0.11096295275E+01 0.90426913104E+00 0.76618801686E+00 0.69929426982E+00 0.65464054066E+00
 0.62846294178E+00 0.66894716358E+00 0.78210021700E+00 0.92354595417E+00 0.10860050372E+01
 0.13025411122E+01 0.15612321366E+01 0.18069910176E+01 0.20261606456E+01 0.22380481319E+01
 0.24087563409E+01 0.24713783123E+01 0.24300585086E+01 0.23478965289E+01 0.22350373809E+01
 0.20475965877E+01 0.17950312216E+01 0.15464237673E+01 0.13333418580E+01 0.11316734189E+01
 0.93984044190E+00 0.78506279884E+00 0.69161699884E+00 0.64220225783E+00 0.61509673435E+00
 0.62525761614E+00 0.69160527477E+00 0.80041934883E+00 0.93699665210E+00 0.11142055800E+01
 0.13333434004E+01 0.15572798143E+01 0.17584001495E+01 0.19500636402E+01 0.21333693307E+01
 0.22590943874E+01 0.22854999419E+01 0.22318858459E+01 0.21333664905E+01 0.19859674696E+01
 0.17807155152E+01 0.15500806102E+01 0.13157517879E+01 0.11245760902E+01 0.95007698665E+00
 0.80217622869E+00 0.69293772976E+00 0.62469272668E+00 0.59156711726E+00 0.59254525476E+00
 0.63064693182E+00 0.70299394073E+00 0.80649912537E+00 0.94793365144E+00 0.11298887836E+01
 0.13308371532E+01 0.15192840065E+01 0.16851422979E+01 0.18361231607E+01 0.19647248121E+01
 0.20421172424E+01 0.20479094285E+01 0.19862127911E+01 0.18697180428E+01 0.17079274988E+01
 0.15157835349E+01 0.12712668309E+01 0.10983875715E+01 0.93689305802E+00 0.80430461311E+00
 0.70072376922E+00 0.62065250942E+00 0.57029684861E+00 0.55871041513E+00 0.58133067554E+00
 0.62750984235E+00 0.69800293855E+00 0.80216885857E+00 0.94245033518E+00 0.11099708391E+01
 0.12884457361E+01 0.14557565632E+01 0.15916441581E+01 0.16915621812E+01 0.17629259549E+01
 0.18019610469E+01 0.17883709321E+01 0.17113900091E+01 0.15865002588E+01 0.14364770464E+01
 0.11975485183E+01 0.10569686686E+01 0.91161782032E+00 0.79041336846E+00 0.70193015716E+00
 0.62976038411E+00 0.57066702063E+00 0.54210860063E+00 0.54859264115E+00 0.57525597647E+00
 0.61826486872E+00 0.68941869080E+00 0.78965085627E+00 0.90882517579E+00 0.10480677774E+01
 0.12080044390E+01 0.13595740901E+01 0.14642356897E+01 0.15206086439E+01 0.15541272160E+01
 0.15650046938E+01 0.15273077983E+01 0.14376578444E+01 0.13227589241E+01 0.11013075626E+01
 0.99881944428E+00 0.88048541593E+00 0.77015039800E+00 0.69163848515E+00 0.63508153105E+00
 0.58420178314E+00 0.54928159249E+00 0.54340340499E+00 0.55545964889E+00 0.57587701688E+00
 0.61886521766E+00 0.69160525454E+00 0.77424640787E+00 0.85774659811E+00 0.96466763431E+00
 0.11013059797E+01 0.12261687338E+01 0.13001338178E+01 0.13333408213E+01 0.13489767783E+01
 0.13368185997E+01 0.12798349513E+01 0.11936170191E+01 0.99505091799E+00 0.92534035822E+00
 0.84162684785E+00 0.75115234145E+00 0.67983246207E+00 0.63305502148E+00 0.59471161397E+00
 0.56399095173E+00 0.55476550218E+00 0.56198163202E+00 0.56933848424E+00 0.58624747084E+00
 0.63464301387E+00 0.70354098318E+00 0.76179363006E+00 0.81258902218E+00 0.88762823547E+00
 0.98708714202E+00 0.10725328957E+01 0.11219868084E+01 0.11468140681E+01 0.11514973391E+01
 0.11225004930E+01 0.10627690938E+01 0.89141589440E+00 0.84557693112E+00 0.79422800265E+00
 0.73284292673E+00 0.67663123216E+00 0.63819626717E+00 0.60949148256E+00 0.58408354801E+00
 0.57302976064E+00 0.57991198315E+00 0.58692252162E+00 0.58723685279E+00 0.60392473448E+00
 0.65242872992E+00 0.71043201587E+00 0.75127208957E+00 0.78314400371E+00 0.82791003666E+00
 0.88262503413E+00 0.92887522779E+00 0.96077580619E+00 0.97843244316E+00 0.97225439384E+00
 0.93810784620E+00 0.79985089906E+00 0.77183466137E+00 0.74453853008E+00 0.71245548643E+00
 0.68007348232E+00 0.65750118087E+00 0.64266992971E+00 0.62690061578E+00 0.61449588529E+00
 0.61604174517E+00 0.62512616002E+00 0.62483610141E+00 0.61771512620E+00 0.62620112212E+00
 0.65972091817E+00 0.70186383666E+00 0.73467297757E+00 0.75737343868E+00 0.77672394245E+00
 0.79549731612E+00 0.81466342635E+00 0.83256891814E+00 0.83958354851E+00 0.82676040296E+00
 0.72436939177E+00 0.71140006387E+00 0.70109162058E+00 0.69201755769E+00 0.68407858939E+00
 0.68234682480E+00 0.68780325144E+00 0.69266083996E+00 0.69163847237E+00 0.69048486048E+00
 0.69527010568E+00 0.69946830214E+00 0.69161696588E+00 0.67312815691E+00 0.65955139930E+00
 0.66388513916E+00 0.68411542693E+00 0.70710752029E+00 0.72096195369E+00 0.72405268238E+00
 0.72435013171E+00 0.72914376713E+00 0.73557702212E+00 0.73472861605E+00 0.66479092375E+00
 0.66443550429E+00 0.66775926892E+00 0.67649085298E+00 0.68976772174E+00 0.70803132514E+00
 0.73289243518E+00 0.76173089275E+00 0.78621284886E+00 0.79970783102E+00 0.80435412253E+00
 0.80645699489E+00 0.80502673835E+00 0.79020326954E+00 0.75650217929E+00 0.71442039382E+00
 0.68352484629E+00 0.67360576269E+00 0.67652460324E+00 0.67782677815E+00 0.67246509185E+00
 0.66610151106E+00 0.66411215411E+00 0.66492181776E+00 0.62155932151E+00 0.62956169597E+00
 0.64394062863E+00 0.66770976017E+00 0.70086889558E+00 0.74006485380E+00 0.78327869420E+00
 0.83099878116E+00 0.88026268671E+00 0.92086276721E+00 0.94256942024E+00 0.94574671992E+00
 0.93961773561E+00 0.92823490554E+00 0.90315401365E+00 0.85476065064E+00 0.78861453270E+00
 0.72497008871E+00 0.68109404935E+00 0.65767732721E+00 0.64387938279E+00 0.63174462644E+00
 0.62210204671E+00 0.61860923092E+00 0.59671711937E+00 0.60761824571E+00 0.62879677550E+00
 0.66362107658E+00 0.71436530585E+00 0.77707323783E+00 0.84481199612E+00 0.91394736229E+00
 0.98347238129E+00 0.10484886037E+01 0.10976226216E+01 0.11194808720E+01 0.11124248690E+01
 0.10864286840E+01 0.10523184618E+01 0.10091403892E+01 0.94667770681E+00 0.86290774456E+00
 0.77411883492E+00 0.70240465402E+00 0.65592057369E+00 0.62704124245E+00 0.60729955103E+00
 0.59639408460E+00 0.78808099359E+00 0.80311058690E+00 0.84547300755E+00 0.91796871006E+00
 0.10247631445E+01 0.11635196535E+01 0.13241470362E+01 0.14936950544E+01 0.16593979201E+01
 0.18092735752E+01 0.19320715265E+01 0.20145623090E+01 0.20407681937E+01 0.20022914796E+01
 0.19110146435E+01 0.17919536152E+01 0.16593475222E+01 0.15090450448E+01 0.13394713249E+01
 0.11692399833E+01 0.10247540803E+01 0.91787674238E+00 0.84502089375E+00 0.80177353242E+00
 0.80263742875E+00 0.80349337692E+00 0.84258554721E+00 0.92043188033E+00 0.10391256315E+01
 0.11978910182E+01 0.13908640281E+01 0.16070777912E+01 0.18290793410E+01 0.20350381925E+01
 0.22077116350E+01 0.23380594878E+01 0.24149685233E+01 0.24188500105E+01 0.23375878337E+01
 0.21865145904E+01 0.20003053647E+01 0.18042217488E+01 0.16033288080E+01 0.13997231574E+01
 0.12073315545E+01 0.10446940058E+01 0.92219049008E+00 0.84172092594E+00 0.84566877699E+00
 0.82040896715E+00 0.84490653123E+00 0.92124017690E+00 0.10474749012E+01 0.12184303456E+01
 0.14305103415E+01 0.16792635731E+01 0.19504321289E+01 0.22179242532E+01 0.24540875477E+01
 0.26406261665E+01 0.27674208567E+01 0.28227756657E+01 0.27906179184E+01 0.26623708318E+01
 0.24519646550E+01 0.21949259691E+01 0.19287118310E+01 0.16741243062E+01 0.14369477128E+01
 0.12234401028E+01 0.10471875548E+01 0.92040039825E+00 0.92057222726E+00 0.86001382399E+00
 0.85509560559E+00 0.91654012931E+00 0.10449108455E+01 0.12257182678E+01 0.14501625056E+01
 0.17199960861E+01 0.20269180958E+01 0.23446087241E+01 0.26438865078E+01 0.29002699922E+01
 0.30884129321E+01 0.31880121666E+01 0.31952552807E+01 0.31129857383E+01 0.29360130773E+01
 0.26674954360E+01 0.23441185555E+01 0.20193351630E+01 0.17219511869E+01 0.14528574870E+01
 0.12180906288E+01 0.10375544342E+01 0.10247540659E+01 0.92670306730E+00 0.88248545415E+00
 0.90928885890E+00 0.10247484900E+01 0.12105405524E+01 0.14424281948E+01 0.17247992158E+01
 0.20610949771E+01 0.24212229549E+01 0.27694740975E+01 0.30909713000E+01 0.33613656160E+01
 0.35303357984E+01 0.35703598145E+01 0.35056929531E+01 0.33613620792E+01 0.31247120600E+01
 0.27933232383E+01 0.24188124671E+01 0.20611067170E+01 0.17344591765E+01 0.14362998432E+01
 0.11912641832E+01 0.11506010368E+01 0.10135321138E+01 0.93318456326E+00 0.91190865766E+00
 0.99066869944E+00 0.11682373087E+01 0.14006278137E+01 0.16796649156E+01 0.20304085795E+01
 0.24325898564E+01 0.28263477063E+01 0.31910419146E+01 0.35337370175E+01 0.38064835891E+01
 0.39275380611E+01 0.38868637377E+01 0.37445329557E+01 0.35262622337E+01 0.32099643257E+01
 0.28156227766E+01 0.24153769973E+01 0.20459775539E+01 0.16954172425E+01 0.13802203410E+01
 0.12973137093E+01 0.11088235190E+01 0.10005716472E+01 0.93617212139E+00 0.95854065412E+00
 0.11061058532E+01 0.13336632495E+01 0.15968923263E+01 0.19290353029E+01 0.23516116667E+01
 0.27961341123E+01 0.31970019562E+01 0.35726089141E+01 0.39288339641E+01 0.41737287662E+01
 0.42225811387E+01 0.41076923444E+01 0.38979577913E+01 0.35936868571E+01 0.31886714156E+01
 0.27511656139E+01 0.23494680138E+01 0.19715173348E+01 0.16015387396E+01 0.14699302187E+01
 0.12111409577E+01 0.10698557239E+01 0.97924975526E+00 0.94397078975E+00 0.10357524625E+01
 0.12480354241E+01 0.15021779870E+01 0.17949219349E+01 0.21901070581E+01 0.26647843664E+01
 0.31134001845E+01 0.35050063787E+01 0.38853788127E+01 0.42209711865E+01 0.43943780802E+01
 0.43665407476E+01 0.42026228878E+01 0.39344186552E+01 0.35414301959E+01 0.30703937679E+01
 0.26256851029E+01 0.22313868160E+01 0.18388925251E+01 0.16593475299E+01 0.13284601141E+01
 0.11334455323E+01 0.10242178823E+01 0.94978188873E+00 0.97023351531E+00 0.11391201547E+01
 0.13906494081E+01 0.16593542833E+01 0.19963932584E+01 0.24488391584E+01 0.29356625410E+01
 0.33613732418E+01 0.37425482790E+01 0.41049021470E+01 0.43653342044E+01 0.44363929858E+01
 0.43467589203E+01 0.41498499625E+01 0.38220685705E+01 0.33613621124E+01 0.28744209506E+01
 0.24513167800E+01 0.20583381330E+01 0.18334835196E+01 0.14594787102E+01 0.11976886421E+01
 0.10572530608E+01 0.96485643505E+00 0.92475449578E+00 0.10182778754E+01 0.12420692792E+01
 0.15063452262E+01 0.17981008509E+01 0.21874225016E+01 0.26647389451E+01 0.31263257535E+01
 0.35273147729E+01 0.38974610980E+01 0.42030310706E+01 0.43479674473E+01 0.43190413021E+01
 0.41837052179E+01 0.39470325815E+01 0.35624263460E+01 0.30794593210E+01 0.26234949419E+01
 0.22271806144E+01 0.19587645610E+01 0.15829134040E+01 0.12704306832E+01 0.10811961818E+01
 0.97418812877E+00 0.90385116519E+00 0.92064003840E+00 0.10757076207E+01 0.13182976907E+01
 0.15873046545E+01 0.19138109106E+01 0.23343768820E+01 0.27909550522E+01 0.32105903242E+01
 0.35942492694E+01 0.39363370319E+01 0.41526520654E+01 0.41845103384E+01 0.40838212590E+01
 0.39062451670E+01 0.36181097334E+01 0.32006047637E+01 0.27435159218E+01 0.23357977803E+01
 0.20249227517E+01 0.16706948545E+01 0.13442302311E+01 0.11081221201E+01 0.97245543626E+00
 0.89116085569E+00 0.86359812081E+00 0.94058105351E+00 0.11250772601E+01 0.13646866895E+01
 0.16458016562E+01 0.19986387512E+01 0.24073435830E+01 0.28100702928E+01 0.31853051053E+01
 0.35409054964E+01 0.38240762085E+01 0.39471249036E+01 0.39035487639E+01 0.37599055004E+01
 0.35377636126E+01 0.32079479292E+01 0.27974904525E+01 0.23917747350E+01 0.20407682355E+01
 0.17087040409E+01 0.13975998731E+01 0.11404553004E+01 0.96839322084E+00 0.86903212792E+00
 0.82406457355E+00 0.85109810253E+00 0.96838783107E+00 0.11567488584E+01 0.13946689613E+01
 0.16902823797E+01 0.20407820586E+01 0.24032191177E+01 0.27432051341E+01 0.30662890859E+01
 0.33613732822E+01 0.35626280201E+01 0.36147665390E+01 0.35338692116E+01 0.33613656896E+01
 0.31042242718E+01 0.27667729861E+01 0.23955978678E+01 0.20125785898E+01 0.17012655652E+01
 0.14138930233E+01 0.11650736031E+01 0.97253254297E+00 0.84436583847E+00 0.77957108137E+00
 0.78043627632E+00 0.85037400309E+00 0.98306270966E+00 0.11696743553E+01 0.14115861641E+01
 0.17068054273E+01 0.20285617191E+01 0.23390146031E+01 0.26212252888E+01 0.28747821663E+01
 0.30815771046E+01 0.32016396989E+01 0.32076971069E+01 0.31041910730E+01 0.29102572656E+01
 0.26452639324E+01 0.23352118549E+01 0.19376772732E+01 0.16588836649E+01 0.13945759993E+01
 0.11673155504E+01 0.98160668204E+00 0.83672024608E+00 0.74438055896E+00 0.71836931915E+00
 0.75577374646E+00 0.84383334265E+00 0.97881065517E+00 0.11650366186E+01 0.14002747108E+01
 0.16710869150E+01 0.19559551028E+01 0.22262984182E+01 0.24544449079E+01 0.26283235619E+01
 0.27483708036E+01 0.28050547991E+01 0.27750798454E+01 0.26492360267E+01 0.24491297412E+01
 0.22059215640E+01 0.18162405472E+01 0.15869237525E+01 0.13520739783E+01 0.11461587176E+01
 0.98187641878E+00 0.84612896614E+00 0.74015869673E+00 0.68672680840E+00 0.69350482941E+00
 0.74500424530E+00 0.83421239492E+00 0.96880401575E+00 0.11452090261E+01 0.13490224283E+01
 0.15776837439E+01 0.18273558430E+01 0.20622568843E+01 0.22361888840E+01 0.23419907739E+01
 0.24016760363E+01 0.24129864630E+01 0.23488802164E+01 0.22083033427E+01 0.20236271856E+01
 0.16593979378E+01 0.14865100080E+01 0.12945262585E+01 0.11124650528E+01 0.96840272959E+00
 0.85502787100E+00 0.75878442826E+00 0.69422602679E+00 0.67826686214E+00 0.70067276145E+00
 0.75016802136E+00 0.83822286042E+00 0.96838781084E+00 0.11165808924E+01 0.12705477924E+01
 0.14506804561E+01 0.16593542934E+01 0.18481716633E+01 0.19711929383E+01 0.20349126641E+01
 0.20610950151E+01 0.20383575186E+01 0.19497842684E+01 0.18140805814E+01 0.14852846282E+01
 0.13629396631E+01 0.12226224061E+01 0.10757310394E+01 0.95209008828E+00 0.85936657039E+00
 0.78278038363E+00 0.72394042916E+00 0.69995046891E+00 0.70741217985E+00 0.72943375423E+00
 0.77400959631E+00 0.86119444820E+00 0.97693069599E+00 0.10867720356E+01 0.11921289360E+01
 0.13233423213E+01 0.14767815686E+01 0.16079567485E+01 0.16898934081E+01 0.17315922672E+01
 0.17364100164E+01 0.16903280198E+01 0.15978034668E+01 0.13125490803E+01 0.12301807692E+01
 0.11389936353E+01 0.10376962100E+01 0.94453910941E+00 0.87393661282E+00 0.81825579377E+00
 0.77171595170E+00 0.74718645797E+00 0.74977963334E+00 0.76158424619E+00 0.77493334701E+00
 0.81246662589E+00 0.88888336585E+00 0.97998791451E+00 0.10571537898E+01 0.11275222000E+01
 0.12115745951E+01 0.13031036109E+01 0.13793348898E+01 0.14308302265E+01 0.14555119933E+01
 0.14427562051E+01 0.13890739480E+01 0.11562523807E+01 0.11056740367E+01 0.10539594650E+01
 0.99830543641E+00 0.94532930789E+00 0.90620380437E+00 0.87854990217E+00 0.85291542553E+00
 0.83362570005E+00 0.83189472630E+00 0.84133352349E+00 0.84434137012E+00 0.84325805558E+00
 0.86126235345E+00 0.90846447829E+00 0.96824371160E+00 0.10218628980E+01 0.10676000412E+01
 0.11107191744E+01 0.11515577002E+01 0.11880698057E+01 0.12157555050E+01 0.12230436470E+01
 0.12007142275E+01 0.10247631457E+01 0.10009291819E+01 0.97975522277E+00 0.96223422416E+00
 0.94976111974E+00 0.94772420616E+00 0.95613707647E+00 0.96537290316E+00 0.96840271681E+00
 0.97003707698E+00 0.97600095207E+00 0.97938865626E+00 0.96839318788E+00 0.94495179543E+00
 0.92643822624E+00 0.92819892104E+00 0.94978188544E+00 0.97821324238E+00 0.10006982801E+01
 0.10141800322E+01 0.10247485056E+01 0.10373429854E+01 0.10468270277E+01 0.10431341214E+01
 0.92053194026E+00 0.91861861264E+00 0.92255898982E+00 0.93623475158E+00 0.95992506866E+00
 0.99378289684E+00 0.10377869669E+01 0.10867047081E+01 0.11291631535E+01 0.11558704027E+01
 0.11674063084E+01 0.11696205907E+01 0.11615253053E+01 0.11334980782E+01 0.10812869215E+01
 0.10182863864E+01 0.96788445506E+00 0.94287965169E+00 0.93626286610E+00 0.93311081470E+00
 0.92705556436E+00 0.92198036908E+00 0.92133094267E+00 0.92213122000E+00 0.84522507029E+00
 0.85815339957E+00 0.88231922393E+00 0.92246823255E+00 0.97950727638E+00 0.10493461619E+01
 0.11276436005E+01 0.12115579735E+01 0.12942783078E+01 0.13616948993E+01 0.14004296493E+01
 0.14092552866E+01 0.13973519454E+01 0.13695154625E+01 0.13184285245E+01 0.12365645559E+01
 0.11331975982E+01 0.10333948811E+01 0.95866197307E+00 0.91189163703E+00 0.88223750378E+00
 0.86044507644E+00 0.84580235684E+00 0.84079546371E+00 0.80127511059E+00 0.82000525588E+00
 0.85733489290E+00 0.91770935021E+00 0.10039660811E+01 0.11111058261E+01 0.12293622480E+01
 0.13510567150E+01 0.14705396328E+01 0.15781212997E+01 0.16580651288E+01 0.16958092910E+01
 0.16883617633E+01 0.16462281403E+01 0.15820949059E+01 0.14975361225E+01 0.13855212932E+01
 0.12484203256E+01 0.11080050299E+01 0.99142070244E+00 0.90966411711E+00 0.85548284971E+00
 0.81959045725E+00 0.80088478253E+00 0.10525276278E+01 0.10787129419E+01 0.11536901634E+01
 0.12787265880E+01 0.14557326853E+01 0.16791245084E+01 0.19345202657E+01 0.22035965301E+01
 0.24668870778E+01 0.27045707929E+01 0.28974145973E+01 0.30252092699E+01 0.30669254698E+01
 0.30121970327E+01 0.28750378922E+01 0.26861399654E+01 0.24668404321E+01 0.22199466999E+01
 0.19508209775E+01 0.16852051814E+01 0.14557666199E+01 0.12786971289E+01 0.11532294151E+01
 0.10772665845E+01 0.10781978912E+01 0.10790877995E+01 0.11471386619E+01 0.12808376024E+01
 0.14788703090E+01 0.17362410831E+01 0.20424382838E+01 0.23811229965E+01 0.27277435972E+01
 0.30512249237E+01 0.33241186143E+01 0.35280193300E+01 0.36442929311E+01 0.36484166598E+01
 0.35275135641E+01 0.33016185630E+01 0.30144397246E+01 0.27015395156E+01 0.23773000841E+01
 0.20518554837E+01 0.17461777570E+01 0.14847293825E+01 0.12827280742E+01 0.11462661527E+01
 0.11538961262E+01 0.11107284052E+01 0.11531058478E+01 0.12817018304E+01 0.14905419085E+01
 0.17691440413E+01 0.21087606636E+01 0.24998516452E+01 0.29214725164E+01 0.33378188695E+01
 0.37089666973E+01 0.40038713942E+01 0.42013709232E+01 0.42819158574E+01 0.42259445675E+01
 0.40269275008E+01 0.37067901315E+01 0.33135609015E+01 0.28985098104E+01 0.24943294203E+01
 0.21154375561E+01 0.17743596422E+01 0.14902213010E+01 0.12808085415E+01 0.12815075883E+01
 0.11797541335E+01 0.11745586922E+01 0.12772516078E+01 0.14849245073E+01 0.17767596193E+01
 0.21378705871E+01 0.25652075465E+01 0.30446511823E+01 0.35405284632E+01 0.40105208894E+01
 0.44146212781E+01 0.47118513266E+01 0.48694430448E+01 0.48771543463E+01 0.47379670488E+01
 0.44525529011E+01 0.40355314069E+01 0.35399301093E+01 0.30364894412E+01 0.25671657371E+01
 0.21406840752E+01 0.17686983425E+01 0.14771485443E+01 0.14557666054E+01 0.12900289205E+01
 0.12218577443E+01 0.12715987843E+01 0.14557486859E+01 0.17495256623E+01 0.21211368178E+01
 0.25700798204E+01 0.30952507675E+01 0.36579338857E+01 0.42091075654E+01 0.47174802217E+01
 0.51399294368E+01 0.54076423054E+01 0.54808841569E+01 0.53815802405E+01 0.51399358391E+01
 0.47531457105E+01 0.42342433232E+01 0.36552925717E+01 0.30952780495E+01 0.25804174732E+01
 0.21147708587E+01 0.17291842544E+01 0.16655070214E+01 0.14329488231E+01 0.13020315523E+01
 0.12795502518E+01 0.14088205624E+01 0.16841870841E+01 0.20527311635E+01 0.25000543580E+01
 0.30481065319E+01 0.36698204919E+01 0.42919766951E+01 0.48771792544E+01 0.54134051881E+01
 0.58304883666E+01 0.60267934475E+01 0.59836562186E+01 0.57647514359E+01 0.54053966189E+01
 0.48972070838E+01 0.42806584794E+01 0.36516566094E+01 0.30646997226E+01 0.25168784214E+01
 0.20312260434E+01 0.19061869181E+01 0.15941818811E+01 0.14081461020E+01 0.13153620996E+01
 0.13636602723E+01 0.15913623034E+01 0.19447760027E+01 0.23705578884E+01 0.28988548327E+01
 0.35477961832E+01 0.42371223320E+01 0.48834129329E+01 0.54861489627E+01 0.60294007561E+01
 0.63966574301E+01 0.64857783858E+01 0.63267263287E+01 0.59966947228E+01 0.55084782082E+01
 0.48746581090E+01 0.41896092550E+01 0.35455913933E+01 0.29438105860E+01 0.23753805749E+01
 0.21785010695E+01 0.17691653465E+01 0.15235218114E+01 0.13772374263E+01 0.13398047144E+01
 0.14872921641E+01 0.18082673652E+01 0.22128659762E+01 0.26918729571E+01 0.33084984152E+01
 0.40326244051E+01 0.47411772254E+01 0.53829188189E+01 0.59832954770E+01 0.64845224014E+01
 0.67455372445E+01 0.67161710839E+01 0.64652859176E+01 0.60352895397E+01 0.54214424695E+01
 0.46956378931E+01 0.39912752949E+01 0.33521557016E+01 0.27382148041E+01 0.24668404398E+01
 0.19619995874E+01 0.16377304599E+01 0.14472700173E+01 0.13426635705E+01 0.13900600709E+01
 0.16436306420E+01 0.20277425421E+01 0.24668427642E+01 0.30103911479E+01 0.37035894538E+01
 0.44522353122E+01 0.51399485890E+01 0.57626394463E+01 0.63237707979E+01 0.67148952997E+01
 0.68301142226E+01 0.66952381557E+01 0.63713603907E+01 0.58468281694E+01 0.51399358723E+01
 0.43873638947E+01 0.37061234286E+01 0.30758869878E+01 0.27301392620E+01 0.21658507403E+01
 0.17538724123E+01 0.15094588257E+01 0.13615606163E+01 0.13191775702E+01 0.14682696548E+01
 0.18007274124E+01 0.22151950494E+01 0.26925168513E+01 0.33026345623E+01 0.40295239000E+01
 0.47520710167E+01 0.54044141495E+01 0.59949450288E+01 0.64652707977E+01 0.66965160296E+01
 0.66657939723E+01 0.64446299239E+01 0.60473536682E+01 0.54416417466E+01 0.47024799162E+01
 0.39857790699E+01 0.33446865688E+01 0.29255960221E+01 0.23522953687E+01 0.18757848070E+01
 0.15641472179E+01 0.13801645266E+01 0.12813811343E+01 0.13235631613E+01 0.15584345318E+01
 0.19264762407E+01 0.23568597939E+01 0.28778923863E+01 0.35240337054E+01 0.42262866842E+01
 0.48934138878E+01 0.55061874593E+01 0.60360935037E+01 0.63743289287E+01 0.64459276002E+01
 0.63014652667E+01 0.60042444886E+01 0.55314422881E+01 0.48828156551E+01 0.41760531864E+01
 0.35255940698E+01 0.30361447423E+01 0.24861499323E+01 0.19907766766E+01 0.16203495138E+01
 0.13908829717E+01 0.12597252854E+01 0.12305319331E+01 0.13571895989E+01 0.16384990504E+01
 0.20126454152E+01 0.24598413609E+01 0.30082423573E+01 0.36361557833E+01 0.42684861883E+01
 0.48666153801E+01 0.54187641253E+01 0.58489657185E+01 0.60486888098E+01 0.60026022671E+01
 0.57811409243E+01 0.54155278362E+01 0.48905802704E+01 0.42551173554E+01 0.36196986548E+01
 0.30669255116E+01 0.25481526395E+01 0.20716282639E+01 0.16763031749E+01 0.13996607552E+01
 0.12342151607E+01 0.11657313982E+01 0.12151130449E+01 0.13996574681E+01 0.16937101135E+01
 0.20686278334E+01 0.25286335166E+01 0.30669527249E+01 0.36318508605E+01 0.41757285537E+01
 0.46884289768E+01 0.51399486294E+01 0.54440072447E+01 0.55307830314E+01 0.54134606157E+01
 0.51399295104E+01 0.47286836719E+01 0.42007042247E+01 0.36237188851E+01 0.30230464495E+01
 0.25403489521E+01 0.20974498102E+01 0.17143009290E+01 0.14138068465E+01 0.12093210756E+01
 0.11045753812E+01 0.11053083177E+01 0.12154016211E+01 0.14249069519E+01 0.17192155775E+01
 0.20949070321E+01 0.25461134432E+01 0.30400545663E+01 0.35290473789E+01 0.39833617503E+01
 0.43876939311E+01 0.47075961447E+01 0.48884266279E+01 0.48947145591E+01 0.47313796146E+01
 0.44252963297E+01 0.40088851125E+01 0.35249251857E+01 0.29031504388E+01 0.24737114812E+01
 0.20685418233E+01 0.17166714966E+01 0.14269270529E+01 0.12026098165E+01 0.10600461134E+01
 0.10169690341E+01 0.10718113920E+01 0.12100023091E+01 0.14240536526E+01 0.17142018884E+01
 0.20743636776E+01 0.24866399085E+01 0.29227146961E+01 0.33437830199E+01 0.37093252980E+01
 0.39940296474E+01 0.41867524848E+01 0.42694277232E+01 0.42148434080E+01 0.40161822341E+01
 0.37038976239E+01 0.33221991026E+01 0.27117379132E+01 0.23564031548E+01 0.19992053178E+01
 0.16824063956E+01 0.14235553556E+01 0.12123647689E+01 0.10531885984E+01 0.97235689050E+00
 0.97943125382E+00 0.10582778601E+01 0.11999843618E+01 0.14098753061E+01 0.16812344494E+01
 0.19958648647E+01 0.23468418837E+01 0.27236473849E+01 0.30799368273E+01 0.33571111938E+01
 0.35377782909E+01 0.36372536075E+01 0.36490388212E+01 0.35448851293E+01 0.33278009595E+01
 0.30392874765E+01 0.24668870956E+01 0.21942089716E+01 0.19013235078E+01 0.16251398304E+01
 0.13996436321E+01 0.12202987432E+01 0.10749895960E+01 0.98020078430E+00 0.95431715524E+00
 0.98693423816E+00 0.10660755721E+01 0.12028943789E+01 0.13996574479E+01 0.16292214458E+01
 0.18759181301E+01 0.21565256865E+01 0.24668427744E+01 0.27479886904E+01 0.29434889120E+01
 0.30531346295E+01 0.30952508054E+01 0.30565108312E+01 0.29208058280E+01 0.27121422266E+01
 0.21949059052E+01 0.19983703579E+01 0.17801877593E+01 0.15585516653E+01 0.13694620359E+01
 0.12239476025E+01 0.11078509940E+01 0.10228363875E+01 0.98618022842E+00 0.99391631130E+00
 0.10285105190E+01 0.10987805402E+01 0.12260651721E+01 0.13955295800E+01 0.15699759966E+01
 0.17480374784E+01 0.19566733515E+01 0.21858126545E+01 0.23820993605E+01 0.25110618655E+01
 0.25774513943E+01 0.25824103523E+01 0.25113931418E+01 0.23715010632E+01 0.19224514206E+01
 0.17893852528E+01 0.16434796261E+01 0.14887849830E+01 0.13488647124E+01 0.12415694440E+01
 0.11597146266E+01 0.10963095123E+01 0.10629207365E+01 0.10632065345E+01 0.10778507846E+01
 0.10995616945E+01 0.11536625613E+01 0.12573304669E+01 0.13861901390E+01 0.15094181102E+01
 0.16315617981E+01 0.17696725831E+01 0.19122108095E+01 0.20301821748E+01 0.21090679603E+01
 0.21435319006E+01 0.21214962444E+01 0.20405187628E+01 0.16715013203E+01 0.15909532646E+01
 0.15066077849E+01 0.14197489568E+01 0.13408641291E+01 0.12837794808E+01 0.12463417975E+01
 0.12171784720E+01 0.11980054563E+01 0.11975744654E+01 0.12073821581E+01 0.12090797190E+01
 0.12069491929E+01 0.12281544302E+01 0.12861535116E+01 0.13650983912E+01 0.14448154435E+01
 0.15211146318E+01 0.15961346887E+01 0.16664104749E+01 0.17258402793E+01 0.17663259666E+01