    3    3    1    1
  0.1259857E+03  0.3190316E-09  0.3190316E-09  0.4287900E-08  0.5000000E-15
  1.000000000000000E-004
  CAR 
 unknown system                          
     18     10     14
 
  0.0000000E+00  0.0000000E+00  0.0000000E+00  0.1562500E-01
    1      -18.408940   1.000000
    2      -17.200598   1.000000
    3       -9.918836   1.000000
    4       -6.956610   1.000000
    5       -6.956360   1.000000
    6       -6.097422   1.000000
    7       -5.849734   1.000000
    8       -5.849267   1.000000
    9       -4.374459   1.000000
   10       -1.600471   0.000000
   11       -1.599690   0.000000
   12       -1.377892   0.000000
   13       -1.377222   0.000000
   14        1.031711   0.000000
 
  0.1250000E+00  0.0000000E+00  0.0000000E+00  0.9375000E-01
    1      -18.194904   1.000000
    2      -17.098150   1.000000
    3       -9.674039   1.000000
    4       -7.421276   1.000000
    5       -6.904118   1.000000
    6       -6.722731   1.000000
    7       -6.185831   1.000000
    8       -5.418401   1.000000
    9       -4.513495   1.000000
   10       -1.883072   0.000000
   11       -1.816614   0.000000
   12       -1.615075   0.000000
   13       -1.246452   0.000000
   14        1.398780   0.000000
 
  0.2500000E+00  0.0000000E+00  0.0000000E+00  0.9375000E-01
    1      -17.626365   1.000000
    2      -16.829246   1.000000
    3       -9.308014   1.000000
    4       -8.149623   1.000000
    5       -7.885790   1.000000
    6       -6.822323   1.000000
    7       -6.136808   1.000000
    8       -5.670554   1.000000
    9       -5.081979   1.000000
   10       -2.207471   0.000000
   11       -2.032094   0.000000
   12       -1.489343   0.000000
   13       -0.631254   0.000000
   14        2.220767   0.000000
 
  0.3750000E+00 -0.5551115E-16  0.0000000E+00  0.9375000E-01
    1      -16.951425   1.000000
    2      -16.520661   1.000000
    3       -9.747160   1.000000
    4       -8.754500   1.000000
    5       -8.280561   1.000000
    6       -7.320861   1.000000
    7       -6.079224   1.000000
    8       -5.546808   1.000000
    9       -5.276082   1.000000
   10       -2.214749   0.000000
   11       -1.934918   0.000000
   12       -0.770368   0.000000
   13       -0.238629   0.000000
   14        2.785576   0.000000
 
  0.5000000E+00  0.0000000E+00  0.0000000E+00  0.4687500E-01
    1      -16.623140   1.000000
    2      -16.377315   1.000000
    3      -10.080084   1.000000
    4       -9.120757   1.000000
    5       -8.406315   1.000000
    6       -7.501888   1.000000
    7       -6.217549   1.000000
    8       -5.319758   1.000000
    9       -4.994639   1.000000
   10       -2.193139   0.000000
   11       -1.678441   0.000000
   12       -0.470450   0.000000
   13       -0.122972   0.000000
   14        1.831295   0.000000
 
  0.1250000E+00  0.1250000E+00  0.0000000E+00  0.9375000E-01
    1      -17.802216   1.000000
    2      -16.911042   1.000000
    3       -9.326580   1.000000
    4       -7.986498   1.000000
    5       -7.466919   1.000000
    6       -7.000330   1.000000
    7       -6.384000   1.000000
    8       -5.283605   1.000000
    9       -4.886194   1.000000
   10       -2.282453   0.000000
   11       -1.905019   0.000000
   12       -1.892716   0.000000
   13       -0.652145   0.000000
   14        2.020633   0.000000
 
  0.2500000E+00  0.1250000E+00  0.0000000E+00  0.1875000E+00
    1      -17.168840   1.000000
    2      -16.612401   1.000000
    3       -9.390624   1.000000
    4       -8.413042   1.000000
    5       -8.149738   1.000000
    6       -7.505604   1.000000
    7       -6.284951   1.000000
    8       -5.646556   1.000000
    9       -5.169891   1.000000
   10       -2.366200   0.000000
   11       -1.919372   0.000000
   12       -1.422635   0.000000
   13       -0.146600   0.000000
   14        2.974684   0.000000
 
  0.3750000E+00  0.1250000E+00  0.0000000E+00  0.1875000E+00
    1      -16.638401   1.000000
    2      -16.368429   1.000000
    3       -9.792439   1.000000
    4       -9.176577   1.000000
    5       -8.278578   1.000000
    6       -7.523011   1.000000
    7       -6.269806   1.000000
    8       -6.127666   1.000000
    9       -4.843040   1.000000
   10       -2.174053   0.000000
   11       -1.663919   0.000000
   12       -0.798509   0.000000
   13       -0.112515   0.000000
   14        2.357034   0.000000
 
  0.2500000E+00  0.2500000E+00  0.0000000E+00  0.9375000E-01
    1      -16.653429   1.000000
    2      -16.359526   1.000000
    3       -9.431842   1.000000
    4       -9.226579   1.000000
    5       -7.952269   1.000000
    6       -7.571522   1.000000
    7       -7.252374   1.000000
    8       -5.994846   1.000000
    9       -4.872971   1.000000
   10       -2.224909   0.000000
   11       -1.613287   0.000000
   12       -1.296998   0.000000
   13        0.171308   0.000000
   14        3.187044   0.000000
 
  0.3750000E+00  0.2500000E+00  0.0000000E+00  0.9375000E-01
    1      -16.418487   1.000000
    2      -16.240489   1.000000
    3       -9.611294   1.000000
    4       -9.262686   1.000000
    5       -8.235842   1.000000
    6       -7.573961   1.000000
    7       -7.345567   1.000000
    8       -6.380372   1.000000
    9       -4.505629   1.000000
   10       -2.551242   0.000000
   11       -1.236051   0.000000
   12       -1.064007   0.000000
   13        0.314593   0.000000
   14        2.600533   0.000000
