unknown system                          
   1.00000000000000     
     3.190316    0.000000    0.000000
    -1.595158    2.762894    0.000000
     0.000000    0.000000   42.879004
   Mo   S 
     1     2
Direct
  0.333333  0.666667  0.086750
  0.666667  0.333333  0.050255
  0.666666  0.333333  0.123245
 
   12   12  168
 0.21926E-02 0.11884E-01 0.96909     0.50092E-03 0.99901     0.12217E-01 0.41153E-02 0.23922E-02 0.87613E-02 0.36234E-03
 0.12483E-01 0.64535E-02 0.32723E-02 0.14544E-02 0.13285E-02 0.21228E-02 0.16000E-01 0.71363E-02 0.37906E-01 0.39506E-02
 0.11465     0.26288E-02 0.19729E-02 0.31338E-02 0.60746E-03 0.24277E-02 0.22356E-02 0.14708E-02 0.23198E-01 0.95349E-02
 0.95754E-02 0.69072E-02 0.23143E-01 0.10131E-01 0.47436E-01 0.78157E-02 0.95727E-03 0.13648E-03 0.93034E-03 0.34610E-02
 0.34835E-02 0.18463E-02 0.58084E-02 0.44558E-02 0.14221E-01 0.80001     0.24470E-01 0.11975E-02 0.16700E-01 0.73071E-02
 0.13477E-02 0.53833E-03 0.30773E-01 0.10063E-01 0.21320E-01 0.16110E-01 0.21443     0.13651E-01 0.33996E-01 0.33536E-01
 0.11011E-02 0.92881E-03 0.85514E-04 0.88124E-04 0.29838E-03 0.15993E-01 0.13270E-01 0.79771     0.15113E-01 0.41948E-02
 0.54266E-02 0.70189E-02 0.29067E-01 0.18188E-02 0.91396E-03 0.55871E-04 0.13021E-02 0.11922E-01 0.47211E-01 0.44967E-01
 0.26097E-01 0.46310E-02 0.20889E-01 0.17372E-01 0.77353E-02 0.30311     0.32470E-03 0.18813E-03 0.46447E-03 0.76319E-03
 0.10605     0.20535E-02 0.11406E-01 0.40977E-02 0.10460E-01 0.38134     0.82837E-02 0.39297     0.22311E-01 0.13417E-03
 0.41154E-01 0.89729E-03 0.33499E-03 0.71929E-03 0.30174     0.14784E-02 0.74489     0.72611     0.77777E-02 0.53367E-03
 0.10927     0.38835E-01 0.37680E-02 0.67746E-04 0.24618E-03 0.69909E-04 0.45241E-02 0.58885E-02 0.89344     0.11792E-02
 0.14427E-02 0.54790E-01 0.62025E-02 0.29751E-03 0.25753E-02 0.88946E-03 0.22038E-03 0.22097E-03 0.42854E-02 0.22245E-03
 0.15685E-01 0.35725     0.28212E-02 0.16643E-02 0.10320E-02 0.10864E-02 0.31003E-02 0.10141E-02 0.96774E-02 0.32870E-03
 0.20623E-01 0.39042E-03 0.54290E-03 0.21673E-02 0.35225E-02 0.79508E-02 0.27244E-01 0.36495E-02 0.19847     0.59425    
 0.28921E-01 0.53620E-01 0.27389E-01 0.26485E-02 0.16856     0.65581E-02 0.48054E-02 0.31685E-02 0.53890E-02 0.62106E-01
 0.62839E-01 0.52279E-01 0.94627     0.33941E-01 0.78924     0.59246E-01 0.11205E-01 0.87946E-02 0.25101E-02 0.37451    
 0.60480E-02 0.95817E-02 0.80514E-01 0.27744     0.73215E-01 0.18428     0.11554     0.69543E-01 0.11419     0.47911    
 0.20243E-01 0.68140E-03 0.55615E-01 0.12691E-01 0.90102E-01 0.19274E-01 0.15042     0.42016E-01 0.52486     0.46290    
 0.70077     0.10624E-01 0.99835     0.74246E-02 0.10741     0.26971E-02 0.52441E-01 0.36331     0.11219     0.59814    
 0.57067     0.85949E-01 0.85564     0.10406     0.98086E-02 0.20355E-01 0.45860E-03 0.11649E-02 0.21736E-02 0.62065    
 0.79519E-01 0.45644     0.91292E-01 0.11797     0.48840E-01 0.18364     0.99935     0.11373E-01 0.40688E-01 0.28716E-03
 0.13164     0.31184E-01 0.11122     0.96786     0.74498     0.44018E-01 0.64192     0.98344E-01 0.43937E-01 0.97693E-01
 0.19101E-02 0.29586E-02 0.13165E-02 0.37660E-02 0.31464     0.15795E-01 0.61051E-01 0.94900E-01 0.73512E-01 0.56225    
 0.34742E-01 0.10903     0.13147E-01 0.57570E-03 0.35706E-02 0.19517     0.16110E-02 0.14956E-01 0.27318     0.12559E-01
 0.31638     0.35315     0.95031     0.27750E-02 0.10146E-01 0.13492E-01 0.31412E-01 0.33273E-03 0.58587E-02 0.39177E-03
 0.10927     0.45007     0.14950     0.80910E-02 0.48594E-02 0.21519E-01 0.47714E-02 0.12515E-02 0.66706E-02 0.24206E-01
 0.12587E-02 0.42265E-02 0.31822E-02 0.97398E-03 0.13542E-01 0.52481E-01 0.44716E-02 0.30519E-02 0.28555E-02 0.44135E-01
 0.11335E-01 0.75184E-02 0.91144     0.24064E-02 0.83768E-01 0.94147E-02 0.15637E-02 0.38742E-02 0.40235E-02 0.79992E-02
 0.27086E-01 0.17344E-01 0.22358     0.68126     0.13945     0.83695     0.81987E-01 0.13100E-01 0.46478E-01 0.74914E-02
 0.64991E-02 0.53595E-02 0.15991E-01 0.96630     0.18391     0.23747     0.81330     0.20074     0.65253     0.87600    
 0.45177E-01 0.20897E-01 0.81761E-02 0.18065E-01 0.13884E-01 0.42403E-01 0.24131     0.98420     0.38331     0.96208    
 0.44283     0.29998     0.27401     0.49116     0.91077     0.27296E-02 0.60815E-01 0.35552E-01 0.99105     0.14296    
 0.93752     0.35478     0.99983     0.73866     0.89217     0.63026E-01 0.41455     0.15549E-01 0.14566E-01 0.95886E-02
 0.11648     0.94353     0.44029     0.99977     0.88041     0.49889     0.93917     0.29414     0.59516E-01 0.95464    
 0.20504E-02 0.48598E-01 0.11117E-01 0.76082     0.31896     0.73254     0.51199     0.84264     0.32976     0.99640    
 0.59511     0.46113E-01 0.12450     0.12585E-02 0.74272E-01 0.76002E-01 0.27206     0.82716     0.95470     0.31285    
 0.95790     0.36167     0.16238     0.13161     0.77152E-02 0.26377     0.30547E-02 0.11958E-01 0.21065     0.81112E-01
 0.23463     0.91063     0.31743     0.55488     0.10240     0.92499E-01 0.18203E-01 0.18922E-02 0.31330E-02 0.16441E-01
 0.59035E-02 0.73244     0.25388     0.70970E-01 0.38067     0.38290     0.19074     0.99810E-02 0.11446E-01 0.86925E-02
 0.88647E-02 0.13293E-02 0.89363E-01 0.18283E-02 0.38325E-01 0.28549     0.16752     0.37617E-01 0.12554E-01 0.15449E-01
 0.72925E-02 0.41868E-02 0.13761E-01 0.31187     0.51421E-02 0.90475     0.56731E-02 0.34348E-02 0.20878E-01 0.45814E-01
 0.62984E-02 0.54328E-02 0.67821E-02 0.18599     0.33552E-01 0.35823E-01 0.31319     0.12022E-01 0.40698E-01 0.23957    
 0.37646E-02 0.58451E-02 0.59571E-02 0.11314E-01 0.36739E-01 0.53670E-01 0.30700     0.57688     0.38297     0.81646    
 0.18611     0.43265E-01 0.47694E-01 0.11043E-01 0.10213E-01 0.92155E-02 0.32930E-01 0.42367     0.37913     0.53273    
 0.78272     0.53872     0.71287     0.80504     0.11999     0.37279E-01 0.19310E-01 0.19452E-01 0.26233E-01 0.12001    
 0.47056     0.83844     0.70297     0.92768     0.71724     0.61162     0.48355     0.34461     0.33938     0.83177E-02
 0.41248E-01 0.75604E-01 0.74381     0.48359     0.93273     0.72065     0.91462     0.81781     0.80920     0.23328    
 0.39737     0.30994E-01 0.19958E-01 0.25727E-01 0.22194     0.78703     0.72008     0.91104     0.86861     0.77079    
 0.86417     0.54556     0.22635     0.32381     0.69426E-02 0.25688     0.38804E-01 0.63512     0.61940     0.81540    
 0.77550     0.95783     0.68771     0.87723     0.60387     0.12387     0.60141E-01 0.43999E-02 0.52258E-01 0.14935    
 0.48248     0.79528     0.86655     0.68047     0.86316     0.64841     0.37003     0.19608     0.20958E-01 0.28546E-01
 0.68861E-02 0.27085E-01 0.24539     0.26204     0.51392     0.91192     0.62582     0.66505     0.21817     0.12251    
 0.29659E-01 0.51964E-02 0.54020E-02 0.14711E-01 0.15979E-01 0.36617     0.33291     0.24816     0.53051     0.50112    
 0.15836     0.26068E-01 0.19904E-01 0.13765E-01 0.11634E-01 0.41871E-02 0.31006E-01 0.64104E-02 0.47519E-01 0.19381    
 0.22675     0.11121     0.25440E-01 0.22851E-01 0.14443E-01 0.11522E-01 0.26287E-01 0.86189E-01 0.14936E-01 0.76980E-01
 0.12374E-01 0.95790E-02 0.33092E-01 0.54365E-01 0.10049E-01 0.10662E-01 0.15063E-01 0.85058E-01 0.74888E-01 0.10885    
 0.26422     0.40784E-01 0.53688E-01 0.58848E-01 0.85472E-02 0.95747E-02 0.10288E-01 0.17306E-01 0.54492E-01 0.12668    
 0.43087     0.63595     0.59846     0.72554     0.34261     0.10892     0.64227E-01 0.17209E-01 0.16383E-01 0.15494E-01
 0.57098E-01 0.39796     0.56796     0.72736     0.83476     0.76035     0.78757     0.73022     0.23652     0.60443E-01
 0.37566E-01 0.25716E-01 0.45389E-01 0.24382     0.64488     0.85308     0.85674     0.92355     0.85769     0.78947    
 0.64979     0.38304     0.29106     0.18710E-01 0.48719E-01 0.14415     0.71159     0.74532     0.92493     0.89379    
 0.93689     0.89605     0.84737     0.47472     0.48284     0.59506E-01 0.29056E-01 0.58397E-01 0.37162     0.80414    
 0.86023     0.93575     0.93411     0.90458     0.89818     0.72370     0.46477     0.28330     0.17440E-01 0.94809E-01
 0.10267     0.67395     0.78648     0.89492     0.90585     0.94759     0.86335     0.86481     0.67993     0.24000    
 0.70318E-01 0.11603E-01 0.67801E-01 0.25135     0.63972     0.84173     0.89739     0.86305     0.89572     0.79934    
 0.56077     0.28763     0.46408E-01 0.31045E-01 0.15316E-01 0.53412E-01 0.32059     0.48769     0.71600     0.87722    
 0.79538     0.76609     0.37619     0.18779     0.50866E-01 0.12881E-01 0.12216E-01 0.22730E-01 0.36078E-01 0.29443    
 0.44959     0.48677     0.66786     0.62353     0.20880     0.57366E-01 0.33313E-01 0.23038E-01 0.20355E-01 0.11357E-01
 0.34173E-01 0.16578E-01 0.74857E-01 0.23726     0.31669     0.23343     0.45388E-01 0.34460E-01 0.24498E-01 0.24835E-01
 0.48382E-01 0.87773E-01 0.35382E-01 0.64722E-01 0.22246E-01 0.20388E-01 0.52291E-01 0.73161E-01 0.16227E-01 0.18194E-01
 0.27729E-01 0.10106     0.14814     0.22853     0.31934     0.10574     0.86779E-01 0.56352E-01 0.15652E-01 0.15722E-01
 0.15691E-01 0.25012E-01 0.83483E-01 0.23771     0.55775     0.71575     0.72431     0.75761     0.50149     0.21299    
 0.94316E-01 0.25017E-01 0.24234E-01 0.23451E-01 0.94354E-01 0.45957     0.68671     0.81811     0.87604     0.85177    
 0.84021     0.75597     0.36267     0.97240E-01 0.65377E-01 0.32613E-01 0.74485E-01 0.37711     0.73597     0.88057    
 0.90842     0.93464     0.90735     0.86053     0.73836     0.46304     0.36726     0.33859E-01 0.65417E-01 0.24200    
 0.75216     0.84507     0.93436     0.93571     0.94798     0.92519     0.88052     0.63666     0.59239     0.10999    
 0.41333E-01 0.11619     0.52069     0.84373     0.90886     0.94742     0.95082     0.93864     0.92119     0.81245    
 0.63514     0.37399     0.35471E-01 0.98936E-01 0.21085     0.74325     0.85926     0.92609     0.93889     0.95092    
 0.91639     0.88874     0.75393     0.38272     0.11012     0.24288E-01 0.11024     0.38307     0.74023     0.88021    
 0.92037     0.91623     0.91952     0.86577     0.68917     0.41153     0.98631E-01 0.45877E-01 0.31423E-01 0.10606    
 0.43872     0.64624     0.81233     0.88959     0.86282     0.82913     0.52874     0.29685     0.92441E-01 0.28012E-01
 0.24773E-01 0.38789E-01 0.75007E-01 0.37610     0.57175     0.64527     0.74706     0.71016     0.30205     0.11242    
 0.54643E-01 0.36913E-01 0.36698E-01 0.25954E-01 0.45925E-01 0.34787E-01 0.12658     0.33193     0.41587     0.36648    
 0.75607E-01 0.50805E-01 0.37384E-01 0.46547E-01 0.90174E-01 0.13614     0.75599E-01 0.81529E-01 0.35157E-01 0.36080E-01
 0.82652E-01 0.10814     0.24124E-01 0.26090E-01 0.45123E-01 0.15107     0.26496     0.37693     0.43011     0.21632    
 0.14578     0.69010E-01 0.23419E-01 0.23520E-01 0.20803E-01 0.34621E-01 0.12396     0.35322     0.65238     0.77553    
 0.79481     0.80095     0.60846     0.32447     0.13921     0.34695E-01 0.33585E-01 0.33305E-01 0.14318     0.52833    
 0.74818     0.85317     0.88989     0.88012     0.86478     0.78526     0.45876     0.14761     0.10340     0.42486E-01
 0.11535     0.47806     0.77896     0.88419     0.91152     0.92599     0.90961     0.87641     0.78044     0.53690    
 0.47648     0.53266E-01 0.97178E-01 0.33792     0.78811     0.86853     0.92298     0.92599     0.93294     0.91771    
 0.88715     0.71210     0.66905     0.18821     0.58881E-01 0.20606     0.61613     0.86664     0.91023     0.93264    
 0.93263     0.92822     0.91629     0.85033     0.72869     0.49381     0.63591E-01 0.13666     0.33523     0.79654    
 0.88276     0.92172     0.92807     0.93391     0.91706     0.89853     0.80848     0.50759     0.18282     0.45682E-01
 0.18659     0.49923     0.80388     0.89357     0.91629     0.91400     0.91644     0.88579     0.76594     0.52942    
 0.18441     0.77461E-01 0.62638E-01 0.19150     0.55323     0.73362     0.85037     0.89005     0.87720     0.85617    
 0.63632     0.41678     0.15909     0.57724E-01 0.49234E-01 0.70201E-01 0.13852     0.49487     0.65912     0.72245    
 0.78492     0.76059     0.40132     0.18780     0.89847E-01 0.62007E-01 0.68605E-01 0.54990E-01 0.71155E-01 0.62988E-01
 0.20339     0.43820     0.49749     0.47036     0.11636     0.75786E-01 0.57910E-01 0.81565E-01 0.15662     0.21874    
 0.14229     0.12221     0.53940E-01 0.57797E-01 0.12579     0.15750     0.33889E-01 0.36090E-01 0.70353E-01 0.22286    
 0.39313     0.51206     0.54020     0.34004     0.23308     0.95341E-01 0.32884E-01 0.32893E-01 0.27261E-01 0.47378E-01
 0.16786     0.43440     0.70058     0.80126     0.82476     0.81657     0.65414     0.41892     0.19224     0.47047E-01
 0.45296E-01 0.46730E-01 0.19192     0.57743     0.76588     0.84938     0.87351     0.86993     0.85914     0.78680    
 0.51174     0.20413     0.15134     0.54611E-01 0.16677     0.52938     0.78821     0.85508     0.86804     0.87061    
 0.86445     0.85225     0.79109     0.57181     0.55535     0.77600E-01 0.13548     0.41682     0.79217     0.84735    
 0.85911     0.82624     0.83437     0.85424     0.86000     0.73599     0.68980     0.29292     0.79633E-01 0.31521    
 0.65357     0.86143     0.86457     0.83422     0.79352     0.83026     0.86853     0.85172     0.77183     0.56801    
 0.10857     0.18138     0.45299     0.81127     0.87126     0.86673     0.82990     0.83375     0.86388     0.88128    
 0.83292     0.58571     0.27785     0.79096E-01 0.28225     0.57502     0.83338     0.87772     0.86929     0.85182    
 0.87163     0.87102     0.79682     0.61363     0.27887     0.12979     0.11031     0.29409     0.61803     0.77147    
 0.85024     0.86157     0.85118     0.85032     0.68965     0.50659     0.23831     0.10593     0.89436E-01 0.11886    
 0.22451     0.58441     0.68869     0.74793     0.79064     0.77478     0.47212     0.26176     0.14045     0.10435    
 0.11922     0.10327     0.11008     0.10310     0.30058     0.50838     0.54470     0.53427     0.15960     0.10855    
 0.89655E-01 0.13128     0.23589     0.30863     0.23083     0.17859     0.77340E-01 0.87016E-01 0.17688     0.20851    
 0.46810E-01 0.50286E-01 0.10265     0.29357     0.48886     0.60386     0.61008     0.44432     0.33340     0.12555    
 0.44944E-01 0.45488E-01 0.37011E-01 0.63359E-01 0.20356     0.47666     0.72245     0.81586     0.84177     0.81947    
 0.67645     0.49602     0.23087     0.61206E-01 0.60094E-01 0.62926E-01 0.22797     0.59690     0.76312     0.83304    
 0.84906     0.85012     0.84311     0.76865     0.53614     0.24953     0.20314     0.67709E-01 0.21662     0.54151    
 0.77906     0.81044     0.78781     0.76174     0.78207     0.81108     0.78384     0.56668     0.56977     0.11309    
 0.16029     0.48605     0.77510     0.80806     0.72832     0.55383     0.56192     0.72429     0.81532     0.74335    
 0.68866     0.39859     0.10711     0.39842     0.67409     0.84562     0.78206     0.56187     0.36699     0.55968    
 0.78393     0.84069     0.80109     0.59358     0.18274     0.21908     0.56415     0.81054     0.85070     0.75825    
 0.55944     0.55839     0.75774     0.85531     0.84677     0.64502     0.37331     0.13205     0.36930     0.64212    
 0.85015     0.85316     0.78502     0.72339     0.79044     0.84724     0.81082     0.67841     0.36841     0.20999    
 0.17597     0.39894     0.65527     0.79773     0.83833     0.81691     0.80707     0.83502     0.71396     0.57074    
 0.32458     0.17528     0.15332     0.19058     0.33085     0.62489     0.69060     0.75427     0.77923     0.76937    
 0.51020     0.32269     0.20424     0.16764     0.19263     0.17228     0.16307     0.16451     0.40179     0.52182    
 0.56040     0.56204     0.19436     0.14478     0.13213     0.19327     0.32113     0.40237     0.33260     0.23128    
 0.10582     0.12908     0.22042     0.24251     0.62768E-01 0.68601E-01 0.13774     0.35373     0.55685     0.66656    
 0.66035     0.53887     0.41301     0.14598     0.60681E-01 0.62308E-01 0.51250E-01 0.81728E-01 0.22596     0.48880    
 0.73193     0.82862     0.85448     0.82024     0.69644     0.54303     0.24026     0.77093E-01 0.78383E-01 0.79622E-01
 0.24461     0.59057     0.76015     0.83201     0.85056     0.85521     0.84198     0.75151     0.54605     0.26572    
 0.23985     0.84784E-01 0.24592     0.53081     0.76947     0.79609     0.76554     0.72818     0.75904     0.79916    
 0.77374     0.54334     0.53728     0.15932     0.16981     0.53666     0.75846     0.79694     0.67762     0.45132    
 0.45581     0.67592     0.79847     0.75461     0.69163     0.44064     0.13971     0.41066     0.69629     0.84463    
 0.75922     0.45561     0.22988     0.45609     0.75874     0.84287     0.82539     0.57650     0.24618     0.23145    
 0.61902     0.80899     0.85501     0.72675     0.45615     0.45047     0.72908     0.85377     0.85686     0.67088    
 0.38659     0.17377     0.37599     0.67937     0.86099     0.85301     0.75958     0.67756     0.76619     0.84940    
 0.82027     0.69899     0.39041     0.24353     0.20718     0.41980     0.66083     0.82279     0.84051     0.79986    
 0.79219     0.83690     0.72471     0.59214     0.35617     0.20808     0.18827     0.22579     0.37361     0.60625    
 0.69197     0.76315     0.76744     0.76377     0.52346     0.35563     0.24202     0.20279     0.22529     0.20370    
 0.19230     0.22175     0.44903     0.49669     0.55880     0.55977     0.21582     0.17705     0.16726     0.23002    
 0.35104     0.42786     0.36773     0.24298     0.13595     0.18028     0.23833     0.25320     0.80567E-01 0.89877E-01
 0.16815     0.38861     0.58079     0.68136     0.67604     0.59272     0.43053     0.15787     0.83028E-01 0.82167E-01
 0.73323E-01 0.10402     0.23223     0.45232     0.69609     0.80758     0.83388     0.78841     0.67602     0.51772    
 0.22958     0.98103E-01 0.10131     0.98843E-01 0.24294     0.55747     0.74006     0.82837     0.86033     0.86702    
 0.83811     0.72404     0.52845     0.25616     0.24375     0.10681     0.24667     0.49310     0.75055     0.80739    
 0.80811     0.79028     0.80326     0.81048     0.75074     0.50716     0.47115     0.18225     0.16438     0.52625    
 0.72990     0.80704     0.74694     0.63431     0.63419     0.74739     0.80544     0.74789     0.66470     0.36814    
 0.14646     0.33328     0.67832     0.84246     0.80343     0.63356     0.48191     0.63715     0.80104     0.84088    
 0.80934     0.48738     0.21860     0.19871     0.54215     0.77613     0.86600     0.79170     0.63739     0.62779    
 0.79569     0.86000     0.83465     0.60867     0.31151     0.17564     0.30554     0.62312     0.83796     0.85980    
 0.80173     0.75114     0.80718     0.85942     0.79345     0.62439     0.33888     0.24058     0.21559     0.35307    
 0.59094     0.81122     0.83789     0.80654     0.80137     0.83796     0.68860     0.51611     0.30419     0.21479    
 0.21766     0.23131     0.31164     0.50248     0.66306     0.75437     0.74485     0.74300     0.49282     0.31714    
 0.20833     0.19047     0.22815     0.21076     0.18507     0.20673     0.37961     0.44055     0.53653     0.52130    
 0.22066     0.18478     0.15827     0.19844     0.29909     0.36777     0.30638     0.19850     0.14080     0.20029    
 0.22956     0.24971     0.10176     0.11067     0.17417     0.35056     0.50683     0.60292     0.60694     0.53120    
 0.35469     0.15873     0.10985     0.10446     0.11498     0.14018     0.22299     0.34414     0.55329     0.68923    
 0.72071     0.66124     0.54372     0.39616     0.21360     0.13304     0.13648     0.13049     0.23637     0.49335    
 0.65134     0.76270     0.82256     0.83003     0.77569     0.63998     0.46149     0.24493     0.22489     0.13131    
 0.22944     0.41457     0.68611     0.78520     0.81171     0.80977     0.81021     0.78349     0.67866     0.44247    
 0.36151     0.15536     0.14033     0.42170     0.63993     0.77458     0.78004     0.75374     0.74826     0.78115    
 0.77568     0.66870     0.53523     0.23175     0.11459     0.21065     0.54867     0.78708     0.80892     0.74710    
 0.69262     0.75365     0.80611     0.77934     0.68689     0.34261     0.15652     0.15239     0.36687     0.64710    
 0.82901     0.81452     0.75386     0.74251     0.81936     0.81763     0.72242     0.47272     0.24585     0.16146    
 0.24544     0.48502     0.72293     0.81654     0.80763     0.78589     0.81104     0.82012     0.66537     0.47899    
 0.28991     0.22713     0.21072     0.29566     0.46018     0.69648     0.77193     0.77897     0.77118     0.78314    
 0.54472     0.35936     0.24613     0.20936     0.22240     0.22200     0.24511     0.34628     0.53488     0.67286    
 0.67421     0.65759     0.39011     0.21228     0.15328     0.17039     0.21852     0.20711     0.16951     0.15315    
 0.23867     0.33961     0.47611     0.44000     0.20963     0.15770     0.11557     0.14639     0.24260     0.30907    
 0.24236     0.14745     0.11107     0.16614     0.21008     0.24688     0.13558     0.12971     0.14700     0.23866    
 0.35293     0.45943     0.47109     0.36996     0.22524     0.14011     0.13387     0.13846     0.19953     0.21501    
 0.22127     0.22473     0.34528     0.46205     0.49353     0.43693     0.33580     0.25967     0.21496     0.20157    
 0.20556     0.19307     0.25658     0.42113     0.46340     0.55601     0.64561     0.64829     0.57617     0.47125    
 0.37190     0.26173     0.22024     0.17141     0.22327     0.31975     0.56330     0.66716     0.69484     0.70613    
 0.70201     0.65187     0.53958     0.36169     0.24703     0.13278     0.12842     0.28992     0.45529     0.63079    
 0.70195     0.70874     0.69647     0.69876     0.64348     0.49008     0.33214     0.15562     0.10163     0.14251    
 0.34656     0.59971     0.69268     0.69478     0.67816     0.70522     0.69572     0.57943     0.45330     0.22451    
 0.11324     0.11432     0.22911     0.42310     0.65356     0.71518     0.70561     0.69032     0.72233     0.63204    
 0.49860     0.31624     0.14354     0.86646E-01 0.14542     0.32327     0.49403     0.62974     0.69960     0.70377    
 0.69991     0.63709     0.43478     0.31837     0.16251     0.96061E-01 0.89182E-01 0.16489     0.30992     0.46642    
 0.56194     0.65738     0.63075     0.59473     0.33759     0.23081     0.14466     0.88742E-01 0.84661E-01 0.93422E-01
 0.14276     0.22522     0.33568     0.48683     0.54172     0.47590     0.26722     0.14547     0.11295     0.91020E-01
 0.91722E-01 0.88607E-01 0.91451E-01 0.11103     0.15904     0.23139     0.39574     0.34629     0.20567     0.14143    
 0.10053     0.10795     0.14391     0.17177     0.14040     0.11065     0.99982E-01 0.14159     0.20536     0.27285    
 0.20389     0.16107     0.13041     0.16512     0.22592     0.30486     0.31724     0.23570     0.15199     0.12877    
 0.16824     0.20755     0.33034     0.34403     0.25564     0.18515     0.23159     0.26103     0.26482     0.24909    
 0.21769     0.21340     0.26310     0.31538     0.32022     0.29491     0.34735     0.39479     0.28205     0.30118    
 0.34694     0.33877     0.31548     0.31068     0.33131     0.33347     0.26513     0.24981     0.25439     0.27693    
 0.44895     0.44483     0.41117     0.42409     0.43204     0.42375     0.39276     0.32616     0.20898     0.16419    
 0.17072     0.24105     0.27681     0.40208     0.48547     0.47948     0.46560     0.46731     0.41868     0.31856    
 0.21621     0.15548     0.12899     0.14393     0.23462     0.33197     0.40949     0.46619     0.47004     0.47503    
 0.42669     0.31696     0.25491     0.14669     0.82081E-01 0.83036E-01 0.14490     0.24178     0.35342     0.42796    
 0.47677     0.46001     0.43847     0.33032     0.27001     0.15306     0.45486E-01 0.20350E-01 0.46872E-01 0.15479    
 0.26365     0.33204     0.42888     0.47305     0.42578     0.33607     0.24455     0.15293     0.36981E-01 0.79275E-02
 0.71445E-02 0.37527E-01 0.15063     0.26365     0.29890     0.44475     0.39676     0.33382     0.22493     0.14844    
 0.46078E-01 0.71420E-02 0.39076E-02 0.74648E-02 0.45760E-01 0.14610     0.22348     0.30297     0.41503     0.29687    
 0.22104     0.14696     0.82225E-01 0.21391E-01 0.72632E-02 0.73085E-02 0.21541E-01 0.79999E-01 0.15724     0.19740    
 0.35586     0.30917     0.24114     0.18365     0.12641     0.78804E-01 0.46720E-01 0.38696E-01 0.44211E-01 0.81513E-01
 0.12851     0.17775     0.24185     0.36466     0.32224     0.22170     0.17107     0.16446     0.14418     0.14766    
 0.15463     0.15088     0.15226     0.16529     0.23925     0.31934     0.43739     0.45502     0.29953     0.21589    
 0.21559     0.16875     0.15033     0.16685     0.19459     0.23864     0.33559     0.41919     0.41889     0.39109    
 0.49289     0.40835     0.20535     0.18249     0.17301     0.16379     0.18471     0.24750     0.35615     0.42927    
 0.33796     0.32718     0.29770     0.31532     0.40947     0.25663     0.18828     0.18576     0.20461     0.25427    
 0.31762     0.35407     0.23661     0.22666     0.24881     0.25524     0.20308     0.25366     0.25898     0.21351    
 0.21219     0.23810     0.25323     0.24957     0.19416     0.19282     0.17549     0.18444     0.21758     0.18527    
 0.18790     0.21599     0.21105     0.21493     0.20286     0.18540     0.16758     0.12126     0.78564E-01 0.78133E-01
 0.11693     0.16570     0.17564     0.18070     0.21675     0.21006     0.18796     0.16267     0.15360     0.80516E-01
 0.17759E-01 0.62116E-02 0.18860E-01 0.79979E-01 0.14877     0.16765     0.19959     0.24531     0.19777     0.16711    
 0.16327     0.79726E-01 0.81439E-02 0.23840E-03 0.18695E-03 0.82449E-02 0.79675E-01 0.17146     0.17494     0.27196    
 0.23818     0.19333     0.20726     0.12061     0.18266E-01 0.19070E-03 0.85381E-05 0.19480E-03 0.18309E-01 0.11964    
 0.20619     0.22364     0.36541     0.22114     0.23558     0.18790     0.78179E-01 0.64907E-02 0.18429E-03 0.22284E-03
 0.65032E-02 0.76360E-01 0.19150     0.23290     0.36147     0.35571     0.30512     0.25460     0.17142     0.75970E-01
 0.18884E-01 0.82552E-02 0.17423E-01 0.78131E-01 0.17755     0.24547     0.30423     0.47985     0.43421     0.28394    
 0.25154     0.19840     0.11688     0.78671E-01 0.81522E-01 0.12242     0.19054     0.22903     0.31817     0.40918    
 0.44675     0.45046     0.28948     0.24078     0.21714     0.15815     0.14387     0.16357     0.19395     0.24200    
 0.34153     0.43207     0.42340     0.41339     0.53260     0.35857     0.20093     0.18618     0.16105     0.15136    
 0.17718     0.24614     0.35982     0.43737     0.34581     0.32567     0.29095     0.36868     0.40423     0.22367    
 0.17640     0.17398     0.18861     0.24105     0.31286     0.36082     0.24135     0.23555     0.26209     0.23537    
 0.20270     0.26368     0.23851     0.19128     0.19725     0.22177     0.24225     0.24441     0.19448     0.19565    
 0.17874     0.19732     0.21589     0.16629     0.17697     0.20335     0.19429     0.19658     0.18837     0.17775    
 0.16141     0.12138     0.79620E-01 0.76951E-01 0.11559     0.16736     0.16139     0.16392     0.19820     0.19684    
 0.17030     0.15344     0.14602     0.76572E-01 0.16404E-01 0.59507E-02 0.17827E-01 0.74601E-01 0.14198     0.16138    
 0.18141     0.23077     0.18098     0.15802     0.16121     0.75189E-01 0.73551E-02 0.16152E-03 0.12763E-03 0.73660E-02
 0.76334E-01 0.16142     0.17377     0.24803     0.23805     0.17825     0.20749     0.11874     0.17198E-01 0.13407E-03
 0.56236E-05 0.13317E-03 0.17226E-01 0.11919     0.20834     0.21548     0.36723     0.21748     0.22505     0.19948    
 0.78076E-01 0.59806E-02 0.12891E-03 0.17085E-03 0.59178E-02 0.77684E-01 0.19067     0.25313     0.33305     0.39481    
 0.32598     0.25142     0.17581     0.78072E-01 0.17737E-01 0.70682E-02 0.16651E-01 0.78634E-01 0.18377     0.24732    
 0.32096     0.47188     0.44665     0.29372     0.26910     0.19334     0.11614     0.76344E-01 0.77180E-01 0.12025    
 0.19596     0.23525     0.32848     0.40812     0.35264     0.33828     0.23640     0.23020     0.22538     0.22238    
 0.24232     0.23739     0.20850     0.21072     0.27406     0.34145     0.33193     0.33946     0.41120     0.29442    
 0.26628     0.31181     0.30337     0.29019     0.28805     0.30192     0.32883     0.34622     0.27527     0.24970    
 0.23771     0.37644     0.42566     0.35196     0.37486     0.39340     0.38244     0.38612     0.37542     0.33340    
 0.21325     0.17648     0.19363     0.19225     0.27104     0.42883     0.43708     0.40839     0.42616     0.42584    
 0.39060     0.29513     0.20987     0.15671     0.13303     0.16565     0.22270     0.26367     0.37691     0.43502    
 0.42074     0.41894     0.38574     0.28786     0.23092     0.14353     0.80505E-01 0.76844E-01 0.13711     0.24724    
 0.30075     0.37210     0.42105     0.42883     0.37805     0.29876     0.24322     0.13603     0.36870E-01 0.17033E-01
 0.39148E-01 0.13117     0.23953     0.31249     0.37299     0.43400     0.37416     0.30413     0.23603     0.13316    
 0.29640E-01 0.43638E-02 0.42866E-02 0.29452E-01 0.13674     0.22606     0.29285     0.38349     0.39778     0.28077    
 0.21861     0.13929     0.38250E-01 0.43963E-02 0.19166E-02 0.42273E-02 0.38469E-01 0.14117     0.22035     0.27222    
 0.41270     0.27792     0.19334     0.16550     0.78603E-01 0.16587E-01 0.42232E-02 0.47335E-02 0.16372E-01 0.79342E-01
 0.15150     0.23252     0.29362     0.37237     0.27715     0.17659     0.13245     0.80414E-01 0.39218E-01 0.27898E-01
 0.37950E-01 0.79792E-01 0.13775     0.17652     0.27309     0.35095     0.34683     0.24167     0.19804     0.15017    
 0.13791     0.13825     0.13640     0.13986     0.15868     0.17635     0.25646     0.32160     0.21916     0.21287    