 vasp.5.4.4.18Apr17-6-g9f103f2a35 (build Jun 30 2017 11:15:00) complex          
  
 executed on    STALLO_VASP_5.4.4 date 2019.11.08  11:48:47
 running on    4 total cores
 distrk:  each k-point on    4 cores,    1 groups
 distr:  one band on NCORES_PER_BAND=   2 cores,    2 groups


--------------------------------------------------------------------------------------------------------


 INCAR:
 POTCAR:   PAW_PBE Mo 08Apr2002                   
 POTCAR:    PAW_PBE S 17Jan2003                   
 POTCAR:   PAW_PBE Mo 08Apr2002                   
   VRHFIN =Mo: 4p5s4d                                                           
   LEXCH  = PE                                                                  
   EATOM  =   217.5180 eV,   15.9871 Ry                                         
                                                                                
   TITEL  = PAW_PBE Mo 08Apr2002                                                
   LULTRA =        F    use ultrasoft PP ?                                      
   IUNSCR =        1    unscreen: 0-lin 1-nonlin 2-no                           
   RPACOR =    2.200    partial core radius                                     
   POMASS =   95.940; ZVAL   =    6.000    mass and valenz                      
   RCORE  =    2.750    outmost cutoff radius                                   
   RWIGS  =    2.750; RWIGS  =    1.455    wigner-seitz radius (au A)           
   ENMAX  =  224.584; ENMIN  =  168.438 eV                                      
   RCLOC  =    2.111    cutoff for local pot                                    
   LCOR   =        T    correct aug charges                                     
   LPAW   =        T    paw PP                                                  
   EAUG   =  345.278                                                            
   DEXC   =    -.088                                                            
   RMAX   =    3.077    core radius for proj-oper                               
   RAUG   =    1.300    factor for augmentation sphere                          
   RDEP   =    2.815    radius for radial grids                                 
   QCUT   =   -4.063; QGAM   =    8.126    optimization parameters              
                                                                                
   Description                                                                  
     l     E      TYP  RCUT    TYP  RCUT                                        
     2   .000     23  2.500                                                     
     2   .000     23  2.500                                                     
     0   .000     23  2.600                                                     
     0  1.000     23  2.600                                                     
     1   .400     23  2.750                                                     
     1  2.000     23  2.750                                                     
     3   .000      7   .000                                                     
  local pseudopotential read in
  partial core-charges read in
  atomic valenz-charges read in
  non local Contribution for L=           2  read in
    real space projection operators read in
  non local Contribution for L=           2  read in
    real space projection operators read in
  non local Contribution for L=           0  read in
    real space projection operators read in
  non local Contribution for L=           0  read in
    real space projection operators read in
  non local Contribution for L=           1  read in
    real space projection operators read in
  non local Contribution for L=           1  read in
    real space projection operators read in
    PAW grid and wavefunctions read in
 
   number of l-projection  operators is LMAX  =           6
   number of lm-projection operators is LMMAX =          18
 
 POTCAR:    PAW_PBE S 17Jan2003                   
   VRHFIN =S : s2p4                                                             
   LEXCH  = PE                                                                  
   EATOM  =   276.8230 eV,   20.3459 Ry                                         
                                                                                
   TITEL  = PAW_PBE S 17Jan2003                                                 
   LULTRA =        F    use ultrasoft PP ?                                      
   IUNSCR =        1    unscreen: 0-lin 1-nonlin 2-no                           
   RPACOR =    1.500    partial core radius                                     
   POMASS =   32.066; ZVAL   =    6.000    mass and valenz                      
   RCORE  =    1.900    outmost cutoff radius                                   
   RWIGS  =    2.200; RWIGS  =    1.164    wigner-seitz radius (au A)           
   ENMAX  =  280.000; ENMIN  =  194.016 eV                                      
   ICORE  =        2    local potential                                         
   LCOR   =        T    correct aug charges                                     
   LPAW   =        T    paw PP                                                  
   EAUG   =  335.092                                                            
   DEXC   =     .000                                                            
   RMAX   =    2.867    core radius for proj-oper                               
   RAUG   =    1.300    factor for augmentation sphere                          
   RDEP   =    1.954    radius for radial grids                                 
   QCUT   =   -4.360; QGAM   =    8.721    optimization parameters              
                                                                                
   Description                                                                  
     l     E      TYP  RCUT    TYP  RCUT                                        
     0   .000     23  1.900                                                     
     0   .000     23  1.900                                                     
     1   .000     23  1.900                                                     
     1   .000     23  1.900                                                     
     2   .000     23  1.900                                                     
  local pseudopotential read in
  partial core-charges read in
  atomic valenz-charges read in
  non local Contribution for L=           0  read in
    real space projection operators read in
  non local Contribution for L=           0  read in
    real space projection operators read in
  non local Contribution for L=           1  read in
    real space projection operators read in
  non local Contribution for L=           1  read in
    real space projection operators read in
    PAW grid and wavefunctions read in
 
   number of l-projection  operators is LMAX  =           4
   number of lm-projection operators is LMMAX =           8
 

 ----------------------------------------------------------------------------- 
|                                                                             |
|  ADVICE TO THIS USER RUNNING 'VASP/VAMP'   (HEAR YOUR MASTER'S VOICE ...):  |
|                                                                             |
|      You have a (more or less) 'small supercell' and for smaller cells      |
|      it is recommended  to use the reciprocal-space projection scheme!      |
|      The real space optimization is not  efficient for small cells and it   |
|      is also less accurate ...                                              |
|      Therefore set LREAL=.FALSE. in the  INCAR file                         |
|                                                                             |
 ----------------------------------------------------------------------------- 

 Optimization of the real space projectors (new method)

 maximal supplied QI-value         = 13.61
 optimisation between [QCUT,QGAM] = [  8.03, 16.19] = [ 18.05, 73.41] Ry 
 Optimized for a Real-space Cutoff    1.97 Angstroem

   l    n(q)    QCUT    max X(q) W(low)/X(q) W(high)/X(q)  e(spline) 
   2      9     8.028     3.671    0.48E-05    0.25E-04    0.70E-07
   2      9     8.028    25.193    0.26E-03    0.70E-03    0.27E-06
   0     10     8.028    26.379    0.19E-04    0.25E-05    0.73E-08
   0     10     8.028    49.709    0.28E-04    0.49E-04    0.74E-07
   1      9     8.028     7.852    0.15E-04    0.15E-05    0.29E-07
   1      9     8.028    10.693    0.92E-04    0.27E-04    0.86E-07
 Optimization of the real space projectors (new method)

 maximal supplied QI-value         = 19.84
 optimisation between [QCUT,QGAM] = [  7.94, 16.07] = [ 17.64, 72.34] Ry 
 Optimized for a Real-space Cutoff    1.55 Angstroem

   l    n(q)    QCUT    max X(q) W(low)/X(q) W(high)/X(q)  e(spline) 
   0      7     7.937     5.487    0.27E-04    0.20E-04    0.12E-07
   0      7     7.937    85.627    0.10E-03    0.36E-03    0.16E-06
   1      7     7.937     3.530    0.15E-04    0.55E-04    0.56E-07
   1      7     7.937    42.714    0.49E-03    0.85E-03    0.12E-06
 PAW_PBE Mo 08Apr2002                   :
 energy of atom  1       EATOM= -217.5180
 kinetic energy error for atom=    0.0235 (will be added to EATOM!!)
  PAW_PBE S 17Jan2003                   :
 energy of atom  2       EATOM= -276.8230
 kinetic energy error for atom=    0.0359 (will be added to EATOM!!)
 
 
 POSCAR: MoS2_mp-2815_computed                   
  positions in cartesian coordinates
  velocities in cartesian coordinates
  No initial velocities read in
 exchange correlation table for  LEXCH =        8
   RHO(1)=    0.500       N(1)  =     2000
   RHO(2)=  100.500       N(2)  =     4000
 


--------------------------------------------------------------------------------------------------------


 ion  position               nearest neighbor table
   1  0.333  0.667  0.087-   3 2.42   2 2.42   2 2.42   3 2.42   3 2.42   2 2.42
   2  0.667  0.333  0.050-   1 2.42   1 2.42   1 2.42
   3  0.667  0.333  0.123-   1 2.42   1 2.42   1 2.42
 
  LATTYP: Found a hexagonal cell.
 ALAT       =     3.1903157300
 C/A-ratio  =    13.4403638790
  
  Lattice vectors:
  
 A1 = (   3.1903157300,   0.0000000000,   0.0000000000)
 A2 = (  -1.5951578650,   2.7628944683,   0.0000000000)
 A3 = (   0.0000000000,   0.0000000000,  42.8790043000)


Analysis of symmetry for initial positions (statically):
=====================================================================
 Subroutine PRICEL returns:
 Original cell was already a primitive cell.
 

 Routine SETGRP: Setting up the symmetry group for a 
 hexagonal supercell.


 Subroutine GETGRP returns: Found 12 space group operations
 (whereof  6 operations were pure point group operations)
 out of a pool of 24 trial point group operations.


The static configuration has the point symmetry C_3v.
 The point group associated with its full space group is D_3h.


Analysis of symmetry for dynamics (positions and initial velocities):
=====================================================================
 Subroutine PRICEL returns:
 Original cell was already a primitive cell.
 

 Routine SETGRP: Setting up the symmetry group for a 
 hexagonal supercell.


 Subroutine GETGRP returns: Found 12 space group operations
 (whereof  6 operations were pure point group operations)
 out of a pool of 24 trial point group operations.


The dynamic configuration has the point symmetry C_3v.
 The point group associated with its full space group is D_3h.


 Subroutine INISYM returns: Found 12 space group operations
 (whereof  6 operations are pure point group operations),
 and found     1 'primitive' translations

 
 
 KPOINTS: k-density: 4.0                          

Automatic generation of k-mesh.
Space group operators:
 irot       det(A)        alpha          n_x          n_y          n_z        tau_x        tau_y        tau_z
    1     1.000000     0.000000     1.000000     0.000000     0.000000     0.000000     0.000000     0.000000
    2     1.000000   120.000000     0.000000     0.000000    -1.000000     0.000000     0.000000     0.000000
    3     1.000000   120.000000     0.000000     0.000000     1.000000     0.000000     0.000000     0.000000
    4    -1.000000   180.000000     1.000000    -0.000000     0.000000     0.000000     0.000000     0.000000
    5    -1.000000   180.000000     0.500000    -0.866025     0.000000     0.000000     0.000000     0.000000
    6    -1.000000   180.000000    -0.500000    -0.866025     0.000000     0.000000     0.000000     0.000000
    7    -1.000000    60.000000     0.000000     0.000000    -1.000000     0.000000     0.000000     0.173500
    8    -1.000000   180.000000     0.000000     0.000000     1.000000     0.000000     0.000000     0.173500
    9    -1.000000    60.000000     0.000000     0.000000     1.000000     0.000000     0.000001     0.173500
   10     1.000000   180.000000     0.866025    -0.500000     0.000000     0.000000     0.000000     0.173500
   11     1.000000   179.999999     0.000000     1.000000     0.000000     0.000000     0.000000     0.173500
   12     1.000000   180.000000     0.866025     0.500000     0.000000     0.000000     0.000001     0.173500
 
 Subroutine IBZKPT returns following result:
 ===========================================
 
 Found     10 irreducible k-points:
 
 Following reciprocal coordinates:
            Coordinates               Weight
  0.000000  0.000000  0.000000      1.000000
  0.125000  0.000000  0.000000      6.000000
  0.250000  0.000000  0.000000      6.000000
  0.375000 -0.000000  0.000000      6.000000
  0.500000  0.000000  0.000000      3.000000
  0.125000  0.125000  0.000000      6.000000
  0.250000  0.125000  0.000000     12.000000
  0.375000  0.125000  0.000000     12.000000
  0.250000  0.250000  0.000000      6.000000
  0.375000  0.250000  0.000000      6.000000
 
 Following cartesian coordinates:
            Coordinates               Weight
  0.000000  0.000000  0.000000      1.000000
  0.039181  0.022621  0.000000      6.000000
  0.078362  0.045242  0.000000      6.000000
  0.117543  0.067864  0.000000      6.000000
  0.156724  0.090485  0.000000      3.000000
  0.039181  0.067864  0.000000      6.000000
  0.078362  0.090485  0.000000     12.000000
  0.117543  0.113106  0.000000     12.000000
  0.078362  0.135727  0.000000      6.000000
  0.117543  0.158348  0.000000      6.000000
 


--------------------------------------------------------------------------------------------------------




 Dimension of arrays:
   k-points           NKPTS =     10   k-points in BZ     NKDIM =     10   number of bands    NBANDS=     14
   number of dos      NEDOS =   2401   number of ions     NIONS =      3
   non local maximal  LDIM  =      6   non local SUM 2l+1 LMDIM =     18
   total plane-waves  NPLWV =  24192
   max r-space proj   IRMAX =   2085   max aug-charges    IRDMAX=   4309
   dimension x,y,z NGX =    12 NGY =   12 NGZ =  168
   dimension x,y,z NGXF=    24 NGYF=   24 NGZF=  336
   support grid    NGXF=    24 NGYF=   24 NGZF=  336
   ions per type =               1   2
   NGX,Y,Z   is equivalent  to a cutoff of   6.25,  6.25,  6.51 a.u.
   NGXF,Y,Z  is equivalent  to a cutoff of  12.51, 12.51, 13.03 a.u.

 SYSTEM =  unknown system                          
 POSCAR =  MoS2_mp-2815_computed                   

 Startparameter for this run:
   NWRITE =      2    write-flag & timer
   PREC   = normal    normal or accurate (medium, high low for compatibility)
   ISTART =      0    job   : 0-new  1-cont  2-samecut
   ICHARG =      2    charge: 1-file 2-atom 10-const
   ISPIN  =      1    spin polarized calculation?
   LNONCOLLINEAR =      F non collinear calculations
   LSORBIT =      F    spin-orbit coupling
   INIWAV =      1    electr: 0-lowe 1-rand  2-diag
   LASPH  =      F    aspherical Exc in radial PAW
   METAGGA=      F    non-selfconsistent MetaGGA calc.

 Electronic Relaxation 1
   ENCUT  =  250.0 eV  18.37 Ry    4.29 a.u.   4.11  4.11 55.28*2*pi/ulx,y,z
   ENINI  =  250.0     initial cutoff
   ENAUG  =  345.3 eV  augmentation charge cutoff
   NELM   =     60;   NELMIN=  4; NELMDL= -5     # of ELM steps 
   EDIFF  = 0.1E-05   stopping-criterion for ELM
   LREAL  =      T    real-space projection
   NLSPLINE    = F    spline interpolate recip. space projectors
   LCOMPAT=      F    compatible to vasp.4.4
   GGA_COMPAT  = T    GGA compatible to vasp.4.4-vasp.4.6
   LMAXPAW     = -100 max onsite density
   LMAXMIX     =    2 max onsite mixed and CHGCAR
   VOSKOWN=      0    Vosko Wilk Nusair interpolation
   ROPT   =   -0.00050  -0.00050
 Ionic relaxation
   EDIFFG = 0.1E-04   stopping-criterion for IOM
   NSW    =      0    number of steps for IOM
   NBLOCK =      1;   KBLOCK =      1    inner block; outer block 
   IBRION =     -1    ionic relax: 0-MD 1-quasi-New 2-CG
   NFREE  =      0    steps in history (QN), initial steepest desc. (CG)
   ISIF   =      2    stress and relaxation
   IWAVPR =     10    prediction:  0-non 1-charg 2-wave 3-comb
   ISYM   =      2    0-nonsym 1-usesym 2-fastsym
   LCORR  =      T    Harris-Foulkes like correction to forces

   POTIM  = 0.5000    time-step for ionic-motion
   TEIN   =    0.0    initial temperature
   TEBEG  =    0.0;   TEEND  =   0.0 temperature during run
   SMASS  =  -3.00    Nose mass-parameter (am)
   estimated Nose-frequenzy (Omega)   =  0.10E-29 period in steps =****** mass=  -0.233E-27a.u.
   SCALEE = 1.0000    scale energy and forces
   NPACO  =    256;   APACO  = 16.0  distance and # of slots for P.C.
   PSTRESS=    0.0 pullay stress

  Mass of Ions in am
   POMASS =  95.94 32.07
  Ionic Valenz
   ZVAL   =   6.00  6.00
  Atomic Wigner-Seitz radii
   RWIGS  =  -1.00 -1.00
  virtual crystal weights 
   VCA    =   1.00  1.00
   NELECT =      18.0000    total number of electrons
   NUPDOWN=      -1.0000    fix difference up-down

 DOS related values:
   EMIN   = -12.00;   EMAX   = 12.00  energy-range for DOS
   EFERMI =   0.00
   ISMEAR =     0;   SIGMA  =   0.20  broadening in eV -4-tet -1-fermi 0-gaus

 Electronic relaxation 2 (details)
   IALGO  =     68    algorithm
   LDIAG  =      T    sub-space diagonalisation (order eigenvalues)
   LSUBROT=      F    optimize rotation matrix (better conditioning)
   TURBO    =      0    0=normal 1=particle mesh
   IRESTART =      0    0=no restart 2=restart with 2 vectors
   NREBOOT  =      0    no. of reboots
   NMIN     =      0    reboot dimension
   EREF     =   0.00    reference energy to select bands
   IMIX   =      4    mixing-type and parameters
     AMIX     =   0.40;   BMIX     =  1.00
     AMIX_MAG =   1.60;   BMIX_MAG =  1.00
     AMIN     =   0.10
     WC   =   100.;   INIMIX=   1;  MIXPRE=   1;  MAXMIX= -45

 Intra band minimization:
   WEIMIN = 0.0000     energy-eigenvalue tresh-hold
   EBREAK =  0.18E-07  absolut break condition
   DEPER  =   0.30     relativ break condition  

   TIME   =   0.40     timestep for ELM

  volume/ion in A,a.u.               =     125.99       850.19
  Fermi-wavevector in a.u.,A,eV,Ry     =   0.593405  1.121373  4.791018  0.352130
  Thomas-Fermi vector in A             =   1.642592
 
 Write flags
   LWAVE        =      F    write WAVECAR
   LDOWNSAMPLE  =      F    k-point downsampling of WAVECAR
   LCHARG       =      T    write CHGCAR
   LVTOT        =      F    write LOCPOT, total local potential
   LVHAR        =      F    write LOCPOT, Hartree potential only
   LELF         =      T    write electronic localiz. function (ELF)
   LORBIT       =     11    0 simple, 1 ext, 2 COOP (PROOUT), +10 PAW based schemes


 Dipole corrections
   LMONO  =      F    monopole corrections only (constant potential shift)
   LDIPOL =      F    correct potential (dipole corrections)
   IDIPOL =      0    1-x, 2-y, 3-z, 4-all directions 
   EPSILON=  1.0000000 bulk dielectric constant

 Exchange correlation treatment:
   GGA     =    --    GGA type
   LEXCH   =     8    internal setting for exchange type
   VOSKOWN=      0    Vosko Wilk Nusair interpolation
   LHFCALC =     F    Hartree Fock is set to
   LHFONE  =     F    Hartree Fock one center treatment
   AEXX    =    0.0000 exact exchange contribution

 Linear response parameters
   LEPSILON=     F    determine dielectric tensor
   LRPA    =     F    only Hartree local field effects (RPA)
   LNABLA  =     F    use nabla operator in PAW spheres
   LVEL    =     F    velocity operator in full k-point grid
   LINTERFAST=   F  fast interpolation
   KINTER  =     0    interpolate to denser k-point grid
   CSHIFT  =0.1000    complex shift for real part using Kramers Kronig
   OMEGAMAX=  -1.0    maximum frequency
   DEG_THRESHOLD= 0.2000000E-02 threshold for treating states as degnerate
   RTIME   =   -0.100 relaxation time in fs
  (WPLASMAI=    0.000 imaginary part of plasma frequency in eV, 0.658/RTIME)
   DFIELD  = 0.0000000 0.0000000 0.0000000 field for delta impulse in time
 
 Orbital magnetization related:
   ORBITALMAG=     F  switch on orbital magnetization
   LCHIMAG   =     F  perturbation theory with respect to B field
   DQ        =  0.001000  dq finite difference perturbation B field
   LLRAUG    =     F  two centre corrections for induced B field



--------------------------------------------------------------------------------------------------------


 Static calculation
 charge density and potential will be updated during run
 non-spin polarized calculation
 RMM-DIIS sequential band-by-band and
  variant of blocked Davidson during initial phase
 perform sub-space diagonalisation
    before iterative eigenvector-optimisation
 modified Broyden-mixing scheme, WC =      100.0
 initial mixing is a Kerker type mixing with AMIX =  0.4000 and BMIX =      1.0000
 Hartree-type preconditioning will be used
 using additional bands            5
 real space projection scheme for non local part
 use partial core corrections
 calculate Harris-corrections to forces 
   (improved forces if not selfconsistent)
 use gradient corrections 
 use of overlap-Matrix (Vanderbilt PP)
 Gauss-broadening in eV      SIGMA  =   0.20


--------------------------------------------------------------------------------------------------------


  energy-cutoff  :      250.00
  volume of cell :      377.96
      direct lattice vectors                 reciprocal lattice vectors
     3.190315730  0.000000000  0.000000000     0.313448600  0.180969634  0.000000000
    -1.595157865  2.762894468  0.000000000     0.000000000  0.361939267  0.000000000
     0.000000000  0.000000000 42.879004300     0.000000000  0.000000000  0.023321437

  length of vectors
     3.190315730  3.190315730 42.879004300     0.361939267  0.361939267  0.023321437


 
 k-points in units of 2pi/SCALE and weight: k-density: 4.0                          
   0.00000000  0.00000000  0.00000000       0.016
   0.03918108  0.02262120  0.00000000       0.094
   0.07836215  0.04524241  0.00000000       0.094
   0.11754323  0.06786361  0.00000000       0.094
   0.15672430  0.09048482  0.00000000       0.047
   0.03918108  0.06786361  0.00000000       0.094
   0.07836215  0.09048482  0.00000000       0.188
   0.11754323  0.11310602  0.00000000       0.188
   0.07836215  0.13572723  0.00000000       0.094
   0.11754323  0.15834843  0.00000000       0.094
 
 k-points in reciprocal lattice and weights: k-density: 4.0                          
   0.00000000  0.00000000  0.00000000       0.016
   0.12500000  0.00000000  0.00000000       0.094
   0.25000000  0.00000000  0.00000000       0.094
   0.37500000 -0.00000000  0.00000000       0.094
   0.50000000  0.00000000  0.00000000       0.047
   0.12500000  0.12500000  0.00000000       0.094
   0.25000000  0.12500000  0.00000000       0.188
   0.37500000  0.12500000  0.00000000       0.188
   0.25000000  0.25000000  0.00000000       0.094
   0.37500000  0.25000000  0.00000000       0.094
 
 position of ions in fractional coordinates (direct lattice) 
   0.33333300  0.66666700  0.08674994
   0.66666700  0.33333300  0.05025459
   0.66666600  0.33333300  0.12324529
 
 position of ions in cartesian coordinates  (Angst):
  -0.00000160  1.84193057  3.71975108
   1.59515946  0.92096390  2.15486668
   1.59515627  0.92096390  5.28463547
 


--------------------------------------------------------------------------------------------------------


 k-point  1 :   0.0000 0.0000 0.0000  plane waves:    3285
 k-point  2 :   0.1250 0.0000 0.0000  plane waves:    3327
 k-point  3 :   0.2500 0.0000 0.0000  plane waves:    3393
 k-point  4 :   0.3750-0.0000 0.0000  plane waves:    3419
 k-point  5 :   0.5000 0.0000 0.0000  plane waves:    3436
 k-point  6 :   0.1250 0.1250 0.0000  plane waves:    3352
 k-point  7 :   0.2500 0.1250 0.0000  plane waves:    3393
 k-point  8 :   0.3750 0.1250 0.0000  plane waves:    3395
 k-point  9 :   0.2500 0.2500 0.0000  plane waves:    3412
 k-point 10 :   0.3750 0.2500 0.0000  plane waves:    3418

 maximum and minimum number of plane-waves per node :      1726     1632

 maximum number of plane-waves:      3436
 maximum index in each direction: 
   IXMAX=    4   IYMAX=    4   IZMAX=   55
   IXMIN=   -4   IYMIN=   -4   IZMIN=  -55


 real space projection operators:
  total allocation   :        396.47 KBytes
  max/ min on nodes  :        199.00        197.47


 parallel 3D FFT for wavefunctions:
    minimum data exchange during FFTs selected (reduces bandwidth)
 parallel 3D FFT for charge:
    minimum data exchange during FFTs selected (reduces bandwidth)


 total amount of memory used by VASP MPI-rank0    37524. kBytes
=======================================================================

   base      :      30000. kBytes
   nonlr-proj:        344. kBytes
   fftplans  :       1997. kBytes
   grid      :       3206. kBytes
   one-center:         31. kBytes
   wavefun   :       1946. kBytes
 
     INWAV:  cpu time    0.0010: real time    0.0001
 Broyden mixing: mesh for mixing (old mesh)
   NGX =  9   NGY =  9   NGZ =111
  (NGX  = 24   NGY  = 24   NGZ  =336)
  gives a total of   8991 points

 initial charge density was supplied:
 charge density of overlapping atoms calculated
 number of electron      18.0000000 magnetization 
 keeping initial charge density in first step


--------------------------------------------------------------------------------------------------------


 Maximum index for non-local projection operator          966
 Maximum index for augmentation-charges         1019 (set IRDMAX)


--------------------------------------------------------------------------------------------------------


 First call to EWALD:  gamma=   0.245
 Maximum number of real-space cells 6x 6x 1
 Maximum number of reciprocal cells 1x 1x14

    FEWALD:  cpu time    0.0010: real time    0.0014


--------------------------------------- Iteration      1(   1)  ---------------------------------------


    POTLOK:  cpu time    0.0250: real time    0.0788
    SETDIJ:  cpu time    0.0020: real time    0.0027
     EDDAV:  cpu time    0.1460: real time    0.1486
       DOS:  cpu time    0.0010: real time    0.0018
    --------------------------------------------
      LOOP:  cpu time    0.1740: real time    0.2319

 eigenvalue-minimisations  :   328
 total energy-change (2. order) : 0.8797686E+02  (-0.4272758E+03)
 number of electron      18.0000000 magnetization 
 augmentation part       18.0000000 magnetization 

 Free energy of the ion-electron system (eV)
  ---------------------------------------------------
  alpha Z        PSCENC =         7.84443069
  Ewald energy   TEWEN  =      8645.14869488
  -Hartree energ DENC   =     -9303.81578581
  -exchange      EXHF   =         0.00000000
  -V(xc)+E(xc)   XCENC  =       -36.31055333
  PAW double counting   =       406.88651198     -329.34073203
  entropy T*S    EENTRO =        -0.04620547
  eigenvalues    EBANDS =       -73.45807628
  atomic energy  EATOM  =       771.06857575
  Solvation  Ediel_sol  =         0.00000000
  ---------------------------------------------------
  free energy    TOTEN  =        87.97686038 eV

  energy without entropy =       88.02306585  energy(sigma->0) =       87.99996312


--------------------------------------------------------------------------------------------------------




--------------------------------------- Iteration      1(   2)  ---------------------------------------


     EDDAV:  cpu time    0.1870: real time    0.1877
       DOS:  cpu time    0.0020: real time    0.0016
    --------------------------------------------
      LOOP:  cpu time    0.1890: real time    0.1893

 eigenvalue-minimisations  :   452
 total energy-change (2. order) :-0.9994598E+02  (-0.9219895E+02)
 number of electron      18.0000000 magnetization 
 augmentation part       18.0000000 magnetization 

 Free energy of the ion-electron system (eV)
  ---------------------------------------------------
  alpha Z        PSCENC =         7.84443069
  Ewald energy   TEWEN  =      8645.14869488
  -Hartree energ DENC   =     -9303.81578581
  -exchange      EXHF   =         0.00000000
  -V(xc)+E(xc)   XCENC  =       -36.31055333
  PAW double counting   =       406.88651198     -329.34073203
  entropy T*S    EENTRO =        -0.00000000
  eigenvalues    EBANDS =      -173.45025689
  atomic energy  EATOM  =       771.06857575
  Solvation  Ediel_sol  =         0.00000000
  ---------------------------------------------------
  free energy    TOTEN  =       -11.96911475 eV

  energy without entropy =      -11.96911475  energy(sigma->0) =      -11.96911475


--------------------------------------------------------------------------------------------------------




--------------------------------------- Iteration      1(   3)  ---------------------------------------


     EDDAV:  cpu time    0.1650: real time    0.1659
       DOS:  cpu time    0.0010: real time    0.0017
    --------------------------------------------
      LOOP:  cpu time    0.1660: real time    0.1676

 eigenvalue-minimisations  :   394
 total energy-change (2. order) :-0.1117834E+02  (-0.1105701E+02)
 number of electron      18.0000000 magnetization 
 augmentation part       18.0000000 magnetization 

 Free energy of the ion-electron system (eV)
  ---------------------------------------------------
  alpha Z        PSCENC =         7.84443069
  Ewald energy   TEWEN  =      8645.14869488
  -Hartree energ DENC   =     -9303.81578581
  -exchange      EXHF   =         0.00000000
  -V(xc)+E(xc)   XCENC  =       -36.31055333
  PAW double counting   =       406.88651198     -329.34073203
  entropy T*S    EENTRO =        -0.00000000
  eigenvalues    EBANDS =      -184.62859574
  atomic energy  EATOM  =       771.06857575
  Solvation  Ediel_sol  =         0.00000000
  ---------------------------------------------------
  free energy    TOTEN  =       -23.14745361 eV

  energy without entropy =      -23.14745361  energy(sigma->0) =      -23.14745361


--------------------------------------------------------------------------------------------------------




--------------------------------------- Iteration      1(   4)  ---------------------------------------


     EDDAV:  cpu time    0.1640: real time    0.1640
       DOS:  cpu time    0.0010: real time    0.0016
    --------------------------------------------
      LOOP:  cpu time    0.1650: real time    0.1657

 eigenvalue-minimisations  :   388
 total energy-change (2. order) :-0.2186316E+00  (-0.2163361E+00)
 number of electron      18.0000000 magnetization 
 augmentation part       18.0000000 magnetization 

 Free energy of the ion-electron system (eV)
  ---------------------------------------------------
  alpha Z        PSCENC =         7.84443069
  Ewald energy   TEWEN  =      8645.14869488
  -Hartree energ DENC   =     -9303.81578581
  -exchange      EXHF   =         0.00000000
  -V(xc)+E(xc)   XCENC  =       -36.31055333
  PAW double counting   =       406.88651198     -329.34073203
  entropy T*S    EENTRO =        -0.00000000
  eigenvalues    EBANDS =      -184.84722733
  atomic energy  EATOM  =       771.06857575
  Solvation  Ediel_sol  =         0.00000000
  ---------------------------------------------------
  free energy    TOTEN  =       -23.36608519 eV

  energy without entropy =      -23.36608519  energy(sigma->0) =      -23.36608519


--------------------------------------------------------------------------------------------------------




--------------------------------------- Iteration      1(   5)  ---------------------------------------


     EDDAV:  cpu time    0.1500: real time    0.1502
       DOS:  cpu time    0.0020: real time    0.0016
    CHARGE:  cpu time    0.0110: real time    0.0112
    MIXING:  cpu time    0.0010: real time    0.0011
    --------------------------------------------
      LOOP:  cpu time    0.1640: real time    0.1643

 eigenvalue-minimisations  :   352
 total energy-change (2. order) :-0.4410127E-02  (-0.4407505E-02)
 number of electron      17.9999944 magnetization 
 augmentation part       -0.9518836 magnetization 

 Broyden mixing:
  rms(total) = 0.69128E+00    rms(broyden)= 0.69111E+00
  rms(prec ) = 0.71405E+00
  weight for this iteration     100.00

 Free energy of the ion-electron system (eV)
  ---------------------------------------------------
  alpha Z        PSCENC =         7.84443069
  Ewald energy   TEWEN  =      8645.14869488
  -Hartree energ DENC   =     -9303.81578581
  -exchange      EXHF   =         0.00000000
  -V(xc)+E(xc)   XCENC  =       -36.31055333
  PAW double counting   =       406.88651198     -329.34073203
  entropy T*S    EENTRO =        -0.00000000
  eigenvalues    EBANDS =      -184.85163745
  atomic energy  EATOM  =       771.06857575
  Solvation  Ediel_sol  =         0.00000000
  ---------------------------------------------------
  free energy    TOTEN  =       -23.37049532 eV

  energy without entropy =      -23.37049532  energy(sigma->0) =      -23.37049532


--------------------------------------------------------------------------------------------------------




--------------------------------------- Iteration      1(   6)  ---------------------------------------


    POTLOK:  cpu time    0.0200: real time    0.0207
    SETDIJ:  cpu time    0.0020: real time    0.0018
    EDDIAG:  cpu time    0.0250: real time    0.0255
  RMM-DIIS:  cpu time    0.0860: real time    0.0852
    ORTHCH:  cpu time    0.0020: real time    0.0029
       DOS:  cpu time    0.0020: real time    0.0016
    CHARGE:  cpu time    0.0110: real time    0.0110
    MIXING:  cpu time    0.0010: real time    0.0010
    --------------------------------------------
      LOOP:  cpu time    0.1490: real time    0.1498

 eigenvalue-minimisations  :   295
 total energy-change (2. order) : 0.1160198E+01  (-0.5408845E+00)
 number of electron      17.9999944 magnetization 
 augmentation part       -0.4084035 magnetization 

 Broyden mixing:
  rms(total) = 0.26283E+00    rms(broyden)= 0.26264E+00
  rms(prec ) = 0.28141E+00
  weight for this iteration     100.00

 eigenvalues of (default mixing * dielectric matrix)
  average eigenvalue GAMMA=   0.8356
  0.8356

 Free energy of the ion-electron system (eV)
  ---------------------------------------------------
  alpha Z        PSCENC =         7.84443069
  Ewald energy   TEWEN  =      8645.14869488
  -Hartree energ DENC   =     -9301.93572811
  -exchange      EXHF   =         0.00000000
  -V(xc)+E(xc)   XCENC  =       -35.41115039
  PAW double counting   =       426.18212884     -349.52715380
  entropy T*S    EENTRO =        -0.00000003
  eigenvalues    EBANDS =      -185.58009481
  atomic energy  EATOM  =       771.06857575
  Solvation  Ediel_sol  =         0.00000000
  ---------------------------------------------------
  free energy    TOTEN  =       -22.21029699 eV

  energy without entropy =      -22.21029695  energy(sigma->0) =      -22.21029697


--------------------------------------------------------------------------------------------------------




--------------------------------------- Iteration      1(   7)  ---------------------------------------


    POTLOK:  cpu time    0.0200: real time    0.0232
    SETDIJ:  cpu time    0.0020: real time    0.0018
    EDDIAG:  cpu time    0.0250: real time    0.0251
  RMM-DIIS:  cpu time    0.0830: real time    0.0826
    ORTHCH:  cpu time    0.0020: real time    0.0029
       DOS:  cpu time    0.0010: real time    0.0016
    CHARGE:  cpu time    0.0110: real time    0.0110
    MIXING:  cpu time    0.0010: real time    0.0009
    --------------------------------------------
      LOOP:  cpu time    0.1450: real time    0.1493

 eigenvalue-minimisations  :   292
 total energy-change (2. order) : 0.3811724E+00  (-0.5833726E-01)
 number of electron      17.9999944 magnetization 
 augmentation part       -0.6141896 magnetization 

 Broyden mixing:
  rms(total) = 0.15529E+00    rms(broyden)= 0.15526E+00
  rms(prec ) = 0.15872E+00
  weight for this iteration     100.00

 eigenvalues of (default mixing * dielectric matrix)
  average eigenvalue GAMMA=   1.3734
  0.6640  2.0829

 Free energy of the ion-electron system (eV)
  ---------------------------------------------------
  alpha Z        PSCENC =         7.84443069
  Ewald energy   TEWEN  =      8645.14869488
  -Hartree energ DENC   =     -9307.87149565
  -exchange      EXHF   =         0.00000000
  -V(xc)+E(xc)   XCENC  =       -35.55612078
  PAW double counting   =       445.43169590     -369.01228161
  entropy T*S    EENTRO =        -0.00000000
  eigenvalues    EBANDS =      -178.88262379
  atomic energy  EATOM  =       771.06857575
  Solvation  Ediel_sol  =         0.00000000
  ---------------------------------------------------
  free energy    TOTEN  =       -21.82912460 eV

  energy without entropy =      -21.82912460  energy(sigma->0) =      -21.82912460


--------------------------------------------------------------------------------------------------------




--------------------------------------- Iteration      1(   8)  ---------------------------------------


    POTLOK:  cpu time    0.0200: real time    0.0195
    SETDIJ:  cpu time    0.0020: real time    0.0018
    EDDIAG:  cpu time    0.0250: real time    0.0251
  RMM-DIIS:  cpu time    0.0870: real time    0.0864
    ORTHCH:  cpu time    0.0020: real time    0.0029
       DOS:  cpu time    0.0010: real time    0.0016
    CHARGE:  cpu time    0.0110: real time    0.0110
    MIXING:  cpu time    0.0020: real time    0.0015
    --------------------------------------------
      LOOP:  cpu time    0.1500: real time    0.1499

 eigenvalue-minimisations  :   305
 total energy-change (2. order) : 0.6132671E-01  (-0.2347224E-01)
 number of electron      17.9999943 magnetization 
 augmentation part       -0.5604225 magnetization 

 Broyden mixing:
  rms(total) = 0.34651E-01    rms(broyden)= 0.34624E-01
  rms(prec ) = 0.35578E-01
  weight for this iteration     100.00

 eigenvalues of (default mixing * dielectric matrix)
  average eigenvalue GAMMA=   1.5007
  1.9203  1.9203  0.6617

 Free energy of the ion-electron system (eV)
  ---------------------------------------------------
  alpha Z        PSCENC =         7.84443069
  Ewald energy   TEWEN  =      8645.14869488
  -Hartree energ DENC   =     -9312.03965346
  -exchange      EXHF   =         0.00000000
  -V(xc)+E(xc)   XCENC  =       -35.26657395
  PAW double counting   =       471.44029539     -395.54138822
  entropy T*S    EENTRO =        -0.00000000
  eigenvalues    EBANDS =      -174.42217897
  atomic energy  EATOM  =       771.06857575
  Solvation  Ediel_sol  =         0.00000000
  ---------------------------------------------------
  free energy    TOTEN  =       -21.76779790 eV

  energy without entropy =      -21.76779790  energy(sigma->0) =      -21.76779790


--------------------------------------------------------------------------------------------------------




--------------------------------------- Iteration      1(   9)  ---------------------------------------


    POTLOK:  cpu time    0.0200: real time    0.0196
    SETDIJ:  cpu time    0.0020: real time    0.0018
    EDDIAG:  cpu time    0.0250: real time    0.0250
  RMM-DIIS:  cpu time    0.0960: real time    0.0957
    ORTHCH:  cpu time    0.0020: real time    0.0029
       DOS:  cpu time    0.0020: real time    0.0016
    CHARGE:  cpu time    0.0110: real time    0.0110
    MIXING:  cpu time    0.0010: real time    0.0010
    --------------------------------------------
      LOOP:  cpu time    0.1590: real time    0.1588

 eigenvalue-minimisations  :   335
 total energy-change (2. order) : 0.4728007E-02  (-0.8288954E-03)
 number of electron      17.9999943 magnetization 
 augmentation part       -0.5586923 magnetization 

 Broyden mixing:
  rms(total) = 0.91499E-02    rms(broyden)= 0.91446E-02
  rms(prec ) = 0.10059E-01
  weight for this iteration     100.00

 eigenvalues of (default mixing * dielectric matrix)
  average eigenvalue GAMMA=   1.5048
  0.6629  1.0471  2.4412  1.8678

 Free energy of the ion-electron system (eV)
  ---------------------------------------------------
  alpha Z        PSCENC =         7.84443069
  Ewald energy   TEWEN  =      8645.14869488
  -Hartree energ DENC   =     -9313.39588919
  -exchange      EXHF   =         0.00000000
  -V(xc)+E(xc)   XCENC  =       -35.21967303
  PAW double counting   =       476.69936287     -400.86775804
  entropy T*S    EENTRO =        -0.00000000
  eigenvalues    EBANDS =      -173.04081382
  atomic energy  EATOM  =       771.06857575
  Solvation  Ediel_sol  =         0.00000000
  ---------------------------------------------------
  free energy    TOTEN  =       -21.76306989 eV

  energy without entropy =      -21.76306989  energy(sigma->0) =      -21.76306989


--------------------------------------------------------------------------------------------------------




--------------------------------------- Iteration      1(  10)  ---------------------------------------


    POTLOK:  cpu time    0.0190: real time    0.0199
    SETDIJ:  cpu time    0.0020: real time    0.0018
    EDDIAG:  cpu time    0.0250: real time    0.0251
  RMM-DIIS:  cpu time    0.0970: real time    0.0964
    ORTHCH:  cpu time    0.0030: real time    0.0030
       DOS:  cpu time    0.0020: real time    0.0016
    CHARGE:  cpu time    0.0100: real time    0.0111
    MIXING:  cpu time    0.0010: real time    0.0011
    --------------------------------------------
      LOOP:  cpu time    0.1590: real time    0.1600

 eigenvalue-minimisations  :   337
 total energy-change (2. order) : 0.6799066E-03  (-0.1522383E-03)
 number of electron      17.9999943 magnetization 
 augmentation part       -0.5614225 magnetization 

 Broyden mixing:
  rms(total) = 0.42901E-02    rms(broyden)= 0.42860E-02
  rms(prec ) = 0.50979E-02
  weight for this iteration     100.00

 eigenvalues of (default mixing * dielectric matrix)
  average eigenvalue GAMMA=   1.6642
  0.6634  1.0335  2.1805  2.2217  2.2217

 Free energy of the ion-electron system (eV)
  ---------------------------------------------------
  alpha Z        PSCENC =         7.84443069
  Ewald energy   TEWEN  =      8645.14869488
  -Hartree energ DENC   =     -9314.58897971
  -exchange      EXHF   =         0.00000000
  -V(xc)+E(xc)   XCENC  =       -35.19514847
  PAW double counting   =       479.17560026     -403.37606329
  entropy T*S    EENTRO =        -0.00000000
  eigenvalues    EBANDS =      -171.83950010
  atomic energy  EATOM  =       771.06857575
  Solvation  Ediel_sol  =         0.00000000
  ---------------------------------------------------
  free energy    TOTEN  =       -21.76238999 eV

  energy without entropy =      -21.76238999  energy(sigma->0) =      -21.76238999


--------------------------------------------------------------------------------------------------------




--------------------------------------- Iteration      1(  11)  ---------------------------------------


    POTLOK:  cpu time    0.0200: real time    0.0201
    SETDIJ:  cpu time    0.0020: real time    0.0018
    EDDIAG:  cpu time    0.0250: real time    0.0250
  RMM-DIIS:  cpu time    0.0920: real time    0.0921
    ORTHCH:  cpu time    0.0030: real time    0.0029
       DOS:  cpu time    0.0010: real time    0.0016
    CHARGE:  cpu time    0.0110: real time    0.0110
    MIXING:  cpu time    0.0020: real time    0.0012
    --------------------------------------------
      LOOP:  cpu time    0.1560: real time    0.1558

 eigenvalue-minimisations  :   321
 total energy-change (2. order) : 0.8111518E-04  (-0.1495016E-03)
 number of electron      17.9999943 magnetization 
 augmentation part       -0.5590183 magnetization 

 Broyden mixing:
  rms(total) = 0.46764E-02    rms(broyden)= 0.46730E-02
  rms(prec ) = 0.50696E-02
  weight for this iteration     100.00

 eigenvalues of (default mixing * dielectric matrix)
  average eigenvalue GAMMA=   1.6691
  2.8268  2.7991  0.6637  1.4057  1.4057  0.9135

 Free energy of the ion-electron system (eV)
  ---------------------------------------------------
  alpha Z        PSCENC =         7.84443069
  Ewald energy   TEWEN  =      8645.14869488
  -Hartree energ DENC   =     -9315.75886332
  -exchange      EXHF   =         0.00000000
  -V(xc)+E(xc)   XCENC  =       -35.18364082
  PAW double counting   =       478.67827440     -402.87048298
  entropy T*S    EENTRO =        -0.00000000
  eigenvalues    EBANDS =      -170.68929747
  atomic energy  EATOM  =       771.06857575
  Solvation  Ediel_sol  =         0.00000000
  ---------------------------------------------------
  free energy    TOTEN  =       -21.76230887 eV

  energy without entropy =      -21.76230887  energy(sigma->0) =      -21.76230887


--------------------------------------------------------------------------------------------------------




--------------------------------------- Iteration      1(  12)  ---------------------------------------


    POTLOK:  cpu time    0.0190: real time    0.0198
    SETDIJ:  cpu time    0.0030: real time    0.0018
    EDDIAG:  cpu time    0.0240: real time    0.0250
  RMM-DIIS:  cpu time    0.0920: real time    0.0915
    ORTHCH:  cpu time    0.0030: real time    0.0029
       DOS:  cpu time    0.0010: real time    0.0016
    CHARGE:  cpu time    0.0110: real time    0.0110
    MIXING:  cpu time    0.0020: real time    0.0012
    --------------------------------------------
      LOOP:  cpu time    0.1550: real time    0.1549

 eigenvalue-minimisations  :   314
 total energy-change (2. order) : 0.7454641E-04  (-0.4191663E-04)
 number of electron      17.9999943 magnetization 
 augmentation part       -0.5604887 magnetization 

 Broyden mixing:
  rms(total) = 0.14607E-02    rms(broyden)= 0.14527E-02
  rms(prec ) = 0.18117E-02
  weight for this iteration     100.00

 eigenvalues of (default mixing * dielectric matrix)
  average eigenvalue GAMMA=   1.9612
  3.7122  2.8515  2.8515  0.6637  0.9695  1.3402  1.3402

 Free energy of the ion-electron system (eV)
  ---------------------------------------------------
  alpha Z        PSCENC =         7.84443069
  Ewald energy   TEWEN  =      8645.14869488
  -Hartree energ DENC   =     -9316.54502956
  -exchange      EXHF   =         0.00000000
  -V(xc)+E(xc)   XCENC  =       -35.17791501
  PAW double counting   =       478.84013984     -403.03028501
  entropy T*S    EENTRO =        -0.00000000
  eigenvalues    EBANDS =      -169.91084591
  atomic energy  EATOM  =       771.06857575
  Solvation  Ediel_sol  =         0.00000000
  ---------------------------------------------------
  free energy    TOTEN  =       -21.76223432 eV

  energy without entropy =      -21.76223432  energy(sigma->0) =      -21.76223432


--------------------------------------------------------------------------------------------------------




--------------------------------------- Iteration      1(  13)  ---------------------------------------


    POTLOK:  cpu time    0.0200: real time    0.0200
    SETDIJ:  cpu time    0.0020: real time    0.0018
    EDDIAG:  cpu time    0.0250: real time    0.0251
  RMM-DIIS:  cpu time    0.0890: real time    0.0895
    ORTHCH:  cpu time    0.0030: real time    0.0029
       DOS:  cpu time    0.0020: real time    0.0016
    CHARGE:  cpu time    0.0110: real time    0.0110
    MIXING:  cpu time    0.0010: real time    0.0013
    --------------------------------------------
      LOOP:  cpu time    0.1530: real time    0.1533

 eigenvalue-minimisations  :   311
 total energy-change (2. order) :-0.4585075E-03  (-0.1441473E-04)
 number of electron      17.9999943 magnetization 
 augmentation part       -0.5594811 magnetization 

 Broyden mixing:
  rms(total) = 0.17282E-02    rms(broyden)= 0.17216E-02
  rms(prec ) = 0.18275E-02
  weight for this iteration     100.00

 eigenvalues of (default mixing * dielectric matrix)
  average eigenvalue GAMMA=   1.9108
  4.8136  2.6946  2.3739  1.4156  1.4156  0.6638  0.9546  0.9546

 Free energy of the ion-electron system (eV)
  ---------------------------------------------------
  alpha Z        PSCENC =         7.84443069
  Ewald energy   TEWEN  =      8645.14869488
  -Hartree energ DENC   =     -9317.38253938
  -exchange      EXHF   =         0.00000000
  -V(xc)+E(xc)   XCENC  =       -35.17120968
  PAW double counting   =       478.84884544     -403.04393862
  entropy T*S    EENTRO =        -0.00000000
  eigenvalues    EBANDS =      -169.07555191
  atomic energy  EATOM  =       771.06857575
  Solvation  Ediel_sol  =         0.00000000
  ---------------------------------------------------
  free energy    TOTEN  =       -21.76269283 eV

  energy without entropy =      -21.76269283  energy(sigma->0) =      -21.76269283


--------------------------------------------------------------------------------------------------------




--------------------------------------- Iteration      1(  14)  ---------------------------------------


    POTLOK:  cpu time    0.0200: real time    0.0229
    SETDIJ:  cpu time    0.0020: real time    0.0018
    EDDIAG:  cpu time    0.0250: real time    0.0253
  RMM-DIIS:  cpu time    0.0940: real time    0.0939
    ORTHCH:  cpu time    0.0030: real time    0.0029
       DOS:  cpu time    0.0010: real time    0.0016
    CHARGE:  cpu time    0.0110: real time    0.0110
    MIXING:  cpu time    0.0020: real time    0.0014
    --------------------------------------------
      LOOP:  cpu time    0.1580: real time    0.1608

 eigenvalue-minimisations  :   330
 total energy-change (2. order) :-0.1036596E-03  (-0.2731463E-05)
 number of electron      17.9999943 magnetization 
 augmentation part       -0.5604467 magnetization 

 Broyden mixing:
  rms(total) = 0.51511E-03    rms(broyden)= 0.49253E-03
  rms(prec ) = 0.58867E-03
  weight for this iteration     100.00

 eigenvalues of (default mixing * dielectric matrix)
  average eigenvalue GAMMA=   2.2181
  6.8355  3.0885  2.3497  2.3497  0.6638  1.5161  0.9873  0.9873  1.1853

 Free energy of the ion-electron system (eV)
  ---------------------------------------------------
  alpha Z        PSCENC =         7.84443069
  Ewald energy   TEWEN  =      8645.14869488
  -Hartree energ DENC   =     -9317.60157179
  -exchange      EXHF   =         0.00000000
  -V(xc)+E(xc)   XCENC  =       -35.17289288
  PAW double counting   =       478.63445069     -402.82470103
  entropy T*S    EENTRO =        -0.00000000
  eigenvalues    EBANDS =      -168.85978281
  atomic energy  EATOM  =       771.06857575
  Solvation  Ediel_sol  =         0.00000000
  ---------------------------------------------------
  free energy    TOTEN  =       -21.76279649 eV

  energy without entropy =      -21.76279649  energy(sigma->0) =      -21.76279649


--------------------------------------------------------------------------------------------------------




--------------------------------------- Iteration      1(  15)  ---------------------------------------


    POTLOK:  cpu time    0.0200: real time    0.0200
    SETDIJ:  cpu time    0.0020: real time    0.0018
    EDDIAG:  cpu time    0.0240: real time    0.0250
  RMM-DIIS:  cpu time    0.0800: real time    0.0796
    ORTHCH:  cpu time    0.0030: real time    0.0029
       DOS:  cpu time    0.0020: real time    0.0016
    CHARGE:  cpu time    0.0110: real time    0.0110
    MIXING:  cpu time    0.0010: real time    0.0015
    --------------------------------------------
      LOOP:  cpu time    0.1430: real time    0.1435

 eigenvalue-minimisations  :   285
 total energy-change (2. order) :-0.1899291E-03  (-0.1932677E-05)
 number of electron      17.9999943 magnetization 
 augmentation part       -0.5600041 magnetization 

 Broyden mixing:
  rms(total) = 0.38197E-03    rms(broyden)= 0.35118E-03
  rms(prec ) = 0.38831E-03
  weight for this iteration     100.00

 eigenvalues of (default mixing * dielectric matrix)
  average eigenvalue GAMMA=   2.1757
  6.7735  3.4996  2.6089  1.8187  1.6740  1.6740  0.6638  1.0429  1.0429  0.9586

 Free energy of the ion-electron system (eV)
  ---------------------------------------------------
  alpha Z        PSCENC =         7.84443069
  Ewald energy   TEWEN  =      8645.14869488
  -Hartree energ DENC   =     -9317.85710312
  -exchange      EXHF   =         0.00000000
  -V(xc)+E(xc)   XCENC  =       -35.17180777
  PAW double counting   =       478.67133241     -402.86255184
  entropy T*S    EENTRO =        -0.00000000
  eigenvalues    EBANDS =      -168.60455741
  atomic energy  EATOM  =       771.06857575
  Solvation  Ediel_sol  =         0.00000000
  ---------------------------------------------------
  free energy    TOTEN  =       -21.76298642 eV

  energy without entropy =      -21.76298642  energy(sigma->0) =      -21.76298642


--------------------------------------------------------------------------------------------------------




--------------------------------------- Iteration      1(  16)  ---------------------------------------


    POTLOK:  cpu time    0.0200: real time    0.0201
    SETDIJ:  cpu time    0.0020: real time    0.0018
    EDDIAG:  cpu time    0.0250: real time    0.0251
  RMM-DIIS:  cpu time    0.0760: real time    0.0757
    ORTHCH:  cpu time    0.0030: real time    0.0029
       DOS:  cpu time    0.0010: real time    0.0016
    CHARGE:  cpu time    0.0110: real time    0.0111
    MIXING:  cpu time    0.0020: real time    0.0016
    --------------------------------------------
      LOOP:  cpu time    0.1400: real time    0.1399

 eigenvalue-minimisations  :   246
 total energy-change (2. order) :-0.4909805E-04  (-0.2970943E-06)
 number of electron      17.9999943 magnetization 
 augmentation part       -0.5603172 magnetization 

 Broyden mixing:
  rms(total) = 0.23268E-03    rms(broyden)= 0.17774E-03
  rms(prec ) = 0.19679E-03
  weight for this iteration     100.00
  WARNING: grid for Broyden might be to small

 eigenvalues of (default mixing * dielectric matrix)
  average eigenvalue GAMMA=   2.3788
  7.6821  4.5005  2.9655  2.5889  2.1420  1.5077  0.6638  1.1997  1.0006  1.0006
  0.9153

 Free energy of the ion-electron system (eV)
  ---------------------------------------------------
  alpha Z        PSCENC =         7.84443069
  Ewald energy   TEWEN  =      8645.14869488
  -Hartree energ DENC   =     -9317.90761082
  -exchange      EXHF   =         0.00000000
  -V(xc)+E(xc)   XCENC  =       -35.17209998
  PAW double counting   =       478.70059032     -402.89202576
  entropy T*S    EENTRO =        -0.00000000
  eigenvalues    EBANDS =      -168.55359059
  atomic energy  EATOM  =       771.06857575
  Solvation  Ediel_sol  =         0.00000000
  ---------------------------------------------------
  free energy    TOTEN  =       -21.76303552 eV

  energy without entropy =      -21.76303552  energy(sigma->0) =      -21.76303552


--------------------------------------------------------------------------------------------------------




--------------------------------------- Iteration      1(  17)  ---------------------------------------


    POTLOK:  cpu time    0.0190: real time    0.0202
    SETDIJ:  cpu time    0.0030: real time    0.0019
    EDDIAG:  cpu time    0.0250: real time    0.0253
  RMM-DIIS:  cpu time    0.0650: real time    0.0648
    ORTHCH:  cpu time    0.0030: real time    0.0029
       DOS:  cpu time    0.0010: real time    0.0016
    CHARGE:  cpu time    0.0110: real time    0.0110
    MIXING:  cpu time    0.0010: real time    0.0017
    --------------------------------------------
      LOOP:  cpu time    0.1280: real time    0.1295

 eigenvalue-minimisations  :   204
 total energy-change (2. order) :-0.4583970E-04  (-0.2082384E-06)
 number of electron      17.9999943 magnetization 
 augmentation part       -0.5602411 magnetization 

 Broyden mixing:
  rms(total) = 0.19915E-03    rms(broyden)= 0.13088E-03
  rms(prec ) = 0.13779E-03
  weight for this iteration     100.00
  WARNING: grid for Broyden might be to small

 eigenvalues of (default mixing * dielectric matrix)
  average eigenvalue GAMMA=   2.2904
  7.8720  4.7388  2.9470  2.4813  2.1425  0.6638  1.4823  1.3424  1.0028  1.0028
  0.9219  0.8873

 Free energy of the ion-electron system (eV)
  ---------------------------------------------------
  alpha Z        PSCENC =         7.84443069
  Ewald energy   TEWEN  =      8645.14869488
  -Hartree energ DENC   =     -9317.94507700
  -exchange      EXHF   =         0.00000000
  -V(xc)+E(xc)   XCENC  =       -35.17212881
  PAW double counting   =       478.66929036     -402.86004090
  entropy T*S    EENTRO =        -0.00000000
  eigenvalues    EBANDS =      -168.51682633
  atomic energy  EATOM  =       771.06857575
  Solvation  Ediel_sol  =         0.00000000
  ---------------------------------------------------
  free energy    TOTEN  =       -21.76308136 eV

  energy without entropy =      -21.76308136  energy(sigma->0) =      -21.76308136


--------------------------------------------------------------------------------------------------------




--------------------------------------- Iteration      1(  18)  ---------------------------------------


    POTLOK:  cpu time    0.0200: real time    0.0198
    SETDIJ:  cpu time    0.0030: real time    0.0018
    EDDIAG:  cpu time    0.0250: real time    0.0251
  RMM-DIIS:  cpu time    0.0610: real time    0.0612
    ORTHCH:  cpu time    0.0020: real time    0.0029
       DOS:  cpu time    0.0020: real time    0.0016
    CHARGE:  cpu time    0.0110: real time    0.0111
    MIXING:  cpu time    0.0020: real time    0.0018
    --------------------------------------------
      LOOP:  cpu time    0.1260: real time    0.1255

 eigenvalue-minimisations  :   158
 total energy-change (2. order) :-0.3805152E-05  (-0.2021764E-07)
 number of electron      17.9999943 magnetization 
 augmentation part       -0.5602209 magnetization 

 Broyden mixing:
  rms(total) = 0.16299E-03    rms(broyden)= 0.63554E-04
  rms(prec ) = 0.67941E-04
  weight for this iteration     100.00
  WARNING: grid for Broyden might be to small

 eigenvalues of (default mixing * dielectric matrix)
  average eigenvalue GAMMA=   2.3793
  7.9107  5.6350  2.8062  2.8062  2.3090  2.0559  1.6068  0.6638  1.1282  1.1282
  1.0407  0.9568  0.8831

 Free energy of the ion-electron system (eV)
  ---------------------------------------------------
  alpha Z        PSCENC =         7.84443069
  Ewald energy   TEWEN  =      8645.14869488
  -Hartree energ DENC   =     -9317.94707433
  -exchange      EXHF   =         0.00000000
  -V(xc)+E(xc)   XCENC  =       -35.17209059
  PAW double counting   =       478.67683001     -402.86774151
  entropy T*S    EENTRO =        -0.00000000
  eigenvalues    EBANDS =      -168.51471006
  atomic energy  EATOM  =       771.06857575
  Solvation  Ediel_sol  =         0.00000000
  ---------------------------------------------------
  free energy    TOTEN  =       -21.76308516 eV

  energy without entropy =      -21.76308516  energy(sigma->0) =      -21.76308516


--------------------------------------------------------------------------------------------------------




--------------------------------------- Iteration      1(  19)  ---------------------------------------


    POTLOK:  cpu time    0.0200: real time    0.0199
    SETDIJ:  cpu time    0.0020: real time    0.0018
    EDDIAG:  cpu time    0.0250: real time    0.0252
  RMM-DIIS:  cpu time    0.0610: real time    0.0609
    ORTHCH:  cpu time    0.0030: real time    0.0029
       DOS:  cpu time    0.0010: real time    0.0016
    CHARGE:  cpu time    0.0110: real time    0.0110
    MIXING:  cpu time    0.0020: real time    0.0019
    --------------------------------------------
      LOOP:  cpu time    0.1250: real time    0.1253

 eigenvalue-minimisations  :   178
 total energy-change (2. order) :-0.6581431E-05  (-0.4481580E-07)
 number of electron      17.9999943 magnetization 
 augmentation part       -0.5602372 magnetization 

 Broyden mixing:
  rms(total) = 0.15637E-03    rms(broyden)= 0.43885E-04
  rms(prec ) = 0.45922E-04
  weight for this iteration     100.00
  WARNING: grid for Broyden might be to small

 eigenvalues of (default mixing * dielectric matrix)
  average eigenvalue GAMMA=   2.3945
  8.0902  5.8078  3.5110  2.7700  2.3664  1.8742  1.8742  1.5099  0.6638  1.1125
  1.1125  0.9593  0.9593  0.9118

 Free energy of the ion-electron system (eV)
  ---------------------------------------------------
  alpha Z        PSCENC =         7.84443069
  Ewald energy   TEWEN  =      8645.14869488
  -Hartree energ DENC   =     -9317.94839410
  -exchange      EXHF   =         0.00000000
  -V(xc)+E(xc)   XCENC  =       -35.17214382
  PAW double counting   =       478.68028361     -402.87129940
  entropy T*S    EENTRO =        -0.00000000
  eigenvalues    EBANDS =      -168.51323936
  atomic energy  EATOM  =       771.06857575
  Solvation  Ediel_sol  =         0.00000000
  ---------------------------------------------------
  free energy    TOTEN  =       -21.76309174 eV

  energy without entropy =      -21.76309174  energy(sigma->0) =      -21.76309174


--------------------------------------------------------------------------------------------------------




--------------------------------------- Iteration      1(  20)  ---------------------------------------


    POTLOK:  cpu time    0.0200: real time    0.0199
    SETDIJ:  cpu time    0.0020: real time    0.0018
    EDDIAG:  cpu time    0.0250: real time    0.0251
  RMM-DIIS:  cpu time    0.0550: real time    0.0542
    ORTHCH:  cpu time    0.0020: real time    0.0029
       DOS:  cpu time    0.0020: real time    0.0016
    CHARGE:  cpu time    0.0110: real time    0.0110
    MIXING:  cpu time    0.0020: real time    0.0021
    --------------------------------------------
      LOOP:  cpu time    0.1190: real time    0.1186

 eigenvalue-minimisations  :   128
 total energy-change (2. order) :-0.1033736E-05  (-0.6687212E-08)
 number of electron      17.9999943 magnetization 
 augmentation part       -0.5602268 magnetization 

 Broyden mixing:
  rms(total) = 0.15032E-03    rms(broyden)= 0.85210E-05
  rms(prec ) = 0.98516E-05
  weight for this iteration     100.00
  WARNING: grid for Broyden might be to small

 eigenvalues of (default mixing * dielectric matrix)
  average eigenvalue GAMMA=   2.4308
  8.2772  6.1550  4.0807  2.8913  2.6453  2.1537  1.7286  1.7286  0.6638  1.1598
  1.1598  1.0308  0.9560  0.9159  0.9159

 Free energy of the ion-electron system (eV)
  ---------------------------------------------------
  alpha Z        PSCENC =         7.84443069
  Ewald energy   TEWEN  =      8645.14869488
  -Hartree energ DENC   =     -9317.95358336
  -exchange      EXHF   =         0.00000000
  -V(xc)+E(xc)   XCENC  =       -35.17210031
  PAW double counting   =       478.67834259     -402.86933894
  entropy T*S    EENTRO =        -0.00000000
  eigenvalues    EBANDS =      -168.50811409
  atomic energy  EATOM  =       771.06857575
  Solvation  Ediel_sol  =         0.00000000
  ---------------------------------------------------
  free energy    TOTEN  =       -21.76309278 eV

  energy without entropy =      -21.76309278  energy(sigma->0) =      -21.76309278


--------------------------------------------------------------------------------------------------------




--------------------------------------- Iteration      1(  21)  ---------------------------------------


    POTLOK:  cpu time    0.0200: real time    0.0205
    SETDIJ:  cpu time    0.0020: real time    0.0018
    EDDIAG:  cpu time    0.0250: real time    0.0250
  RMM-DIIS:  cpu time    0.0470: real time    0.0471
    ORTHCH:  cpu time    0.0020: real time    0.0029
       DOS:  cpu time    0.0020: real time    0.0016
    --------------------------------------------
      LOOP:  cpu time    0.0980: real time    0.0990

 eigenvalue-minimisations  :    72
 total energy-change (2. order) :-0.4267968E-06  (-0.1048705E-08)
 number of electron      17.9999943 magnetization 
 augmentation part       -0.5602268 magnetization 

 Free energy of the ion-electron system (eV)
  ---------------------------------------------------
  alpha Z        PSCENC =         7.84443069
  Ewald energy   TEWEN  =      8645.14869488
  -Hartree energ DENC   =     -9317.95544114
  -exchange      EXHF   =         0.00000000
  -V(xc)+E(xc)   XCENC  =       -35.17209691
  PAW double counting   =       478.67980794     -402.87082481
  entropy T*S    EENTRO =        -0.00000000
  eigenvalues    EBANDS =      -168.50623961
  atomic energy  EATOM  =       771.06857575
  Solvation  Ediel_sol  =         0.00000000
  ---------------------------------------------------
  free energy    TOTEN  =       -21.76309320 eV

  energy without entropy =      -21.76309320  energy(sigma->0) =      -21.76309320


--------------------------------------------------------------------------------------------------------




 average (electrostatic) potential at core
  the test charge radii are     1.2296  0.9698
  (the norm of the test charge is              1.0000)
       1 -47.8268       2 -95.6792       3 -95.6791
 
 
 
 E-fermi :  -3.5500     XC(G=0):  -1.8825     alpha+bet : -1.6720


 k-point     1 :       0.0000    0.0000    0.0000
  band No.  band energies     occupation 
      1     -18.4089      2.00000
      2     -17.2006      2.00000
      3      -9.9188      2.00000
      4      -6.9566      2.00000
      5      -6.9564      2.00000
      6      -6.0974      2.00000
      7      -5.8497      2.00000
      8      -5.8493      2.00000
      9      -4.3745      2.00000
     10      -1.6005      0.00000
     11      -1.5997      0.00000
     12      -1.3779      0.00000
     13      -1.3772      0.00000
     14       1.0317      0.00000

 k-point     2 :       0.1250    0.0000    0.0000
  band No.  band energies     occupation 
      1     -18.1949      2.00000
      2     -17.0981      2.00000
      3      -9.6740      2.00000
      4      -7.4213      2.00000
      5      -6.9041      2.00000
      6      -6.7227      2.00000
      7      -6.1858      2.00000
      8      -5.4184      2.00000
      9      -4.5135      2.00000
     10      -1.8831      0.00000
     11      -1.8166      0.00000
     12      -1.6151      0.00000
     13      -1.2465      0.00000
     14       1.3988      0.00000

 k-point     3 :       0.2500    0.0000    0.0000
  band No.  band energies     occupation 
      1     -17.6264      2.00000
      2     -16.8292      2.00000
      3      -9.3080      2.00000
      4      -8.1496      2.00000
      5      -7.8858      2.00000
      6      -6.8223      2.00000
      7      -6.1368      2.00000
      8      -5.6706      2.00000
      9      -5.0820      2.00000
     10      -2.2075      0.00000
     11      -2.0321      0.00000
     12      -1.4893      0.00000
     13      -0.6313      0.00000
     14       2.2208      0.00000

 k-point     4 :       0.3750   -0.0000    0.0000
  band No.  band energies     occupation 
      1     -16.9514      2.00000
      2     -16.5207      2.00000
      3      -9.7472      2.00000
      4      -8.7545      2.00000
      5      -8.2806      2.00000
      6      -7.3209      2.00000
      7      -6.0792      2.00000
      8      -5.5468      2.00000
      9      -5.2761      2.00000
     10      -2.2147      0.00000
     11      -1.9349      0.00000
     12      -0.7704      0.00000
     13      -0.2386      0.00000
     14       2.7856      0.00000

 k-point     5 :       0.5000    0.0000    0.0000
  band No.  band energies     occupation 
      1     -16.6231      2.00000
      2     -16.3773      2.00000
      3     -10.0801      2.00000
      4      -9.1208      2.00000
      5      -8.4063      2.00000
      6      -7.5019      2.00000
      7      -6.2175      2.00000
      8      -5.3198      2.00000
      9      -4.9946      2.00000
     10      -2.1931      0.00000
     11      -1.6784      0.00000
     12      -0.4705      0.00000
     13      -0.1230      0.00000
     14       1.8313      0.00000

 k-point     6 :       0.1250    0.1250    0.0000
  band No.  band energies     occupation 
      1     -17.8022      2.00000
      2     -16.9110      2.00000
      3      -9.3266      2.00000
      4      -7.9865      2.00000
      5      -7.4669      2.00000
      6      -7.0003      2.00000
      7      -6.3840      2.00000
      8      -5.2836      2.00000
      9      -4.8862      2.00000
     10      -2.2825      0.00000
     11      -1.9050      0.00000
     12      -1.8927      0.00000
     13      -0.6521      0.00000
     14       2.0206      0.00000

 k-point     7 :       0.2500    0.1250    0.0000
  band No.  band energies     occupation 
      1     -17.1688      2.00000
      2     -16.6124      2.00000
      3      -9.3906      2.00000
      4      -8.4130      2.00000
      5      -8.1497      2.00000
      6      -7.5056      2.00000
      7      -6.2850      2.00000
      8      -5.6466      2.00000
      9      -5.1699      2.00000
     10      -2.3662      0.00000
     11      -1.9194      0.00000
     12      -1.4226      0.00000
     13      -0.1466      0.00000
     14       2.9747      0.00000

 k-point     8 :       0.3750    0.1250    0.0000
  band No.  band energies     occupation 
      1     -16.6384      2.00000
      2     -16.3684      2.00000
      3      -9.7924      2.00000
      4      -9.1766      2.00000
      5      -8.2786      2.00000
      6      -7.5230      2.00000
      7      -6.2698      2.00000
      8      -6.1277      2.00000
      9      -4.8430      2.00000
     10      -2.1741      0.00000
     11      -1.6639      0.00000
     12      -0.7985      0.00000
     13      -0.1125      0.00000
     14       2.3570      0.00000

 k-point     9 :       0.2500    0.2500    0.0000
  band No.  band energies     occupation 
      1     -16.6534      2.00000
      2     -16.3595      2.00000
      3      -9.4318      2.00000
      4      -9.2266      2.00000
      5      -7.9523      2.00000
      6      -7.5715      2.00000
      7      -7.2524      2.00000
      8      -5.9948      2.00000
      9      -4.8730      2.00000
     10      -2.2249      0.00000
     11      -1.6133      0.00000
     12      -1.2970      0.00000
     13       0.1713      0.00000
     14       3.1870      0.00000

 k-point    10 :       0.3750    0.2500    0.0000
  band No.  band energies     occupation 
      1     -16.4185      2.00000
      2     -16.2405      2.00000
      3      -9.6113      2.00000
      4      -9.2627      2.00000
      5      -8.2358      2.00000
      6      -7.5740      2.00000
      7      -7.3456      2.00000
      8      -6.3804      2.00000
      9      -4.5056      2.00000
     10      -2.5512      0.00000
     11      -1.2361      0.00000
     12      -1.0640      0.00000
     13       0.3146      0.00000
     14       2.6005      0.00000


--------------------------------------------------------------------------------------------------------


 soft charge-density along one line, spin component           1
         0         1         2         3         4         5         6         7         8         9
 total charge-density along one line
 
 pseudopotential strength for first ion, spin component:           1
-10.240  -0.000  -0.000   0.000  -0.000   0.128   0.000   0.000
 -0.000 -10.240  -0.000  -0.000  -0.000   0.000   0.128   0.000
 -0.000  -0.000 -10.219  -0.000   0.000   0.000   0.000   0.126
  0.000  -0.000  -0.000 -10.240   0.000  -0.000   0.000   0.000
 -0.000  -0.000   0.000   0.000 -10.240   0.000   0.000  -0.000
  0.128   0.000   0.000  -0.000   0.000   0.096  -0.000  -0.000
  0.000   0.128   0.000   0.000   0.000  -0.000   0.096  -0.000
  0.000   0.000   0.126   0.000  -0.000  -0.000  -0.000   0.096
 -0.000   0.000   0.000   0.128  -0.000   0.000   0.000  -0.000
  0.000   0.000  -0.000  -0.000   0.128  -0.000  -0.000   0.000
 -0.000  -0.000  -0.005  -0.000   0.000   0.000   0.000   0.000
  0.000   0.000   0.001   0.000  -0.000  -0.000  -0.000  -0.000
 -0.000  -0.000  -0.000  -0.000  -0.007   0.000   0.000   0.000
 -0.000   0.000  -0.000  -0.000  -0.000  -0.000  -0.000   0.000
 -0.007  -0.000   0.000  -0.000  -0.000  -0.000  -0.000  -0.000
  0.000   0.000   0.000   0.000   0.004  -0.000  -0.000  -0.000
  0.000  -0.000   0.000   0.000   0.000  -0.000   0.000  -0.000
  0.004   0.000  -0.000   0.000   0.000   0.000  -0.000   0.000
 total augmentation occupancy for first ion, spin component:           1
  0.970  -0.000  -0.000  -0.000   0.000   0.662   0.000  -0.000   0.000   0.000  -0.000   0.000   0.000  -0.000  -0.066  -0.000
  0.000   0.911  -0.000   0.000   0.000   0.000   0.897  -0.000   0.000   0.000   0.000   0.000   0.000   0.000   0.000   0.000
 -0.000   0.000   1.035   0.000   0.000  -0.000  -0.000   0.567   0.000   0.000   0.111  -0.019  -0.000  -0.000   0.000   0.000
  0.000   0.000   0.000   0.911  -0.000   0.000   0.000  -0.000   0.897   0.000   0.000  -0.000  -0.000  -0.000   0.000   0.000
  0.000   0.000   0.000  -0.000   0.970   0.000   0.000   0.000   0.000   0.662   0.000  -0.000  -0.066   0.000  -0.000   0.007
  0.662   0.000  -0.000  -0.000   0.000   0.769   0.000  -0.000  -0.000   0.000   0.000   0.000   0.000   0.000  -0.143  -0.000
  0.000   0.897   0.000   0.000   0.000   0.000   1.205   0.000   0.000  -0.000   0.000   0.000  -0.000   0.000  -0.000  -0.000
 -0.000   0.000   0.567   0.000   0.000  -0.000   0.000   0.550   0.000   0.000   0.066  -0.023  -0.000   0.000   0.000   0.000
  0.000   0.000   0.000   0.897   0.000   0.000   0.000  -0.000   1.205  -0.000   0.000   0.000   0.000   0.000  -0.000   0.000
  0.000   0.000   0.000   0.000   0.662   0.000   0.000   0.000   0.000   0.769   0.000  -0.000  -0.143   0.000  -0.000   0.024
 -0.000   0.000   0.111   0.000   0.000   0.000   0.000   0.066  -0.000   0.000   1.210  -0.183   0.000   0.000   0.000   0.000
  0.000   0.000  -0.019   0.000  -0.000   0.000   0.000  -0.023   0.000  -0.000  -0.183   0.041  -0.000   0.000  -0.000   0.000
  0.000   0.000  -0.000   0.000  -0.066   0.000   0.000  -0.000   0.000  -0.143   0.000  -0.000   0.217   0.000   0.000  -0.033
  0.000   0.000  -0.000  -0.000  -0.000  -0.000   0.000   0.000   0.000   0.000   0.000   0.000   0.000   0.265  -0.000   0.000
 -0.066   0.000   0.000   0.000  -0.000  -0.143   0.000   0.000  -0.000  -0.000   0.000  -0.000   0.000  -0.000   0.217  -0.000
 -0.000  -0.000   0.000   0.000   0.007  -0.000   0.000   0.000   0.000   0.024   0.000   0.000  -0.033  -0.000  -0.000   0.005
  0.000  -0.000   0.000   0.000  -0.000  -0.000   0.000   0.000  -0.000   0.000  -0.000  -0.000   0.000  -0.039   0.000   0.000
  0.007   0.000  -0.000   0.000   0.000   0.024   0.000  -0.000  -0.000   0.000  -0.000  -0.000  -0.000  -0.000  -0.033   0.000


------------------------ aborting loop because EDIFF is reached ----------------------------------------


 


 total charge     
 
# of ion       s       p       d       tot
------------------------------------------
    1        0.414   0.593   4.443   5.450
    2        1.366   2.356   0.000   3.722
    3        1.366   2.356   0.000   3.722
--------------------------------------------------
tot          3.145   5.305   4.443  12.894
 
    CHARGE:  cpu time    0.0110: real time    0.0110
    FORLOC:  cpu time    0.0020: real time    0.0022
    FORNL :  cpu time    0.0390: real time    0.0388
    STRESS:  cpu time    0.1190: real time    0.1195
    FORCOR:  cpu time    0.0230: real time    0.0228
    FORHAR:  cpu time    0.0060: real time    0.0054
    MIXING:  cpu time    0.0020: real time    0.0022
    OFIELD:  cpu time    0.0000: real time    0.0000

  DFT-D2 method for vdW energy calculation
  -------------------------------------------------------------------

  Parameters of vdW forcefield:
         C6(Jnm^6/mol)     R0(A)
   -----------------------------
   Mo      24.670          1.639
   S        5.570          1.683

  IVDW =   1
  VDW_RADIUS =    50.000 A
  VDW_S6 =     0.750
  VDW_SR =     1.000
  VDW_D =    20.000
  LVDW_EWALD = F

  Number of pair interactions contributing to vdW energy:    8175
  Edisp (eV):   -0.59069
    FORVDW:  cpu time    0.0130: real time    0.0163

  FORCE on cell =-STRESS in cart. coord.  units (eV):
  Direction    XX          YY          ZZ          XY          YZ          ZX
  --------------------------------------------------------------------------------------
  Alpha Z     7.84443     7.84443     7.84443
  Ewald    9212.01488  9212.01532 -9778.88171     0.00019     0.00000     0.00012
  Hartree  9279.71813  9279.71814 -9241.47694     0.00002     0.00000    -0.00000
  E(xc)     -70.33543   -70.33540   -70.93947     0.00003    -0.00003    -0.00002
  Local  -18768.49889-18768.50047 18737.59096    -0.00129    -0.00029    -0.00022
  n-local   127.30842   125.92303   131.84728    -0.26547    -0.00001     0.00002
  augment   -25.66769   -25.66725   -26.76925     0.00039    -0.00002    -0.00001
  Kinetic   236.13599   238.93254   240.02562    -7.43140     0.00008     0.00008
  Fock        0.00000     0.00000     0.00000     0.00000     0.00000     0.00000
  vdW         0.16061     0.16061    -0.13334     0.00000     0.00000    -0.00000
  -------------------------------------------------------------------------------------
  Total      -0.61431    -0.61431    -0.89242    -0.00000     0.00000     0.00000
  in kB      -2.60407    -2.60407    -3.78299    -0.00000     0.00000     0.00000
  external pressure =       -3.00 kB  Pullay stress =        0.00 kB


 VOLUME and BASIS-vectors are now :
 -----------------------------------------------------------------------------
  energy-cutoff  :      250.00
  volume of cell :      377.96
      direct lattice vectors                 reciprocal lattice vectors
     3.190315730  0.000000000  0.000000000     0.313448600  0.180969634  0.000000000
    -1.595157865  2.762894468  0.000000000     0.000000000  0.361939267  0.000000000
     0.000000000  0.000000000 42.879004300     0.000000000  0.000000000  0.023321437

  length of vectors
     3.190315730  3.190315730 42.879004300     0.361939267  0.361939267  0.023321437


 FORCES acting on ions
    electron-ion (+dipol)            ewald-force                    non-local-force                 convergence-correction
 -----------------------------------------------------------------------------------------------
   -.102E-04 -.290E-05 -.480E-04   0.931E-04 -.108E-03 0.410E-06   0.139E-16 0.208E-16 0.000E+00   -.950E-10 -.118E-09 0.758E-07
   -.122E-02 -.198E-04 0.627E+03   -.864E-04 0.538E-04 -.632E+03   -.156E-16 0.278E-16 0.496E+01   -.210E-09 0.249E-09 -.480E-03
   0.112E-02 0.107E-02 -.627E+03   -.674E-05 0.538E-04 0.632E+03   -.139E-16 0.226E-16 -.496E+01   -.169E-09 0.326E-09 0.480E-03
 -----------------------------------------------------------------------------------------------
   -.104E-03 0.104E-02 -.742E-04   0.249E-14 -.185E-13 0.000E+00   -.156E-16 0.711E-16 -.888E-15   -.475E-09 0.457E-09 0.205E-06
 
 
 POSITION                                       TOTAL-FORCE (eV/Angst)
 -----------------------------------------------------------------------------------
     -0.00000      1.84193      3.71975         0.000000     -0.000000     -0.000000
      1.59516      0.92096      2.15487        -0.000000      0.000000      0.107284
      1.59516      0.92096      5.28464         0.000000      0.000000     -0.107284
 -----------------------------------------------------------------------------------
    total drift:                               -0.000104      0.001042     -0.000074


--------------------------------------------------------------------------------------------------------



  FREE ENERGIE OF THE ION-ELECTRON SYSTEM (eV)
  ---------------------------------------------------
  free  energy   TOTEN  =       -22.35378370 eV

  energy  without entropy=      -22.35378370  energy(sigma->0) =      -22.35378370
 


--------------------------------------------------------------------------------------------------------


    POTLOK:  cpu time    0.0220: real time    0.0221


--------------------------------------------------------------------------------------------------------


     LOOP+:  cpu time    3.5505: real time    4.5505
    4ORBIT:  cpu time    0.0000: real time    0.0000
 


 total charge     
 
# of ion       s       p       d       tot
------------------------------------------
    1        0.414   0.593   4.443   5.450
    2        1.366   2.356   0.000   3.722
    3        1.366   2.356   0.000   3.722
--------------------------------------------------
tot          3.145   5.305   4.443  12.894
 

 total amount of memory used by VASP MPI-rank0    37524. kBytes
=======================================================================

   base      :      30000. kBytes
   nonlr-proj:        344. kBytes
   fftplans  :       1997. kBytes
   grid      :       3206. kBytes
   one-center:         31. kBytes
   wavefun   :       1946. kBytes
 
  
  
 General timing and accounting informations for this job:
 ========================================================
  
                  Total CPU time used (sec):        4.698
                            User time (sec):        4.601
                          System time (sec):        0.097
                         Elapsed time (sec):        8.147
  
                   Maximum memory used (kb):       32912.
                   Average memory used (kb):           0.
  
                          Minor page faults:         8380
                          Major page faults:          110
                 Voluntary context switches:         2568
