perl: warning: Setting locale failed.
perl: warning: Please check that your locale settings:
	LANGUAGE = (unset),
	LC_ALL = (unset),
	LC_CTYPE = "UTF-8",
	LANG = "en_US.iso885915"
    are supported and installed on your system.
perl: warning: Falling back to the standard locale ("C").
Starting job 28532617 ("jobname") on c15-25 at Fri Nov 8 11:48:46 CET 2019
 running on    4 total cores
 distrk:  each k-point on    4 cores,    1 groups
 distr:  one band on    2 cores,    2 groups
 using from now: INCAR     
 vasp.5.4.4.18Apr17-6-g9f103f2a35 (build Jun 30 2017 11:15:00) complex          
  
 POSCAR found type information on POSCAR  Mo S 
 POSCAR found :  2 types and       3 ions
 scaLAPACK will be used

 ----------------------------------------------------------------------------- 
|                                                                             |
|  ADVICE TO THIS USER RUNNING 'VASP/VAMP'   (HEAR YOUR MASTER'S VOICE ...):  |
|                                                                             |
|      You have a (more or less) 'small supercell' and for smaller cells      |
|      it is recommended  to use the reciprocal-space projection scheme!      |
|      The real space optimization is not  efficient for small cells and it   |
|      is also less accurate ...                                              |
|      Therefore set LREAL=.FALSE. in the  INCAR file                         |
|                                                                             |
 ----------------------------------------------------------------------------- 

 LDA part: xc-table for Pade appr. of Perdew
 POSCAR, INCAR and KPOINTS ok, starting setup
 FFT: planning ...
 WAVECAR not read
 entering main loop
       N       E                     dE             d eps       ncg     rms          rms(c)
DAV:   1     0.879768603821E+02    0.87977E+02   -0.42728E+03   328   0.487E+02
DAV:   2    -0.119691147514E+02   -0.99946E+02   -0.92199E+02   452   0.126E+02
DAV:   3    -0.231474536077E+02   -0.11178E+02   -0.11057E+02   394   0.559E+01
DAV:   4    -0.233660851905E+02   -0.21863E+00   -0.21634E+00   388   0.910E+00
DAV:   5    -0.233704953175E+02   -0.44101E-02   -0.44075E-02   352   0.127E+00    0.691E+00
RMM:   6    -0.222102969864E+02    0.11602E+01   -0.54088E+00   295   0.116E+01    0.263E+00
RMM:   7    -0.218291246048E+02    0.38117E+00   -0.58337E-01   292   0.334E+00    0.155E+00
RMM:   8    -0.217677978986E+02    0.61327E-01   -0.23472E-01   305   0.246E+00    0.347E-01
RMM:   9    -0.217630698920E+02    0.47280E-02   -0.82890E-03   335   0.549E-01    0.915E-02
RMM:  10    -0.217623899854E+02    0.67991E-03   -0.15224E-03   337   0.203E-01    0.429E-02
RMM:  11    -0.217623088702E+02    0.81115E-04   -0.14950E-03   321   0.169E-01    0.468E-02
RMM:  12    -0.217622343238E+02    0.74546E-04   -0.41917E-04   314   0.109E-01    0.146E-02
RMM:  13    -0.217626928313E+02   -0.45851E-03   -0.14415E-04   311   0.589E-02    0.173E-02
RMM:  14    -0.217627964909E+02   -0.10366E-03   -0.27315E-05   330   0.255E-02    0.515E-03
RMM:  15    -0.217629864200E+02   -0.18993E-03   -0.19327E-05   285   0.162E-02    0.382E-03
RMM:  16    -0.217630355181E+02   -0.49098E-04   -0.29709E-06   246   0.702E-03    0.233E-03
RMM:  17    -0.217630813578E+02   -0.45840E-04   -0.20824E-06   204   0.684E-03    0.199E-03
RMM:  18    -0.217630851629E+02   -0.38052E-05   -0.20218E-07   158   0.282E-03    0.163E-03
RMM:  19    -0.217630917444E+02   -0.65814E-05   -0.44816E-07   178   0.326E-03    0.156E-03
RMM:  20    -0.217630927781E+02   -0.10337E-05   -0.66872E-08   128   0.168E-03    0.150E-03
RMM:  21    -0.217630932049E+02   -0.42680E-06   -0.10487E-08    72   0.921E-04
   1 F= -.22353784E+02 E0= -.22353784E+02  d E =-.758055E-10

Currently Loaded Modulefiles:
  1) Anaconda3/5.1.0       3) vesta/3.3.8           5) intel/2016.1
  2) gnuplot/5.0.4         4) imagemagick/6.7.9-0   6) vasp/5.4.1.Feb16

Job script resource usage:
       JobID  MaxVMSize     MaxRSS 
------------ ---------- ---------- 
28532617.ba+    216888K      2126K 

Job step resource usage:
       JobID    JobName  AllocCPUS  MaxVMSize     MaxRSS    Elapsed ExitCode 
------------ ---------- ---------- ---------- ---------- ---------- -------- 
28532617        jobname          4                         00:00:11      0:0 
28532617.0    pmi_proxy          1    279832K       522K   00:00:08      0:0 

Job 28532617 ("jobname") completed on c15-25 at Fri Nov 8 11:48:55 CET 2019
