<?xml version="1.0" encoding="ISO-8859-1"?>
<modeling>
 <generator>
  <i name="program" type="string">vasp </i>
  <i name="version" type="string">5.4.4.18Apr17-6-g9f103f2a35  </i>
  <i name="subversion" type="string">(build Jun 30 2017 11:15:00) complex            parallel </i>
  <i name="platform" type="string">STALLO_VASP_5.4.4 </i>
  <i name="date" type="string">2019 11 08 </i>
  <i name="time" type="string">11:48:47 </i>
 </generator>
 <incar>
  <i type="string" name="PREC">normal    ! low/normal/accurate</i>
  <i type="string" name="ALGO"> Fast      ! Algorithm for electronic re</i>
  <i type="int" name="ISPIN">     1</i>
  <i type="int" name="NELMIN">     4</i>
  <i name="EDIFF">      0.00000100</i>
  <i type="int" name="NSW">     0</i>
  <i name="ENCUT">    250.00000000</i>
  <i type="int" name="NEDOS">  2401</i>
  <i type="string" name="LREAL"> Auto      ! Projection in reciprocal sp</i>
  <i name="EMIN">    -12.00000000</i>
  <i name="EMAX">     12.00000000</i>
  <i type="int" name="ISMEAR">     0</i>
  <i name="SIGMA">      0.20000000</i>
  <i type="logical" name="LWAVE"> F  </i>
  <i type="int" name="LORBIT">    11</i>
  <i type="logical" name="LELF"> T  </i>
  <v type="int" name="KPOINT_BSE">    -1     0     0     0</v>
 </incar>
 <structure name="primitive_cell" >
  <crystal>
   <varray name="basis" >
    <v>       3.19031573       0.00000000       0.00000000 </v>
    <v>      -1.59515786       2.76289447       0.00000000 </v>
    <v>       0.00000000       0.00000000      42.87900430 </v>
   </varray>
   <i name="volume">    377.95722706 </i>
   <varray name="rec_basis" >
    <v>       0.31344860       0.18096963       0.00000000 </v>
    <v>       0.00000000       0.36193927       0.00000000 </v>
    <v>       0.00000000       0.00000000       0.02332144 </v>
   </varray>
  </crystal>
  <varray name="positions" >
   <v>       0.33333300      -0.33333300       0.08674994 </v>
   <v>      -0.33333400       0.33333300       0.12324529 </v>
   <v>      -0.33333300       0.33333300       0.05025459 </v>
  </varray>
 </structure>
 <varray name="primitive_index" >
  <v type="int" >        1 </v>
  <v type="int" >        3 </v>
  <v type="int" >        2 </v>
 </varray>
 <kpoints>
  <generation param="Gamma">
   <v type="int" name="divisions">       8        8        1 </v>
   <v name="usershift">      0.00000000       0.00000000       0.00000000 </v>
   <v name="genvec1">      0.12500000       0.00000000       0.00000000 </v>
   <v name="genvec2">      0.00000000       0.12500000       0.00000000 </v>
   <v name="genvec3">      0.00000000       0.00000000       1.00000000 </v>
   <v name="shift">      0.00000000       0.00000000       0.00000000 </v>
  </generation>
  <varray name="kpointlist" >
   <v>       0.00000000       0.00000000       0.00000000 </v>
   <v>       0.12500000       0.00000000       0.00000000 </v>
   <v>       0.25000000       0.00000000       0.00000000 </v>
   <v>       0.37500000      -0.00000000       0.00000000 </v>
   <v>       0.50000000       0.00000000       0.00000000 </v>
   <v>       0.12500000       0.12500000       0.00000000 </v>
   <v>       0.25000000       0.12500000       0.00000000 </v>
   <v>       0.37500000       0.12500000       0.00000000 </v>
   <v>       0.25000000       0.25000000       0.00000000 </v>
   <v>       0.37500000       0.25000000       0.00000000 </v>
  </varray>
  <varray name="weights" >
   <v>       0.01562500 </v>
   <v>       0.09375000 </v>
   <v>       0.09375000 </v>
   <v>       0.09375000 </v>
   <v>       0.04687500 </v>
   <v>       0.09375000 </v>
   <v>       0.18750000 </v>
   <v>       0.18750000 </v>
   <v>       0.09375000 </v>
   <v>       0.09375000 </v>
  </varray>
 </kpoints>
 <parameters>
  <separator name="general" >
   <i type="string" name="SYSTEM">unknown system</i>
   <i type="logical" name="LCOMPAT"> F  </i>
  </separator>
  <separator name="electronic" >
   <i type="string" name="PREC">normal</i>
   <i name="ENMAX">    250.00000000</i>
   <i name="ENAUG">    345.27800000</i>
   <i name="EDIFF">      0.00000100</i>
   <i type="int" name="IALGO">    68</i>
   <i type="int" name="IWAVPR">    10</i>
   <i type="int" name="NBANDS">    14</i>
   <i name="NELECT">     18.00000000</i>
   <i type="int" name="TURBO">     0</i>
   <i type="int" name="IRESTART">     0</i>
   <i type="int" name="NREBOOT">     0</i>
   <i type="int" name="NMIN">     0</i>
   <i name="EREF">      0.00000000</i>
   <separator name="electronic smearing" >
    <i type="int" name="ISMEAR">     0</i>
    <i name="SIGMA">      0.20000000</i>
    <i name="KSPACING">      0.50000000</i>
    <i type="logical" name="KGAMMA"> T  </i>
   </separator>
   <separator name="electronic projectors" >
    <i type="logical" name="LREAL"> T  </i>
    <v name="ROPT">     -0.00050000     -0.00050000</v>
    <i type="int" name="LMAXPAW">  -100</i>
    <i type="int" name="LMAXMIX">     2</i>
    <i type="logical" name="NLSPLINE"> F  </i>
   </separator>
   <separator name="electronic startup" >
    <i type="int" name="ISTART">     0</i>
    <i type="int" name="ICHARG">     2</i>
    <i type="int" name="INIWAV">     1</i>
   </separator>
   <separator name="electronic spin" >
    <i type="int" name="ISPIN">     1</i>
    <i type="logical" name="LNONCOLLINEAR"> F  </i>
    <v name="MAGMOM">      1.00000000      1.00000000      1.00000000</v>
    <i name="NUPDOWN">     -1.00000000</i>
    <i type="logical" name="LSORBIT"> F  </i>
    <v name="SAXIS">      0.00000000      0.00000000      1.00000000</v>
    <i type="logical" name="LSPIRAL"> F  </i>
    <v name="QSPIRAL">      0.00000000      0.00000000      0.00000000</v>
    <i type="logical" name="LZEROZ"> F  </i>
   </separator>
   <separator name="electronic exchange-correlation" >
    <i type="logical" name="LASPH"> F  </i>
    <i type="logical" name="LMETAGGA"> F  </i>
   </separator>
   <separator name="electronic convergence" >
    <i type="int" name="NELM">    60</i>
    <i type="int" name="NELMDL">    -5</i>
    <i type="int" name="NELMIN">     4</i>
    <i name="ENINI">    250.00000000</i>
    <separator name="electronic convergence detail" >
     <i type="logical" name="LDIAG"> T  </i>
     <i type="logical" name="LSUBROT"> F  </i>
     <i name="WEIMIN">      0.00000000</i>
     <i name="EBREAK">      0.00000002</i>
     <i name="DEPER">      0.30000000</i>
     <i type="int" name="NRMM">     4</i>
     <i name="TIME">      0.40000000</i>
    </separator>
   </separator>
   <separator name="electronic mixer" >
    <i name="AMIX">      0.40000000</i>
    <i name="BMIX">      1.00000000</i>
    <i name="AMIN">      0.10000000</i>
    <i name="AMIX_MAG">      1.60000000</i>
    <i name="BMIX_MAG">      1.00000000</i>
    <separator name="electronic mixer details" >
     <i type="int" name="IMIX">     4</i>
     <i type="logical" name="MIXFIRST"> F  </i>
     <i type="int" name="MAXMIX">   -45</i>
     <i name="WC">    100.00000000</i>
     <i type="int" name="INIMIX">     1</i>
     <i type="int" name="MIXPRE">     1</i>
     <i type="int" name="MREMOVE">     5</i>
    </separator>
   </separator>
   <separator name="electronic dipolcorrection" >
    <i type="logical" name="LDIPOL"> F  </i>
    <i type="logical" name="LMONO"> F  </i>
    <i type="int" name="IDIPOL">     0</i>
    <i name="EPSILON">      1.00000000</i>
    <v name="DIPOL">   -100.00000000   -100.00000000   -100.00000000</v>
    <i name="EFIELD">      0.00000000</i>
   </separator>
  </separator>
  <separator name="grids" >
   <i type="int" name="NGX">    12</i>
   <i type="int" name="NGY">    12</i>
   <i type="int" name="NGZ">   168</i>
   <i type="int" name="NGXF">    24</i>
   <i type="int" name="NGYF">    24</i>
   <i type="int" name="NGZF">   336</i>
   <i type="logical" name="ADDGRID"> F  </i>
  </separator>
  <separator name="ionic" >
   <i type="int" name="NSW">     0</i>
   <i type="int" name="IBRION">    -1</i>
   <i type="int" name="MDALGO">     0</i>
   <i type="int" name="ISIF">     2</i>
   <i name="PSTRESS">      0.00000000</i>
   <i name="EDIFFG">      0.00001000</i>
   <i type="int" name="NFREE">     0</i>
   <i name="POTIM">      0.50000000</i>
   <i name="SMASS">     -3.00000000</i>
   <i name="SCALEE">      1.00000000</i>
  </separator>
  <separator name="ionic md" >
   <i name="TEBEG">      0.00010000</i>
   <i name="TEEND">      0.00010000</i>
   <i type="int" name="NBLOCK">     1</i>
   <i type="int" name="KBLOCK">     1</i>
   <i type="int" name="NPACO">   256</i>
   <i name="APACO">     16.00000000</i>
  </separator>
  <separator name="symmetry" >
   <i type="int" name="ISYM">     2</i>
   <i name="SYMPREC">      0.00001000</i>
  </separator>
  <separator name="dos" >
   <i type="int" name="LORBIT">    11</i>
   <v name="RWIGS">     -1.00000000     -1.00000000</v>
   <i type="int" name="NEDOS">  2401</i>
   <i name="EMIN">    -12.00000000</i>
   <i name="EMAX">     12.00000000</i>
   <i name="EFERMI">      0.00000000</i>
  </separator>
  <separator name="writing" >
   <i type="int" name="NWRITE">     2</i>
   <i type="logical" name="LWAVE"> F  </i>
   <i type="logical" name="LDOWNSAMPLE"> F  </i>
   <i type="logical" name="LCHARG"> T  </i>
   <i type="logical" name="LPARD"> F  </i>
   <i type="logical" name="LVTOT"> F  </i>
   <i type="logical" name="LVHAR"> F  </i>
   <i type="logical" name="LELF"> T  </i>
   <i type="logical" name="LOPTICS"> F  </i>
   <v name="STM">      0.00000000      0.00000000      0.00000000      0.00000000      0.00000000      0.00000000      0.00000000</v>
  </separator>
  <separator name="performance" >
   <i type="int" name="NPAR">     2</i>
   <i type="int" name="NSIM">     4</i>
   <i type="int" name="NBLK">    -1</i>
   <i type="logical" name="LPLANE"> T  </i>
   <i type="logical" name="LSCALAPACK"> T  </i>
   <i type="logical" name="LSCAAWARE"> F  </i>
   <i type="logical" name="LSCALU"> F  </i>
   <i type="logical" name="LASYNC"> F  </i>
   <i type="logical" name="LORBITALREAL"> F  </i>
  </separator>
  <separator name="miscellaneous" >
   <i type="int" name="IDIOT">     3</i>
   <i type="int" name="ISPECIAL">     0</i>
   <i type="logical" name="LMUSIC"> F  </i>
   <v name="POMASS">     95.94000000     32.06600000</v>
   <v name="DARWINR">      0.00000000      0.00000000</v>
   <v name="DARWINV">      1.00000000      1.00000000</v>
   <i type="logical" name="LCORR"> T  </i>
  </separator>
  <i type="logical" name="GGA_COMPAT"> T  </i>
  <i type="logical" name="LBERRY"> F  </i>
  <i type="int" name="ICORELEVEL">     0</i>
  <i type="logical" name="LDAU"> F  </i>
  <i type="int" name="I_CONSTRAINED_M">     0</i>
  <separator name="electronic exchange-correlation" >
   <i type="string" name="GGA">--</i>
   <i type="int" name="VOSKOWN">     0</i>
   <i type="logical" name="LHFCALC"> F  </i>
   <i type="string" name="PRECFOCK"></i>
   <i type="logical" name="LSYMGRAD"> F  </i>
   <i type="logical" name="LHFONE"> F  </i>
   <i type="logical" name="LRHFCALC"> F  </i>
   <i type="logical" name="LTHOMAS"> F  </i>
   <i type="logical" name="LMODELHF"> F  </i>
   <i name="ENCUT4O">     -1.00000000</i>
   <i type="int" name="EXXOEP">     0</i>
   <i type="int" name="FOURORBIT">     0</i>
   <i name="AEXX">      0.00000000</i>
   <i name="HFALPHA">      0.00000000</i>
   <i name="MCALPHA">      0.00000000</i>
   <i name="ALDAX">      1.00000000</i>
   <i name="AGGAX">      1.00000000</i>
   <i name="ALDAC">      1.00000000</i>
   <i name="AGGAC">      1.00000000</i>
   <i type="int" name="NKREDX">     1</i>
   <i type="int" name="NKREDY">     1</i>
   <i type="int" name="NKREDZ">     1</i>
   <i type="logical" name="SHIFTRED"> F  </i>
   <i type="logical" name="ODDONLY"> F  </i>
   <i type="logical" name="EVENONLY"> F  </i>
   <i type="int" name="LMAXFOCK">     0</i>
   <i type="int" name="NMAXFOCKAE">     0</i>
   <i type="logical" name="LFOCKAEDFT"> F  </i>
   <i name="HFSCREEN">      0.00000000</i>
   <i name="HFSCREENC">      0.00000000</i>
   <i type="int" name="NBANDSGWLOW">     0</i>
  </separator>
  <separator name="vdW DFT" >
   <i type="logical" name="LUSE_VDW"> F  </i>
   <i name="Zab_VDW">     -0.84910000</i>
   <i name="PARAM1">      0.12340000</i>
   <i name="PARAM2">      1.00000000</i>
   <i name="PARAM3">      0.00000000</i>
  </separator>
  <separator name="model GW" >
   <i type="int" name="MODEL_GW">     0</i>
   <i name="MODEL_EPS0">     75.59144541</i>
   <i name="MODEL_ALPHA">      1.00000000</i>
  </separator>
  <separator name="linear response parameters" >
   <i type="logical" name="LEPSILON"> F  </i>
   <i type="logical" name="LRPA"> F  </i>
   <i type="logical" name="LNABLA"> F  </i>
   <i type="logical" name="LVEL"> F  </i>
   <i type="int" name="KINTER">     0</i>
   <i name="CSHIFT">      0.10000000</i>
   <i name="OMEGAMAX">     -1.00000000</i>
   <i name="DEG_THRESHOLD">      0.00200000</i>
   <i name="RTIME">     -0.10000000</i>
   <i name="WPLASMAI">      0.00000000</i>
   <v name="DFIELD">      0.00000000      0.00000000      0.00000000</v>
   <v name="WPLASMA">      0.00000000      0.00000000      0.00000000      0.00000000      0.00000000      0.00000000      0.00000000      0.00000000      0.00000000</v>
  </separator>
  <separator name="orbital magnetization" >
   <i type="logical" name="NUCIND"> F  </i>
   <v name="MAGPOS">      0.00000000      0.00000000      0.00000000</v>
   <i type="logical" name="LNICSALL"> T  </i>
   <i type="logical" name="ORBITALMAG"> F  </i>
   <i type="logical" name="LMAGBLOCH"> F  </i>
   <i type="logical" name="LCHIMAG"> F  </i>
   <i type="logical" name="LGAUGE"> T  </i>
   <i type="int" name="MAGATOM">     0</i>
   <v name="MAGDIPOL">      0.00000000      0.00000000      0.00000000</v>
   <v name="AVECCONST">      0.00000000      0.00000000      0.00000000</v>
  </separator>
  <separator name="response functions" >
   <i type="logical" name="LADDER"> F  </i>
   <i type="logical" name="LRPAFORCE"> F  </i>
   <i type="logical" name="LFXC"> F  </i>
   <i type="logical" name="LHARTREE"> T  </i>
   <i type="int" name="IBSE">     0</i>
   <v type="int" name="KPOINT">    -1     0     0     0</v>
   <i type="logical" name="LTCTE"> F  </i>
   <i type="logical" name="LTETE"> F  </i>
   <i type="logical" name="LTRIPLET"> F  </i>
   <i type="logical" name="LFXCEPS"> F  </i>
   <i type="logical" name="LFXHEG"> F  </i>
   <i type="int" name="NATURALO">     2</i>
   <i type="logical" name="L2ORDER"> F  </i>
   <i type="logical" name="LMP2LT"> F  </i>
   <i type="logical" name="LUSEW"> F  </i>
   <i name="ENCUTGW">     -2.00000000</i>
   <i name="ENCUTGWSOFT">     -2.00000000</i>
   <i name="ENCUTLF">     -1.00000000</i>
   <i type="int" name="LMAXMP2">    -1</i>
   <i name="SCISSOR">      0.00000000</i>
   <i type="int" name="NOMEGA">     0</i>
   <i type="int" name="NOMEGAR">     0</i>
   <i type="int" name="NBANDSGW">    -1</i>
   <i type="int" name="NBANDSO">    -1</i>
   <i type="int" name="NBANDSV">    -1</i>
   <i type="int" name="NELM">     1</i>
   <i type="int" name="NELMHF">     1</i>
   <i type="int" name="DIM">     3</i>
   <i type="int" name="ANTIRES">     0</i>
   <i name="OMEGAMAX">    -30.00000000</i>
   <i name="OMEGAMIN">    -30.00000000</i>
   <i name="OMEGATL">   -200.00000000</i>
   <i type="int" name="OMEGAGRID">   140</i>
   <i name="CSHIFT">     -0.10000000</i>
   <i type="logical" name="SELFENERGY"> F  </i>
   <i type="logical" name="LSPECTRAL"> F  </i>
   <i type="logical" name="LSPECTRALGW"> F  </i>
   <i type="logical" name="LSINGLES"> F  </i>
   <i type="logical" name="LFERMIGW"> F  </i>
   <i type="logical" name="ODDONLYGW"> F  </i>
   <i type="logical" name="EVENONLYGW"> F  </i>
   <i type="int" name="NKREDLFX">     1</i>
   <i type="int" name="NKREDLFY">     1</i>
   <i type="int" name="NKREDLFZ">     1</i>
   <i type="int" name="MAXMEM">  2800</i>
   <i type="int" name="TELESCOPE">     0</i>
   <i type="int" name="TAUPAR">     1</i>
   <i type="int" name="OMEGAPAR">    -1</i>
   <i name="LAMBDA">      1.00000000</i>
  </separator>
  <separator name="External order field" >
   <i name="OFIELD_KAPPA">      0.00000000</i>
   <v name="OFIELD_K">      0.00000000      0.00000000      0.00000000</v>
   <i name="OFIELD_Q6_NEAR">      0.00000000</i>
   <i name="OFIELD_Q6_FAR">      0.00000000</i>
   <i name="OFIELD_A">      0.00000000</i>
  </separator>
 </parameters>
 <atominfo>
  <atoms>       3 </atoms>
  <types>       2 </types>
  <array name="atoms" >
   <dimension dim="1">ion</dimension>
   <field type="string">element</field>
   <field type="int">atomtype</field>
   <set>
    <rc><c>Mo</c><c>   1</c></rc>
    <rc><c>S </c><c>   2</c></rc>
    <rc><c>S </c><c>   2</c></rc>
   </set>
  </array>
  <array name="atomtypes" >
   <dimension dim="1">type</dimension>
   <field type="int">atomspertype</field>
   <field type="string">element</field>
   <field>mass</field>
   <field>valence</field>
   <field type="string">pseudopotential</field>
   <set>
    <rc><c>   1</c><c>Mo</c><c>     95.94000000</c><c>      6.00000000</c><c> PAW_PBE Mo 08Apr2002                   </c></rc>
    <rc><c>   2</c><c>S </c><c>     32.06600000</c><c>      6.00000000</c><c>  PAW_PBE S 17Jan2003                   </c></rc>
   </set>
  </array>
 </atominfo>
 <structure name="initialpos" >
  <crystal>
   <varray name="basis" >
    <v>       3.19031573       0.00000000       0.00000000 </v>
    <v>      -1.59515786       2.76289447       0.00000000 </v>
    <v>       0.00000000       0.00000000      42.87900430 </v>
   </varray>
   <i name="volume">    377.95722706 </i>
   <varray name="rec_basis" >
    <v>       0.31344860       0.18096963       0.00000000 </v>
    <v>       0.00000000       0.36193927       0.00000000 </v>
    <v>       0.00000000       0.00000000       0.02332144 </v>
   </varray>
  </crystal>
  <varray name="positions" >
   <v>       0.33333300       0.66666700       0.08674994 </v>
   <v>       0.66666700       0.33333300       0.05025459 </v>
   <v>       0.66666600       0.33333300       0.12324529 </v>
  </varray>
 </structure>
 <calculation>
  <scstep>
   <time name="dav">    0.15    0.15</time>
   <time name="total">    0.17    0.23</time>
   <energy>
    <i name="alphaZ">      7.84443069 </i>
    <i name="ewald">   8645.14869488 </i>
    <i name="hartreedc">  -9303.81578581 </i>
    <i name="XCdc">    -36.31055333 </i>
    <i name="pawpsdc">    406.88651198 </i>
    <i name="pawaedc">   -329.34073203 </i>
    <i name="eentropy">     -0.04620547 </i>
    <i name="bandstr">    -73.45807628 </i>
    <i name="atom">    771.06857575 </i>
    <i name="e_fr_energy">     87.97686038 </i>
    <i name="e_wo_entrp">     88.02306585 </i>
    <i name="e_0_energy">     87.99996312 </i>
   </energy>
  </scstep>
  <scstep>
   <time name="dav">    0.19    0.19</time>
   <time name="total">    0.19    0.19</time>
   <energy>
    <i name="e_fr_energy">    -11.96911475 </i>
    <i name="e_wo_entrp">    -11.96911475 </i>
    <i name="e_0_energy">    -11.96911475 </i>
   </energy>
  </scstep>
  <scstep>
   <time name="dav">    0.16    0.17</time>
   <time name="total">    0.17    0.17</time>
   <energy>
    <i name="e_fr_energy">    -23.14745361 </i>
    <i name="e_wo_entrp">    -23.14745361 </i>
    <i name="e_0_energy">    -23.14745361 </i>
   </energy>
  </scstep>
  <scstep>
   <time name="dav">    0.16    0.16</time>
   <time name="total">    0.16    0.17</time>
   <energy>
    <i name="e_fr_energy">    -23.36608519 </i>
    <i name="e_wo_entrp">    -23.36608519 </i>
    <i name="e_0_energy">    -23.36608519 </i>
   </energy>
  </scstep>
  <scstep>
   <time name="dav">    0.15    0.15</time>
   <time name="total">    0.16    0.16</time>
   <energy>
    <i name="e_fr_energy">    -23.37049532 </i>
    <i name="e_wo_entrp">    -23.37049532 </i>
    <i name="e_0_energy">    -23.37049532 </i>
   </energy>
  </scstep>
  <scstep>
   <time name="diag">    0.02    0.03</time>
   <time name="diis">    0.09    0.09</time>
   <time name="orth">    0.00    0.00</time>
   <time name="total">    0.15    0.15</time>
   <energy>
    <i name="e_fr_energy">    -22.21029699 </i>
    <i name="e_wo_entrp">    -22.21029695 </i>
    <i name="e_0_energy">    -22.21029697 </i>
   </energy>
  </scstep>
  <scstep>
   <time name="diag">    0.02    0.03</time>
   <time name="diis">    0.08    0.08</time>
   <time name="orth">    0.00    0.00</time>
   <time name="total">    0.14    0.15</time>
   <energy>
    <i name="e_fr_energy">    -21.82912460 </i>
    <i name="e_wo_entrp">    -21.82912460 </i>
    <i name="e_0_energy">    -21.82912460 </i>
   </energy>
  </scstep>
  <scstep>
   <time name="diag">    0.02    0.03</time>
   <time name="diis">    0.09    0.09</time>
   <time name="orth">    0.00    0.00</time>
   <time name="total">    0.15    0.15</time>
   <energy>
    <i name="e_fr_energy">    -21.76779790 </i>
    <i name="e_wo_entrp">    -21.76779790 </i>
    <i name="e_0_energy">    -21.76779790 </i>
   </energy>
  </scstep>
  <scstep>
   <time name="diag">    0.02    0.03</time>
   <time name="diis">    0.10    0.10</time>
   <time name="orth">    0.00    0.00</time>
   <time name="total">    0.16    0.16</time>
   <energy>
    <i name="e_fr_energy">    -21.76306989 </i>
    <i name="e_wo_entrp">    -21.76306989 </i>
    <i name="e_0_energy">    -21.76306989 </i>
   </energy>
  </scstep>
  <scstep>
   <time name="diag">    0.02    0.03</time>
   <time name="diis">    0.10    0.10</time>
   <time name="orth">    0.00    0.00</time>
   <time name="total">    0.16    0.16</time>
   <energy>
    <i name="e_fr_energy">    -21.76238999 </i>
    <i name="e_wo_entrp">    -21.76238999 </i>
    <i name="e_0_energy">    -21.76238999 </i>
   </energy>
  </scstep>
  <scstep>
   <time name="diag">    0.02    0.03</time>
   <time name="diis">    0.09    0.09</time>
   <time name="orth">    0.00    0.00</time>
   <time name="total">    0.16    0.16</time>
   <energy>
    <i name="e_fr_energy">    -21.76230887 </i>
    <i name="e_wo_entrp">    -21.76230887 </i>
    <i name="e_0_energy">    -21.76230887 </i>
   </energy>
  </scstep>
  <scstep>
   <time name="diag">    0.02    0.03</time>
   <time name="diis">    0.09    0.09</time>
   <time name="orth">    0.00    0.00</time>
   <time name="total">    0.15    0.15</time>
   <energy>
    <i name="e_fr_energy">    -21.76223432 </i>
    <i name="e_wo_entrp">    -21.76223432 </i>
    <i name="e_0_energy">    -21.76223432 </i>
   </energy>
  </scstep>
  <scstep>
   <time name="diag">    0.02    0.03</time>
   <time name="diis">    0.09    0.09</time>
   <time name="orth">    0.00    0.00</time>
   <time name="total">    0.15    0.15</time>
   <energy>
    <i name="e_fr_energy">    -21.76269283 </i>
    <i name="e_wo_entrp">    -21.76269283 </i>
    <i name="e_0_energy">    -21.76269283 </i>
   </energy>
  </scstep>
  <scstep>
   <time name="diag">    0.02    0.03</time>
   <time name="diis">    0.09    0.09</time>
   <time name="orth">    0.00    0.00</time>
   <time name="total">    0.16    0.16</time>
   <energy>
    <i name="e_fr_energy">    -21.76279649 </i>
    <i name="e_wo_entrp">    -21.76279649 </i>
    <i name="e_0_energy">    -21.76279649 </i>
   </energy>
  </scstep>
  <scstep>
   <time name="diag">    0.02    0.03</time>
   <time name="diis">    0.08    0.08</time>
   <time name="orth">    0.00    0.00</time>
   <time name="total">    0.14    0.14</time>
   <energy>
    <i name="e_fr_energy">    -21.76298642 </i>
    <i name="e_wo_entrp">    -21.76298642 </i>
    <i name="e_0_energy">    -21.76298642 </i>
   </energy>
  </scstep>
  <scstep>
   <time name="diag">    0.02    0.03</time>
   <time name="diis">    0.08    0.08</time>
   <time name="orth">    0.00    0.00</time>
   <time name="total">    0.14    0.14</time>
   <energy>
    <i name="e_fr_energy">    -21.76303552 </i>
    <i name="e_wo_entrp">    -21.76303552 </i>
    <i name="e_0_energy">    -21.76303552 </i>
   </energy>
  </scstep>
  <scstep>
   <time name="diag">    0.02    0.03</time>
   <time name="diis">    0.06    0.06</time>
   <time name="orth">    0.00    0.00</time>
   <time name="total">    0.13    0.13</time>
   <energy>
    <i name="e_fr_energy">    -21.76308136 </i>
    <i name="e_wo_entrp">    -21.76308136 </i>
    <i name="e_0_energy">    -21.76308136 </i>
   </energy>
  </scstep>
  <scstep>
   <time name="diag">    0.02    0.03</time>
   <time name="diis">    0.06    0.06</time>
   <time name="orth">    0.00    0.00</time>
   <time name="total">    0.13    0.13</time>
   <energy>
    <i name="e_fr_energy">    -21.76308516 </i>
    <i name="e_wo_entrp">    -21.76308516 </i>
    <i name="e_0_energy">    -21.76308516 </i>
   </energy>
  </scstep>
  <scstep>
   <time name="diag">    0.02    0.03</time>
   <time name="diis">    0.06    0.06</time>
   <time name="orth">    0.00    0.00</time>
   <time name="total">    0.12    0.13</time>
   <energy>
    <i name="e_fr_energy">    -21.76309174 </i>
    <i name="e_wo_entrp">    -21.76309174 </i>
    <i name="e_0_energy">    -21.76309174 </i>
   </energy>
  </scstep>
  <scstep>
   <time name="diag">    0.02    0.03</time>
   <time name="diis">    0.05    0.05</time>
   <time name="orth">    0.00    0.00</time>
   <time name="total">    0.12    0.12</time>
   <energy>
    <i name="e_fr_energy">    -21.76309278 </i>
    <i name="e_wo_entrp">    -21.76309278 </i>
    <i name="e_0_energy">    -21.76309278 </i>
   </energy>
  </scstep>
  <scstep>
   <time name="diag">    0.02    0.03</time>
   <time name="diis">    0.05    0.05</time>
   <time name="orth">    0.00    0.00</time>
   <time name="total">    0.10    0.10</time>
   <energy>
    <i name="alphaZ">      7.84443069 </i>
    <i name="ewald">   8645.14869488 </i>
    <i name="hartreedc">  -9317.95544114 </i>
    <i name="XCdc">    -35.17209691 </i>
    <i name="pawpsdc">    478.67980794 </i>
    <i name="pawaedc">   -402.87082481 </i>
    <i name="eentropy">     -0.00000000 </i>
    <i name="bandstr">   -168.50623961 </i>
    <i name="atom">    771.06857575 </i>
    <i name="e_fr_energy">    -21.76309320 </i>
    <i name="e_wo_entrp">    -21.76309320 </i>
    <i name="e_0_energy">    -21.76309320 </i>
   </energy>
  </scstep>
  <structure>
   <crystal>
    <varray name="basis" >
     <v>       3.19031573       0.00000000       0.00000000 </v>
     <v>      -1.59515786       2.76289447       0.00000000 </v>
     <v>       0.00000000       0.00000000      42.87900430 </v>
    </varray>
    <i name="volume">    377.95722706 </i>
    <varray name="rec_basis" >
     <v>       0.31344860       0.18096963       0.00000000 </v>
     <v>       0.00000000       0.36193927       0.00000000 </v>
     <v>       0.00000000       0.00000000       0.02332144 </v>
    </varray>
   </crystal>
   <varray name="positions" >
    <v>       0.33333300       0.66666700       0.08674994 </v>
    <v>       0.66666700       0.33333300       0.05025459 </v>
    <v>       0.66666600       0.33333300       0.12324529 </v>
   </varray>
  </structure>
  <varray name="forces" >
   <v>       0.00000000      -0.00000000      -0.00000000 </v>
   <v>      -0.00000000       0.00000000       0.10728436 </v>
   <v>       0.00000000       0.00000000      -0.10728436 </v>
  </varray>
  <varray name="stress" >
   <v>      -2.60407098       0.00000000       0.00000000 </v>
   <v>      -0.00000000      -2.60407098       0.00000000 </v>
   <v>       0.00000000       0.00000000      -3.78299208 </v>
  </varray>
  <energy>
   <i name="e_fr_energy">    -22.35378370 </i>
   <i name="e_wo_entrp">    -22.35378370 </i>
   <i name="e_0_energy">     -0.00000000 </i>
  </energy>
  <time name="totalsc">    3.55    4.55</time>
  <eigenvalues>
   <array>
    <dimension dim="1">band</dimension>
    <dimension dim="2">kpoint</dimension>
    <dimension dim="3">spin</dimension>
    <field>eigene</field>
    <field>occ</field>
    <set>
     <set comment="spin 1">
      <set comment="kpoint 1">
       <r>  -18.4089    1.0000 </r>
       <r>  -17.2006    1.0000 </r>
       <r>   -9.9188    1.0000 </r>
       <r>   -6.9566    1.0000 </r>
       <r>   -6.9564    1.0000 </r>
       <r>   -6.0974    1.0000 </r>
       <r>   -5.8497    1.0000 </r>
       <r>   -5.8493    1.0000 </r>
       <r>   -4.3745    1.0000 </r>
       <r>   -1.6005    0.0000 </r>
       <r>   -1.5997    0.0000 </r>
       <r>   -1.3779    0.0000 </r>
       <r>   -1.3772    0.0000 </r>
       <r>    1.0317    0.0000 </r>
      </set>
      <set comment="kpoint 2">
       <r>  -18.1949    1.0000 </r>
       <r>  -17.0981    1.0000 </r>
       <r>   -9.6740    1.0000 </r>
       <r>   -7.4213    1.0000 </r>
       <r>   -6.9041    1.0000 </r>
       <r>   -6.7227    1.0000 </r>
       <r>   -6.1858    1.0000 </r>
       <r>   -5.4184    1.0000 </r>
       <r>   -4.5135    1.0000 </r>
       <r>   -1.8831    0.0000 </r>
       <r>   -1.8166    0.0000 </r>
       <r>   -1.6151    0.0000 </r>
       <r>   -1.2465    0.0000 </r>
       <r>    1.3988    0.0000 </r>
      </set>
      <set comment="kpoint 3">
       <r>  -17.6264    1.0000 </r>
       <r>  -16.8292    1.0000 </r>
       <r>   -9.3080    1.0000 </r>
       <r>   -8.1496    1.0000 </r>
       <r>   -7.8858    1.0000 </r>
       <r>   -6.8223    1.0000 </r>
       <r>   -6.1368    1.0000 </r>
       <r>   -5.6706    1.0000 </r>
       <r>   -5.0820    1.0000 </r>
       <r>   -2.2075    0.0000 </r>
       <r>   -2.0321    0.0000 </r>
       <r>   -1.4893    0.0000 </r>
       <r>   -0.6313    0.0000 </r>
       <r>    2.2208    0.0000 </r>
      </set>
      <set comment="kpoint 4">
       <r>  -16.9514    1.0000 </r>
       <r>  -16.5207    1.0000 </r>
       <r>   -9.7472    1.0000 </r>
       <r>   -8.7545    1.0000 </r>
       <r>   -8.2806    1.0000 </r>
       <r>   -7.3209    1.0000 </r>
       <r>   -6.0792    1.0000 </r>
       <r>   -5.5468    1.0000 </r>
       <r>   -5.2761    1.0000 </r>
       <r>   -2.2147    0.0000 </r>
       <r>   -1.9349    0.0000 </r>
       <r>   -0.7704    0.0000 </r>
       <r>   -0.2386    0.0000 </r>
       <r>    2.7856    0.0000 </r>
      </set>
      <set comment="kpoint 5">
       <r>  -16.6231    1.0000 </r>
       <r>  -16.3773    1.0000 </r>
       <r>  -10.0801    1.0000 </r>
       <r>   -9.1208    1.0000 </r>
       <r>   -8.4063    1.0000 </r>
       <r>   -7.5019    1.0000 </r>
       <r>   -6.2175    1.0000 </r>
       <r>   -5.3198    1.0000 </r>
       <r>   -4.9946    1.0000 </r>
       <r>   -2.1931    0.0000 </r>
       <r>   -1.6784    0.0000 </r>
       <r>   -0.4705    0.0000 </r>
       <r>   -0.1230    0.0000 </r>
       <r>    1.8313    0.0000 </r>
      </set>
      <set comment="kpoint 6">
       <r>  -17.8022    1.0000 </r>
       <r>  -16.9110    1.0000 </r>
       <r>   -9.3266    1.0000 </r>
       <r>   -7.9865    1.0000 </r>
       <r>   -7.4669    1.0000 </r>
       <r>   -7.0003    1.0000 </r>
       <r>   -6.3840    1.0000 </r>
       <r>   -5.2836    1.0000 </r>
       <r>   -4.8862    1.0000 </r>
       <r>   -2.2825    0.0000 </r>
       <r>   -1.9050    0.0000 </r>
       <r>   -1.8927    0.0000 </r>
       <r>   -0.6521    0.0000 </r>
       <r>    2.0206    0.0000 </r>
      </set>
      <set comment="kpoint 7">
       <r>  -17.1688    1.0000 </r>
       <r>  -16.6124    1.0000 </r>
       <r>   -9.3906    1.0000 </r>
       <r>   -8.4130    1.0000 </r>
       <r>   -8.1497    1.0000 </r>
       <r>   -7.5056    1.0000 </r>
       <r>   -6.2850    1.0000 </r>
       <r>   -5.6466    1.0000 </r>
       <r>   -5.1699    1.0000 </r>
       <r>   -2.3662    0.0000 </r>
       <r>   -1.9194    0.0000 </r>
       <r>   -1.4226    0.0000 </r>
       <r>   -0.1466    0.0000 </r>
       <r>    2.9747    0.0000 </r>
      </set>
      <set comment="kpoint 8">
       <r>  -16.6384    1.0000 </r>
       <r>  -16.3684    1.0000 </r>
       <r>   -9.7924    1.0000 </r>
       <r>   -9.1766    1.0000 </r>
       <r>   -8.2786    1.0000 </r>
       <r>   -7.5230    1.0000 </r>
       <r>   -6.2698    1.0000 </r>
       <r>   -6.1277    1.0000 </r>
       <r>   -4.8430    1.0000 </r>
       <r>   -2.1741    0.0000 </r>
       <r>   -1.6639    0.0000 </r>
       <r>   -0.7985    0.0000 </r>
       <r>   -0.1125    0.0000 </r>
       <r>    2.3570    0.0000 </r>
      </set>
      <set comment="kpoint 9">
       <r>  -16.6534    1.0000 </r>
       <r>  -16.3595    1.0000 </r>
       <r>   -9.4318    1.0000 </r>
       <r>   -9.2266    1.0000 </r>
       <r>   -7.9523    1.0000 </r>
       <r>   -7.5715    1.0000 </r>
       <r>   -7.2524    1.0000 </r>
       <r>   -5.9948    1.0000 </r>
       <r>   -4.8730    1.0000 </r>
       <r>   -2.2249    0.0000 </r>
       <r>   -1.6133    0.0000 </r>
       <r>   -1.2970    0.0000 </r>
       <r>    0.1713    0.0000 </r>
       <r>    3.1870    0.0000 </r>
      </set>
      <set comment="kpoint 10">
       <r>  -16.4185    1.0000 </r>
       <r>  -16.2405    1.0000 </r>
       <r>   -9.6113    1.0000 </r>
       <r>   -9.2627    1.0000 </r>
       <r>   -8.2358    1.0000 </r>
       <r>   -7.5740    1.0000 </r>
       <r>   -7.3456    1.0000 </r>
       <r>   -6.3804    1.0000 </r>
       <r>   -4.5056    1.0000 </r>
       <r>   -2.5512    0.0000 </r>
       <r>   -1.2361    0.0000 </r>
       <r>   -1.0640    0.0000 </r>
       <r>    0.3146    0.0000 </r>
       <r>    2.6005    0.0000 </r>
      </set>
     </set>
    </set>
   </array>
  </eigenvalues>
  <separator name="orbital magnetization" >
   <v name="MAGDIPOLOUT">      0.00000000      0.00000000      0.00000000</v>
  </separator>
  <dos>
   <i name="efermi">     -3.55000000 </i>
   <total>
    <array>
     <dimension dim="1">gridpoints</dimension>
     <dimension dim="2">spin</dimension>
     <field>energy</field>
     <field>total</field>
     <field>integrated</field>
     <set>
      <set comment="spin 1">
       <r>   -12.0000   400.0000     4.0000 </r>
       <r>   -11.9900     0.0000     4.0000 </r>
       <r>   -11.9800     0.0000     4.0000 </r>
       <r>   -11.9700     0.0000     4.0000 </r>
       <r>   -11.9600     0.0000     4.0000 </r>
       <r>   -11.9500     0.0000     4.0000 </r>
       <r>   -11.9400     0.0000     4.0000 </r>
       <r>   -11.9300     0.0000     4.0000 </r>
       <r>   -11.9200     0.0000     4.0000 </r>
       <r>   -11.9100     0.0000     4.0000 </r>
       <r>   -11.9000     0.0000     4.0000 </r>
       <r>   -11.8900     0.0000     4.0000 </r>
       <r>   -11.8800     0.0000     4.0000 </r>
       <r>   -11.8700     0.0000     4.0000 </r>
       <r>   -11.8600     0.0000     4.0000 </r>
       <r>   -11.8500     0.0000     4.0000 </r>
       <r>   -11.8400     0.0000     4.0000 </r>
       <r>   -11.8300     0.0000     4.0000 </r>
       <r>   -11.8200     0.0000     4.0000 </r>
       <r>   -11.8100     0.0000     4.0000 </r>
       <r>   -11.8000     0.0000     4.0000 </r>
       <r>   -11.7900     0.0000     4.0000 </r>
       <r>   -11.7800     0.0000     4.0000 </r>
       <r>   -11.7700     0.0000     4.0000 </r>
       <r>   -11.7600     0.0000     4.0000 </r>
       <r>   -11.7500     0.0000     4.0000 </r>
       <r>   -11.7400     0.0000     4.0000 </r>
       <r>   -11.7300     0.0000     4.0000 </r>
       <r>   -11.7200     0.0000     4.0000 </r>
       <r>   -11.7100     0.0000     4.0000 </r>
       <r>   -11.7000     0.0000     4.0000 </r>
       <r>   -11.6900     0.0000     4.0000 </r>
       <r>   -11.6800     0.0000     4.0000 </r>
       <r>   -11.6700     0.0000     4.0000 </r>
       <r>   -11.6600     0.0000     4.0000 </r>
       <r>   -11.6500     0.0000     4.0000 </r>
       <r>   -11.6400     0.0000     4.0000 </r>
       <r>   -11.6300     0.0000     4.0000 </r>
       <r>   -11.6200     0.0000     4.0000 </r>
       <r>   -11.6100     0.0000     4.0000 </r>
       <r>   -11.6000     0.0000     4.0000 </r>
       <r>   -11.5900     0.0000     4.0000 </r>
       <r>   -11.5800     0.0000     4.0000 </r>
       <r>   -11.5700     0.0000     4.0000 </r>
       <r>   -11.5600     0.0000     4.0000 </r>
       <r>   -11.5500     0.0000     4.0000 </r>
       <r>   -11.5400     0.0000     4.0000 </r>
       <r>   -11.5300     0.0000     4.0000 </r>
       <r>   -11.5200     0.0000     4.0000 </r>
       <r>   -11.5100     0.0000     4.0000 </r>
       <r>   -11.5000     0.0000     4.0000 </r>
       <r>   -11.4900     0.0000     4.0000 </r>
       <r>   -11.4800     0.0000     4.0000 </r>
       <r>   -11.4700     0.0000     4.0000 </r>
       <r>   -11.4600     0.0000     4.0000 </r>
       <r>   -11.4500     0.0000     4.0000 </r>
       <r>   -11.4400     0.0000     4.0000 </r>
       <r>   -11.4300     0.0000     4.0000 </r>
       <r>   -11.4200     0.0000     4.0000 </r>
       <r>   -11.4100     0.0000     4.0000 </r>
       <r>   -11.4000     0.0000     4.0000 </r>
       <r>   -11.3900     0.0000     4.0000 </r>
       <r>   -11.3800     0.0000     4.0000 </r>
       <r>   -11.3700     0.0000     4.0000 </r>
       <r>   -11.3600     0.0000     4.0000 </r>
       <r>   -11.3500     0.0000     4.0000 </r>
       <r>   -11.3400     0.0000     4.0000 </r>
       <r>   -11.3300     0.0000     4.0000 </r>
       <r>   -11.3200     0.0000     4.0000 </r>
       <r>   -11.3100     0.0000     4.0000 </r>
       <r>   -11.3000     0.0000     4.0000 </r>
       <r>   -11.2900     0.0000     4.0000 </r>
       <r>   -11.2800     0.0000     4.0000 </r>
       <r>   -11.2700     0.0000     4.0000 </r>
       <r>   -11.2600     0.0000     4.0000 </r>
       <r>   -11.2500     0.0000     4.0000 </r>
       <r>   -11.2400     0.0000     4.0000 </r>
       <r>   -11.2300     0.0000     4.0000 </r>
       <r>   -11.2200     0.0000     4.0000 </r>
       <r>   -11.2100     0.0000     4.0000 </r>
       <r>   -11.2000     0.0000     4.0000 </r>
       <r>   -11.1900     0.0000     4.0000 </r>
       <r>   -11.1800     0.0000     4.0000 </r>
       <r>   -11.1700     0.0000     4.0000 </r>
       <r>   -11.1600     0.0000     4.0000 </r>
       <r>   -11.1500     0.0000     4.0000 </r>
       <r>   -11.1400     0.0000     4.0000 </r>
       <r>   -11.1300     0.0000     4.0000 </r>
       <r>   -11.1200     0.0000     4.0000 </r>
       <r>   -11.1100     0.0000     4.0000 </r>
       <r>   -11.1000     0.0000     4.0000 </r>
       <r>   -11.0900     0.0000     4.0000 </r>
       <r>   -11.0800     0.0000     4.0000 </r>
       <r>   -11.0700     0.0000     4.0000 </r>
       <r>   -11.0600     0.0000     4.0000 </r>
       <r>   -11.0500     0.0000     4.0000 </r>
       <r>   -11.0400     0.0000     4.0000 </r>
       <r>   -11.0300     0.0000     4.0000 </r>
       <r>   -11.0200     0.0000     4.0000 </r>
       <r>   -11.0100     0.0000     4.0000 </r>
       <r>   -11.0000     0.0000     4.0000 </r>
       <r>   -10.9900     0.0000     4.0000 </r>
       <r>   -10.9800     0.0000     4.0000 </r>
       <r>   -10.9700     0.0000     4.0000 </r>
       <r>   -10.9600     0.0000     4.0000 </r>
       <r>   -10.9500     0.0000     4.0000 </r>
       <r>   -10.9400     0.0000     4.0000 </r>
       <r>   -10.9300     0.0000     4.0000 </r>
       <r>   -10.9200     0.0000     4.0000 </r>
       <r>   -10.9100     0.0000     4.0000 </r>
       <r>   -10.9000     0.0000     4.0000 </r>
       <r>   -10.8900     0.0000     4.0000 </r>
       <r>   -10.8800     0.0000     4.0000 </r>
       <r>   -10.8700     0.0000     4.0000 </r>
       <r>   -10.8600     0.0000     4.0000 </r>
       <r>   -10.8500     0.0000     4.0000 </r>
       <r>   -10.8400     0.0000     4.0000 </r>
       <r>   -10.8300     0.0000     4.0000 </r>
       <r>   -10.8200     0.0000     4.0000 </r>
       <r>   -10.8100     0.0000     4.0000 </r>
       <r>   -10.8000     0.0000     4.0000 </r>
       <r>   -10.7900     0.0000     4.0000 </r>
       <r>   -10.7800     0.0000     4.0000 </r>
       <r>   -10.7700     0.0000     4.0000 </r>
       <r>   -10.7600     0.0000     4.0000 </r>
       <r>   -10.7500     0.0000     4.0000 </r>
       <r>   -10.7400     0.0000     4.0000 </r>
       <r>   -10.7300     0.0000     4.0000 </r>
       <r>   -10.7200     0.0000     4.0000 </r>
       <r>   -10.7100     0.0000     4.0000 </r>
       <r>   -10.7000     0.0000     4.0000 </r>
       <r>   -10.6900     0.0000     4.0000 </r>
       <r>   -10.6800     0.0000     4.0000 </r>
       <r>   -10.6700     0.0000     4.0000 </r>
       <r>   -10.6600     0.0001     4.0000 </r>
       <r>   -10.6500     0.0001     4.0000 </r>
       <r>   -10.6400     0.0001     4.0000 </r>
       <r>   -10.6300     0.0001     4.0000 </r>
       <r>   -10.6200     0.0002     4.0000 </r>
       <r>   -10.6100     0.0002     4.0000 </r>
       <r>   -10.6000     0.0003     4.0000 </r>
       <r>   -10.5900     0.0004     4.0000 </r>
       <r>   -10.5800     0.0005     4.0000 </r>
       <r>   -10.5700     0.0006     4.0000 </r>
       <r>   -10.5600     0.0007     4.0000 </r>
       <r>   -10.5500     0.0009     4.0000 </r>
       <r>   -10.5400     0.0012     4.0001 </r>
       <r>   -10.5300     0.0015     4.0001 </r>
       <r>   -10.5200     0.0019     4.0001 </r>
       <r>   -10.5100     0.0024     4.0001 </r>
       <r>   -10.5000     0.0029     4.0001 </r>
       <r>   -10.4900     0.0036     4.0002 </r>
       <r>   -10.4800     0.0044     4.0002 </r>
       <r>   -10.4700     0.0054     4.0003 </r>
       <r>   -10.4600     0.0066     4.0003 </r>
       <r>   -10.4500     0.0080     4.0004 </r>
       <r>   -10.4400     0.0096     4.0005 </r>
       <r>   -10.4300     0.0115     4.0006 </r>
       <r>   -10.4200     0.0137     4.0008 </r>
       <r>   -10.4100     0.0163     4.0009 </r>
       <r>   -10.4000     0.0192     4.0011 </r>
       <r>   -10.3900     0.0226     4.0014 </r>
       <r>   -10.3800     0.0265     4.0016 </r>
       <r>   -10.3700     0.0308     4.0019 </r>
       <r>   -10.3600     0.0357     4.0023 </r>
       <r>   -10.3500     0.0412     4.0027 </r>
       <r>   -10.3400     0.0473     4.0032 </r>
       <r>   -10.3300     0.0541     4.0037 </r>
       <r>   -10.3200     0.0615     4.0043 </r>
       <r>   -10.3100     0.0697     4.0050 </r>
       <r>   -10.3000     0.0786     4.0058 </r>
       <r>   -10.2900     0.0882     4.0067 </r>
       <r>   -10.2800     0.0986     4.0077 </r>
       <r>   -10.2700     0.1097     4.0088 </r>
       <r>   -10.2600     0.1217     4.0100 </r>
       <r>   -10.2500     0.1343     4.0113 </r>
       <r>   -10.2400     0.1478     4.0128 </r>
       <r>   -10.2300     0.1619     4.0144 </r>
       <r>   -10.2200     0.1768     4.0162 </r>
       <r>   -10.2100     0.1925     4.0181 </r>
       <r>   -10.2000     0.2088     4.0202 </r>
       <r>   -10.1900     0.2259     4.0225 </r>
       <r>   -10.1800     0.2436     4.0249 </r>
       <r>   -10.1700     0.2621     4.0275 </r>
       <r>   -10.1600     0.2814     4.0303 </r>
       <r>   -10.1500     0.3015     4.0334 </r>
       <r>   -10.1400     0.3225     4.0366 </r>
       <r>   -10.1300     0.3445     4.0400 </r>
       <r>   -10.1200     0.3675     4.0437 </r>
       <r>   -10.1100     0.3917     4.0476 </r>
       <r>   -10.1000     0.4173     4.0518 </r>
       <r>   -10.0900     0.4445     4.0562 </r>
       <r>   -10.0800     0.4733     4.0610 </r>
       <r>   -10.0700     0.5040     4.0660 </r>
       <r>   -10.0600     0.5369     4.0714 </r>
       <r>   -10.0500     0.5721     4.0771 </r>
       <r>   -10.0400     0.6099     4.0832 </r>
       <r>   -10.0300     0.6505     4.0897 </r>
       <r>   -10.0200     0.6940     4.0966 </r>
       <r>   -10.0100     0.7407     4.1040 </r>
       <r>   -10.0000     0.7907     4.1120 </r>
       <r>    -9.9900     0.8441     4.1204 </r>
       <r>    -9.9800     0.9010     4.1294 </r>
       <r>    -9.9700     0.9614     4.1390 </r>
       <r>    -9.9600     1.0253     4.1493 </r>
       <r>    -9.9500     1.0924     4.1602 </r>
       <r>    -9.9400     1.1627     4.1718 </r>
       <r>    -9.9300     1.2359     4.1842 </r>
       <r>    -9.9200     1.3117     4.1973 </r>
       <r>    -9.9100     1.3896     4.2112 </r>
       <r>    -9.9000     1.4693     4.2259 </r>
       <r>    -9.8900     1.5501     4.2414 </r>
       <r>    -9.8800     1.6316     4.2577 </r>
       <r>    -9.8700     1.7132     4.2748 </r>
       <r>    -9.8600     1.7940     4.2928 </r>
       <r>    -9.8500     1.8736     4.3115 </r>
       <r>    -9.8400     1.9513     4.3310 </r>
       <r>    -9.8300     2.0263     4.3513 </r>
       <r>    -9.8200     2.0980     4.3723 </r>
       <r>    -9.8100     2.1658     4.3939 </r>
       <r>    -9.8000     2.2292     4.4162 </r>
       <r>    -9.7900     2.2877     4.4391 </r>
       <r>    -9.7800     2.3409     4.4625 </r>
       <r>    -9.7700     2.3884     4.4864 </r>
       <r>    -9.7600     2.4301     4.5107 </r>
       <r>    -9.7500     2.4659     4.5353 </r>
       <r>    -9.7400     2.4957     4.5603 </r>
       <r>    -9.7300     2.5197     4.5855 </r>
       <r>    -9.7200     2.5381     4.6109 </r>
       <r>    -9.7100     2.5513     4.6364 </r>
       <r>    -9.7000     2.5597     4.6620 </r>
       <r>    -9.6900     2.5639     4.6876 </r>
       <r>    -9.6800     2.5646     4.7133 </r>
       <r>    -9.6700     2.5624     4.7389 </r>
       <r>    -9.6600     2.5582     4.7645 </r>
       <r>    -9.6500     2.5529     4.7900 </r>
       <r>    -9.6400     2.5472     4.8155 </r>
       <r>    -9.6300     2.5422     4.8409 </r>
       <r>    -9.6200     2.5386     4.8663 </r>
       <r>    -9.6100     2.5374     4.8917 </r>
       <r>    -9.6000     2.5394     4.9171 </r>
       <r>    -9.5900     2.5454     4.9425 </r>
       <r>    -9.5800     2.5560     4.9681 </r>
       <r>    -9.5700     2.5718     4.9938 </r>
       <r>    -9.5600     2.5934     5.0197 </r>
       <r>    -9.5500     2.6211     5.0459 </r>
       <r>    -9.5400     2.6551     5.0725 </r>
       <r>    -9.5300     2.6958     5.0994 </r>
       <r>    -9.5200     2.7429     5.1269 </r>
       <r>    -9.5100     2.7964     5.1548 </r>
       <r>    -9.5000     2.8560     5.1834 </r>
       <r>    -9.4900     2.9212     5.2126 </r>
       <r>    -9.4800     2.9917     5.2425 </r>
       <r>    -9.4700     3.0666     5.2732 </r>
       <r>    -9.4600     3.1454     5.3046 </r>
       <r>    -9.4500     3.2270     5.3369 </r>
       <r>    -9.4400     3.3107     5.3700 </r>
       <r>    -9.4300     3.3954     5.4040 </r>
       <r>    -9.4200     3.4801     5.4388 </r>
       <r>    -9.4100     3.5638     5.4744 </r>
       <r>    -9.4000     3.6454     5.5109 </r>
       <r>    -9.3900     3.7238     5.5481 </r>
       <r>    -9.3800     3.7981     5.5861 </r>
       <r>    -9.3700     3.8671     5.6248 </r>
       <r>    -9.3600     3.9300     5.6641 </r>
       <r>    -9.3500     3.9859     5.7039 </r>
       <r>    -9.3400     4.0339     5.7443 </r>
       <r>    -9.3300     4.0733     5.7850 </r>
       <r>    -9.3200     4.1035     5.8260 </r>
       <r>    -9.3100     4.1238     5.8673 </r>
       <r>    -9.3000     4.1339     5.9086 </r>
       <r>    -9.2900     4.1333     5.9499 </r>
       <r>    -9.2800     4.1219     5.9912 </r>
       <r>    -9.2700     4.0995     6.0321 </r>
       <r>    -9.2600     4.0661     6.0728 </r>
       <r>    -9.2500     4.0217     6.1130 </r>
       <r>    -9.2400     3.9666     6.1527 </r>
       <r>    -9.2300     3.9011     6.1917 </r>
       <r>    -9.2200     3.8255     6.2300 </r>
       <r>    -9.2100     3.7403     6.2674 </r>
       <r>    -9.2000     3.6462     6.3038 </r>
       <r>    -9.1900     3.5437     6.3393 </r>
       <r>    -9.1800     3.4337     6.3736 </r>
       <r>    -9.1700     3.3169     6.4068 </r>
       <r>    -9.1600     3.1942     6.4387 </r>
       <r>    -9.1500     3.0665     6.4694 </r>
       <r>    -9.1400     2.9347     6.4987 </r>
       <r>    -9.1300     2.7999     6.5267 </r>
       <r>    -9.1200     2.6629     6.5533 </r>
       <r>    -9.1100     2.5249     6.5786 </r>
       <r>    -9.1000     2.3867     6.6025 </r>
       <r>    -9.0900     2.2494     6.6250 </r>
       <r>    -9.0800     2.1138     6.6461 </r>
       <r>    -9.0700     1.9810     6.6659 </r>
       <r>    -9.0600     1.8516     6.6844 </r>
       <r>    -9.0500     1.7265     6.7017 </r>
       <r>    -9.0400     1.6063     6.7178 </r>
       <r>    -9.0300     1.4918     6.7327 </r>
       <r>    -9.0200     1.3834     6.7465 </r>
       <r>    -9.0100     1.2815     6.7593 </r>
       <r>    -9.0000     1.1866     6.7712 </r>
       <r>    -8.9900     1.0990     6.7822 </r>
       <r>    -8.9800     1.0187     6.7924 </r>
       <r>    -8.9700     0.9458     6.8018 </r>
       <r>    -8.9600     0.8804     6.8106 </r>
       <r>    -8.9500     0.8223     6.8188 </r>
       <r>    -8.9400     0.7715     6.8266 </r>
       <r>    -8.9300     0.7275     6.8338 </r>
       <r>    -8.9200     0.6902     6.8407 </r>
       <r>    -8.9100     0.6591     6.8473 </r>
       <r>    -8.9000     0.6338     6.8537 </r>
       <r>    -8.8900     0.6138     6.8598 </r>
       <r>    -8.8800     0.5987     6.8658 </r>
       <r>    -8.8700     0.5879     6.8717 </r>
       <r>    -8.8600     0.5810     6.8775 </r>
       <r>    -8.8500     0.5773     6.8833 </r>
       <r>    -8.8400     0.5765     6.8890 </r>
       <r>    -8.8300     0.5779     6.8948 </r>
       <r>    -8.8200     0.5813     6.9006 </r>
       <r>    -8.8100     0.5861     6.9065 </r>
       <r>    -8.8000     0.5920     6.9124 </r>
       <r>    -8.7900     0.5987     6.9184 </r>
       <r>    -8.7800     0.6059     6.9244 </r>
       <r>    -8.7700     0.6136     6.9306 </r>
       <r>    -8.7600     0.6216     6.9368 </r>
       <r>    -8.7500     0.6299     6.9431 </r>
       <r>    -8.7400     0.6385     6.9495 </r>
       <r>    -8.7300     0.6476     6.9559 </r>
       <r>    -8.7200     0.6574     6.9625 </r>
       <r>    -8.7100     0.6681     6.9692 </r>
       <r>    -8.7000     0.6800     6.9760 </r>
       <r>    -8.6900     0.6936     6.9829 </r>
       <r>    -8.6800     0.7092     6.9900 </r>
       <r>    -8.6700     0.7272     6.9973 </r>
       <r>    -8.6600     0.7482     7.0048 </r>
       <r>    -8.6500     0.7726     7.0125 </r>
       <r>    -8.6400     0.8008     7.0205 </r>
       <r>    -8.6300     0.8334     7.0289 </r>
       <r>    -8.6200     0.8708     7.0376 </r>
       <r>    -8.6100     0.9133     7.0467 </r>
       <r>    -8.6000     0.9614     7.0563 </r>
       <r>    -8.5900     1.0152     7.0665 </r>
       <r>    -8.5800     1.0751     7.0772 </r>
       <r>    -8.5700     1.1412     7.0886 </r>
       <r>    -8.5600     1.2136     7.1008 </r>
       <r>    -8.5500     1.2922     7.1137 </r>
       <r>    -8.5400     1.3771     7.1275 </r>
       <r>    -8.5300     1.4680     7.1421 </r>
       <r>    -8.5200     1.5647     7.1578 </r>
       <r>    -8.5100     1.6669     7.1744 </r>
       <r>    -8.5000     1.7741     7.1922 </r>
       <r>    -8.4900     1.8860     7.2110 </r>
       <r>    -8.4800     2.0019     7.2311 </r>
       <r>    -8.4700     2.1212     7.2523 </r>
       <r>    -8.4600     2.2434     7.2747 </r>
       <r>    -8.4500     2.3677     7.2984 </r>
       <r>    -8.4400     2.4933     7.3233 </r>
       <r>    -8.4300     2.6196     7.3495 </r>
       <r>    -8.4200     2.7456     7.3770 </r>
       <r>    -8.4100     2.8708     7.4057 </r>
       <r>    -8.4000     2.9941     7.4356 </r>
       <r>    -8.3900     3.1149     7.4668 </r>
       <r>    -8.3800     3.2324     7.4991 </r>
       <r>    -8.3700     3.3458     7.5326 </r>
       <r>    -8.3600     3.4544     7.5671 </r>
       <r>    -8.3500     3.5574     7.6027 </r>
       <r>    -8.3400     3.6542     7.6392 </r>
       <r>    -8.3300     3.7442     7.6767 </r>
       <r>    -8.3200     3.8268     7.7149 </r>
       <r>    -8.3100     3.9016     7.7539 </r>
       <r>    -8.3000     3.9680     7.7936 </r>
       <r>    -8.2900     4.0257     7.8339 </r>
       <r>    -8.2800     4.0744     7.8746 </r>
       <r>    -8.2700     4.1140     7.9158 </r>
       <r>    -8.2600     4.1442     7.9572 </r>
       <r>    -8.2500     4.1650     7.9989 </r>
       <r>    -8.2400     4.1764     8.0406 </r>
       <r>    -8.2300     4.1787     8.0824 </r>
       <r>    -8.2200     4.1719     8.1241 </r>
       <r>    -8.2100     4.1563     8.1657 </r>
       <r>    -8.2000     4.1324     8.2070 </r>
       <r>    -8.1900     4.1006     8.2480 </r>
       <r>    -8.1800     4.0612     8.2886 </r>
       <r>    -8.1700     4.0150     8.3288 </r>
       <r>    -8.1600     3.9625     8.3684 </r>
       <r>    -8.1500     3.9043     8.4074 </r>
       <r>    -8.1400     3.8411     8.4459 </r>
       <r>    -8.1300     3.7735     8.4836 </r>
       <r>    -8.1200     3.7022     8.5206 </r>
       <r>    -8.1100     3.6278     8.5569 </r>
       <r>    -8.1000     3.5510     8.5924 </r>
       <r>    -8.0900     3.4722     8.6271 </r>
       <r>    -8.0800     3.3921     8.6610 </r>
       <r>    -8.0700     3.3111     8.6942 </r>
       <r>    -8.0600     3.2296     8.7265 </r>
       <r>    -8.0500     3.1481     8.7579 </r>
       <r>    -8.0400     3.0667     8.7886 </r>
       <r>    -8.0300     2.9859     8.8185 </r>
       <r>    -8.0200     2.9057     8.8475 </r>
       <r>    -8.0100     2.8262     8.8758 </r>
       <r>    -8.0000     2.7478     8.9033 </r>
       <r>    -7.9900     2.6703     8.9300 </r>
       <r>    -7.9800     2.5939     8.9559 </r>
       <r>    -7.9700     2.5187     8.9811 </r>
       <r>    -7.9600     2.4448     9.0055 </r>
       <r>    -7.9500     2.3722     9.0293 </r>
       <r>    -7.9400     2.3011     9.0523 </r>
       <r>    -7.9300     2.2318     9.0746 </r>
       <r>    -7.9200     2.1644     9.0962 </r>
       <r>    -7.9100     2.0992     9.1172 </r>
       <r>    -7.9000     2.0367     9.1376 </r>
       <r>    -7.8900     1.9774     9.1574 </r>
       <r>    -7.8800     1.9216     9.1766 </r>
       <r>    -7.8700     1.8701     9.1953 </r>
       <r>    -7.8600     1.8235     9.2135 </r>
       <r>    -7.8500     1.7825     9.2313 </r>
       <r>    -7.8400     1.7479     9.2488 </r>
       <r>    -7.8300     1.7204     9.2660 </r>
       <r>    -7.8200     1.7008     9.2830 </r>
       <r>    -7.8100     1.6900     9.2999 </r>
       <r>    -7.8000     1.6886     9.3168 </r>
       <r>    -7.7900     1.6973     9.3338 </r>
       <r>    -7.7800     1.7169     9.3510 </r>
       <r>    -7.7700     1.7479     9.3684 </r>
       <r>    -7.7600     1.7907     9.3863 </r>
       <r>    -7.7500     1.8456     9.4048 </r>
       <r>    -7.7400     1.9127     9.4239 </r>
       <r>    -7.7300     1.9921     9.4438 </r>
       <r>    -7.7200     2.0836     9.4647 </r>
       <r>    -7.7100     2.1868     9.4866 </r>
       <r>    -7.7000     2.3013     9.5096 </r>
       <r>    -7.6900     2.4261     9.5338 </r>
       <r>    -7.6800     2.5605     9.5594 </r>
       <r>    -7.6700     2.7034     9.5865 </r>
       <r>    -7.6600     2.8534     9.6150 </r>
       <r>    -7.6500     3.0091     9.6451 </r>
       <r>    -7.6400     3.1690     9.6768 </r>
       <r>    -7.6300     3.3315     9.7101 </r>
       <r>    -7.6200     3.4947     9.7450 </r>
       <r>    -7.6100     3.6570     9.7816 </r>
       <r>    -7.6000     3.8164     9.8198 </r>
       <r>    -7.5900     3.9713     9.8595 </r>
       <r>    -7.5800     4.1197     9.9007 </r>
       <r>    -7.5700     4.2601     9.9433 </r>
       <r>    -7.5600     4.3908     9.9872 </r>
       <r>    -7.5500     4.5105    10.0323 </r>
       <r>    -7.5400     4.6177    10.0785 </r>
       <r>    -7.5300     4.7113    10.1256 </r>
       <r>    -7.5200     4.7904    10.1735 </r>
       <r>    -7.5100     4.8543    10.2220 </r>
       <r>    -7.5000     4.9025    10.2711 </r>
       <r>    -7.4900     4.9345    10.3204 </r>
       <r>    -7.4800     4.9504    10.3699 </r>
       <r>    -7.4700     4.9501    10.4194 </r>
       <r>    -7.4600     4.9341    10.4688 </r>
       <r>    -7.4500     4.9027    10.5178 </r>
       <r>    -7.4400     4.8566    10.5663 </r>
       <r>    -7.4300     4.7966    10.6143 </r>
       <r>    -7.4200     4.7235    10.6615 </r>
       <r>    -7.4100     4.6384    10.7079 </r>
       <r>    -7.4000     4.5424    10.7534 </r>
       <r>    -7.3900     4.4366    10.7977 </r>
       <r>    -7.3800     4.3221    10.8409 </r>
       <r>    -7.3700     4.2002    10.8829 </r>
       <r>    -7.3600     4.0720    10.9237 </r>
       <r>    -7.3500     3.9388    10.9631 </r>
       <r>    -7.3400     3.8017    11.0011 </r>
       <r>    -7.3300     3.6618    11.0377 </r>
       <r>    -7.3200     3.5203    11.0729 </r>
       <r>    -7.3100     3.3781    11.1067 </r>
       <r>    -7.3000     3.2362    11.1390 </r>
       <r>    -7.2900     3.0957    11.1700 </r>
       <r>    -7.2800     2.9573    11.1996 </r>
       <r>    -7.2700     2.8218    11.2278 </r>
       <r>    -7.2600     2.6902    11.2547 </r>
       <r>    -7.2500     2.5629    11.2803 </r>
       <r>    -7.2400     2.4408    11.3047 </r>
       <r>    -7.2300     2.3244    11.3280 </r>
       <r>    -7.2200     2.2141    11.3501 </r>
       <r>    -7.2100     2.1106    11.3712 </r>
       <r>    -7.2000     2.0143    11.3914 </r>
       <r>    -7.1900     1.9253    11.4106 </r>
       <r>    -7.1800     1.8442    11.4290 </r>
       <r>    -7.1700     1.7710    11.4468 </r>
       <r>    -7.1600     1.7059    11.4638 </r>
       <r>    -7.1500     1.6490    11.4803 </r>
       <r>    -7.1400     1.6003    11.4963 </r>
       <r>    -7.1300     1.5598    11.5119 </r>
       <r>    -7.1200     1.5271    11.5272 </r>
       <r>    -7.1100     1.5022    11.5422 </r>
       <r>    -7.1000     1.4847    11.5570 </r>
       <r>    -7.0900     1.4743    11.5718 </r>
       <r>    -7.0800     1.4704    11.5865 </r>
       <r>    -7.0700     1.4727    11.6012 </r>
       <r>    -7.0600     1.4805    11.6160 </r>
       <r>    -7.0500     1.4932    11.6310 </r>
       <r>    -7.0400     1.5103    11.6461 </r>
       <r>    -7.0300     1.5310    11.6614 </r>
       <r>    -7.0200     1.5546    11.6769 </r>
       <r>    -7.0100     1.5805    11.6927 </r>
       <r>    -7.0000     1.6079    11.7088 </r>
       <r>    -6.9900     1.6362    11.7252 </r>
       <r>    -6.9800     1.6647    11.7418 </r>
       <r>    -6.9700     1.6928    11.7587 </r>
       <r>    -6.9600     1.7197    11.7759 </r>
       <r>    -6.9500     1.7451    11.7934 </r>
       <r>    -6.9400     1.7683    11.8111 </r>
       <r>    -6.9300     1.7889    11.8290 </r>
       <r>    -6.9200     1.8064    11.8470 </r>
       <r>    -6.9100     1.8205    11.8652 </r>
       <r>    -6.9000     1.8310    11.8835 </r>
       <r>    -6.8900     1.8374    11.9019 </r>
       <r>    -6.8800     1.8398    11.9203 </r>
       <r>    -6.8700     1.8379    11.9387 </r>
       <r>    -6.8600     1.8317    11.9570 </r>
       <r>    -6.8500     1.8212    11.9752 </r>
       <r>    -6.8400     1.8063    11.9933 </r>
       <r>    -6.8300     1.7874    12.0112 </r>
       <r>    -6.8200     1.7644    12.0288 </r>
       <r>    -6.8100     1.7376    12.0462 </r>
       <r>    -6.8000     1.7072    12.0632 </r>
       <r>    -6.7900     1.6736    12.0800 </r>
       <r>    -6.7800     1.6371    12.0964 </r>
       <r>    -6.7700     1.5980    12.1123 </r>
       <r>    -6.7600     1.5568    12.1279 </r>
       <r>    -6.7500     1.5141    12.1430 </r>
       <r>    -6.7400     1.4701    12.1577 </r>
       <r>    -6.7300     1.4257    12.1720 </r>
       <r>    -6.7200     1.3812    12.1858 </r>
       <r>    -6.7100     1.3373    12.1992 </r>
       <r>    -6.7000     1.2946    12.2121 </r>
       <r>    -6.6900     1.2538    12.2247 </r>
       <r>    -6.6800     1.2155    12.2368 </r>
       <r>    -6.6700     1.1805    12.2486 </r>
       <r>    -6.6600     1.1494    12.2601 </r>
       <r>    -6.6500     1.1229    12.2714 </r>
       <r>    -6.6400     1.1017    12.2824 </r>
       <r>    -6.6300     1.0864    12.2932 </r>
       <r>    -6.6200     1.0777    12.3040 </r>
       <r>    -6.6100     1.0762    12.3148 </r>
       <r>    -6.6000     1.0825    12.3256 </r>
       <r>    -6.5900     1.0970    12.3366 </r>
       <r>    -6.5800     1.1204    12.3478 </r>
       <r>    -6.5700     1.1529    12.3593 </r>
       <r>    -6.5600     1.1949    12.3712 </r>
       <r>    -6.5500     1.2466    12.3837 </r>
       <r>    -6.5400     1.3082    12.3968 </r>
       <r>    -6.5300     1.3799    12.4106 </r>
       <r>    -6.5200     1.4614    12.4252 </r>
       <r>    -6.5100     1.5528    12.4407 </r>
       <r>    -6.5000     1.6538    12.4573 </r>
       <r>    -6.4900     1.7640    12.4749 </r>
       <r>    -6.4800     1.8830    12.4937 </r>
       <r>    -6.4700     2.0102    12.5138 </r>
       <r>    -6.4600     2.1451    12.5353 </r>
       <r>    -6.4500     2.2868    12.5582 </r>
       <r>    -6.4400     2.4346    12.5825 </r>
       <r>    -6.4300     2.5875    12.6084 </r>
       <r>    -6.4200     2.7446    12.6358 </r>
       <r>    -6.4100     2.9048    12.6649 </r>
       <r>    -6.4000     3.0670    12.6956 </r>
       <r>    -6.3900     3.2301    12.7279 </r>
       <r>    -6.3800     3.3930    12.7618 </r>
       <r>    -6.3700     3.5545    12.7973 </r>
       <r>    -6.3600     3.7134    12.8345 </r>
       <r>    -6.3500     3.8686    12.8731 </r>
       <r>    -6.3400     4.0189    12.9133 </r>
       <r>    -6.3300     4.1632    12.9550 </r>
       <r>    -6.3200     4.3005    12.9980 </r>
       <r>    -6.3100     4.4298    13.0423 </r>
       <r>    -6.3000     4.5501    13.0878 </r>
       <r>    -6.2900     4.6605    13.1344 </r>
       <r>    -6.2800     4.7603    13.1820 </r>
       <r>    -6.2700     4.8488    13.2305 </r>
       <r>    -6.2600     4.9254    13.2797 </r>
       <r>    -6.2500     4.9895    13.3296 </r>
       <r>    -6.2400     5.0407    13.3800 </r>
       <r>    -6.2300     5.0788    13.4308 </r>
       <r>    -6.2200     5.1034    13.4818 </r>
       <r>    -6.2100     5.1144    13.5330 </r>
       <r>    -6.2000     5.1120    13.5841 </r>
       <r>    -6.1900     5.0960    13.6351 </r>
       <r>    -6.1800     5.0668    13.6857 </r>
       <r>    -6.1700     5.0245    13.7360 </r>
       <r>    -6.1600     4.9697    13.7857 </r>
       <r>    -6.1500     4.9026    13.8347 </r>
       <r>    -6.1400     4.8240    13.8829 </r>
       <r>    -6.1300     4.7344    13.9303 </r>
       <r>    -6.1200     4.6347    13.9766 </r>
       <r>    -6.1100     4.5254    14.0219 </r>
       <r>    -6.1000     4.4077    14.0660 </r>
       <r>    -6.0900     4.2823    14.1088 </r>
       <r>    -6.0800     4.1502    14.1503 </r>
       <r>    -6.0700     4.0126    14.1904 </r>
       <r>    -6.0600     3.8704    14.2291 </r>
       <r>    -6.0500     3.7248    14.2664 </r>
       <r>    -6.0400     3.5768    14.3021 </r>
       <r>    -6.0300     3.4277    14.3364 </r>
       <r>    -6.0200     3.2785    14.3692 </r>
       <r>    -6.0100     3.1303    14.4005 </r>
       <r>    -6.0000     2.9842    14.4303 </r>
       <r>    -5.9900     2.8414    14.4588 </r>
       <r>    -5.9800     2.7027    14.4858 </r>
       <r>    -5.9700     2.5692    14.5115 </r>
       <r>    -5.9600     2.4418    14.5359 </r>
       <r>    -5.9500     2.3213    14.5591 </r>
       <r>    -5.9400     2.2084    14.5812 </r>
       <r>    -5.9300     2.1039    14.6022 </r>
       <r>    -5.9200     2.0082    14.6223 </r>
       <r>    -5.9100     1.9220    14.6415 </r>
       <r>    -5.9000     1.8456    14.6600 </r>
       <r>    -5.8900     1.7793    14.6778 </r>
       <r>    -5.8800     1.7231    14.6950 </r>
       <r>    -5.8700     1.6774    14.7118 </r>
       <r>    -5.8600     1.6418    14.7282 </r>
       <r>    -5.8500     1.6164    14.7444 </r>
       <r>    -5.8400     1.6008    14.7604 </r>
       <r>    -5.8300     1.5947    14.7763 </r>
       <r>    -5.8200     1.5976    14.7923 </r>
       <r>    -5.8100     1.6089    14.8084 </r>
       <r>    -5.8000     1.6280    14.8247 </r>
       <r>    -5.7900     1.6542    14.8412 </r>
       <r>    -5.7800     1.6866    14.8581 </r>
       <r>    -5.7700     1.7244    14.8753 </r>
       <r>    -5.7600     1.7666    14.8930 </r>
       <r>    -5.7500     1.8124    14.9111 </r>
       <r>    -5.7400     1.8607    14.9297 </r>
       <r>    -5.7300     1.9107    14.9488 </r>
       <r>    -5.7200     1.9614    14.9684 </r>
       <r>    -5.7100     2.0119    14.9886 </r>
       <r>    -5.7000     2.0613    15.0092 </r>
       <r>    -5.6900     2.1089    15.0303 </r>
       <r>    -5.6800     2.1539    15.0518 </r>
       <r>    -5.6700     2.1958    15.0738 </r>
       <r>    -5.6600     2.2339    15.0961 </r>
       <r>    -5.6500     2.2680    15.1188 </r>
       <r>    -5.6400     2.2976    15.1418 </r>
       <r>    -5.6300     2.3227    15.1650 </r>
       <r>    -5.6200     2.3432    15.1884 </r>
       <r>    -5.6100     2.3591    15.2120 </r>
       <r>    -5.6000     2.3706    15.2357 </r>
       <r>    -5.5900     2.3781    15.2595 </r>
       <r>    -5.5800     2.3818    15.2833 </r>
       <r>    -5.5700     2.3823    15.3071 </r>
       <r>    -5.5600     2.3801    15.3309 </r>
       <r>    -5.5500     2.3757    15.3547 </r>
       <r>    -5.5400     2.3697    15.3784 </r>
       <r>    -5.5300     2.3629    15.4020 </r>
       <r>    -5.5200     2.3559    15.4256 </r>
       <r>    -5.5100     2.3493    15.4491 </r>
       <r>    -5.5000     2.3436    15.4725 </r>
       <r>    -5.4900     2.3395    15.4959 </r>
       <r>    -5.4800     2.3375    15.5193 </r>
       <r>    -5.4700     2.3380    15.5427 </r>
       <r>    -5.4600     2.3413    15.5661 </r>
       <r>    -5.4500     2.3478    15.5895 </r>
       <r>    -5.4400     2.3575    15.6131 </r>
       <r>    -5.4300     2.3707    15.6368 </r>
       <r>    -5.4200     2.3873    15.6607 </r>
       <r>    -5.4100     2.4072    15.6848 </r>
       <r>    -5.4000     2.4302    15.7091 </r>
       <r>    -5.3900     2.4562    15.7336 </r>
       <r>    -5.3800     2.4846    15.7585 </r>
       <r>    -5.3700     2.5153    15.7836 </r>
       <r>    -5.3600     2.5477    15.8091 </r>
       <r>    -5.3500     2.5813    15.8349 </r>
       <r>    -5.3400     2.6156    15.8611 </r>
       <r>    -5.3300     2.6501    15.8876 </r>
       <r>    -5.3200     2.6843    15.9144 </r>
       <r>    -5.3100     2.7175    15.9416 </r>
       <r>    -5.3000     2.7493    15.9691 </r>
       <r>    -5.2900     2.7792    15.9969 </r>
       <r>    -5.2800     2.8067    16.0250 </r>
       <r>    -5.2700     2.8315    16.0533 </r>
       <r>    -5.2600     2.8533    16.0818 </r>
       <r>    -5.2500     2.8716    16.1105 </r>
       <r>    -5.2400     2.8864    16.1394 </r>
       <r>    -5.2300     2.8975    16.1684 </r>
       <r>    -5.2200     2.9049    16.1974 </r>
       <r>    -5.2100     2.9086    16.2265 </r>
       <r>    -5.2000     2.9087    16.2556 </r>
       <r>    -5.1900     2.9054    16.2846 </r>
       <r>    -5.1800     2.8990    16.3136 </r>
       <r>    -5.1700     2.8898    16.3425 </r>
       <r>    -5.1600     2.8782    16.3713 </r>
       <r>    -5.1500     2.8646    16.3999 </r>
       <r>    -5.1400     2.8495    16.4284 </r>
       <r>    -5.1300     2.8333    16.4568 </r>
       <r>    -5.1200     2.8166    16.4849 </r>
       <r>    -5.1100     2.7999    16.5129 </r>
       <r>    -5.1000     2.7836    16.5408 </r>
       <r>    -5.0900     2.7682    16.5685 </r>
       <r>    -5.0800     2.7540    16.5960 </r>
       <r>    -5.0700     2.7415    16.6234 </r>
       <r>    -5.0600     2.7309    16.6507 </r>
       <r>    -5.0500     2.7224    16.6779 </r>
       <r>    -5.0400     2.7161    16.7051 </r>
       <r>    -5.0300     2.7120    16.7322 </r>
       <r>    -5.0200     2.7099    16.7593 </r>
       <r>    -5.0100     2.7098    16.7864 </r>
       <r>    -5.0000     2.7113    16.8135 </r>
       <r>    -4.9900     2.7140    16.8407 </r>
       <r>    -4.9800     2.7174    16.8679 </r>
       <r>    -4.9700     2.7211    16.8951 </r>
       <r>    -4.9600     2.7244    16.9223 </r>
       <r>    -4.9500     2.7266    16.9496 </r>
       <r>    -4.9400     2.7271    16.9768 </r>
       <r>    -4.9300     2.7253    17.0041 </r>
       <r>    -4.9200     2.7204    17.0313 </r>
       <r>    -4.9100     2.7118    17.0584 </r>
       <r>    -4.9000     2.6991    17.0854 </r>
       <r>    -4.8900     2.6816    17.1122 </r>
       <r>    -4.8800     2.6591    17.1388 </r>
       <r>    -4.8700     2.6312    17.1651 </r>
       <r>    -4.8600     2.5977    17.1911 </r>
       <r>    -4.8500     2.5587    17.2167 </r>
       <r>    -4.8400     2.5142    17.2418 </r>
       <r>    -4.8300     2.4644    17.2665 </r>
       <r>    -4.8200     2.4098    17.2906 </r>
       <r>    -4.8100     2.3507    17.3141 </r>
       <r>    -4.8000     2.2877    17.3370 </r>
       <r>    -4.7900     2.2216    17.3592 </r>
       <r>    -4.7800     2.1530    17.3807 </r>
       <r>    -4.7700     2.0829    17.4015 </r>
       <r>    -4.7600     2.0119    17.4217 </r>
       <r>    -4.7500     1.9411    17.4411 </r>
       <r>    -4.7400     1.8713    17.4598 </r>
       <r>    -4.7300     1.8032    17.4778 </r>
       <r>    -4.7200     1.7377    17.4952 </r>
       <r>    -4.7100     1.6753    17.5119 </r>
       <r>    -4.7000     1.6169    17.5281 </r>
       <r>    -4.6900     1.5627    17.5437 </r>
       <r>    -4.6800     1.5133    17.5589 </r>
       <r>    -4.6700     1.4688    17.5736 </r>
       <r>    -4.6600     1.4294    17.5879 </r>
       <r>    -4.6500     1.3951    17.6018 </r>
       <r>    -4.6400     1.3657    17.6155 </r>
       <r>    -4.6300     1.3411    17.6289 </r>
       <r>    -4.6200     1.3208    17.6421 </r>
       <r>    -4.6100     1.3045    17.6551 </r>
       <r>    -4.6000     1.2915    17.6680 </r>
       <r>    -4.5900     1.2813    17.6809 </r>
       <r>    -4.5800     1.2733    17.6936 </r>
       <r>    -4.5700     1.2667    17.7063 </r>
       <r>    -4.5600     1.2609    17.7189 </r>
       <r>    -4.5500     1.2552    17.7314 </r>
       <r>    -4.5400     1.2490    17.7439 </r>
       <r>    -4.5300     1.2417    17.7563 </r>
       <r>    -4.5200     1.2327    17.7686 </r>
       <r>    -4.5100     1.2215    17.7809 </r>
       <r>    -4.5000     1.2078    17.7929 </r>
       <r>    -4.4900     1.1913    17.8049 </r>
       <r>    -4.4800     1.1716    17.8166 </r>
       <r>    -4.4700     1.1487    17.8281 </r>
       <r>    -4.4600     1.1225    17.8393 </r>
       <r>    -4.4500     1.0930    17.8502 </r>
       <r>    -4.4400     1.0604    17.8608 </r>
       <r>    -4.4300     1.0249    17.8711 </r>
       <r>    -4.4200     0.9867    17.8809 </r>
       <r>    -4.4100     0.9460    17.8904 </r>
       <r>    -4.4000     0.9034    17.8994 </r>
       <r>    -4.3900     0.8591    17.9080 </r>
       <r>    -4.3800     0.8135    17.9162 </r>
       <r>    -4.3700     0.7671    17.9238 </r>
       <r>    -4.3600     0.7203    17.9310 </r>
       <r>    -4.3500     0.6734    17.9378 </r>
       <r>    -4.3400     0.6269    17.9440 </r>
       <r>    -4.3300     0.5811    17.9498 </r>
       <r>    -4.3200     0.5363    17.9552 </r>
       <r>    -4.3100     0.4929    17.9601 </r>
       <r>    -4.3000     0.4510    17.9646 </r>
       <r>    -4.2900     0.4110    17.9688 </r>
       <r>    -4.2800     0.3729    17.9725 </r>
       <r>    -4.2700     0.3369    17.9758 </r>
       <r>    -4.2600     0.3031    17.9789 </r>
       <r>    -4.2500     0.2716    17.9816 </r>
       <r>    -4.2400     0.2423    17.9840 </r>
       <r>    -4.2300     0.2153    17.9862 </r>
       <r>    -4.2200     0.1905    17.9881 </r>
       <r>    -4.2100     0.1679    17.9898 </r>
       <r>    -4.2000     0.1474    17.9912 </r>
       <r>    -4.1900     0.1288    17.9925 </r>
       <r>    -4.1800     0.1121    17.9936 </r>
       <r>    -4.1700     0.0972    17.9946 </r>
       <r>    -4.1600     0.0840    17.9955 </r>
       <r>    -4.1500     0.0723    17.9962 </r>
       <r>    -4.1400     0.0619    17.9968 </r>
       <r>    -4.1300     0.0529    17.9973 </r>
       <r>    -4.1200     0.0449    17.9978 </r>
       <r>    -4.1100     0.0381    17.9982 </r>
       <r>    -4.1000     0.0321    17.9985 </r>
       <r>    -4.0900     0.0270    17.9987 </r>
       <r>    -4.0800     0.0226    17.9990 </r>
       <r>    -4.0700     0.0188    17.9992 </r>
       <r>    -4.0600     0.0157    17.9993 </r>
       <r>    -4.0500     0.0130    17.9994 </r>
       <r>    -4.0400     0.0107    17.9995 </r>
       <r>    -4.0300     0.0088    17.9996 </r>
       <r>    -4.0200     0.0072    17.9997 </r>
       <r>    -4.0100     0.0058    17.9998 </r>
       <r>    -4.0000     0.0047    17.9998 </r>
       <r>    -3.9900     0.0038    17.9999 </r>
       <r>    -3.9800     0.0031    17.9999 </r>
       <r>    -3.9700     0.0025    17.9999 </r>
       <r>    -3.9600     0.0020    17.9999 </r>
       <r>    -3.9500     0.0016    17.9999 </r>
       <r>    -3.9400     0.0012    18.0000 </r>
       <r>    -3.9300     0.0010    18.0000 </r>
       <r>    -3.9200     0.0008    18.0000 </r>
       <r>    -3.9100     0.0006    18.0000 </r>
       <r>    -3.9000     0.0005    18.0000 </r>
       <r>    -3.8900     0.0004    18.0000 </r>
       <r>    -3.8800     0.0003    18.0000 </r>
       <r>    -3.8700     0.0002    18.0000 </r>
       <r>    -3.8600     0.0002    18.0000 </r>
       <r>    -3.8500     0.0001    18.0000 </r>
       <r>    -3.8400     0.0001    18.0000 </r>
       <r>    -3.8300     0.0001    18.0000 </r>
       <r>    -3.8200     0.0001    18.0000 </r>
       <r>    -3.8100     0.0000    18.0000 </r>
       <r>    -3.8000     0.0000    18.0000 </r>
       <r>    -3.7900     0.0000    18.0000 </r>
       <r>    -3.7800     0.0000    18.0000 </r>
       <r>    -3.7700     0.0000    18.0000 </r>
       <r>    -3.7600     0.0000    18.0000 </r>
       <r>    -3.7500     0.0000    18.0000 </r>
       <r>    -3.7400     0.0000    18.0000 </r>
       <r>    -3.7300     0.0000    18.0000 </r>
       <r>    -3.7200     0.0000    18.0000 </r>
       <r>    -3.7100     0.0000    18.0000 </r>
       <r>    -3.7000     0.0000    18.0000 </r>
       <r>    -3.6900     0.0000    18.0000 </r>
       <r>    -3.6800     0.0000    18.0000 </r>
       <r>    -3.6700     0.0000    18.0000 </r>
       <r>    -3.6600     0.0000    18.0000 </r>
       <r>    -3.6500     0.0000    18.0000 </r>
       <r>    -3.6400     0.0000    18.0000 </r>
       <r>    -3.6300     0.0000    18.0000 </r>
       <r>    -3.6200     0.0000    18.0000 </r>
       <r>    -3.6100     0.0000    18.0000 </r>
       <r>    -3.6000     0.0000    18.0000 </r>
       <r>    -3.5900     0.0000    18.0000 </r>
       <r>    -3.5800     0.0000    18.0000 </r>
       <r>    -3.5700     0.0000    18.0000 </r>
       <r>    -3.5600     0.0000    18.0000 </r>
       <r>    -3.5500     0.0000    18.0000 </r>
       <r>    -3.5400     0.0000    18.0000 </r>
       <r>    -3.5300     0.0000    18.0000 </r>
       <r>    -3.5200     0.0000    18.0000 </r>
       <r>    -3.5100     0.0000    18.0000 </r>
       <r>    -3.5000     0.0000    18.0000 </r>
       <r>    -3.4900     0.0000    18.0000 </r>
       <r>    -3.4800     0.0000    18.0000 </r>
       <r>    -3.4700     0.0000    18.0000 </r>
       <r>    -3.4600     0.0000    18.0000 </r>
       <r>    -3.4500     0.0000    18.0000 </r>
       <r>    -3.4400     0.0000    18.0000 </r>
       <r>    -3.4300     0.0000    18.0000 </r>
       <r>    -3.4200     0.0000    18.0000 </r>
       <r>    -3.4100     0.0000    18.0000 </r>
       <r>    -3.4000     0.0000    18.0000 </r>
       <r>    -3.3900     0.0000    18.0000 </r>
       <r>    -3.3800     0.0000    18.0000 </r>
       <r>    -3.3700     0.0000    18.0000 </r>
       <r>    -3.3600     0.0000    18.0000 </r>
       <r>    -3.3500     0.0000    18.0000 </r>
       <r>    -3.3400     0.0000    18.0000 </r>
       <r>    -3.3300     0.0000    18.0000 </r>
       <r>    -3.3200     0.0000    18.0000 </r>
       <r>    -3.3100     0.0000    18.0000 </r>
       <r>    -3.3000     0.0000    18.0000 </r>
       <r>    -3.2900     0.0000    18.0000 </r>
       <r>    -3.2800     0.0000    18.0000 </r>
       <r>    -3.2700     0.0000    18.0000 </r>
       <r>    -3.2600     0.0000    18.0000 </r>
       <r>    -3.2500     0.0000    18.0000 </r>
       <r>    -3.2400     0.0000    18.0000 </r>
       <r>    -3.2300     0.0000    18.0000 </r>
       <r>    -3.2200     0.0000    18.0000 </r>
       <r>    -3.2100     0.0000    18.0000 </r>
       <r>    -3.2000     0.0000    18.0000 </r>
       <r>    -3.1900     0.0000    18.0000 </r>
       <r>    -3.1800     0.0000    18.0000 </r>
       <r>    -3.1700     0.0000    18.0000 </r>
       <r>    -3.1600     0.0000    18.0000 </r>
       <r>    -3.1500     0.0001    18.0000 </r>
       <r>    -3.1400     0.0001    18.0000 </r>
       <r>    -3.1300     0.0001    18.0000 </r>
       <r>    -3.1200     0.0001    18.0000 </r>
       <r>    -3.1100     0.0002    18.0000 </r>
       <r>    -3.1000     0.0002    18.0000 </r>
       <r>    -3.0900     0.0003    18.0000 </r>
       <r>    -3.0800     0.0004    18.0000 </r>
       <r>    -3.0700     0.0006    18.0000 </r>
       <r>    -3.0600     0.0007    18.0000 </r>
       <r>    -3.0500     0.0009    18.0000 </r>
       <r>    -3.0400     0.0012    18.0001 </r>
       <r>    -3.0300     0.0015    18.0001 </r>
       <r>    -3.0200     0.0020    18.0001 </r>
       <r>    -3.0100     0.0025    18.0001 </r>
       <r>    -3.0000     0.0031    18.0001 </r>
       <r>    -2.9900     0.0039    18.0002 </r>
       <r>    -2.9800     0.0049    18.0002 </r>
       <r>    -2.9700     0.0061    18.0003 </r>
       <r>    -2.9600     0.0075    18.0004 </r>
       <r>    -2.9500     0.0092    18.0005 </r>
       <r>    -2.9400     0.0112    18.0006 </r>
       <r>    -2.9300     0.0137    18.0007 </r>
       <r>    -2.9200     0.0166    18.0009 </r>
       <r>    -2.9100     0.0200    18.0011 </r>
       <r>    -2.9000     0.0240    18.0013 </r>
       <r>    -2.8900     0.0286    18.0016 </r>
       <r>    -2.8800     0.0340    18.0019 </r>
       <r>    -2.8700     0.0403    18.0023 </r>
       <r>    -2.8600     0.0474    18.0028 </r>
       <r>    -2.8500     0.0556    18.0034 </r>
       <r>    -2.8400     0.0649    18.0040 </r>
       <r>    -2.8300     0.0755    18.0048 </r>
       <r>    -2.8200     0.0873    18.0056 </r>
       <r>    -2.8100     0.1006    18.0067 </r>
       <r>    -2.8000     0.1153    18.0078 </r>
       <r>    -2.7900     0.1317    18.0091 </r>
       <r>    -2.7800     0.1498    18.0106 </r>
       <r>    -2.7700     0.1696    18.0123 </r>
       <r>    -2.7600     0.1914    18.0142 </r>
       <r>    -2.7500     0.2150    18.0164 </r>
       <r>    -2.7400     0.2407    18.0188 </r>
       <r>    -2.7300     0.2684    18.0215 </r>
       <r>    -2.7200     0.2983    18.0245 </r>
       <r>    -2.7100     0.3302    18.0278 </r>
       <r>    -2.7000     0.3644    18.0314 </r>
       <r>    -2.6900     0.4009    18.0354 </r>
       <r>    -2.6800     0.4396    18.0398 </r>
       <r>    -2.6700     0.4806    18.0446 </r>
       <r>    -2.6600     0.5239    18.0499 </r>
       <r>    -2.6500     0.5696    18.0555 </r>
       <r>    -2.6400     0.6178    18.0617 </r>
       <r>    -2.6300     0.6684    18.0684 </r>
       <r>    -2.6200     0.7216    18.0756 </r>
       <r>    -2.6100     0.7775    18.0834 </r>
       <r>    -2.6000     0.8361    18.0918 </r>
[...]
        <r>  0.0072  0.0713  0.0134  0.0405  0.0000  0.0000  0.0000  0.0000  0.0000 </r>
        <r>  0.0072  0.0713  0.0134  0.0405  0.0000  0.0000  0.0000  0.0000  0.0000 </r>
       </set>
       <set comment="band 11">
        <r>  0.0059  0.0061  0.0000  0.0055  0.2850  0.0000  0.0991  0.0000  0.1012 </r>
        <r>  0.0007  0.0397  0.0049  0.0956  0.0000  0.0000  0.0000  0.0000  0.0000 </r>
        <r>  0.0007  0.0397  0.0049  0.0956  0.0000  0.0000  0.0000  0.0000  0.0000 </r>
       </set>
       <set comment="band 12">
        <r>  0.0000  0.0000  0.0002  0.0000  0.0000  0.2432  0.0000  0.3035  0.0000 </r>
        <r>  0.0257  0.0395  0.0135  0.0145  0.0000  0.0000  0.0000  0.0000  0.0000 </r>
        <r>  0.0257  0.0396  0.0135  0.0145  0.0000  0.0000  0.0000  0.0000  0.0000 </r>
       </set>
       <set comment="band 13">
        <r>  0.0000  0.0000  0.0027  0.0000  0.0000  0.2525  0.0000  0.1916  0.0000 </r>
        <r>  0.0025  0.0406  0.0086  0.1196  0.0000  0.0000  0.0000  0.0000  0.0000 </r>
        <r>  0.0025  0.0406  0.0086  0.1196  0.0000  0.0000  0.0000  0.0000  0.0000 </r>
       </set>
       <set comment="band 14">
        <r>  0.0049  0.0025  0.0002  0.0012  0.0010  0.0012  0.0142  0.0006  0.0024 </r>
        <r>  0.0068  0.0055  0.0173  0.0018  0.0000  0.0000  0.0000  0.0000  0.0000 </r>
        <r>  0.0029  0.0021  0.0012  0.0010  0.0000  0.0000  0.0000  0.0000  0.0000 </r>
       </set>
      </set>
      <set comment="kpoint 7">
       <set comment="band 1">
        <r>  0.0576  0.0184  0.0000  0.0166  0.0142  0.0000  0.0008  0.0000  0.0116 </r>
        <r>  0.3024  0.0013  0.0053  0.0010  0.0000  0.0000  0.0000  0.0000  0.0000 </r>
        <r>  0.3024  0.0013  0.0053  0.0010  0.0000  0.0000  0.0000  0.0000  0.0000 </r>
       </set>
       <set comment="band 2">
        <r>  0.0000  0.0000  0.0239  0.0000  0.0000  0.0400  0.0000  0.0372  0.0000 </r>
        <r>  0.3250  0.0007  0.0018  0.0006  0.0000  0.0000  0.0000  0.0000  0.0000 </r>
        <r>  0.3249  0.0007  0.0018  0.0006  0.0000  0.0000  0.0000  0.0000  0.0000 </r>
       </set>
       <set comment="band 3">
        <r>  0.0219  0.0058  0.0000  0.0251  0.1216  0.0000  0.0657  0.0000  0.1287 </r>
        <r>  0.0017  0.0523  0.0478  0.0482  0.0000  0.0000  0.0000  0.0000  0.0000 </r>
        <r>  0.0017  0.0523  0.0478  0.0482  0.0000  0.0000  0.0000  0.0000  0.0000 </r>
       </set>
       <set comment="band 4">
        <r>  0.0000  0.0000  0.0208  0.0000  0.0000  0.0062  0.0000  0.2846  0.0000 </r>
        <r>  0.0062  0.0662  0.0150  0.0979  0.0000  0.0000  0.0000  0.0000  0.0000 </r>
        <r>  0.0062  0.0662  0.0150  0.0979  0.0000  0.0000  0.0000  0.0000  0.0000 </r>
       </set>
       <set comment="band 5">
        <r>  0.1216  0.0191  0.0000  0.0235  0.0287  0.0000  0.0522  0.0000  0.0057 </r>
        <r>  0.0328  0.0238  0.1106  0.0311  0.0000  0.0000  0.0000  0.0000  0.0000 </r>
        <r>  0.0328  0.0238  0.1106  0.0311  0.0000  0.0000  0.0000  0.0000  0.0000 </r>
       </set>
       <set comment="band 6">
        <r>  0.0000  0.0000  0.0056  0.0000  0.0000  0.3935  0.0000  0.0047  0.0000 </r>
        <r>  0.0029  0.0869  0.0506  0.0342  0.0000  0.0000  0.0000  0.0000  0.0000 </r>
        <r>  0.0029  0.0869  0.0506  0.0342  0.0000  0.0000  0.0000  0.0000  0.0000 </r>
       </set>
       <set comment="band 7">
        <r>  0.0135  0.0434  0.0000  0.0225  0.0265  0.0000  0.1134  0.0000  0.1178 </r>
        <r>  0.0016  0.0793  0.0035  0.0967  0.0000  0.0000  0.0000  0.0000  0.0000 </r>
        <r>  0.0016  0.0793  0.0035  0.0967  0.0000  0.0000  0.0000  0.0000  0.0000 </r>
       </set>
       <set comment="band 8">
        <r>  0.0000  0.0000  0.0647  0.0000  0.0000  0.0064  0.0000  0.0673  0.0000 </r>
        <r>  0.0087  0.0383  0.1533  0.0651  0.0000  0.0000  0.0000  0.0000  0.0000 </r>
        <r>  0.0087  0.0383  0.1533  0.0651  0.0000  0.0000  0.0000  0.0000  0.0000 </r>
       </set>
       <set comment="band 9">
        <r>  0.0025  0.0077  0.0000  0.0016  0.2466  0.0000  0.2341  0.0000  0.1593 </r>
        <r>  0.0043  0.0375  0.0216  0.0220  0.0000  0.0000  0.0000  0.0000  0.0000 </r>
        <r>  0.0043  0.0375  0.0216  0.0220  0.0000  0.0000  0.0000  0.0000  0.0000 </r>
       </set>
       <set comment="band 10">
        <r>  0.0080  0.0088  0.0000  0.0051  0.1225  0.0000  0.0882  0.0000  0.3459 </r>
        <r>  0.0034  0.0445  0.0233  0.0137  0.0000  0.0000  0.0000  0.0000  0.0000 </r>
        <r>  0.0034  0.0445  0.0233  0.0137  0.0000  0.0000  0.0000  0.0000  0.0000 </r>
       </set>
       <set comment="band 11">
        <r>  0.0114  0.0028  0.0000  0.0006  0.3143  0.0000  0.3113  0.0000  0.0885 </r>
        <r>  0.0004  0.0205  0.0071  0.0399  0.0000  0.0000  0.0000  0.0000  0.0000 </r>
        <r>  0.0004  0.0205  0.0071  0.0399  0.0000  0.0000  0.0000  0.0000  0.0000 </r>
       </set>
       <set comment="band 12">
        <r>  0.0000  0.0000  0.0065  0.0000  0.0000  0.1057  0.0000  0.4327  0.0000 </r>
        <r>  0.0211  0.0366  0.0268  0.0058  0.0000  0.0000  0.0000  0.0000  0.0000 </r>
        <r>  0.0211  0.0366  0.0268  0.0058  0.0000  0.0000  0.0000  0.0000  0.0000 </r>
       </set>
       <set comment="band 13">
        <r>  0.0000  0.0000  0.0026  0.0000  0.0000  0.3983  0.0000  0.0885  0.0000 </r>
        <r>  0.0083  0.0430  0.0288  0.0702  0.0000  0.0000  0.0000  0.0000  0.0000 </r>
        <r>  0.0083  0.0430  0.0288  0.0702  0.0000  0.0000  0.0000  0.0000  0.0000 </r>
       </set>
       <set comment="band 14">
        <r>  0.0020  0.0109  0.0000  0.0161  0.0051  0.0000  0.0145  0.0000  0.0090 </r>
        <r>  0.0090  0.0054  0.0065  0.0012  0.0000  0.0000  0.0000  0.0000  0.0000 </r>
        <r>  0.0090  0.0053  0.0059  0.0013  0.0000  0.0000  0.0000  0.0000  0.0000 </r>
       </set>
      </set>
      <set comment="kpoint 8">
       <set comment="band 1">
        <r>  0.0208  0.0185  0.0000  0.0307  0.0314  0.0000  0.0003  0.0000  0.0158 </r>
        <r>  0.3194  0.0004  0.0059  0.0003  0.0000  0.0000  0.0000  0.0000  0.0000 </r>
        <r>  0.3196  0.0004  0.0059  0.0003  0.0000  0.0000  0.0000  0.0000  0.0000 </r>
       </set>
       <set comment="band 2">
        <r>  0.0000  0.0000  0.0071  0.0000  0.0000  0.0407  0.0000  0.0721  0.0000 </r>
        <r>  0.3311  0.0003  0.0027  0.0003  0.0000  0.0000  0.0000  0.0000  0.0000 </r>
        <r>  0.3310  0.0003  0.0027  0.0003  0.0000  0.0000  0.0000  0.0000  0.0000 </r>
       </set>
       <set comment="band 3">
        <r>  0.1026  0.0024  0.0000  0.0266  0.0645  0.0000  0.0342  0.0000  0.0433 </r>
        <r>  0.0043  0.0508  0.0087  0.1020  0.0000  0.0000  0.0000  0.0000  0.0000 </r>
        <r>  0.0043  0.0508  0.0087  0.1020  0.0000  0.0000  0.0000  0.0000  0.0000 </r>
       </set>
       <set comment="band 4">
        <r>  0.0000  0.0000  0.0350  0.0000  0.0000  0.0693  0.0000  0.1795  0.0000 </r>
        <r>  0.0071  0.0573  0.0054  0.1112  0.0000  0.0000  0.0000  0.0000  0.0000 </r>
        <r>  0.0071  0.0573  0.0054  0.1112  0.0000  0.0000  0.0000  0.0000  0.0000 </r>
       </set>
       <set comment="band 5">
        <r>  0.0162  0.0240  0.0000  0.0179  0.1402  0.0000  0.0904  0.0000  0.0527 </r>
        <r>  0.0206  0.0058  0.1295  0.0199  0.0000  0.0000  0.0000  0.0000  0.0000 </r>
        <r>  0.0206  0.0058  0.1295  0.0199  0.0000  0.0000  0.0000  0.0000  0.0000 </r>
       </set>
       <set comment="band 6">
        <r>  0.0000  0.0000  0.0256  0.0000  0.0000  0.3184  0.0000  0.0261  0.0000 </r>
        <r>  0.0020  0.1085  0.0279  0.0475  0.0000  0.0000  0.0000  0.0000  0.0000 </r>
        <r>  0.0020  0.1085  0.0279  0.0475  0.0000  0.0000  0.0000  0.0000  0.0000 </r>
       </set>
       <set comment="band 7">
        <r>  0.0233  0.0416  0.0000  0.0489  0.0014  0.0000  0.0710  0.0000  0.0230 </r>
        <r>  0.0063  0.1216  0.0321  0.0561  0.0000  0.0000  0.0000  0.0000  0.0000 </r>
        <r>  0.0063  0.1215  0.0320  0.0561  0.0000  0.0000  0.0000  0.0000  0.0000 </r>
       </set>
       <set comment="band 8">
        <r>  0.0000  0.0000  0.0363  0.0000  0.0000  0.0160  0.0000  0.1501  0.0000 </r>
        <r>  0.0118  0.0171  0.1757  0.0390  0.0000  0.0000  0.0000  0.0000  0.0000 </r>
        <r>  0.0118  0.0172  0.1757  0.0390  0.0000  0.0000  0.0000  0.0000  0.0000 </r>
       </set>
       <set comment="band 9">
        <r>  0.0034  0.0196  0.0000  0.0198  0.1840  0.0000  0.1603  0.0000  0.1971 </r>
        <r>  0.0008  0.0479  0.0257  0.0262  0.0000  0.0000  0.0000  0.0000  0.0000 </r>
        <r>  0.0008  0.0479  0.0257  0.0262  0.0000  0.0000  0.0000  0.0000  0.0000 </r>
       </set>
       <set comment="band 10">
        <r>  0.0051  0.0091  0.0000  0.0018  0.0649  0.0000  0.3342  0.0000  0.3775 </r>
        <r>  0.0002  0.0266  0.0149  0.0068  0.0000  0.0000  0.0000  0.0000  0.0000 </r>
        <r>  0.0002  0.0266  0.0149  0.0068  0.0000  0.0000  0.0000  0.0000  0.0000 </r>
       </set>
       <set comment="band 11">
        <r>  0.0154  0.0057  0.0000  0.0107  0.3789  0.0000  0.2183  0.0000  0.1807 </r>
        <r>  0.0021  0.0014  0.0171  0.0181  0.0000  0.0000  0.0000  0.0000  0.0000 </r>
        <r>  0.0021  0.0014  0.0171  0.0181  0.0000  0.0000  0.0000  0.0000  0.0000 </r>
       </set>
       <set comment="band 12">
        <r>  0.0000  0.0000  0.0063  0.0000  0.0000  0.1640  0.0000  0.3324  0.0000 </r>
        <r>  0.0091  0.0683  0.0151  0.0162  0.0000  0.0000  0.0000  0.0000  0.0000 </r>
        <r>  0.0091  0.0683  0.0151  0.0162  0.0000  0.0000  0.0000  0.0000  0.0000 </r>
       </set>
       <set comment="band 13">
        <r>  0.0000  0.0000  0.0004  0.0000  0.0000  0.3331  0.0000  0.1444  0.0000 </r>
        <r>  0.0189  0.0144  0.0665  0.0291  0.0000  0.0000  0.0000  0.0000  0.0000 </r>
        <r>  0.0189  0.0144  0.0666  0.0291  0.0000  0.0000  0.0000  0.0000  0.0000 </r>
       </set>
       <set comment="band 14">
        <r>  0.1877  0.0089  0.0000  0.0533  0.0404  0.0000  0.0061  0.0000  0.0387 </r>
        <r>  0.0001  0.0013  0.0115  0.0051  0.0000  0.0000  0.0000  0.0000  0.0000 </r>
        <r>  0.0001  0.0013  0.0115  0.0051  0.0000  0.0000  0.0000  0.0000  0.0000 </r>
       </set>
      </set>
      <set comment="kpoint 9">
       <set comment="band 1">
        <r>  0.0218  0.0321  0.0000  0.0178  0.0177  0.0000  0.0004  0.0000  0.0266 </r>
        <r>  0.3182  0.0009  0.0058  0.0003  0.0000  0.0000  0.0000  0.0000  0.0000 </r>
        <r>  0.3183  0.0009  0.0058  0.0003  0.0000  0.0000  0.0000  0.0000  0.0000 </r>
       </set>
       <set comment="band 2">
        <r>  0.0000  0.0000  0.0084  0.0000  0.0000  0.0705  0.0000  0.0375  0.0000 </r>
        <r>  0.3320  0.0005  0.0027  0.0002  0.0000  0.0000  0.0000  0.0000  0.0000 </r>
        <r>  0.3318  0.0005  0.0027  0.0002  0.0000  0.0000  0.0000  0.0000  0.0000 </r>
       </set>
       <set comment="band 3">
        <r>  0.0650  0.0098  0.0000  0.0293  0.0359  0.0000  0.0616  0.0000  0.1071 </r>
        <r>  0.0004  0.1066  0.0171  0.0360  0.0000  0.0000  0.0000  0.0000  0.0000 </r>
        <r>  0.0004  0.1067  0.0170  0.0360  0.0000  0.0000  0.0000  0.0000  0.0000 </r>
       </set>
       <set comment="band 4">
        <r>  0.0000  0.0000  0.0084  0.0000  0.0000  0.1284  0.0000  0.2208  0.0000 </r>
        <r>  0.0041  0.0958  0.0001  0.0665  0.0000  0.0000  0.0000  0.0000  0.0000 </r>
        <r>  0.0041  0.0958  0.0001  0.0665  0.0000  0.0000  0.0000  0.0000  0.0000 </r>
       </set>
       <set comment="band 5">
        <r>  0.0785  0.0205  0.0000  0.0103  0.0692  0.0000  0.0001  0.0000  0.0673 </r>
        <r>  0.0340  0.0203  0.1496  0.0151  0.0000  0.0000  0.0000  0.0000  0.0000 </r>
        <r>  0.0340  0.0203  0.1496  0.0151  0.0000  0.0000  0.0000  0.0000  0.0000 </r>
       </set>
       <set comment="band 6">
        <r>  0.0000  0.0000  0.0470  0.0000  0.0000  0.1650  0.0000  0.0582  0.0000 </r>
        <r>  0.0039  0.0671  0.0535  0.0781  0.0000  0.0000  0.0000  0.0000  0.0000 </r>
        <r>  0.0039  0.0671  0.0535  0.0781  0.0000  0.0000  0.0000  0.0000  0.0000 </r>
       </set>
       <set comment="band 7">
        <r>  0.0102  0.0636  0.0000  0.0362  0.0089  0.0000  0.1207  0.0000  0.0185 </r>
        <r>  0.0005  0.0419  0.0089  0.1233  0.0000  0.0000  0.0000  0.0000  0.0000 </r>
        <r>  0.0005  0.0419  0.0089  0.1233  0.0000  0.0000  0.0000  0.0000  0.0000 </r>
       </set>
       <set comment="band 8">
        <r>  0.0000  0.0000  0.0523  0.0000  0.0000  0.0592  0.0000  0.0753  0.0000 </r>
        <r>  0.0130  0.0383  0.1559  0.0459  0.0000  0.0000  0.0000  0.0000  0.0000 </r>
        <r>  0.0130  0.0383  0.1559  0.0459  0.0000  0.0000  0.0000  0.0000  0.0000 </r>
       </set>
       <set comment="band 9">
        <r>  0.0074  0.0001  0.0000  0.0000  0.2536  0.0000  0.1474  0.0000  0.2690 </r>
        <r>  0.0010  0.0277  0.0016  0.0448  0.0000  0.0000  0.0000  0.0000  0.0000 </r>
        <r>  0.0010  0.0277  0.0016  0.0448  0.0000  0.0000  0.0000  0.0000  0.0000 </r>
       </set>
       <set comment="band 10">
        <r>  0.0074  0.0139  0.0000  0.0052  0.0463  0.0000  0.5213  0.0000  0.1099 </r>
        <r>  0.0006  0.0275  0.0274  0.0128  0.0000  0.0000  0.0000  0.0000  0.0000 </r>
        <r>  0.0006  0.0275  0.0274  0.0128  0.0000  0.0000  0.0000  0.0000  0.0000 </r>
       </set>
       <set comment="band 11">
        <r>  0.0246  0.0117  0.0000  0.0045  0.4757  0.0000  0.0544  0.0000  0.2307 </r>
        <r>  0.0023  0.0029  0.0262  0.0081  0.0000  0.0000  0.0000  0.0000  0.0000 </r>
        <r>  0.0023  0.0029  0.0262  0.0081  0.0000  0.0000  0.0000  0.0000  0.0000 </r>
       </set>
       <set comment="band 12">
        <r>  0.0000  0.0000  0.0020  0.0000  0.0000  0.1394  0.0000  0.3941  0.0000 </r>
        <r>  0.0076  0.0257  0.0088  0.0394  0.0000  0.0000  0.0000  0.0000  0.0000 </r>
        <r>  0.0076  0.0257  0.0088  0.0394  0.0000  0.0000  0.0000  0.0000  0.0000 </r>
       </set>
       <set comment="band 13">
        <r>  0.0000  0.0000  0.0016  0.0000  0.0000  0.3946  0.0000  0.1490  0.0000 </r>
        <r>  0.0208  0.0094  0.0755  0.0248  0.0000  0.0000  0.0000  0.0000  0.0000 </r>
        <r>  0.0208  0.0094  0.0755  0.0248  0.0000  0.0000  0.0000  0.0000  0.0000 </r>
       </set>
       <set comment="band 14">
        <r>  0.1320  0.0177  0.0000  0.0491  0.0233  0.0000  0.0105  0.0000  0.0694 </r>
        <r>  0.0001  0.0023  0.0278  0.0034  0.0000  0.0000  0.0000  0.0000  0.0000 </r>
        <r>  0.0001  0.0023  0.0278  0.0034  0.0000  0.0000  0.0000  0.0000  0.0000 </r>
       </set>
      </set>
      <set comment="kpoint 10">
       <set comment="band 1">
        <r>  0.0037  0.0239  0.0000  0.0333  0.0320  0.0000  0.0001  0.0000  0.0232 </r>
        <r>  0.3267  0.0001  0.0062  0.0000  0.0000  0.0000  0.0000  0.0000  0.0000 </r>
        <r>  0.3269  0.0001  0.0062  0.0000  0.0000  0.0000  0.0000  0.0000  0.0000 </r>
       </set>
       <set comment="band 2">
        <r>  0.0000  0.0000  0.0012  0.0000  0.0000  0.0490  0.0000  0.0725  0.0000 </r>
        <r>  0.3362  0.0001  0.0031  0.0001  0.0000  0.0000  0.0000  0.0000  0.0000 </r>
        <r>  0.3359  0.0001  0.0031  0.0001  0.0000  0.0000  0.0000  0.0000  0.0000 </r>
       </set>
       <set comment="band 3">
        <r>  0.0000  0.0000  0.0052  0.0000  0.0000  0.1909  0.0000  0.1716  0.0000 </r>
        <r>  0.0014  0.0682  0.0002  0.0892  0.0000  0.0000  0.0000  0.0000  0.0000 </r>
        <r>  0.0014  0.0682  0.0002  0.0892  0.0000  0.0000  0.0000  0.0000  0.0000 </r>
       </set>
       <set comment="band 4">
        <r>  0.1158  0.0140  0.0000  0.0182  0.0234  0.0000  0.0697  0.0000  0.0120 </r>
        <r>  0.0010  0.0456  0.0008  0.1277  0.0000  0.0000  0.0000  0.0000  0.0000 </r>
        <r>  0.0010  0.0456  0.0008  0.1277  0.0000  0.0000  0.0000  0.0000  0.0000 </r>
       </set>
       <set comment="band 5">
        <r>  0.0098  0.0425  0.0000  0.0147  0.1350  0.0000  0.0570  0.0000  0.0583 </r>
        <r>  0.0128  0.0514  0.0919  0.0171  0.0000  0.0000  0.0000  0.0000  0.0000 </r>
        <r>  0.0128  0.0514  0.0918  0.0171  0.0000  0.0000  0.0000  0.0000  0.0000 </r>
       </set>
       <set comment="band 6">
        <r>  0.0254  0.0245  0.0000  0.0604  0.0232  0.0000  0.0166  0.0000  0.0498 </r>
        <r>  0.0173  0.0805  0.0842  0.0298  0.0000  0.0000  0.0000  0.0000  0.0000 </r>
        <r>  0.0173  0.0805  0.0842  0.0298  0.0000  0.0000  0.0000  0.0000  0.0000 </r>
       </set>
       <set comment="band 7">
        <r>  0.0000  0.0000  0.0880  0.0000  0.0000  0.0673  0.0000  0.0296  0.0000 </r>
        <r>  0.0021  0.1084  0.0206  0.0916  0.0000  0.0000  0.0000  0.0000  0.0000 </r>
        <r>  0.0021  0.1084  0.0206  0.0916  0.0000  0.0000  0.0000  0.0000  0.0000 </r>
       </set>
       <set comment="band 8">
        <r>  0.0000  0.0000  0.0202  0.0000  0.0000  0.0930  0.0000  0.1434  0.0000 </r>
        <r>  0.0174  0.0143  0.1843  0.0176  0.0000  0.0000  0.0000  0.0000  0.0000 </r>
        <r>  0.0174  0.0143  0.1843  0.0176  0.0000  0.0000  0.0000  0.0000  0.0000 </r>
       </set>
       <set comment="band 9">
        <r>  0.0039  0.0023  0.0000  0.0065  0.3005  0.0000  0.0597  0.0000  0.3201 </r>
        <r>  0.0000  0.0395  0.0037  0.0253  0.0000  0.0000  0.0000  0.0000  0.0000 </r>
        <r>  0.0000  0.0395  0.0037  0.0253  0.0000  0.0000  0.0000  0.0000  0.0000 </r>
       </set>
       <set comment="band 10">
        <r>  0.0367  0.0018  0.0000  0.0007  0.0402  0.0000  0.7004  0.0000  0.0491 </r>
        <r>  0.0000  0.0133  0.0025  0.0204  0.0000  0.0000  0.0000  0.0000  0.0000 </r>
        <r>  0.0000  0.0133  0.0025  0.0204  0.0000  0.0000  0.0000  0.0000  0.0000 </r>
       </set>
       <set comment="band 11">
        <r>  0.0000  0.0000  0.0013  0.0000  0.0000  0.3130  0.0000  0.1960  0.0000 </r>
        <r>  0.0008  0.0487  0.0001  0.0299  0.0000  0.0000  0.0000  0.0000  0.0000 </r>
        <r>  0.0008  0.0487  0.0001  0.0299  0.0000  0.0000  0.0000  0.0000  0.0000 </r>
       </set>
       <set comment="band 12">
        <r>  0.0025  0.0104  0.0000  0.0214  0.2945  0.0000  0.0103  0.0000  0.3826 </r>
        <r>  0.0037  0.0009  0.0672  0.0012  0.0000  0.0000  0.0000  0.0000  0.0000 </r>
        <r>  0.0037  0.0009  0.0672  0.0012  0.0000  0.0000  0.0000  0.0000  0.0000 </r>
       </set>
       <set comment="band 13">
        <r>  0.0000  0.0000  0.0003  0.0000  0.0000  0.2358  0.0000  0.3392  0.0000 </r>
        <r>  0.0266  0.0010  0.0995  0.0019  0.0000  0.0000  0.0000  0.0000  0.0000 </r>
        <r>  0.0266  0.0010  0.0995  0.0019  0.0000  0.0000  0.0000  0.0000  0.0000 </r>
       </set>
       <set comment="band 14">
        <r>  0.1173  0.0534  0.0000  0.0641  0.0537  0.0000  0.0084  0.0000  0.0326 </r>
        <r>  0.0003  0.0020  0.0027  0.0043  0.0000  0.0000  0.0000  0.0000  0.0000 </r>
        <r>  0.0003  0.0020  0.0027  0.0043  0.0000  0.0000  0.0000  0.0000  0.0000 </r>
       </set>
      </set>
     </set>
    </set>
   </array>
  </projected>
 </calculation>
 <structure name="finalpos" >
  <crystal>
   <varray name="basis" >
    <v>       3.19031573       0.00000000       0.00000000 </v>
    <v>      -1.59515786       2.76289447       0.00000000 </v>
    <v>       0.00000000       0.00000000      42.87900430 </v>
   </varray>
   <i name="volume">    377.95722706 </i>
   <varray name="rec_basis" >
    <v>       0.31344860       0.18096963       0.00000000 </v>
    <v>       0.00000000       0.36193927       0.00000000 </v>
    <v>       0.00000000       0.00000000       0.02332144 </v>
   </varray>
  </crystal>
  <varray name="positions" >
   <v>       0.33333300       0.66666700       0.08674994 </v>
   <v>       0.66666700       0.33333300       0.05025459 </v>
   <v>       0.66666600       0.33333300       0.12324529 </v>
  </varray>
 </structure>
</modeling>
