   6   6   0   0
  0.2185851E+02  0.3190316E-09  0.3190316E-09  0.1487900E-08  0.5000000E-15
  1.000000000000000E-004
  CAR 
 unknown system                          
      8.33270254    -12.92956518  301      3.30949179      1.00000000
    -12.930  0.0000E+00  0.0000E+00
    -12.859  0.0000E+00  0.0000E+00
    -12.788  0.0000E+00  0.0000E+00
    -12.717  0.0000E+00  0.0000E+00
    -12.646  0.0000E+00  0.0000E+00
    -12.575  0.0000E+00  0.0000E+00
    -12.504  0.0000E+00  0.0000E+00
    -12.433  0.0000E+00  0.0000E+00
    -12.363  0.0000E+00  0.0000E+00
    -12.292  0.0000E+00  0.0000E+00
    -12.221  0.0000E+00  0.0000E+00
    -12.150  0.0000E+00  0.0000E+00
    -12.079  0.0000E+00  0.0000E+00
    -12.008  0.0000E+00  0.0000E+00
    -11.937  0.0000E+00  0.0000E+00
    -11.866  0.0000E+00  0.0000E+00
    -11.796  0.0000E+00  0.0000E+00
    -11.725  0.0000E+00  0.0000E+00
    -11.654  0.0000E+00  0.0000E+00
    -11.583  0.0000E+00  0.0000E+00
    -11.512  0.0000E+00  0.0000E+00
    -11.441  0.0000E+00  0.0000E+00
    -11.370  0.0000E+00  0.0000E+00
    -11.299  0.0000E+00  0.0000E+00
    -11.229  0.0000E+00  0.0000E+00
    -11.158  0.0000E+00  0.0000E+00
    -11.087  0.0000E+00  0.0000E+00
    -11.016  0.0000E+00  0.0000E+00
    -10.945  0.0000E+00  0.0000E+00
    -10.874  0.3754E+00  0.8740E-02
    -10.803  0.9550E+00  0.5588E-01
    -10.732  0.1535E+01  0.1441E+00
    -10.662  0.9958E+00  0.2308E+00
    -10.591  0.1061E+01  0.3037E+00
    -10.520  0.1127E+01  0.3813E+00
    -10.449  0.1193E+01  0.4635E+00
    -10.378  0.1259E+01  0.5503E+00
    -10.307  0.1319E+01  0.6418E+00
    -10.236  0.1331E+01  0.7358E+00
    -10.165  0.1343E+01  0.8306E+00
    -10.095  0.1381E+01  0.9268E+00
    -10.024  0.1436E+01  0.1027E+01
     -9.953  0.1491E+01  0.1130E+01
     -9.882  0.1546E+01  0.1238E+01
     -9.811  0.1601E+01  0.1349E+01
     -9.740  0.1656E+01  0.1465E+01
     -9.669  0.3388E+01  0.1620E+01
     -9.598  0.4340E+01  0.1934E+01
     -9.528  0.4601E+01  0.2244E+01
     -9.457  0.5099E+01  0.2587E+01
     -9.386  0.5564E+01  0.2967E+01
     -9.315  0.5990E+01  0.3375E+01
     -9.244  0.6554E+01  0.3819E+01
     -9.173  0.7118E+01  0.4304E+01
     -9.102  0.8478E+01  0.5093E+01
     -9.031  0.8341E+01  0.5688E+01
     -8.961  0.8686E+01  0.6291E+01
     -8.890  0.1051E+02  0.6933E+01
     -8.819  0.6197E+01  0.7625E+01
     -8.748  0.0000E+00  0.8000E+01
     -8.677  0.0000E+00  0.8000E+01
     -8.606  0.0000E+00  0.8000E+01
     -8.535  0.0000E+00  0.8000E+01
     -8.464  0.0000E+00  0.8000E+01
     -8.394  0.0000E+00  0.8000E+01
     -8.323  0.0000E+00  0.8000E+01
     -8.252  0.0000E+00  0.8000E+01
     -8.181  0.0000E+00  0.8000E+01
     -8.110  0.0000E+00  0.8000E+01
     -8.039  0.0000E+00  0.8000E+01
     -7.968  0.0000E+00  0.8000E+01
     -7.897  0.0000E+00  0.8000E+01
     -7.827  0.0000E+00  0.8000E+01
     -7.756  0.0000E+00  0.8000E+01
     -7.685  0.0000E+00  0.8000E+01
     -7.614  0.0000E+00  0.8000E+01
     -7.543  0.0000E+00  0.8000E+01
     -7.472  0.0000E+00  0.8000E+01
     -7.401  0.0000E+00  0.8000E+01
     -7.331  0.0000E+00  0.8000E+01
     -7.260  0.0000E+00  0.8000E+01
     -7.189  0.0000E+00  0.8000E+01
     -7.118  0.0000E+00  0.8000E+01
     -7.047  0.0000E+00  0.8000E+01
     -6.976  0.0000E+00  0.8000E+01
     -6.905  0.0000E+00  0.8000E+01
     -6.834  0.0000E+00  0.8000E+01
     -6.764  0.0000E+00  0.8000E+01
     -6.693  0.0000E+00  0.8000E+01
     -6.622  0.0000E+00  0.8000E+01
     -6.551  0.0000E+00  0.8000E+01
     -6.480  0.0000E+00  0.8000E+01
     -6.409  0.0000E+00  0.8000E+01
     -6.338  0.0000E+00  0.8000E+01
     -6.267  0.0000E+00  0.8000E+01
     -6.197  0.0000E+00  0.8000E+01
     -6.126  0.0000E+00  0.8000E+01
     -6.055  0.0000E+00  0.8000E+01
     -5.984  0.0000E+00  0.8000E+01
     -5.913  0.0000E+00  0.8000E+01
     -5.842  0.0000E+00  0.8000E+01
     -5.771  0.0000E+00  0.8000E+01
     -5.700  0.0000E+00  0.8000E+01
     -5.630  0.0000E+00  0.8000E+01
     -5.559  0.0000E+00  0.8000E+01
     -5.488  0.0000E+00  0.8000E+01
     -5.417  0.0000E+00  0.8000E+01
     -5.346  0.0000E+00  0.8000E+01
     -5.275  0.0000E+00  0.8000E+01
     -5.204  0.0000E+00  0.8000E+01
     -5.133  0.0000E+00  0.8000E+01
     -5.063  0.0000E+00  0.8000E+01
     -4.992  0.0000E+00  0.8000E+01
     -4.921  0.0000E+00  0.8000E+01
     -4.850  0.0000E+00  0.8000E+01
     -4.779  0.0000E+00  0.8000E+01
     -4.708  0.0000E+00  0.8000E+01
     -4.637  0.0000E+00  0.8000E+01
     -4.566  0.0000E+00  0.8000E+01
     -4.496  0.0000E+00  0.8000E+01
     -4.425  0.0000E+00  0.8000E+01
     -4.354  0.0000E+00  0.8000E+01
     -4.283  0.0000E+00  0.8000E+01
     -4.212  0.0000E+00  0.8000E+01
     -4.141  0.0000E+00  0.8000E+01
     -4.070  0.0000E+00  0.8000E+01
     -3.999  0.0000E+00  0.8000E+01
     -3.929  0.0000E+00  0.8000E+01
     -3.858  0.0000E+00  0.8000E+01
     -3.787  0.0000E+00  0.8000E+01
     -3.716  0.0000E+00  0.8000E+01
     -3.645  0.0000E+00  0.8000E+01
     -3.574  0.0000E+00  0.8000E+01
     -3.503  0.0000E+00  0.8000E+01
     -3.432  0.0000E+00  0.8000E+01
     -3.362  0.0000E+00  0.8000E+01
     -3.291  0.0000E+00  0.8000E+01
     -3.220  0.0000E+00  0.8000E+01
     -3.149  0.0000E+00  0.8000E+01
     -3.078  0.0000E+00  0.8000E+01
     -3.007  0.0000E+00  0.8000E+01
     -2.936  0.0000E+00  0.8000E+01
     -2.865  0.0000E+00  0.8000E+01
     -2.795  0.0000E+00  0.8000E+01
     -2.724  0.0000E+00  0.8000E+01
     -2.653  0.0000E+00  0.8000E+01
     -2.582  0.2297E+00  0.8003E+01
     -2.511  0.1112E+01  0.8050E+01
     -2.440  0.2127E+01  0.8164E+01
     -2.369  0.3337E+01  0.8356E+01
     -2.298  0.5204E+01  0.8648E+01
     -2.228  0.5567E+01  0.9028E+01
     -2.157  0.6011E+01  0.9438E+01
     -2.086  0.7456E+01  0.1001E+02
     -2.015  0.6343E+01  0.1050E+02
     -1.944  0.8114E+01  0.1094E+02
     -1.873  0.7732E+01  0.1166E+02
     -1.802  0.1731E+01  0.1198E+02
     -1.731  0.8830E+01  0.1260E+02
     -1.661  0.4368E+01  0.1306E+02
     -1.590  0.2667E+01  0.1327E+02
     -1.519  0.2439E+01  0.1345E+02
     -1.448  0.2212E+01  0.1362E+02
     -1.377  0.1985E+01  0.1377E+02
     -1.306  0.1758E+01  0.1390E+02
     -1.235  0.1671E+01  0.1402E+02
     -1.164  0.1678E+01  0.1414E+02
     -1.094  0.1686E+01  0.1426E+02
     -1.023  0.1693E+01  0.1438E+02
     -0.952  0.1825E+01  0.1450E+02
     -0.881  0.5539E+01  0.1474E+02
     -0.810  0.1103E+02  0.1532E+02
     -0.739  0.1045E+02  0.1621E+02
     -0.668  0.9841E+01  0.1691E+02
     -0.597  0.7979E+01  0.1757E+02
     -0.527  0.4772E+01  0.1802E+02
     -0.456  0.2617E+01  0.1826E+02
     -0.385  0.2359E+01  0.1844E+02
     -0.314  0.2190E+01  0.1860E+02
     -0.243  0.2030E+01  0.1875E+02
     -0.172  0.1871E+01  0.1889E+02
     -0.101  0.1689E+02  0.1918E+02
     -0.030  0.2068E+02  0.2059E+02
      0.040  0.7415E+01  0.2134E+02
      0.111  0.6316E+01  0.2179E+02
      0.182  0.5714E+01  0.2227E+02
      0.253  0.3772E+01  0.2258E+02
      0.324  0.3586E+01  0.2284E+02
      0.395  0.3400E+01  0.2309E+02
      0.466  0.3538E+01  0.2333E+02
      0.537  0.5227E+01  0.2363E+02
      0.607  0.5036E+01  0.2400E+02
      0.678  0.4132E+01  0.2434E+02
      0.749  0.2611E+01  0.2458E+02
      0.820  0.1790E+01  0.2471E+02
      0.891  0.1747E+01  0.2484E+02
      0.962  0.1711E+01  0.2496E+02
      1.033  0.1682E+01  0.2508E+02
      1.104  0.4852E+01  0.2526E+02
      1.174  0.1107E+02  0.2580E+02
      1.245  0.1782E+02  0.2689E+02
      1.316  0.1322E+02  0.2803E+02
      1.387  0.4822E+01  0.2864E+02
      1.458  0.3130E+01  0.2891E+02
      1.529  0.2949E+01  0.2912E+02
      1.600  0.2870E+01  0.2932E+02
      1.671  0.3033E+01  0.2953E+02
      1.741  0.3700E+01  0.2976E+02
      1.812  0.6685E+01  0.3011E+02
      1.883  0.8537E+01  0.3067E+02
      1.954  0.4889E+01  0.3115E+02
      2.025  0.4377E+01  0.3148E+02
      2.096  0.3048E+01  0.3175E+02
      2.167  0.1585E+01  0.3191E+02
      2.238  0.2685E+01  0.3203E+02
      2.308  0.7687E+01  0.3235E+02
      2.379  0.7796E+01  0.3293E+02
      2.450  0.7181E+01  0.3346E+02
      2.521  0.6633E+01  0.3395E+02
      2.592  0.6130E+01  0.3440E+02
      2.663  0.4287E+01  0.3478E+02
      2.734  0.3763E+01  0.3506E+02
      2.805  0.3239E+01  0.3531E+02
      2.875  0.2973E+01  0.3553E+02
      2.946  0.2386E+01  0.3572E+02
      3.017  0.9669E+00  0.3589E+02
      3.088  0.8041E+00  0.3595E+02
      3.159  0.3010E+00  0.3599E+02
      3.230  0.7250E-01  0.3600E+02
      3.301  0.0000E+00  0.3600E+02
      3.372  0.0000E+00  0.3600E+02
      3.442  0.0000E+00  0.3600E+02
      3.513  0.0000E+00  0.3600E+02
      3.584  0.0000E+00  0.3600E+02
      3.655  0.0000E+00  0.3600E+02
      3.726  0.0000E+00  0.3600E+02
      3.797  0.0000E+00  0.3600E+02
      3.868  0.0000E+00  0.3600E+02
      3.939  0.0000E+00  0.3600E+02
      4.009  0.0000E+00  0.3600E+02
      4.080  0.0000E+00  0.3600E+02
      4.151  0.0000E+00  0.3600E+02
      4.222  0.0000E+00  0.3600E+02
      4.293  0.0000E+00  0.3600E+02
      4.364  0.0000E+00  0.3600E+02
      4.435  0.0000E+00  0.3600E+02
      4.505  0.0000E+00  0.3600E+02
      4.576  0.0000E+00  0.3600E+02
      4.647  0.0000E+00  0.3600E+02
      4.718  0.0000E+00  0.3600E+02
      4.789  0.0000E+00  0.3600E+02
      4.860  0.0000E+00  0.3600E+02
      4.931  0.8202E+01  0.3605E+02
      5.002  0.1780E+01  0.3617E+02
      5.072  0.5288E+01  0.3641E+02
      5.143  0.8939E+01  0.3691E+02
      5.214  0.1303E+02  0.3770E+02
      5.285  0.2512E+02  0.3886E+02
      5.356  0.2124E+01  0.3946E+02
      5.427  0.1535E+01  0.3959E+02
      5.498  0.9514E+01  0.3991E+02
      5.569  0.1208E+02  0.4079E+02
      5.639  0.7518E+01  0.4145E+02
      5.710  0.7129E+01  0.4199E+02
      5.781  0.9826E+01  0.4250E+02
      5.852  0.5009E+01  0.4306E+02
      5.923  0.3112E+01  0.4331E+02
      5.994  0.2420E+01  0.4351E+02
      6.065  0.1867E+01  0.4366E+02
      6.136  0.1530E+01  0.4378E+02
      6.206  0.1354E+01  0.4389E+02
      6.277  0.1124E+01  0.4395E+02
      6.348  0.0000E+00  0.4400E+02
      6.419  0.0000E+00  0.4400E+02
      6.490  0.0000E+00  0.4400E+02
      6.561  0.0000E+00  0.4400E+02
      6.632  0.0000E+00  0.4400E+02
      6.703  0.0000E+00  0.4400E+02
      6.773  0.0000E+00  0.4400E+02
      6.844  0.0000E+00  0.4400E+02
      6.915  0.0000E+00  0.4400E+02
      6.986  0.0000E+00  0.4400E+02
      7.057  0.0000E+00  0.4400E+02
      7.128  0.0000E+00  0.4400E+02
      7.199  0.0000E+00  0.4400E+02
      7.270  0.0000E+00  0.4400E+02
      7.340  0.0000E+00  0.4400E+02
      7.411  0.0000E+00  0.4400E+02
      7.482  0.0000E+00  0.4400E+02
      7.553  0.0000E+00  0.4400E+02
      7.624  0.0000E+00  0.4400E+02
      7.695  0.0000E+00  0.4400E+02
      7.766  0.0000E+00  0.4400E+02
      7.837  0.0000E+00  0.4400E+02
      7.907  0.0000E+00  0.4400E+02
      7.978  0.0000E+00  0.4400E+02
      8.049  0.0000E+00  0.4400E+02
      8.120  0.0000E+00  0.4400E+02
      8.191  0.0000E+00  0.4400E+02
      8.262  0.0000E+00  0.4400E+02
      8.333  0.0000E+00  0.4400E+02
