 vasp.5.4.4.18Apr17-6-g9f103f2a35 (build Jun 30 2017 11:15:00) complex          
  
 executed on    STALLO_VASP_5.4.4 date 2019.11.08  11:39:37
 running on    4 total cores
 distrk:  each k-point on    4 cores,    1 groups
 distr:  one band on NCORES_PER_BAND=   2 cores,    2 groups


--------------------------------------------------------------------------------------------------------


 INCAR:
 POTCAR:   PAW_PBE Mo 08Apr2002                   
 POTCAR:    PAW_PBE S 17Jan2003                   
 POTCAR:   PAW_PBE Mo 08Apr2002                   
   VRHFIN =Mo: 4p5s4d                                                           
   LEXCH  = PE                                                                  
   EATOM  =   217.5180 eV,   15.9871 Ry                                         
                                                                                
   TITEL  = PAW_PBE Mo 08Apr2002                                                
   LULTRA =        F    use ultrasoft PP ?                                      
   IUNSCR =        1    unscreen: 0-lin 1-nonlin 2-no                           
   RPACOR =    2.200    partial core radius                                     
   POMASS =   95.940; ZVAL   =    6.000    mass and valenz                      
   RCORE  =    2.750    outmost cutoff radius                                   
   RWIGS  =    2.750; RWIGS  =    1.455    wigner-seitz radius (au A)           
   ENMAX  =  224.584; ENMIN  =  168.438 eV                                      
   RCLOC  =    2.111    cutoff for local pot                                    
   LCOR   =        T    correct aug charges                                     
   LPAW   =        T    paw PP                                                  
   EAUG   =  345.278                                                            
   DEXC   =    -.088                                                            
   RMAX   =    3.077    core radius for proj-oper                               
   RAUG   =    1.300    factor for augmentation sphere                          
   RDEP   =    2.815    radius for radial grids                                 
   QCUT   =   -4.063; QGAM   =    8.126    optimization parameters              
                                                                                
   Description                                                                  
     l     E      TYP  RCUT    TYP  RCUT                                        
     2   .000     23  2.500                                                     
     2   .000     23  2.500                                                     
     0   .000     23  2.600                                                     
     0  1.000     23  2.600                                                     
     1   .400     23  2.750                                                     
     1  2.000     23  2.750                                                     
     3   .000      7   .000                                                     
  local pseudopotential read in
  partial core-charges read in
  atomic valenz-charges read in
  non local Contribution for L=           2  read in
    real space projection operators read in
  non local Contribution for L=           2  read in
    real space projection operators read in
  non local Contribution for L=           0  read in
    real space projection operators read in
  non local Contribution for L=           0  read in
    real space projection operators read in
  non local Contribution for L=           1  read in
    real space projection operators read in
  non local Contribution for L=           1  read in
    real space projection operators read in
    PAW grid and wavefunctions read in
 
   number of l-projection  operators is LMAX  =           6
   number of lm-projection operators is LMMAX =          18
 
 POTCAR:    PAW_PBE S 17Jan2003                   
   VRHFIN =S : s2p4                                                             
   LEXCH  = PE                                                                  
   EATOM  =   276.8230 eV,   20.3459 Ry                                         
                                                                                
   TITEL  = PAW_PBE S 17Jan2003                                                 
   LULTRA =        F    use ultrasoft PP ?                                      
   IUNSCR =        1    unscreen: 0-lin 1-nonlin 2-no                           
   RPACOR =    1.500    partial core radius                                     
   POMASS =   32.066; ZVAL   =    6.000    mass and valenz                      
   RCORE  =    1.900    outmost cutoff radius                                   
   RWIGS  =    2.200; RWIGS  =    1.164    wigner-seitz radius (au A)           
   ENMAX  =  280.000; ENMIN  =  194.016 eV                                      
   ICORE  =        2    local potential                                         
   LCOR   =        T    correct aug charges                                     
   LPAW   =        T    paw PP                                                  
   EAUG   =  335.092                                                            
   DEXC   =     .000                                                            
   RMAX   =    2.867    core radius for proj-oper                               
   RAUG   =    1.300    factor for augmentation sphere                          
   RDEP   =    1.954    radius for radial grids                                 
   QCUT   =   -4.360; QGAM   =    8.721    optimization parameters              
                                                                                
   Description                                                                  
     l     E      TYP  RCUT    TYP  RCUT                                        
     0   .000     23  1.900                                                     
     0   .000     23  1.900                                                     
     1   .000     23  1.900                                                     
     1   .000     23  1.900                                                     
     2   .000     23  1.900                                                     
  local pseudopotential read in
  partial core-charges read in
  atomic valenz-charges read in
  non local Contribution for L=           0  read in
    real space projection operators read in
  non local Contribution for L=           0  read in
    real space projection operators read in
  non local Contribution for L=           1  read in
    real space projection operators read in
  non local Contribution for L=           1  read in
    real space projection operators read in
    PAW grid and wavefunctions read in
 
   number of l-projection  operators is LMAX  =           4
   number of lm-projection operators is LMMAX =           8
 
 WARNING: PSMAXN for non-local potential too small
          PSMAXN should be >   16.2007969712021       NTYP=           1
 PAW_PBE Mo 08Apr2002                   :
 energy of atom  1       EATOM= -217.5180
 kinetic energy error for atom=    0.0001 (will be added to EATOM!!)
  PAW_PBE S 17Jan2003                   :
 energy of atom  2       EATOM= -276.8230
 kinetic energy error for atom=    0.0002 (will be added to EATOM!!)
 
 
 POSCAR: MoS2_mp-2815_computed                   
  positions in direct lattice
  No initial velocities read in
 exchange correlation table for  LEXCH =        8
   RHO(1)=    0.500       N(1)  =     2000
   RHO(2)=  100.500       N(2)  =     4000
 


--------------------------------------------------------------------------------------------------------


 ion  position               nearest neighbor table
   1  0.333  0.667  0.250-   5 2.42   4 2.42   4 2.42   5 2.42   5 2.42   4 2.42
   2  0.667  0.333  0.750-   6 2.42   3 2.42   3 2.42   6 2.42   6 2.42   3 2.42
   3  0.333  0.667  0.855-   2 2.42   2 2.42   2 2.42
   4  0.667  0.333  0.145-   1 2.42   1 2.42   1 2.42
   5  0.667  0.333  0.355-   1 2.42   1 2.42   1 2.42
   6  0.333  0.667  0.645-   2 2.42   2 2.42   2 2.42
 
  LATTYP: Found a hexagonal cell.
 ALAT       =     3.1903157300
 C/A-ratio  =     4.6638030713
  
  Lattice vectors:
  
 A1 = (   3.1903157300,   0.0000000000,   0.0000000000)
 A2 = (  -1.5951578650,   2.7628944683,   0.0000000000)
 A3 = (   0.0000000000,   0.0000000000,  14.8790043000)


Analysis of symmetry for initial positions (statically):
=====================================================================
 Subroutine PRICEL returns:
 Original cell was already a primitive cell.
 

 Routine SETGRP: Setting up the symmetry group for a 
 hexagonal supercell.


 Subroutine GETGRP returns: Found 24 space group operations
 (whereof 12 operations were pure point group operations)
 out of a pool of 24 trial point group operations.


The static configuration has the point symmetry D_3d.
 The point group associated with its full space group is D_6h.


Analysis of symmetry for dynamics (positions and initial velocities):
=====================================================================
 Subroutine PRICEL returns:
 Original cell was already a primitive cell.
 

 Routine SETGRP: Setting up the symmetry group for a 
 hexagonal supercell.


 Subroutine GETGRP returns: Found 24 space group operations
 (whereof 12 operations were pure point group operations)
 out of a pool of 24 trial point group operations.


The dynamic configuration has the point symmetry D_3d.
 The point group associated with its full space group is D_6h.


 Subroutine INISYM returns: Found 24 space group operations
 (whereof 12 operations are pure point group operations),
 and found     1 'primitive' translations

 
 
 KPOINTS: k-density: 4.0                          

Automatic generation of k-mesh.
Space group operators:
 irot       det(A)        alpha          n_x          n_y          n_z        tau_x        tau_y        tau_z
    1     1.000000     0.000001     1.000000     0.000000     0.000000     0.000000     0.000000     0.000000
    2    -1.000000     0.000001     1.000000     0.000000     0.000000     0.000000     0.000000     0.000000
    3     1.000000   120.000000     0.000000     0.000000    -1.000000     0.000000     0.000000     0.000000
    4    -1.000000   120.000000     0.000000     0.000000    -1.000000     0.000000     0.000000     0.000000
    5     1.000000   120.000000     0.000000     0.000000     1.000000     0.000000     0.000000     0.000000
    6    -1.000000   120.000000     0.000000     0.000000     1.000000     0.000000     0.000000     0.000000
    7     1.000000   179.999999     1.000000    -0.000000     0.000000     0.000000     0.000000     0.000000
    8    -1.000000   179.999999     1.000000    -0.000000     0.000000     0.000000     0.000000     0.000000
    9     1.000000   180.000000     0.500000    -0.866025     0.000000     0.000000     0.000000     0.000000
   10    -1.000000   180.000000     0.500000    -0.866025     0.000000     0.000000     0.000000     0.000000
   11     1.000000   180.000000    -0.500000    -0.866025     0.000000     0.000000     0.000000     0.000000
   12    -1.000000   180.000000    -0.500000    -0.866025     0.000000     0.000000     0.000000     0.000000
   13     1.000000    60.000000     0.000000     0.000000    -1.000000     0.000001     0.000000     0.500000
   14    -1.000000    60.000000     0.000000     0.000000    -1.000000     0.000001     0.000000     0.500000
   15     1.000000   180.000000     0.000000     0.000000     1.000000     0.000000     0.000000     0.500000
   16    -1.000000   180.000000     0.000000     0.000000     1.000000     0.000000     0.000000     0.500000
   17     1.000000    60.000000     0.000000     0.000000     1.000000     0.000000     0.000000     0.500000
   18    -1.000000    60.000000     0.000000     0.000000     1.000000     0.000000     0.000000     0.500000
   19     1.000000   179.999999     0.866025    -0.500000     0.000000     0.000000     0.000000     0.500000
   20    -1.000000   179.999999     0.866025    -0.500000     0.000000     0.000000     0.000000     0.500000
   21     1.000000   180.000000     0.000000     1.000000     0.000000     0.000001     0.000000     0.500000
   22    -1.000000   180.000000     0.000000     1.000000     0.000000     0.000001     0.000000     0.500000
   23     1.000000   179.999999     0.866025     0.500000     0.000000     0.000000     0.000000     0.500000
   24    -1.000000   179.999999     0.866025     0.500000     0.000000     0.000000     0.000000     0.500000
 
 Subroutine IBZKPT returns following result:
 ===========================================
 
 Found     20 irreducible k-points:
 
 Following reciprocal coordinates:
            Coordinates               Weight
  0.000000  0.000000  0.000000      1.000000
  0.125000 -0.000000  0.000000      6.000000
  0.250000 -0.000000  0.000000      6.000000
  0.375000 -0.000000  0.000000      6.000000
  0.500000 -0.000000  0.000000      3.000000
  0.125000  0.125000  0.000000      6.000000
  0.250000  0.125000  0.000000     12.000000
  0.375000  0.125000  0.000000     12.000000
  0.250000  0.250000  0.000000      6.000000
  0.375000  0.250000  0.000000      6.000000
  0.000000  0.000000  0.500000      1.000000
  0.125000 -0.000000  0.500000      6.000000
  0.250000 -0.000000  0.500000      6.000000
  0.375000 -0.000000  0.500000      6.000000
  0.500000 -0.000000  0.500000      3.000000
  0.125000  0.125000  0.500000      6.000000
  0.250000  0.125000  0.500000     12.000000
  0.375000  0.125000  0.500000     12.000000
  0.250000  0.250000  0.500000      6.000000
  0.375000  0.250000  0.500000      6.000000
 
 Following cartesian coordinates:
            Coordinates               Weight
  0.000000  0.000000  0.000000      1.000000
  0.039181  0.022621  0.000000      6.000000
  0.078362  0.045242  0.000000      6.000000
  0.117543  0.067864  0.000000      6.000000
  0.156724  0.090485  0.000000      3.000000
  0.039181  0.067864  0.000000      6.000000
  0.078362  0.090485  0.000000     12.000000
  0.117543  0.113106  0.000000     12.000000
  0.078362  0.135727  0.000000      6.000000
  0.117543  0.158348  0.000000      6.000000
  0.000000  0.000000  0.033604      1.000000
  0.039181  0.022621  0.033604      6.000000
  0.078362  0.045242  0.033604      6.000000
  0.117543  0.067864  0.033604      6.000000
  0.156724  0.090485  0.033604      3.000000
  0.039181  0.067864  0.033604      6.000000
  0.078362  0.090485  0.033604     12.000000
  0.117543  0.113106  0.033604     12.000000
  0.078362  0.135727  0.033604      6.000000
  0.117543  0.158348  0.033604      6.000000
 
 TETIRR: Found    136 inequivalent tetrahedra from      768


--------------------------------------------------------------------------------------------------------




 Dimension of arrays:
   k-points           NKPTS =     20   k-points in BZ     NKDIM =     20   number of bands    NBANDS=     22
   number of dos      NEDOS =    301   number of ions     NIONS =      6
   non local maximal  LDIM  =      6   non local SUM 2l+1 LMDIM =     18
   total plane-waves  NPLWV =  94080
   max r-space proj   IRMAX =      1   max aug-charges    IRDMAX=  46251
   dimension x,y,z NGX =    28 NGY =   28 NGZ =  120
   dimension x,y,z NGXF=    56 NGYF=   56 NGZF=  240
   support grid    NGXF=    56 NGYF=   56 NGZF=  240
   ions per type =               2   4
   NGX,Y,Z   is equivalent  to a cutoff of  14.59, 14.59, 13.41 a.u.
   NGXF,Y,Z  is equivalent  to a cutoff of  29.18, 29.18, 26.82 a.u.

 SYSTEM =  unknown system                          
 POSCAR =  MoS2_mp-2815_computed                   

 Startparameter for this run:
   NWRITE =      2    write-flag & timer
   PREC   = normal    normal or accurate (medium, high low for compatibility)
   ISTART =      0    job   : 0-new  1-cont  2-samecut
   ICHARG =      2    charge: 1-file 2-atom 10-const
   ISPIN  =      1    spin polarized calculation?
   LNONCOLLINEAR =      F non collinear calculations
   LSORBIT =      F    spin-orbit coupling
   INIWAV =      1    electr: 0-lowe 1-rand  2-diag
   LASPH  =      F    aspherical Exc in radial PAW
   METAGGA=      F    non-selfconsistent MetaGGA calc.

 Electronic Relaxation 1
   ENCUT  = 1000.0 eV  73.50 Ry    8.57 a.u.   8.23  8.23 38.36*2*pi/ulx,y,z
   ENINI  = 1000.0     initial cutoff
   ENAUG  =  345.3 eV  augmentation charge cutoff
   NELM   =     60;   NELMIN=  4; NELMDL=  0     # of ELM steps 
   EDIFF  = 0.1E-04   stopping-criterion for ELM
   LREAL  =      F    real-space projection
   NLSPLINE    = F    spline interpolate recip. space projectors
   LCOMPAT=      F    compatible to vasp.4.4
   GGA_COMPAT  = T    GGA compatible to vasp.4.4-vasp.4.6
   LMAXPAW     = -100 max onsite density
   LMAXMIX     =    2 max onsite mixed and CHGCAR
   VOSKOWN=      0    Vosko Wilk Nusair interpolation
   ROPT   =    0.00000   0.00000
 Ionic relaxation
   EDIFFG = 0.1E-03   stopping-criterion for IOM
   NSW    =      0    number of steps for IOM
   NBLOCK =      1;   KBLOCK =      1    inner block; outer block 
   IBRION =     -1    ionic relax: 0-MD 1-quasi-New 2-CG
   NFREE  =      0    steps in history (QN), initial steepest desc. (CG)
   ISIF   =      2    stress and relaxation
   IWAVPR =     10    prediction:  0-non 1-charg 2-wave 3-comb
   ISYM   =      2    0-nonsym 1-usesym 2-fastsym
   LCORR  =      T    Harris-Foulkes like correction to forces

   POTIM  = 0.5000    time-step for ionic-motion
   TEIN   =    0.0    initial temperature
   TEBEG  =    0.0;   TEEND  =   0.0 temperature during run
   SMASS  =  -3.00    Nose mass-parameter (am)
   estimated Nose-frequenzy (Omega)   =  0.10E-29 period in steps =****** mass=  -0.233E-27a.u.
   SCALEE = 1.0000    scale energy and forces
   NPACO  =    256;   APACO  = 16.0  distance and # of slots for P.C.
   PSTRESS=    0.0 pullay stress

  Mass of Ions in am
   POMASS =  95.94 32.07
  Ionic Valenz
   ZVAL   =   6.00  6.00
  Atomic Wigner-Seitz radii
   RWIGS  =  -1.00 -1.00
  virtual crystal weights 
   VCA    =   1.00  1.00
   NELECT =      36.0000    total number of electrons
   NUPDOWN=      -1.0000    fix difference up-down

 DOS related values:
   EMIN   =  10.00;   EMAX   =-10.00  energy-range for DOS
   EFERMI =   0.00
   ISMEAR =    -5;   SIGMA  =   0.20  broadening in eV -4-tet -1-fermi 0-gaus

 Electronic relaxation 2 (details)
   IALGO  =     68    algorithm
   LDIAG  =      T    sub-space diagonalisation (order eigenvalues)
   LSUBROT=      F    optimize rotation matrix (better conditioning)
   TURBO    =      0    0=normal 1=particle mesh
   IRESTART =      0    0=no restart 2=restart with 2 vectors
   NREBOOT  =      0    no. of reboots
   NMIN     =      0    reboot dimension
   EREF     =   0.00    reference energy to select bands
   IMIX   =      4    mixing-type and parameters
     AMIX     =   0.40;   BMIX     =  1.00
     AMIX_MAG =   1.60;   BMIX_MAG =  1.00
     AMIN     =   0.10
     WC   =   100.;   INIMIX=   1;  MIXPRE=   1;  MAXMIX= -45

 Intra band minimization:
   WEIMIN = 0.0000     energy-eigenvalue tresh-hold
   EBREAK =  0.11E-06  absolut break condition
   DEPER  =   0.30     relativ break condition  

   TIME   =   0.40     timestep for ELM

  volume/ion in A,a.u.               =      21.86       147.51
  Fermi-wavevector in a.u.,A,eV,Ry     =   1.063943  2.010561 15.401453  1.131975
  Thomas-Fermi vector in A             =   2.199445
 
 Write flags
   LWAVE        =      F    write WAVECAR
   LDOWNSAMPLE  =      F    k-point downsampling of WAVECAR
   LCHARG       =      T    write CHGCAR
   LVTOT        =      F    write LOCPOT, total local potential
   LVHAR        =      F    write LOCPOT, Hartree potential only
   LELF         =      F    write electronic localiz. function (ELF)
   LORBIT       =      0    0 simple, 1 ext, 2 COOP (PROOUT), +10 PAW based schemes


 Dipole corrections
   LMONO  =      F    monopole corrections only (constant potential shift)
   LDIPOL =      F    correct potential (dipole corrections)
   IDIPOL =      0    1-x, 2-y, 3-z, 4-all directions 
   EPSILON=  1.0000000 bulk dielectric constant

 Exchange correlation treatment:
   GGA     =    --    GGA type
   LEXCH   =     8    internal setting for exchange type
   VOSKOWN=      0    Vosko Wilk Nusair interpolation
   LHFCALC =     F    Hartree Fock is set to
   LHFONE  =     F    Hartree Fock one center treatment
   AEXX    =    0.0000 exact exchange contribution

 Linear response parameters
   LEPSILON=     F    determine dielectric tensor
   LRPA    =     F    only Hartree local field effects (RPA)
   LNABLA  =     F    use nabla operator in PAW spheres
   LVEL    =     F    velocity operator in full k-point grid
   LINTERFAST=   F  fast interpolation
   KINTER  =     0    interpolate to denser k-point grid
   CSHIFT  =0.1000    complex shift for real part using Kramers Kronig
   OMEGAMAX=  -1.0    maximum frequency
   DEG_THRESHOLD= 0.2000000E-02 threshold for treating states as degnerate
   RTIME   =   -0.100 relaxation time in fs
  (WPLASMAI=    0.000 imaginary part of plasma frequency in eV, 0.658/RTIME)
   DFIELD  = 0.0000000 0.0000000 0.0000000 field for delta impulse in time
 
 Orbital magnetization related:
   ORBITALMAG=     F  switch on orbital magnetization
   LCHIMAG   =     F  perturbation theory with respect to B field
   DQ        =  0.001000  dq finite difference perturbation B field
   LLRAUG    =     F  two centre corrections for induced B field



--------------------------------------------------------------------------------------------------------


 Static calculation
 charge density and potential will be updated during run
 non-spin polarized calculation
 RMM-DIIS sequential band-by-band and
  variant of blocked Davidson during initial phase
 perform sub-space diagonalisation
    before iterative eigenvector-optimisation
 modified Broyden-mixing scheme, WC =      100.0
 initial mixing is a Kerker type mixing with AMIX =  0.4000 and BMIX =      1.0000
 Hartree-type preconditioning will be used
 using additional bands            4
 reciprocal scheme for non local part
 use partial core corrections
 calculate Harris-corrections to forces 
   (improved forces if not selfconsistent)
 use gradient corrections 
 use of overlap-Matrix (Vanderbilt PP)
 Fermi weights with tetrahedron method with Bloechl corrections


--------------------------------------------------------------------------------------------------------


  energy-cutoff  :     1000.00
  volume of cell :      131.15
      direct lattice vectors                 reciprocal lattice vectors
     3.190315730  0.000000000  0.000000000     0.313448600  0.180969634  0.000000000
    -1.595157865  2.762894468  0.000000000     0.000000000  0.361939267  0.000000000
     0.000000000  0.000000000 14.879004300     0.000000000  0.000000000  0.067208798

  length of vectors
     3.190315730  3.190315730 14.879004300     0.361939267  0.361939267  0.067208798


 
 k-points in units of 2pi/SCALE and weight: k-density: 4.0                          
   0.00000000  0.00000000  0.00000000       0.008
   0.03918108  0.02262120  0.00000000       0.047
   0.07836215  0.04524241  0.00000000       0.047
   0.11754323  0.06786361  0.00000000       0.047
   0.15672430  0.09048482  0.00000000       0.023
   0.03918108  0.06786361  0.00000000       0.047
   0.07836215  0.09048482  0.00000000       0.094
   0.11754323  0.11310602  0.00000000       0.094
   0.07836215  0.13572723  0.00000000       0.047
   0.11754323  0.15834843  0.00000000       0.047
   0.00000000  0.00000000  0.03360440       0.008
   0.03918108  0.02262120  0.03360440       0.047
   0.07836215  0.04524241  0.03360440       0.047
   0.11754323  0.06786361  0.03360440       0.047
   0.15672430  0.09048482  0.03360440       0.023
   0.03918108  0.06786361  0.03360440       0.047
   0.07836215  0.09048482  0.03360440       0.094
   0.11754323  0.11310602  0.03360440       0.094
   0.07836215  0.13572723  0.03360440       0.047
   0.11754323  0.15834843  0.03360440       0.047
 
 k-points in reciprocal lattice and weights: k-density: 4.0                          
   0.00000000  0.00000000  0.00000000       0.008
   0.12500000 -0.00000000  0.00000000       0.047
   0.25000000 -0.00000000  0.00000000       0.047
   0.37500000 -0.00000000  0.00000000       0.047
   0.50000000 -0.00000000  0.00000000       0.023
   0.12500000  0.12500000  0.00000000       0.047
   0.25000000  0.12500000  0.00000000       0.094
   0.37500000  0.12500000  0.00000000       0.094
   0.25000000  0.25000000  0.00000000       0.047
   0.37500000  0.25000000  0.00000000       0.047
   0.00000000  0.00000000  0.50000000       0.008
   0.12500000 -0.00000000  0.50000000       0.047
   0.25000000 -0.00000000  0.50000000       0.047
   0.37500000 -0.00000000  0.50000000       0.047
   0.50000000 -0.00000000  0.50000000       0.023
   0.12500000  0.12500000  0.50000000       0.047
   0.25000000  0.12500000  0.50000000       0.094
   0.37500000  0.12500000  0.50000000       0.094
   0.25000000  0.25000000  0.50000000       0.047
   0.37500000  0.25000000  0.50000000       0.047
 
 position of ions in fractional coordinates (direct lattice) 
   0.33333300  0.66666700  0.25000000
   0.66666700  0.33333300  0.75000000
   0.33333300  0.66666700  0.85517400
   0.66666700  0.33333300  0.14482600
   0.66666600  0.33333300  0.35517400
   0.33333400  0.66666700  0.64482600
 
 position of ions in cartesian coordinates  (Angst):
  -0.00000160  1.84193057  3.71975108
   1.59515946  0.92096390 11.15925323
  -0.00000160  1.84193057 12.72413762
   1.59515946  0.92096390  2.15486668
   1.59515627  0.92096390  5.28463547
   0.00000160  1.84193057  9.59436883
 


--------------------------------------------------------------------------------------------------------


 k-point  1 :   0.0000 0.0000 0.0000  plane waves:    9407
 k-point  2 :   0.1250-0.0000 0.0000  plane waves:    9386
 k-point  3 :   0.2500-0.0000 0.0000  plane waves:    9390
 k-point  4 :   0.3750-0.0000 0.0000  plane waves:    9426
 k-point  5 :   0.5000-0.0000 0.0000  plane waves:    9458
 k-point  6 :   0.1250 0.1250 0.0000  plane waves:    9420
 k-point  7 :   0.2500 0.1250 0.0000  plane waves:    9401
 k-point  8 :   0.3750 0.1250 0.0000  plane waves:    9425
 k-point  9 :   0.2500 0.2500 0.0000  plane waves:    9420
 k-point 10 :   0.3750 0.2500 0.0000  plane waves:    9426
 k-point 11 :   0.0000 0.0000 0.5000  plane waves:    9424
 k-point 12 :   0.1250-0.0000 0.5000  plane waves:    9422
 k-point 13 :   0.2500-0.0000 0.5000  plane waves:    9396
 k-point 14 :   0.3750-0.0000 0.5000  plane waves:    9414
 k-point 15 :   0.5000-0.0000 0.5000  plane waves:    9436
 k-point 16 :   0.1250 0.1250 0.5000  plane waves:    9400
 k-point 17 :   0.2500 0.1250 0.5000  plane waves:    9432
 k-point 18 :   0.3750 0.1250 0.5000  plane waves:    9420
 k-point 19 :   0.2500 0.2500 0.5000  plane waves:    9406
 k-point 20 :   0.3750 0.2500 0.5000  plane waves:    9424

 maximum and minimum number of plane-waves per node :      4742     4677

 maximum number of plane-waves:      9458
 maximum index in each direction: 
   IXMAX=    8   IYMAX=    8   IZMAX=   38
   IXMIN=   -8   IYMIN=   -8   IZMIN=  -38


 parallel 3D FFT for wavefunctions:
    minimum data exchange during FFTs selected (reduces bandwidth)
 parallel 3D FFT for charge:
    minimum data exchange during FFTs selected (reduces bandwidth)


 total amount of memory used by VASP MPI-rank0    94903. kBytes
=======================================================================

   base      :      30000. kBytes
   nonl-proj :      27769. kBytes
   fftplans  :       7790. kBytes
   grid      :      12487. kBytes
   one-center:         46. kBytes
   wavefun   :      16811. kBytes
 
     INWAV:  cpu time    0.0000: real time    0.0000
 Broyden mixing: mesh for mixing (old mesh)
   NGX = 17   NGY = 17   NGZ = 77
  (NGX  = 56   NGY  = 56   NGZ  =240)
  gives a total of  22253 points

 initial charge density was supplied:
 charge density of overlapping atoms calculated
 number of electron      36.0000000 magnetization 
 keeping initial charge density in first step


--------------------------------------------------------------------------------------------------------


 Maximum index for augmentation-charges        11210 (set IRDMAX)


--------------------------------------------------------------------------------------------------------


 First call to EWALD:  gamma=   0.349
 Maximum number of real-space cells 5x 5x 1
 Maximum number of reciprocal cells 2x 2x 7

    FEWALD:  cpu time    0.0010: real time    0.0015


--------------------------------------- Iteration      1(   1)  ---------------------------------------


    POTLOK:  cpu time    0.1160: real time    0.1326
    SETDIJ:  cpu time    0.0100: real time    0.0102
     EDDAV:  cpu time    1.7317: real time    1.7370
 BZINTS: Fermi energy: 18.272038; 36.000000 electrons
         Band energy: 273.576689;  BLOECHL correction: -0.329367
       DOS:  cpu time    0.0050: real time    0.0052
    --------------------------------------------
      LOOP:  cpu time    1.8627: real time    1.8849

 eigenvalue-minimisations  :   880
 total energy-change (2. order) : 0.3068357E+03  (-0.2251375E+04)
 number of electron      36.0000000 magnetization 
 augmentation part       36.0000000 magnetization 

 Free energy of the ion-electron system (eV)
  ---------------------------------------------------
  alpha Z        PSCENC =        90.42577596
  Ewald energy   TEWEN  =     -1146.88905665
  -Hartree energ DENC   =      -535.10238363
  -exchange      EXHF   =         0.00000000
  -V(xc)+E(xc)   XCENC  =       -72.59367835
  PAW double counting   =       813.77302396     -658.68146406
  entropy T*S    EENTRO =         0.00000000
  eigenvalues    EBANDS =       273.57668886
  atomic energy  EATOM  =      1542.32679363
  Solvation  Ediel_sol  =         0.00000000
  ---------------------------------------------------
  free energy    TOTEN  =       306.83569973 eV

  energy without entropy =      306.83569973  energy(sigma->0) =      306.83569973


--------------------------------------------------------------------------------------------------------




--------------------------------------- Iteration      1(   2)  ---------------------------------------


     EDDAV:  cpu time    2.1077: real time    2.1115
 BZINTS: Fermi energy:  6.152106; 36.000000 electrons
         Band energy: -47.790204;  BLOECHL correction: -0.003220
       DOS:  cpu time    0.0040: real time    0.0042
    --------------------------------------------
      LOOP:  cpu time    2.1117: real time    2.1157

 eigenvalue-minimisations  :  1148
 total energy-change (2. order) :-0.3213669E+03  (-0.3128697E+03)
 number of electron      36.0000000 magnetization 
 augmentation part       36.0000000 magnetization 

 Free energy of the ion-electron system (eV)
  ---------------------------------------------------
  alpha Z        PSCENC =        90.42577596
  Ewald energy   TEWEN  =     -1146.88905665
  -Hartree energ DENC   =      -535.10238363
  -exchange      EXHF   =         0.00000000
  -V(xc)+E(xc)   XCENC  =       -72.59367835
  PAW double counting   =       813.77302396     -658.68146406
  entropy T*S    EENTRO =         0.00000000
  eigenvalues    EBANDS =       -47.79020389
  atomic energy  EATOM  =      1542.32679363
  Solvation  Ediel_sol  =         0.00000000
  ---------------------------------------------------
  free energy    TOTEN  =       -14.53119301 eV

  energy without entropy =      -14.53119301  energy(sigma->0) =      -14.53119301


--------------------------------------------------------------------------------------------------------




--------------------------------------- Iteration      1(   3)  ---------------------------------------


     EDDAV:  cpu time    2.2517: real time    2.2555
 BZINTS: Fermi energy:  4.040262; 36.000000 electrons
         Band energy: -79.109795;  BLOECHL correction:  0.000000
       DOS:  cpu time    0.0020: real time    0.0013
    --------------------------------------------
      LOOP:  cpu time    2.2537: real time    2.2569

 eigenvalue-minimisations  :  1232
 total energy-change (2. order) :-0.3131959E+02  (-0.3114483E+02)
 number of electron      36.0000000 magnetization 
 augmentation part       36.0000000 magnetization 

 Free energy of the ion-electron system (eV)
  ---------------------------------------------------
  alpha Z        PSCENC =        90.42577596
  Ewald energy   TEWEN  =     -1146.88905665
  -Hartree energ DENC   =      -535.10238363
  -exchange      EXHF   =         0.00000000
  -V(xc)+E(xc)   XCENC  =       -72.59367835
  PAW double counting   =       813.77302396     -658.68146406
  entropy T*S    EENTRO =         0.00000000
  eigenvalues    EBANDS =       -79.10979465
  atomic energy  EATOM  =      1542.32679363
  Solvation  Ediel_sol  =         0.00000000
  ---------------------------------------------------
  free energy    TOTEN  =       -45.85078377 eV

  energy without entropy =      -45.85078377  energy(sigma->0) =      -45.85078377


--------------------------------------------------------------------------------------------------------




--------------------------------------- Iteration      1(   4)  ---------------------------------------


     EDDAV:  cpu time    2.2777: real time    2.2797
 BZINTS: Fermi energy:  3.879283; 36.000000 electrons
         Band energy: -80.060515;  BLOECHL correction:  0.000000
       DOS:  cpu time    0.0010: real time    0.0013
    --------------------------------------------
      LOOP:  cpu time    2.2787: real time    2.2810

 eigenvalue-minimisations  :  1220
 total energy-change (2. order) :-0.9507208E+00  (-0.9488142E+00)
 number of electron      36.0000000 magnetization 
 augmentation part       36.0000000 magnetization 

 Free energy of the ion-electron system (eV)
  ---------------------------------------------------
  alpha Z        PSCENC =        90.42577596
  Ewald energy   TEWEN  =     -1146.88905665
  -Hartree energ DENC   =      -535.10238363
  -exchange      EXHF   =         0.00000000
  -V(xc)+E(xc)   XCENC  =       -72.59367835
  PAW double counting   =       813.77302396     -658.68146406
  entropy T*S    EENTRO =         0.00000000
  eigenvalues    EBANDS =       -80.06051546
  atomic energy  EATOM  =      1542.32679363
  Solvation  Ediel_sol  =         0.00000000
  ---------------------------------------------------
  free energy    TOTEN  =       -46.80150458 eV

  energy without entropy =      -46.80150458  energy(sigma->0) =      -46.80150458


--------------------------------------------------------------------------------------------------------




--------------------------------------- Iteration      1(   5)  ---------------------------------------


     EDDAV:  cpu time    2.3266: real time    2.3305
 BZINTS: Fermi energy:  3.917119; 36.000000 electrons
         Band energy: -80.083514;  BLOECHL correction:  0.000000
       DOS:  cpu time    0.0010: real time    0.0013
    CHARGE:  cpu time    0.1400: real time    0.1392
    MIXING:  cpu time    0.0030: real time    0.0032
    --------------------------------------------
      LOOP:  cpu time    2.4706: real time    2.4743

 eigenvalue-minimisations  :  1252
 total energy-change (2. order) :-0.2299821E-01  (-0.2299155E-01)
 number of electron      35.9999999 magnetization 
 augmentation part       -1.8893693 magnetization 

 Broyden mixing:
  rms(total) = 0.97349E+00    rms(broyden)= 0.97349E+00
  rms(prec ) = 0.12180E+01
  weight for this iteration     100.00

 Free energy of the ion-electron system (eV)
  ---------------------------------------------------
  alpha Z        PSCENC =        90.42577596
  Ewald energy   TEWEN  =     -1146.88905665
  -Hartree energ DENC   =      -535.10238363
  -exchange      EXHF   =         0.00000000
  -V(xc)+E(xc)   XCENC  =       -72.59367835
  PAW double counting   =       813.77302396     -658.68146406
  entropy T*S    EENTRO =         0.00000000
  eigenvalues    EBANDS =       -80.08351366
  atomic energy  EATOM  =      1542.32679363
  Solvation  Ediel_sol  =         0.00000000
  ---------------------------------------------------
  free energy    TOTEN  =       -46.82450279 eV

  energy without entropy =      -46.82450279  energy(sigma->0) =      -46.82450279


--------------------------------------------------------------------------------------------------------




--------------------------------------- Iteration      1(   6)  ---------------------------------------


    POTLOK:  cpu time    0.1130: real time    0.1144
    SETDIJ:  cpu time    0.0100: real time    0.0096
    EDDIAG:  cpu time    0.3140: real time    0.3153
  RMM-DIIS:  cpu time    1.5778: real time    1.5766
    ORTHCH:  cpu time    0.0300: real time    0.0301
 BZINTS: Fermi energy:  2.879397; 36.000000 electrons
         Band energy: -79.180916;  BLOECHL correction:  0.000000
       DOS:  cpu time    0.0010: real time    0.0012
    CHARGE:  cpu time    0.1390: real time    0.1387
    MIXING:  cpu time    0.0030: real time    0.0032
    --------------------------------------------
      LOOP:  cpu time    2.1877: real time    2.1891

 eigenvalue-minimisations  :   981
 total energy-change (2. order) : 0.2383657E+01  (-0.2440327E+01)
 number of electron      35.9999999 magnetization 
 augmentation part       -0.8582516 magnetization 

 Broyden mixing:
  rms(total) = 0.33712E+00    rms(broyden)= 0.33712E+00
  rms(prec ) = 0.49358E+00
  weight for this iteration     100.00

 eigenvalues of (default mixing * dielectric matrix)
  average eigenvalue GAMMA=   0.8736
  0.8736

 Free energy of the ion-electron system (eV)
  ---------------------------------------------------
  alpha Z        PSCENC =        90.42577596
  Ewald energy   TEWEN  =     -1146.88905665
  -Hartree energ DENC   =      -533.61249940
  -exchange      EXHF   =         0.00000000
  -V(xc)+E(xc)   XCENC  =       -70.82377749
  PAW double counting   =       847.65150964     -694.33867528
  entropy T*S    EENTRO =         0.00000000
  eigenvalues    EBANDS =       -79.18091612
  atomic energy  EATOM  =      1542.32679363
  Solvation  Ediel_sol  =         0.00000000
  ---------------------------------------------------
  free energy    TOTEN  =       -44.44084571 eV

  energy without entropy =      -44.44084571  energy(sigma->0) =      -44.44084571


--------------------------------------------------------------------------------------------------------




--------------------------------------- Iteration      1(   7)  ---------------------------------------


    POTLOK:  cpu time    0.1120: real time    0.1150
    SETDIJ:  cpu time    0.0100: real time    0.0096
    EDDIAG:  cpu time    0.3130: real time    0.3134
  RMM-DIIS:  cpu time    1.5568: real time    1.5557
    ORTHCH:  cpu time    0.0300: real time    0.0302
 BZINTS: Fermi energy:  3.218533; 36.000000 electrons
         Band energy: -73.429490;  BLOECHL correction:  0.000000
       DOS:  cpu time    0.0000: real time    0.0012
    CHARGE:  cpu time    0.1400: real time    0.1385
    MIXING:  cpu time    0.0030: real time    0.0034
    --------------------------------------------
      LOOP:  cpu time    2.1647: real time    2.1671

 eigenvalue-minimisations  :   960
 total energy-change (2. order) : 0.7417660E+00  (-0.1939145E+00)
 number of electron      35.9999999 magnetization 
 augmentation part       -1.1095617 magnetization 

 Broyden mixing:
  rms(total) = 0.17853E+00    rms(broyden)= 0.17853E+00
  rms(prec ) = 0.21341E+00
  weight for this iteration     100.00

 eigenvalues of (default mixing * dielectric matrix)
  average eigenvalue GAMMA=   1.4074
  0.7590  2.0559

 Free energy of the ion-electron system (eV)
  ---------------------------------------------------
  alpha Z        PSCENC =        90.42577596
  Ewald energy   TEWEN  =     -1146.88905665
  -Hartree energ DENC   =      -537.93449945
  -exchange      EXHF   =         0.00000000
  -V(xc)+E(xc)   XCENC  =       -71.01567870
  PAW double counting   =       880.83163128     -728.01455572
  entropy T*S    EENTRO =         0.00000000
  eigenvalues    EBANDS =       -73.42949008
  atomic energy  EATOM  =      1542.32679363
  Solvation  Ediel_sol  =         0.00000000
  ---------------------------------------------------
  free energy    TOTEN  =       -43.69907971 eV

  energy without entropy =      -43.69907971  energy(sigma->0) =      -43.69907971


--------------------------------------------------------------------------------------------------------




--------------------------------------- Iteration      1(   8)  ---------------------------------------


    POTLOK:  cpu time    0.1120: real time    0.1151
    SETDIJ:  cpu time    0.0100: real time    0.0096
    EDDIAG:  cpu time    0.3130: real time    0.3133
  RMM-DIIS:  cpu time    1.6138: real time    1.6129
    ORTHCH:  cpu time    0.0290: real time    0.0300
 BZINTS: Fermi energy:  3.324975; 36.000000 electrons
         Band energy: -68.475319;  BLOECHL correction:  0.000000
       DOS:  cpu time    0.0010: real time    0.0012
    CHARGE:  cpu time    0.1390: real time    0.1381
    MIXING:  cpu time    0.0040: real time    0.0040
    --------------------------------------------
      LOOP:  cpu time    2.2217: real time    2.2243

 eigenvalue-minimisations  :  1003
 total energy-change (2. order) : 0.6093662E-01  (-0.9252589E-01)
 number of electron      35.9999999 magnetization 
 augmentation part       -1.1717077 magnetization 

 Broyden mixing:
  rms(total) = 0.85949E-01    rms(broyden)= 0.85949E-01
  rms(prec ) = 0.11516E+00
  weight for this iteration     100.00

 eigenvalues of (default mixing * dielectric matrix)
  average eigenvalue GAMMA=   1.4740
  2.1172  1.4802  0.8246

 Free energy of the ion-electron system (eV)
  ---------------------------------------------------
  alpha Z        PSCENC =        90.42577596
  Ewald energy   TEWEN  =     -1146.88905665
  -Hartree energ DENC   =      -542.22408695
  -exchange      EXHF   =         0.00000000
  -V(xc)+E(xc)   XCENC  =       -70.63277071
  PAW double counting   =       931.13033702     -779.29981686
  entropy T*S    EENTRO =         0.00000000
  eigenvalues    EBANDS =       -68.47531855
  atomic energy  EATOM  =      1542.32679363
  Solvation  Ediel_sol  =         0.00000000
  ---------------------------------------------------
  free energy    TOTEN  =       -43.63814310 eV

  energy without entropy =      -43.63814310  energy(sigma->0) =      -43.63814310


--------------------------------------------------------------------------------------------------------




--------------------------------------- Iteration      1(   9)  ---------------------------------------


    POTLOK:  cpu time    0.1110: real time    0.1137
    SETDIJ:  cpu time    0.0110: real time    0.0096
    EDDIAG:  cpu time    0.3110: real time    0.3123
  RMM-DIIS:  cpu time    1.6777: real time    1.6763
    ORTHCH:  cpu time    0.0290: real time    0.0299
 BZINTS: Fermi energy:  3.241539; 36.000000 electrons
         Band energy: -68.957280;  BLOECHL correction:  0.000000
       DOS:  cpu time    0.0020: real time    0.0013
    CHARGE:  cpu time    0.1380: real time    0.1379
    MIXING:  cpu time    0.0030: real time    0.0037
    --------------------------------------------
      LOOP:  cpu time    2.2827: real time    2.2846

 eigenvalue-minimisations  :  1035
 total energy-change (2. order) : 0.1160438E-01  (-0.3132374E-01)
 number of electron      35.9999999 magnetization 
 augmentation part       -1.0415441 magnetization 

 Broyden mixing:
  rms(total) = 0.58441E-01    rms(broyden)= 0.58441E-01
  rms(prec ) = 0.81472E-01
  weight for this iteration     100.00

 eigenvalues of (default mixing * dielectric matrix)
  average eigenvalue GAMMA=   1.5225
  2.1434  2.1434  0.9017  0.9017

 Free energy of the ion-electron system (eV)
  ---------------------------------------------------
  alpha Z        PSCENC =        90.42577596
  Ewald energy   TEWEN  =     -1146.88905665
  -Hartree energ DENC   =      -541.82162886
  -exchange      EXHF   =         0.00000000
  -V(xc)+E(xc)   XCENC  =       -70.36907548
  PAW double counting   =       937.54016900     -785.88223617
  entropy T*S    EENTRO =         0.00000000
  eigenvalues    EBANDS =       -68.95728014
  atomic energy  EATOM  =      1542.32679363
  Solvation  Ediel_sol  =         0.00000000
  ---------------------------------------------------
  free energy    TOTEN  =       -43.62653872 eV

  energy without entropy =      -43.62653872  energy(sigma->0) =      -43.62653872


--------------------------------------------------------------------------------------------------------




--------------------------------------- Iteration      1(  10)  ---------------------------------------


    POTLOK:  cpu time    0.1130: real time    0.1158
    SETDIJ:  cpu time    0.0100: real time    0.0096
    EDDIAG:  cpu time    0.3120: real time    0.3119
  RMM-DIIS:  cpu time    1.6957: real time    1.6954
    ORTHCH:  cpu time    0.0300: real time    0.0298
 BZINTS: Fermi energy:  3.310364; 36.000000 electrons
         Band energy: -68.030630;  BLOECHL correction:  0.000000
       DOS:  cpu time    0.0010: real time    0.0012
    CHARGE:  cpu time    0.1380: real time    0.1381
    MIXING:  cpu time    0.0040: real time    0.0038
    --------------------------------------------
      LOOP:  cpu time    2.3036: real time    2.3057

 eigenvalue-minimisations  :  1046
 total energy-change (2. order) : 0.1673829E-01  (-0.6982804E-02)
 number of electron      35.9999999 magnetization 
 augmentation part       -1.1045245 magnetization 

 Broyden mixing:
  rms(total) = 0.81290E-02    rms(broyden)= 0.81290E-02
  rms(prec ) = 0.10421E-01
  weight for this iteration     100.00

 eigenvalues of (default mixing * dielectric matrix)
  average eigenvalue GAMMA=   1.4284
  2.4496  1.6482  0.8826  0.8826  1.2793

 Free energy of the ion-electron system (eV)
  ---------------------------------------------------
  alpha Z        PSCENC =        90.42577596
  Ewald energy   TEWEN  =     -1146.88905665
  -Hartree energ DENC   =      -542.63342219
  -exchange      EXHF   =         0.00000000
  -V(xc)+E(xc)   XCENC  =       -70.42261477
  PAW double counting   =       943.64999468     -792.03664117
  entropy T*S    EENTRO =         0.00000000
  eigenvalues    EBANDS =       -68.03062992
  atomic energy  EATOM  =      1542.32679363
  Solvation  Ediel_sol  =         0.00000000
  ---------------------------------------------------
  free energy    TOTEN  =       -43.60980042 eV

  energy without entropy =      -43.60980042  energy(sigma->0) =      -43.60980042


--------------------------------------------------------------------------------------------------------




--------------------------------------- Iteration      1(  11)  ---------------------------------------


    POTLOK:  cpu time    0.1110: real time    0.1143
    SETDIJ:  cpu time    0.0110: real time    0.0096
    EDDIAG:  cpu time    0.3110: real time    0.3123
  RMM-DIIS:  cpu time    1.7827: real time    1.7816
    ORTHCH:  cpu time    0.0300: real time    0.0299
 BZINTS: Fermi energy:  3.306313; 36.000000 electrons
         Band energy: -67.907587;  BLOECHL correction:  0.000000
       DOS:  cpu time    0.0010: real time    0.0012
    CHARGE:  cpu time    0.1380: real time    0.1380
    MIXING:  cpu time    0.0040: real time    0.0040
    --------------------------------------------
      LOOP:  cpu time    2.3886: real time    2.3909

 eigenvalue-minimisations  :  1113
 total energy-change (2. order) :-0.5455511E-04  (-0.3315119E-03)
 number of electron      35.9999999 magnetization 
 augmentation part       -1.0981438 magnetization 

 Broyden mixing:
  rms(total) = 0.30232E-02    rms(broyden)= 0.30232E-02
  rms(prec ) = 0.36846E-02
  weight for this iteration     100.00

 eigenvalues of (default mixing * dielectric matrix)
  average eigenvalue GAMMA=   1.6330
  2.6209  2.6209  1.8292  0.8853  0.8853  0.9564

 Free energy of the ion-electron system (eV)
  ---------------------------------------------------
  alpha Z        PSCENC =        90.42577596
  Ewald energy   TEWEN  =     -1146.88905665
  -Hartree energ DENC   =      -542.77500830
  -exchange      EXHF   =         0.00000000
  -V(xc)+E(xc)   XCENC  =       -70.39561560
  PAW double counting   =       943.93852943     -792.33368634
  entropy T*S    EENTRO =         0.00000000
  eigenvalues    EBANDS =       -67.90758711
  atomic energy  EATOM  =      1542.32679363
  Solvation  Ediel_sol  =         0.00000000
  ---------------------------------------------------
  free energy    TOTEN  =       -43.60985498 eV

  energy without entropy =      -43.60985498  energy(sigma->0) =      -43.60985498


--------------------------------------------------------------------------------------------------------




--------------------------------------- Iteration      1(  12)  ---------------------------------------


    POTLOK:  cpu time    0.1120: real time    0.1140
    SETDIJ:  cpu time    0.0100: real time    0.0096
    EDDIAG:  cpu time    0.3110: real time    0.3120
  RMM-DIIS:  cpu time    1.7667: real time    1.7650
    ORTHCH:  cpu time    0.0300: real time    0.0298
 BZINTS: Fermi energy:  3.309762; 36.000000 electrons
         Band energy: -67.739522;  BLOECHL correction:  0.000000
       DOS:  cpu time    0.0000: real time    0.0012
    CHARGE:  cpu time    0.1380: real time    0.1381
    MIXING:  cpu time    0.0050: real time    0.0042
    --------------------------------------------
      LOOP:  cpu time    2.3726: real time    2.3738

 eigenvalue-minimisations  :  1114
 total energy-change (2. order) :-0.1480236E-03  (-0.5333872E-04)
 number of electron      35.9999999 magnetization 
 augmentation part       -1.0965318 magnetization 

 Broyden mixing:
  rms(total) = 0.21433E-02    rms(broyden)= 0.21433E-02
  rms(prec ) = 0.27303E-02
  weight for this iteration     100.00

 eigenvalues of (default mixing * dielectric matrix)
  average eigenvalue GAMMA=   1.5895
  2.9441  2.3743  1.5532  1.5532  0.8888  0.8888  0.9241

 Free energy of the ion-electron system (eV)
  ---------------------------------------------------
  alpha Z        PSCENC =        90.42577596
  Ewald energy   TEWEN  =     -1146.88905665
  -Hartree energ DENC   =      -542.96601935
  -exchange      EXHF   =         0.00000000
  -V(xc)+E(xc)   XCENC  =       -70.38610013
  PAW double counting   =       943.61147821     -791.99335264
  entropy T*S    EENTRO =         0.00000000
  eigenvalues    EBANDS =       -67.73952204
  atomic energy  EATOM  =      1542.32679363
  Solvation  Ediel_sol  =         0.00000000
  ---------------------------------------------------
  free energy    TOTEN  =       -43.61000300 eV

  energy without entropy =      -43.61000300  energy(sigma->0) =      -43.61000300


--------------------------------------------------------------------------------------------------------




--------------------------------------- Iteration      1(  13)  ---------------------------------------


    POTLOK:  cpu time    0.1120: real time    0.1151
    SETDIJ:  cpu time    0.0100: real time    0.0096
    EDDIAG:  cpu time    0.3130: real time    0.3136
  RMM-DIIS:  cpu time    1.8567: real time    1.8563
    ORTHCH:  cpu time    0.0300: real time    0.0300
 BZINTS: Fermi energy:  3.312149; 36.000000 electrons
         Band energy: -67.724723;  BLOECHL correction:  0.000000
       DOS:  cpu time    0.0010: real time    0.0012
    CHARGE:  cpu time    0.1390: real time    0.1385
    MIXING:  cpu time    0.0040: real time    0.0044
    --------------------------------------------
      LOOP:  cpu time    2.4656: real time    2.4686

 eigenvalue-minimisations  :  1160
 total energy-change (2. order) :-0.9173305E-05  (-0.3461683E-04)
 number of electron      35.9999999 magnetization 
 augmentation part       -1.1002490 magnetization 

 Broyden mixing:
  rms(total) = 0.19436E-02    rms(broyden)= 0.19436E-02
  rms(prec ) = 0.26280E-02
  weight for this iteration     100.00

 eigenvalues of (default mixing * dielectric matrix)
  average eigenvalue GAMMA=   1.7404
  3.2517  2.6351  2.6351  1.6100  1.1415  0.8797  0.8797  0.8900

 Free energy of the ion-electron system (eV)
  ---------------------------------------------------
  alpha Z        PSCENC =        90.42577596
  Ewald energy   TEWEN  =     -1146.88905665
  -Hartree energ DENC   =      -542.97634224
  -exchange      EXHF   =         0.00000000
  -V(xc)+E(xc)   XCENC  =       -70.38974284
  PAW double counting   =       943.78028308     -792.16300058
  entropy T*S    EENTRO =         0.00000000
  eigenvalues    EBANDS =       -67.72472254
  atomic energy  EATOM  =      1542.32679363
  Solvation  Ediel_sol  =         0.00000000
  ---------------------------------------------------
  free energy    TOTEN  =       -43.61001218 eV

  energy without entropy =      -43.61001218  energy(sigma->0) =      -43.61001218


--------------------------------------------------------------------------------------------------------




--------------------------------------- Iteration      1(  14)  ---------------------------------------


    POTLOK:  cpu time    0.1120: real time    0.1147
    SETDIJ:  cpu time    0.0100: real time    0.0096
    EDDIAG:  cpu time    0.3130: real time    0.3132
  RMM-DIIS:  cpu time    1.4918: real time    1.4911
    ORTHCH:  cpu time    0.0300: real time    0.0299
 BZINTS: Fermi energy:  3.309984; 36.000000 electrons
         Band energy: -67.745899;  BLOECHL correction:  0.000000
       DOS:  cpu time    0.0010: real time    0.0012
    CHARGE:  cpu time    0.1390: real time    0.1385
    MIXING:  cpu time    0.0040: real time    0.0046
    --------------------------------------------
      LOOP:  cpu time    2.1007: real time    2.1029

 eigenvalue-minimisations  :   908
 total energy-change (2. order) : 0.1458505E-04  (-0.7713018E-05)
 number of electron      35.9999999 magnetization 
 augmentation part       -1.0983760 magnetization 

 Broyden mixing:
  rms(total) = 0.26460E-03    rms(broyden)= 0.26460E-03
  rms(prec ) = 0.32578E-03
  weight for this iteration     100.00

 eigenvalues of (default mixing * dielectric matrix)
  average eigenvalue GAMMA=   1.6009
  3.0450  2.7511  2.3294  1.5071  1.2211  0.8734  0.8734  0.9037  0.9037

 Free energy of the ion-electron system (eV)
  ---------------------------------------------------
  alpha Z        PSCENC =        90.42577596
  Ewald energy   TEWEN  =     -1146.88905665
  -Hartree energ DENC   =      -542.95761290
  -exchange      EXHF   =         0.00000000
  -V(xc)+E(xc)   XCENC  =       -70.38688882
  PAW double counting   =       943.62521524     -792.00832479
  entropy T*S    EENTRO =         0.00000000
  eigenvalues    EBANDS =       -67.74589927
  atomic energy  EATOM  =      1542.32679363
  Solvation  Ediel_sol  =         0.00000000
  ---------------------------------------------------
  free energy    TOTEN  =       -43.60999759 eV

  energy without entropy =      -43.60999759  energy(sigma->0) =      -43.60999759


--------------------------------------------------------------------------------------------------------




--------------------------------------- Iteration      1(  15)  ---------------------------------------


    POTLOK:  cpu time    0.1130: real time    0.1167
    SETDIJ:  cpu time    0.0100: real time    0.0096
    EDDIAG:  cpu time    0.3130: real time    0.3134
  RMM-DIIS:  cpu time    1.1618: real time    1.1617
    ORTHCH:  cpu time    0.0300: real time    0.0299
 BZINTS: Fermi energy:  3.309492; 36.000000 electrons
         Band energy: -67.740106;  BLOECHL correction:  0.000000
       DOS:  cpu time    0.0010: real time    0.0012
    --------------------------------------------
      LOOP:  cpu time    1.6288: real time    1.6325

 eigenvalue-minimisations  :   685
 total energy-change (2. order) :-0.2710831E-06  (-0.8609544E-06)
 number of electron      35.9999999 magnetization 
 augmentation part       -1.0983760 magnetization 

 Free energy of the ion-electron system (eV)
  ---------------------------------------------------
  alpha Z        PSCENC =        90.42577596
  Ewald energy   TEWEN  =     -1146.88905665
  -Hartree energ DENC   =      -542.96429349
  -exchange      EXHF   =         0.00000000
  -V(xc)+E(xc)   XCENC  =       -70.38682312
  PAW double counting   =       943.58510586     -791.96739398
  entropy T*S    EENTRO =         0.00000000
  eigenvalues    EBANDS =       -67.74010608
  atomic energy  EATOM  =      1542.32679363
  Solvation  Ediel_sol  =         0.00000000
  ---------------------------------------------------
  free energy    TOTEN  =       -43.60999786 eV

  energy without entropy =      -43.60999786  energy(sigma->0) =      -43.60999786


--------------------------------------------------------------------------------------------------------




 average (electrostatic) potential at core
  the test charge radii are     1.2296  0.9698
  (the norm of the test charge is              1.0000)
       1 -40.3304       2 -40.3304       3 -88.1718       4 -88.1718       5 -88.1718
       6 -88.1718
 
 
 
 E-fermi :   3.3095     XC(G=0):  -9.3244     alpha+bet : -9.6368


 k-point     1 :       0.0000    0.0000    0.0000
  band No.  band energies     occupation 
      1     -10.9296      2.00000
      2     -10.9106      2.00000
      3      -9.7291      2.00000
      4      -9.6951      2.00000
      5      -2.5237      2.00000
      6      -2.3622      2.00000
      7       0.5194      2.00000
      8       0.5194      2.00000
      9       0.5200      2.00000
     10       0.5200      2.00000
     11       1.1060      2.00000
     12       1.6243      2.00000
     13       1.6244      2.00000
     14       1.6263      2.00000
     15       1.6263      2.00000
     16       1.6743      2.00000
     17       2.9223      2.00000
     18       3.2981      2.00000
     19       5.8728      0.00000
     20       5.9288      0.00000
     21       6.0320      0.00000
     22       6.0803      0.00000

 k-point     2 :       0.1250   -0.0000    0.0000
  band No.  band energies     occupation 
      1     -10.7152      2.00000
      2     -10.6966      2.00000
      3      -9.6254      2.00000
      4      -9.5940      2.00000
      5      -2.2778      2.00000
      6      -2.1190      2.00000
      7       0.0549      2.00000
      8       0.0576      2.00000
      9       0.4563      2.00000
     10       0.6724      2.00000
     11       0.7535      2.00000
     12       0.7547      2.00000
     13       1.2883      2.00000
     14       1.2909      2.00000
     15       1.9304      2.00000
     16       2.2143      2.00000
     17       2.8432      2.00000
     18       3.0852      2.00000
     19       5.5186      0.00000
     20       5.6369      0.00000
     21       5.7043      0.00000
     22       5.8267      0.00000

 k-point     3 :       0.2500   -0.0000    0.0000
  band No.  band energies     occupation 
      1     -10.1455      2.00000
      2     -10.1288      2.00000
      3      -9.3531      2.00000
      4      -9.3287      2.00000
      5      -1.8880      2.00000
      6      -1.7771      2.00000
      7      -0.6917      2.00000
      8      -0.6482      2.00000
      9      -0.4614      2.00000
     10      -0.3600      2.00000
     11       0.6528      2.00000
     12       0.6563      2.00000
     13       1.3395      2.00000
     14       1.3430      2.00000
     15       1.7039      2.00000
     16       1.9127      2.00000
     17       2.3696      2.00000
     18       2.4181      2.00000
     19       5.1192      0.00000
     20       5.4388      0.00000
     21       5.4528      0.00000
     22       5.4859      0.00000

 k-point     4 :       0.3750   -0.0000    0.0000
  band No.  band energies     occupation 
      1      -9.4680      2.00000
      2      -9.4561      2.00000
      3      -9.0395      2.00000
      4      -9.0253      2.00000
      5      -2.2854      2.00000
      6      -2.2507      2.00000
      7      -1.2977      2.00000
      8      -1.2547      2.00000
      9      -0.8467      2.00000
     10      -0.7617      2.00000
     11       0.1553      2.00000
     12       0.1592      2.00000
     13       1.3418      2.00000
     14       1.4494      2.00000
     15       1.9276      2.00000
     16       1.9362      2.00000
     17       2.1732      2.00000
     18       2.2239      2.00000
     19       5.2592      0.00000
     20       5.2683      0.00000
     21       5.4542      0.00000
     22       5.6327      0.00000

 k-point     5 :       0.5000   -0.0000    0.0000
  band No.  band energies     occupation 
      1      -9.1371      2.00000
      2      -9.1305      2.00000
      3      -8.8923      2.00000
      4      -8.8858      2.00000
      5      -2.6138      2.00000
      6      -2.5869      2.00000
      7      -1.6530      2.00000
      8      -1.6285      2.00000
      9      -0.9685      2.00000
     10      -0.8926      2.00000
     11      -0.0254      2.00000
     12      -0.0213      2.00000
     13       1.2464      2.00000
     14       1.2659      2.00000
     15       2.1530      2.00000
     16       2.1651      2.00000
     17       2.4768      2.00000
     18       2.4807      2.00000
     19       5.2841      0.00000
     20       5.2879      0.00000
     21       5.7737      0.00000
     22       5.8289      0.00000

 k-point     6 :       0.1250    0.1250    0.0000
  band No.  band energies     occupation 
      1     -10.3218      2.00000
      2     -10.3044      2.00000
      3      -9.4360      2.00000
      4      -9.4093      2.00000
      5      -1.9211      2.00000
      6      -1.7814      2.00000
      7      -0.5139      2.00000
      8      -0.5013      2.00000
      9      -0.0653      2.00000
     10       0.0767      2.00000
     11       0.4637      2.00000
     12       0.4898      2.00000
     13       1.0928      2.00000
     14       1.0946      2.00000
     15       2.0956      2.00000
     16       2.2980      2.00000
     17       2.5519      2.00000
     18       2.6274      2.00000
     19       5.0620      0.00000
     20       5.3259      0.00000
     21       5.5200      0.00000
     22       5.5697      0.00000

 k-point     7 :       0.2500    0.1250    0.0000
  band No.  band energies     occupation 
      1      -9.6865      2.00000
      2      -9.6725      2.00000
      3      -9.1332      2.00000
      4      -9.1150      2.00000
      5      -1.9397      2.00000
      6      -1.8867      2.00000
      7      -0.9513      2.00000
      8      -0.9201      2.00000
      9      -0.7086      2.00000
     10      -0.6351      2.00000
     11      -0.0669      2.00000
     12       0.0078      2.00000
     13       1.1901      2.00000
     14       1.1960      2.00000
     15       1.7871      2.00000
     16       1.8735      2.00000
     17       2.3021      2.00000
     18       2.3119      2.00000
     19       4.9959      0.00000
     20       5.2121      0.00000
     21       5.5288      0.00000
     22       5.6344      0.00000

 k-point     8 :       0.3750    0.1250    0.0000
  band No.  band energies     occupation 
      1      -9.1529      2.00000
      2      -9.1452      2.00000
      3      -8.8843      2.00000
      4      -8.8760      2.00000
      5      -2.3266      2.00000
      6      -2.2996      2.00000
      7      -1.7024      2.00000
      8      -1.6932      2.00000
      9      -0.8381      2.00000
     10      -0.7675      2.00000
     11      -0.0674      2.00000
     12      -0.0250      2.00000
     13       1.1998      2.00000
     14       1.2161      2.00000
     15       1.3282      2.00000
     16       1.3665      2.00000
     17       2.6244      2.00000
     18       2.6428      2.00000
     19       5.2705      0.00000
     20       5.3347      0.00000
     21       5.7787      0.00000
     22       5.8594      0.00000

 k-point     9 :       0.2500    0.2500    0.0000
  band No.  band energies     occupation 
      1      -9.1683      2.00000
      2      -9.1596      2.00000
      3      -8.8761      2.00000
      4      -8.8662      2.00000
      5      -1.9673      2.00000
      6      -1.9388      2.00000
      7      -1.7538      2.00000
      8      -1.7426      2.00000
      9      -0.4882      2.00000
     10      -0.4638      2.00000
     11      -0.1393      2.00000
     12      -0.0511      2.00000
     13       0.2146      2.00000
     14       0.2372      2.00000
     15       1.4761      2.00000
     16       1.4868      2.00000
     17       2.6004      2.00000
     18       2.6102      2.00000
     19       5.1853      0.00000
     20       5.3136      0.00000
     21       5.8411      0.00000
     22       6.0863      0.00000

 k-point    10 :       0.3750    0.2500    0.0000
  band No.  band energies     occupation 
      1      -8.9306      2.00000
      2      -8.9275      2.00000
      3      -8.7535      2.00000
      4      -8.7504      2.00000
      5      -2.1380      2.00000
      6      -2.1272      2.00000
      7      -1.7919      2.00000
      8      -1.7757      2.00000
      9      -0.7782      2.00000
     10      -0.7409      2.00000
     11      -0.1071      2.00000
     12      -0.0862      2.00000
     13       0.1068      2.00000
     14       0.1578      2.00000
     15       1.0756      2.00000
     16       1.1155      2.00000
     17       2.9620      2.00000
     18       2.9831      2.00000
     19       4.9235      0.00000
     20       4.9324      0.00000
     21       6.1549      0.00000
     22       6.3327      0.00000

 k-point    11 :       0.0000    0.0000    0.5000
  band No.  band energies     occupation 
      1     -10.9202      2.00000
      2     -10.9202      2.00000
      3      -9.7120      2.00000
      4      -9.7120      2.00000
      5      -2.4457      2.00000
      6      -2.4457      2.00000
      7       0.5197      2.00000
      8       0.5197      2.00000
      9       0.5197      2.00000
     10       0.5197      2.00000
     11       1.3627      2.00000
     12       1.3627      2.00000
     13       1.6253      2.00000
     14       1.6253      2.00000
     15       1.6253      2.00000
     16       1.6253      2.00000
     17       3.1408      2.00000
     18       3.1408      2.00000
     19       5.8790      0.00000
     20       5.9059      0.00000
     21       5.9842      0.00000
     22       6.0885      0.00000

 k-point    12 :       0.1250   -0.0000    0.5000
  band No.  band energies     occupation 
      1     -10.7060      2.00000
      2     -10.7060      2.00000
      3      -9.6096      2.00000
      4      -9.6096      2.00000
      5      -2.2014      2.00000
      6      -2.2014      2.00000
      7       0.0560      2.00000
      8       0.0560      2.00000
      9       0.5710      2.00000
     10       0.5710      2.00000
     11       0.7541      2.00000
     12       0.7541      2.00000
     13       1.2896      2.00000
     14       1.2896      2.00000
     15       2.0426      2.00000
     16       2.0426      2.00000
     17       2.9901      2.00000
     18       2.9901      2.00000
     19       5.5765      0.00000
     20       5.6801      0.00000
     21       5.7065      0.00000
     22       5.8532      0.00000

 k-point    13 :       0.2500   -0.0000    0.5000
  band No.  band energies     occupation 
      1     -10.1373      2.00000
      2     -10.1373      2.00000
      3      -9.3408      2.00000
      4      -9.3408      2.00000
      5      -1.8343      2.00000
      6      -1.8343      2.00000
      7      -0.6756      2.00000
      8      -0.6756      2.00000
      9      -0.4028      2.00000
     10      -0.4028      2.00000
     11       0.6546      2.00000
     12       0.6546      2.00000
     13       1.3413      2.00000
     14       1.3413      2.00000
     15       1.8004      2.00000
     16       1.8005      2.00000
     17       2.3993      2.00000
     18       2.3993      2.00000
     19       5.2599      0.00000
     20       5.2604      0.00000
     21       5.4453      0.00000
     22       5.4495      0.00000

 k-point    14 :       0.3750   -0.0000    0.5000
  band No.  band energies     occupation 
      1      -9.4622      2.00000
      2      -9.4622      2.00000
      3      -9.0323      2.00000
      4      -9.0323      2.00000
      5      -2.2683      2.00000
      6      -2.2683      2.00000
      7      -1.2781      2.00000
      8      -1.2781      2.00000
      9      -0.8022      2.00000
     10      -0.8022      2.00000
     11       0.1572      2.00000
     12       0.1572      2.00000
     13       1.3935      2.00000
     14       1.3936      2.00000
     15       1.9319      2.00000
     16       1.9319      2.00000
     17       2.2005      2.00000
     18       2.2005      2.00000
     19       5.2637      0.00000
     20       5.2637      0.00000
     21       5.5373      0.00000
     22       5.5376      0.00000

 k-point    15 :       0.5000   -0.0000    0.5000
  band No.  band energies     occupation 
      1      -9.1338      2.00000
      2      -9.1338      2.00000
      3      -8.8890      2.00000
      4      -8.8890      2.00000
      5      -2.6005      2.00000
      6      -2.6005      2.00000
      7      -1.6416      2.00000
      8      -1.6416      2.00000
      9      -0.9296      2.00000
     10      -0.9296      2.00000
     11      -0.0233      2.00000
     12      -0.0233      2.00000
     13       1.2560      2.00000
     14       1.2560      2.00000
     15       2.1590      2.00000
     16       2.1590      2.00000
     17       2.4788      2.00000
     18       2.4788      2.00000
     19       5.2860      0.00000
     20       5.2860      0.00000
     21       5.8015      0.00000
     22       5.8017      0.00000

 k-point    16 :       0.1250    0.1250    0.5000
  band No.  band energies     occupation 
      1     -10.3132      2.00000
      2     -10.3132      2.00000
      3      -9.4225      2.00000
      4      -9.4225      2.00000
      5      -1.8541      2.00000
      6      -1.8541      2.00000
      7      -0.5093      2.00000
      8      -0.5093      2.00000
      9       0.0125      2.00000
     10       0.0125      2.00000
     11       0.4757      2.00000
     12       0.4757      2.00000
     13       1.0937      2.00000
     14       1.0937      2.00000
     15       2.1815      2.00000
     16       2.1815      2.00000
     17       2.6014      2.00000
     18       2.6014      2.00000
     19       5.1820      0.00000
     20       5.1840      0.00000
     21       5.5452      0.00000
     22       5.5721      0.00000

 k-point    17 :       0.2500    0.1250    0.5000
  band No.  band energies     occupation 
      1      -9.6796      2.00000
      2      -9.6796      2.00000
      3      -9.1240      2.00000
      4      -9.1240      2.00000
      5      -1.9135      2.00000
      6      -1.9135      2.00000
      7      -0.9375      2.00000
      8      -0.9375      2.00000
      9      -0.6718      2.00000
     10      -0.6718      2.00000
     11      -0.0268      2.00000
     12      -0.0268      2.00000
     13       1.1929      2.00000
     14       1.1929      2.00000
     15       1.8282      2.00000
     16       1.8282      2.00000
     17       2.3076      2.00000
     18       2.3076      2.00000
     19       5.1025      0.00000
     20       5.1025      0.00000
     21       5.5539      0.00000
     22       5.5588      0.00000

 k-point    18 :       0.3750    0.1250    0.5000
  band No.  band energies     occupation 
      1      -9.1491      2.00000
      2      -9.1491      2.00000
      3      -8.8801      2.00000
      4      -8.8801      2.00000
      5      -2.3132      2.00000
      6      -2.3132      2.00000
      7      -1.6980      2.00000
      8      -1.6980      2.00000
      9      -0.8035      2.00000
     10      -0.8035      2.00000
     11      -0.0448      2.00000
     12      -0.0448      2.00000
     13       1.2073      2.00000
     14       1.2073      2.00000
     15       1.3473      2.00000
     16       1.3473      2.00000
     17       2.6339      2.00000
     18       2.6339      2.00000
     19       5.3029      0.00000
     20       5.3029      0.00000
     21       5.8119      0.00000
     22       5.8133      0.00000

 k-point    19 :       0.2500    0.2500    0.5000
  band No.  band energies     occupation 
      1      -9.1641      2.00000
      2      -9.1641      2.00000
      3      -8.8711      2.00000
      4      -8.8711      2.00000
      5      -1.9533      2.00000
      6      -1.9533      2.00000
      7      -1.7481      2.00000
      8      -1.7481      2.00000
      9      -0.4798      2.00000
     10      -0.4798      2.00000
     11      -0.0910      2.00000
     12      -0.0910      2.00000
     13       0.2260      2.00000
     14       0.2260      2.00000
     15       1.4805      2.00000
     16       1.4805      2.00000
     17       2.6054      2.00000
     18       2.6054      2.00000
     19       5.2492      0.00000
     20       5.2493      0.00000
     21       5.8560      0.00000
     22       5.9128      0.00000

 k-point    20 :       0.3750    0.2500    0.5000
  band No.  band energies     occupation 
      1      -8.9291      2.00000
      2      -8.9291      2.00000
      3      -8.7519      2.00000
      4      -8.7519      2.00000
      5      -2.1327      2.00000
      6      -2.1327      2.00000
      7      -1.7836      2.00000
      8      -1.7836      2.00000
      9      -0.7606      2.00000
     10      -0.7606      2.00000
     11      -0.0994      2.00000
     12      -0.0994      2.00000
     13       0.1371      2.00000
     14       0.1371      2.00000
     15       1.0940      2.00000
     16       1.0940      2.00000
     17       2.9725      2.00000
     18       2.9725      2.00000
     19       4.9280      0.00000
     20       4.9280      0.00000
     21       6.2287      0.00000
     22       6.2708      0.00000


--------------------------------------------------------------------------------------------------------


 soft charge-density along one line, spin component           1
         0         1         2         3         4         5         6         7         8         9
 total charge-density along one line
 
 pseudopotential strength for first ion, spin component:           1
 -8.238  -0.000   0.000   0.000  -0.000  -0.074   0.000  -0.000
 -0.000  -8.238   0.000  -0.000  -0.000   0.000  -0.074  -0.000
  0.000   0.000  -8.217  -0.000  -0.000  -0.000  -0.000  -0.075
  0.000  -0.000  -0.000  -8.238  -0.000  -0.000   0.000   0.000
 -0.000  -0.000  -0.000  -0.000  -8.238   0.000   0.000   0.000
 -0.074   0.000  -0.000  -0.000   0.000   0.112  -0.000   0.000
  0.000  -0.074  -0.000   0.000   0.000  -0.000   0.112   0.000
 -0.000  -0.000  -0.075   0.000   0.000   0.000   0.000   0.112
 -0.000   0.000   0.000  -0.074   0.000   0.000  -0.000  -0.000
  0.000   0.000   0.000   0.000  -0.074  -0.000  -0.000  -0.000
  0.000  -0.000  -0.005   0.000  -0.000  -0.000   0.000   0.000
 -0.000   0.000   0.001  -0.000   0.000   0.000  -0.000  -0.000
 -0.000   0.000  -0.000  -0.000  -0.007   0.000  -0.000   0.000
 -0.000   0.000   0.000  -0.000  -0.000  -0.000  -0.000  -0.000
 -0.007  -0.000   0.000   0.000  -0.000  -0.000  -0.000  -0.000
  0.000  -0.000   0.000   0.000   0.004  -0.000   0.000  -0.000
  0.000  -0.000  -0.000   0.000   0.000  -0.000   0.000   0.000
  0.004   0.000  -0.000  -0.000   0.000   0.000  -0.000   0.000
 total augmentation occupancy for first ion, spin component:           1
  0.965  -0.000  -0.000   0.000  -0.000   0.595   0.000  -0.000   0.000  -0.000  -0.000   0.000   0.000   0.000  -0.065  -0.000
 -0.000   0.906   0.000   0.000   0.000  -0.000   0.833   0.000   0.000   0.000  -0.000   0.000   0.000   0.000   0.000   0.000
 -0.000  -0.000   1.029   0.000   0.000  -0.000   0.000   0.495   0.000   0.000   0.111  -0.019  -0.000   0.000   0.000   0.000
 -0.000   0.000   0.000   0.906  -0.000   0.000   0.000  -0.000   0.833   0.000   0.000   0.000  -0.000  -0.000   0.000   0.000
 -0.000  -0.000   0.000   0.000   0.965   0.000  -0.000   0.000   0.000   0.595   0.000  -0.000  -0.065   0.000  -0.000   0.007
  0.595   0.000  -0.000  -0.000  -0.000   0.670   0.000  -0.000   0.000  -0.000   0.000  -0.000   0.000  -0.000  -0.136  -0.000
 -0.000   0.833   0.000   0.000   0.000   0.000   1.069   0.000   0.000   0.000   0.000   0.000  -0.000   0.000   0.000  -0.000
 -0.000   0.000   0.495   0.000   0.000  -0.000  -0.000   0.470   0.000   0.000   0.058  -0.021  -0.000   0.000   0.000   0.000
 -0.000   0.000   0.000   0.833  -0.000  -0.000   0.000   0.000   1.069  -0.000   0.000   0.000  -0.000  -0.000  -0.000   0.000
 -0.000   0.000   0.000   0.000   0.595  -0.000   0.000   0.000   0.000   0.670   0.000  -0.000  -0.136  -0.000  -0.000   0.023
 -0.000   0.000   0.111   0.000   0.000   0.000  -0.000   0.058   0.000   0.000   1.207  -0.185   0.000   0.000   0.000   0.000
  0.000   0.000  -0.019   0.000  -0.000  -0.000   0.000  -0.021   0.000  -0.000  -0.185   0.042   0.000  -0.000   0.000  -0.000
  0.000   0.000  -0.000   0.000  -0.065   0.000   0.000  -0.000   0.000  -0.136   0.000   0.000   0.217  -0.000   0.000  -0.032
 -0.000   0.000   0.000  -0.000   0.000   0.000   0.000   0.000  -0.000  -0.000   0.000  -0.000   0.000   0.264   0.000   0.000
 -0.065   0.000   0.000   0.000  -0.000  -0.136   0.000   0.000   0.000  -0.000  -0.000   0.000   0.000   0.000   0.217  -0.000
 -0.000   0.000   0.000   0.000   0.007  -0.000  -0.000   0.000   0.000   0.023  -0.000  -0.000  -0.032   0.000  -0.000   0.005
  0.000  -0.000   0.000   0.000  -0.000   0.000   0.000   0.000  -0.000  -0.000  -0.000   0.000  -0.000  -0.038  -0.000   0.000
  0.007  -0.000  -0.000   0.000   0.000   0.023   0.000  -0.000   0.000   0.000   0.000   0.000  -0.000   0.000  -0.032   0.000


------------------------ aborting loop because EDIFF is reached ----------------------------------------


    CHARGE:  cpu time    0.1390: real time    0.1389
    FORLOC:  cpu time    0.0110: real time    0.0106
    FORNL :  cpu time    0.3709: real time    0.3709
    STRESS:  cpu time    1.2038: real time    1.2037
    FORCOR:  cpu time    0.1240: real time    0.1239
    FORHAR:  cpu time    0.0280: real time    0.0279
    MIXING:  cpu time    0.0050: real time    0.0048
    OFIELD:  cpu time    0.0000: real time    0.0000

  DFT-D2 method for vdW energy calculation
  -------------------------------------------------------------------

  Parameters of vdW forcefield:
         C6(Jnm^6/mol)     R0(A)
   -----------------------------
   Mo      24.670          1.639
   S        5.570          1.683

  IVDW =   1
  VDW_RADIUS =    50.000 A
  VDW_S6 =     0.750
  VDW_SR =     1.000
  VDW_D =    20.000
  LVDW_EWALD = F

  Number of pair interactions contributing to vdW energy:   84128
  Edisp (eV):   -1.33129
    FORVDW:  cpu time    0.0210: real time    0.0287

  FORCE on cell =-STRESS in cart. coord.  units (eV):
  Direction    XX          YY          ZZ          XY          YZ          ZX
  --------------------------------------------------------------------------------------
  Alpha Z    90.42578    90.42578    90.42578
  Ewald     -12.90873   -12.90785 -1121.07429     0.00038     0.00000     0.00025
  Hartree   466.60225   466.60226  -390.21441     0.00003     0.00000    -0.00001
  E(xc)    -140.61568  -140.61568  -141.80752    -0.00001     0.00000    -0.00000
  Local   -1080.43404 -1080.43456   872.67577    -0.00030     0.00000    -0.00011
  n-local   254.32831   251.57622   263.35727    -0.51719     0.00014    -0.00008
  augment   -51.12735   -51.12735   -53.33017     0.00001     0.00000    -0.00001
  Kinetic   471.76585   477.35586   479.52423   -14.79795     0.00031    -0.00006
  Fock        0.00000     0.00000     0.00000     0.00000     0.00000     0.00000
  vdW         0.17103     0.17103    -0.86546     0.00000     0.00000    -0.00000
  -------------------------------------------------------------------------------------
  Total      -0.37343    -0.37343    -1.30881    -0.00000    -0.00000     0.00000
  in kB      -4.56194    -4.56194   -15.98873    -0.00000    -0.00000     0.00000
  external pressure =       -8.37 kB  Pullay stress =        0.00 kB


 VOLUME and BASIS-vectors are now :
 -----------------------------------------------------------------------------
  energy-cutoff  :     1000.00
  volume of cell :      131.15
      direct lattice vectors                 reciprocal lattice vectors
     3.190315730  0.000000000  0.000000000     0.313448600  0.180969634  0.000000000
    -1.595157865  2.762894468  0.000000000     0.000000000  0.361939267  0.000000000
     0.000000000  0.000000000 14.879004300     0.000000000  0.000000000  0.067208798

  length of vectors
     3.190315730  3.190315730 14.879004300     0.361939267  0.361939267  0.067208798


 FORCES acting on ions
    electron-ion (+dipol)            ewald-force                    non-local-force                 convergence-correction
 -----------------------------------------------------------------------------------------------
   0.471E-04 -.344E-04 -.957E-05   0.928E-04 -.107E-03 0.288E-09   -.347E-17 -.416E-16 -.169E-20   0.151E-08 -.313E-08 -.245E-09
   0.662E-04 -.310E-04 -.957E-05   -.928E-04 0.107E-03 -.288E-09   -.867E-17 0.416E-16 -.106E-20   0.785E-08 -.227E-08 -.244E-09
   0.526E-03 -.304E-03 -.242E+03   0.865E-04 -.537E-04 0.247E+03   -.182E-16 0.104E-16 -.479E+01   0.977E-08 -.587E-08 0.941E-02
   -.118E-02 0.679E-03 0.242E+03   -.865E-04 0.537E-04 -.247E+03   0.195E-16 -.104E-16 0.479E+01   -.258E-07 0.151E-07 -.941E-02
   0.524E-03 0.690E-03 -.242E+03   -.638E-05 0.537E-04 0.247E+03   0.186E-16 0.295E-16 -.479E+01   0.102E-07 0.130E-07 0.941E-02
   -.121E-02 -.293E-03 0.242E+03   0.638E-05 -.537E-04 -.247E+03   -.221E-16 -.295E-16 0.479E+01   -.189E-07 -.799E-08 -.941E-02
 -----------------------------------------------------------------------------------------------
   -.122E-02 0.707E-03 -.106E-04   -.561E-14 0.109E-13 0.284E-13   -.143E-16 0.000E+00 0.888E-15   -.154E-07 0.892E-08 -.755E-09
 
 
 POSITION                                       TOTAL-FORCE (eV/Angst)
 -----------------------------------------------------------------------------------
     -0.00000      1.84193      3.71975        -0.000000     -0.000000     -0.000000
      1.59516      0.92096     11.15925         0.000000     -0.000000     -0.000000
     -0.00000      1.84193     12.72414         0.000000     -0.000000     -0.085653
      1.59516      0.92096      2.15487        -0.000000      0.000000      0.085653
      1.59516      0.92096      5.28464        -0.000000      0.000000     -0.085653
      0.00000      1.84193      9.59437         0.000000     -0.000000      0.085653
 -----------------------------------------------------------------------------------
    total drift:                               -0.001225      0.000707     -0.000011


--------------------------------------------------------------------------------------------------------



  FREE ENERGIE OF THE ION-ELECTRON SYSTEM (eV)
  ---------------------------------------------------
  free  energy   TOTEN  =       -44.94128488 eV

  energy  without entropy=      -44.94128488  energy(sigma->0) =      -44.94128488
 


--------------------------------------------------------------------------------------------------------


    POTLOK:  cpu time    0.1230: real time    0.1220


--------------------------------------------------------------------------------------------------------


     LOOP+:  cpu time   35.8975: real time   36.0165
    4ORBIT:  cpu time    0.0000: real time    0.0000
 BZINTS: Fermi energy:  3.309492; 36.000000 electrons
         Band energy: -67.740106;  BLOECHL correction:  0.000000

 total amount of memory used by VASP MPI-rank0    94903. kBytes
=======================================================================

   base      :      30000. kBytes
   nonl-proj :      27769. kBytes
   fftplans  :       7790. kBytes
   grid      :      12487. kBytes
   one-center:         46. kBytes
   wavefun   :      16811. kBytes
 
  
  
 General timing and accounting informations for this job:
 ========================================================
  
                  Total CPU time used (sec):       37.761
                            User time (sec):       36.981
                          System time (sec):        0.780
                         Elapsed time (sec):       38.361
  
                   Maximum memory used (kb):       93544.
                   Average memory used (kb):           0.
  
                          Minor page faults:        24014
                          Major page faults:          189
                 Voluntary context switches:         2930
