perl: warning: Setting locale failed.
perl: warning: Please check that your locale settings:
	LANGUAGE = (unset),
	LC_ALL = (unset),
	LC_CTYPE = "UTF-8",
	LANG = "en_US.iso885915"
    are supported and installed on your system.
perl: warning: Falling back to the standard locale ("C").
Starting job 28526460 ("jobname") on c15-30 at Fri Nov 8 00:03:10 CET 2019
 running on    4 total cores
 distrk:  each k-point on    4 cores,    1 groups
 distr:  one band on    2 cores,    2 groups
 using from now: INCAR     
 vasp.5.4.4.18Apr17-6-g9f103f2a35 (build Jun 30 2017 11:15:00) complex          
  
 POSCAR found type information on POSCAR  Mo S 
 POSCAR found :  2 types and       6 ions
 scaLAPACK will be used
 WARNING: PSMAXN for non-local potential too small
 LDA part: xc-table for Pade appr. of Perdew
 POSCAR, INCAR and KPOINTS ok, starting setup
 FFT: planning ...
 WAVECAR not read
 WARNING: random wavefunctions but no delay for mixing, default for NELMDL
 entering main loop
       N       E                     dE             d eps       ncg     rms          rms(c)
DAV:   1     0.306835699731E+03    0.30684E+03   -0.22514E+04   880   0.237E+03
DAV:   2    -0.145311930134E+02   -0.32137E+03   -0.31287E+03  1148   0.358E+02
DAV:   3    -0.458507837746E+02   -0.31320E+02   -0.31145E+02  1232   0.986E+01
DAV:   4    -0.468015045850E+02   -0.95072E+00   -0.94881E+00  1220   0.186E+01
DAV:   5    -0.468245027926E+02   -0.22998E-01   -0.22992E-01  1252   0.292E+00    0.973E+00
RMM:   6    -0.444408457063E+02    0.23837E+01   -0.24403E+01   981   0.198E+01    0.337E+00
RMM:   7    -0.436990797144E+02    0.74177E+00   -0.19391E+00   960   0.566E+00    0.179E+00
RMM:   8    -0.436381430969E+02    0.60937E-01   -0.92526E-01  1003   0.339E+00    0.859E-01
RMM:   9    -0.436265387157E+02    0.11604E-01   -0.31324E-01  1035   0.234E+00    0.584E-01
RMM:  10    -0.436098004241E+02    0.16738E-01   -0.69828E-02  1046   0.114E+00    0.813E-02
RMM:  11    -0.436098549792E+02   -0.54555E-04   -0.33151E-03  1113   0.234E-01    0.302E-02
RMM:  12    -0.436100030028E+02   -0.14802E-03   -0.53339E-04  1114   0.119E-01    0.214E-02
RMM:  13    -0.436100121761E+02   -0.91733E-05   -0.34617E-04  1160   0.766E-02    0.194E-02
RMM:  14    -0.436099975911E+02    0.14585E-04   -0.77130E-05   908   0.396E-02    0.265E-03
RMM:  15    -0.436099978621E+02   -0.27108E-06   -0.86095E-06   685   0.138E-02
 Error reading item 'IVDW' from file INCAR
   1 F= -.43609998E+02 E0= -.43609998E+02  d E =0.000000E+00

Currently Loaded Modulefiles:
  1) Anaconda3/5.1.0       3) vesta/3.3.8           5) intel/2016.1
  2) gnuplot/5.0.4         4) imagemagick/6.7.9-0   6) vasp/5.4.1.Feb16

Job script resource usage:
       JobID  MaxVMSize     MaxRSS 
------------ ---------- ---------- 
28526460.ba+    499276K      5876K 

Job step resource usage:
       JobID    JobName  AllocCPUS  MaxVMSize     MaxRSS    Elapsed ExitCode 
------------ ---------- ---------- ---------- ---------- ---------- -------- 
28526460        jobname          4                         00:00:38      0:0 
28526460.0    pmi_proxy          1   1523716K    330107K   00:00:37      0:0 

Job 28526460 ("jobname") completed on c15-30 at Fri Nov 8 00:03:47 CET 2019
