<?xml version="1.0" encoding="ISO-8859-1"?>
<modeling>
 <generator>
  <i name="program" type="string">vasp </i>
  <i name="version" type="string">5.4.4.18Apr17-6-g9f103f2a35  </i>
  <i name="subversion" type="string">(build Jun 30 2017 11:15:00) complex            parallel </i>
  <i name="platform" type="string">STALLO_VASP_5.4.4 </i>
  <i name="date" type="string">2019 11 08 </i>
  <i name="time" type="string">11:39:37 </i>
 </generator>
 <incar>
  <i type="string" name="PREC">normal    ! low/normal/accurate</i>
  <i type="string" name="ALGO"> Fast      ! Algorithm for electronic re</i>
  <i type="int" name="ISPIN">     1</i>
  <i type="int" name="NELMIN">     4</i>
  <i name="EDIFF">      0.00001000</i>
  <i type="int" name="NSW">     0</i>
  <i name="ENCUT">   1000.00000000</i>
  <i type="logical" name="LREAL"> F  </i>
  <i type="int" name="ISMEAR">    -5</i>
  <i name="SIGMA">      0.20000000</i>
  <i type="logical" name="LWAVE"> F  </i>
  <v type="int" name="KPOINT_BSE">    -1     0     0     0</v>
 </incar>
 <structure name="primitive_cell" >
  <crystal>
   <varray name="basis" >
    <v>       3.19031573       0.00000000       0.00000000 </v>
    <v>      -1.59515786       2.76289447       0.00000000 </v>
    <v>       0.00000000       0.00000000      14.87900430 </v>
   </varray>
   <i name="volume">    131.15106795 </i>
   <varray name="rec_basis" >
    <v>       0.31344860       0.18096963       0.00000000 </v>
    <v>       0.00000000       0.36193927       0.00000000 </v>
    <v>       0.00000000       0.00000000       0.06720880 </v>
   </varray>
  </crystal>
  <varray name="positions" >
   <v>       0.33333300      -0.33333300       0.25000000 </v>
   <v>      -0.33333400       0.33333300       0.35517400 </v>
   <v>      -0.33333300       0.33333300       0.14482600 </v>
   <v>       0.33333300      -0.33333300      -0.14482600 </v>
   <v>       0.33333400      -0.33333300      -0.35517400 </v>
   <v>      -0.33333300       0.33333300      -0.25000000 </v>
  </varray>
 </structure>
 <varray name="primitive_index" >
  <v type="int" >        1 </v>
  <v type="int" >        5 </v>
  <v type="int" >        4 </v>
  <v type="int" >        3 </v>
  <v type="int" >        6 </v>
  <v type="int" >        2 </v>
 </varray>
 <kpoints>
  <generation param="Gamma">
   <v type="int" name="divisions">       8        8        2 </v>
   <v name="usershift">      0.00000000       0.00000000       0.00000000 </v>
   <v name="genvec1">      0.12500000       0.00000000       0.00000000 </v>
   <v name="genvec2">      0.00000000       0.12500000       0.00000000 </v>
   <v name="genvec3">      0.00000000       0.00000000       0.50000000 </v>
   <v name="shift">      0.00000000       0.00000000       0.00000000 </v>
  </generation>
  <varray name="kpointlist" >
   <v>       0.00000000       0.00000000       0.00000000 </v>
   <v>       0.12500000      -0.00000000       0.00000000 </v>
   <v>       0.25000000      -0.00000000       0.00000000 </v>
   <v>       0.37500000      -0.00000000       0.00000000 </v>
   <v>       0.50000000      -0.00000000       0.00000000 </v>
   <v>       0.12500000       0.12500000       0.00000000 </v>
   <v>       0.25000000       0.12500000       0.00000000 </v>
   <v>       0.37500000       0.12500000       0.00000000 </v>
   <v>       0.25000000       0.25000000       0.00000000 </v>
   <v>       0.37500000       0.25000000       0.00000000 </v>
   <v>       0.00000000       0.00000000       0.50000000 </v>
   <v>       0.12500000      -0.00000000       0.50000000 </v>
   <v>       0.25000000      -0.00000000       0.50000000 </v>
   <v>       0.37500000      -0.00000000       0.50000000 </v>
   <v>       0.50000000      -0.00000000       0.50000000 </v>
   <v>       0.12500000       0.12500000       0.50000000 </v>
   <v>       0.25000000       0.12500000       0.50000000 </v>
   <v>       0.37500000       0.12500000       0.50000000 </v>
   <v>       0.25000000       0.25000000       0.50000000 </v>
   <v>       0.37500000       0.25000000       0.50000000 </v>
  </varray>
  <varray name="weights" >
   <v>       0.00781250 </v>
   <v>       0.04687500 </v>
   <v>       0.04687500 </v>
   <v>       0.04687500 </v>
   <v>       0.02343750 </v>
   <v>       0.04687500 </v>
   <v>       0.09375000 </v>
   <v>       0.09375000 </v>
   <v>       0.04687500 </v>
   <v>       0.04687500 </v>
   <v>       0.00781250 </v>
   <v>       0.04687500 </v>
   <v>       0.04687500 </v>
   <v>       0.04687500 </v>
   <v>       0.02343750 </v>
   <v>       0.04687500 </v>
   <v>       0.09375000 </v>
   <v>       0.09375000 </v>
   <v>       0.04687500 </v>
   <v>       0.04687500 </v>
  </varray>
  <varray name="tetrahedronlist"  type="int" >
   <v type="int" >        8        2        2        6       12 </v>
   <v type="int" >        8        1        2        2       12 </v>
   <v type="int" >        4        1        2       11       12 </v>
   <v type="int" >        4        2        6       12       16 </v>
   <v type="int" >        8        2       12       12       16 </v>
   <v type="int" >        8        2       11       12       12 </v>
   <v type="int" >        8        3        6        7       16 </v>
   <v type="int" >        8        2        3        6       16 </v>
   <v type="int" >        4        2        3       12       16 </v>
   <v type="int" >        4        3        7       16       17 </v>
   <v type="int" >        8        3       13       16       17 </v>
   <v type="int" >        8        3       12       13       16 </v>
   <v type="int" >        8        4        7        8       17 </v>
   <v type="int" >        8        3        4        7       17 </v>
   <v type="int" >        4        3        4       13       17 </v>
   <v type="int" >        4        4        8       17       18 </v>
   <v type="int" >        8        4       14       17       18 </v>
   <v type="int" >        8        4       13       14       17 </v>
   <v type="int" >        8        5        8        8       18 </v>
   <v type="int" >        8        4        5        8       18 </v>
   <v type="int" >        4        4        5       14       18 </v>
   <v type="int" >        4        5        8       18       18 </v>
   <v type="int" >        4        5       15       18       18 </v>
   <v type="int" >        8        5       14       15       18 </v>
   <v type="int" >        8        4        7        8       18 </v>
   <v type="int" >        4        4        5       15       18 </v>
   <v type="int" >        4        4        7       17       18 </v>
   <v type="int" >        8        4       14       15       18 </v>
   <v type="int" >        8        3        6        7       17 </v>
   <v type="int" >        4        3        4       14       17 </v>
   <v type="int" >        4        3        6       16       17 </v>
   <v type="int" >        8        3       13       14       17 </v>
   <v type="int" >        4        2        2        6       16 </v>
   <v type="int" >        4        2        3       13       16 </v>
   <v type="int" >        4        2        2       12       16 </v>
   <v type="int" >        8        2       12       13       16 </v>
   <v type="int" >        4        1        2       12       12 </v>
   <v type="int" >        4        1       11       12       12 </v>
   <v type="int" >        8        3        6        7       13 </v>
   <v type="int" >        8        2        3        6       13 </v>
   <v type="int" >        4        2        6       12       13 </v>
   <v type="int" >        4        6        7       13       17 </v>
   <v type="int" >        8        6       13       16       17 </v>
   <v type="int" >        8        6       12       13       16 </v>
   <v type="int" >        8        7        7        9       17 </v>
   <v type="int" >        8        6        7        7       17 </v>
   <v type="int" >        4        6        7       16       17 </v>
   <v type="int" >        4        7        9       17       19 </v>
   <v type="int" >        8        7       17       17       19 </v>
   <v type="int" >        8        7       16       17       17 </v>
   <v type="int" >        8        8        9       10       19 </v>
   <v type="int" >        8        7        8        9       19 </v>
   <v type="int" >        4        7        8       17       19 </v>
   <v type="int" >        4        8       10       19       20 </v>
   <v type="int" >        8        8       18       19       20 </v>
   <v type="int" >        8        8       17       18       19 </v>
   <v type="int" >        8        8        9       10       20 </v>
   <v type="int" >        4        8        8       10       20 </v>
   <v type="int" >        4        8        8       18       20 </v>
   <v type="int" >        4        8        9       19       20 </v>
   <v type="int" >        8        8       18       18       20 </v>
   <v type="int" >        4        7        7        9       19 </v>
   <v type="int" >        4        7        8       18       19 </v>
   <v type="int" >        4        7        7       17       19 </v>
   <v type="int" >        8        7       17       18       19 </v>
   <v type="int" >        4        6        7       17       17 </v>
   <v type="int" >        4        3        6       13       17 </v>
   <v type="int" >        4        6       16       17       17 </v>
   <v type="int" >        4        2        6       13       16 </v>
   <v type="int" >        8        4        7        8       14 </v>
   <v type="int" >        8        3        4        7       14 </v>
   <v type="int" >        4        3        7       13       14 </v>
   <v type="int" >        4        7        8       14       18 </v>
   <v type="int" >        8        7       14       17       18 </v>
   <v type="int" >        8        7       13       14       17 </v>
   <v type="int" >        8        8        9       10       18 </v>
   <v type="int" >        8        7        8        9       18 </v>
   <v type="int" >        4        7        9       17       18 </v>
   <v type="int" >        4        9       10       18       20 </v>
   <v type="int" >        8        9       18       19       20 </v>
   <v type="int" >        8        9       17       18       19 </v>
   <v type="int" >        4       10       10       10       20 </v>
   <v type="int" >        8        9       10       10       20 </v>
   <v type="int" >        4        9       10       19       20 </v>
   <v type="int" >        4       10       10       20       20 </v>
   <v type="int" >        4       10       20       20       20 </v>
   <v type="int" >        8       10       19       20       20 </v>
   <v type="int" >        4        9       10       20       20 </v>
   <v type="int" >        4        8        9       18       20 </v>
   <v type="int" >        4        9       19       20       20 </v>
   <v type="int" >        4        7        9       18       19 </v>
   <v type="int" >        4        4        7       14       18 </v>
   <v type="int" >        4        3        7       14       17 </v>
   <v type="int" >        4        5        8        8       15 </v>
   <v type="int" >        8        4        5        8       15 </v>
   <v type="int" >        4        4        8       14       15 </v>
   <v type="int" >        4        8        8       15       18 </v>
   <v type="int" >        8        8       15       18       18 </v>
   <v type="int" >        8        8       14       15       18 </v>
   <v type="int" >        8        8        8       10       18 </v>
   <v type="int" >        4        8       10       18       18 </v>
   <v type="int" >        4        9       10       18       19 </v>
   <v type="int" >        8       10       18       19       20 </v>
   <v type="int" >        4       10       18       18       20 </v>
   <v type="int" >        4        9       10       10       19 </v>
   <v type="int" >        4       10       10       19       20 </v>
   <v type="int" >        4        8       10       18       19 </v>
   <v type="int" >        4        8       10       18       20 </v>
   <v type="int" >        4        5        8       15       18 </v>
   <v type="int" >        4        4        8       15       18 </v>
   <v type="int" >        8        4        5        8       14 </v>
   <v type="int" >        4        5        8       14       15 </v>
   <v type="int" >        4        7        8       14       17 </v>
   <v type="int" >        8        8       14       17       18 </v>
   <v type="int" >        8        7        8        9       17 </v>
   <v type="int" >        4        8        9       17       18 </v>
   <v type="int" >        4        7        9       17       17 </v>
   <v type="int" >        4        9       17       17       19 </v>
   <v type="int" >        4        8        9       17       19 </v>
   <v type="int" >        4        4        8       14       17 </v>
   <v type="int" >        4        5        8       14       18 </v>
   <v type="int" >        8        3        4        7       13 </v>
   <v type="int" >        4        4        7       13       14 </v>
   <v type="int" >        4        6        7       13       16 </v>
   <v type="int" >        8        7       13       16       17 </v>
   <v type="int" >        4        6        7        7       16 </v>
   <v type="int" >        4        7        7       16       17 </v>
   <v type="int" >        4        3        7       13       16 </v>
   <v type="int" >        4        4        7       13       17 </v>
   <v type="int" >        8        2        3        6       12 </v>
   <v type="int" >        4        3        6       12       13 </v>
   <v type="int" >        4        2        6       12       12 </v>
   <v type="int" >        4        6       12       12       16 </v>
   <v type="int" >        4        3        6       12       16 </v>
   <v type="int" >        4        1        2        2       11 </v>
   <v type="int" >        4        2        2       11       12 </v>
  </varray>
  <i name="volumeweight">      0.00130208 </i>
 </kpoints>
 <parameters>
  <separator name="general" >
   <i type="string" name="SYSTEM">unknown system</i>
   <i type="logical" name="LCOMPAT"> F  </i>
  </separator>
  <separator name="electronic" >
   <i type="string" name="PREC">normal</i>
   <i name="ENMAX">   1000.00000000</i>
   <i name="ENAUG">    345.27800000</i>
   <i name="EDIFF">      0.00001000</i>
   <i type="int" name="IALGO">    68</i>
   <i type="int" name="IWAVPR">    10</i>
   <i type="int" name="NBANDS">    22</i>
   <i name="NELECT">     36.00000000</i>
   <i type="int" name="TURBO">     0</i>
   <i type="int" name="IRESTART">     0</i>
   <i type="int" name="NREBOOT">     0</i>
   <i type="int" name="NMIN">     0</i>
   <i name="EREF">      0.00000000</i>
   <separator name="electronic smearing" >
    <i type="int" name="ISMEAR">    -5</i>
    <i name="SIGMA">      0.20000000</i>
    <i name="KSPACING">      0.50000000</i>
    <i type="logical" name="KGAMMA"> T  </i>
   </separator>
   <separator name="electronic projectors" >
    <i type="logical" name="LREAL"> F  </i>
    <v name="ROPT">      0.00000000      0.00000000</v>
    <i type="int" name="LMAXPAW">  -100</i>
    <i type="int" name="LMAXMIX">     2</i>
    <i type="logical" name="NLSPLINE"> F  </i>
   </separator>
   <separator name="electronic startup" >
    <i type="int" name="ISTART">     0</i>
    <i type="int" name="ICHARG">     2</i>
    <i type="int" name="INIWAV">     1</i>
   </separator>
   <separator name="electronic spin" >
    <i type="int" name="ISPIN">     1</i>
    <i type="logical" name="LNONCOLLINEAR"> F  </i>
    <v name="MAGMOM">      1.00000000      1.00000000      1.00000000      1.00000000      1.00000000      1.00000000</v>
    <i name="NUPDOWN">     -1.00000000</i>
    <i type="logical" name="LSORBIT"> F  </i>
    <v name="SAXIS">      0.00000000      0.00000000      1.00000000</v>
    <i type="logical" name="LSPIRAL"> F  </i>
    <v name="QSPIRAL">      0.00000000      0.00000000      0.00000000</v>
    <i type="logical" name="LZEROZ"> F  </i>
   </separator>
   <separator name="electronic exchange-correlation" >
    <i type="logical" name="LASPH"> F  </i>
    <i type="logical" name="LMETAGGA"> F  </i>
   </separator>
   <separator name="electronic convergence" >
    <i type="int" name="NELM">    60</i>
    <i type="int" name="NELMDL">     0</i>
    <i type="int" name="NELMIN">     4</i>
    <i name="ENINI">   1000.00000000</i>
    <separator name="electronic convergence detail" >
     <i type="logical" name="LDIAG"> T  </i>
     <i type="logical" name="LSUBROT"> F  </i>
     <i name="WEIMIN">      0.00000000</i>
     <i name="EBREAK">      0.00000011</i>
     <i name="DEPER">      0.30000000</i>
     <i type="int" name="NRMM">     4</i>
     <i name="TIME">      0.40000000</i>
    </separator>
   </separator>
   <separator name="electronic mixer" >
    <i name="AMIX">      0.40000000</i>
    <i name="BMIX">      1.00000000</i>
    <i name="AMIN">      0.10000000</i>
    <i name="AMIX_MAG">      1.60000000</i>
    <i name="BMIX_MAG">      1.00000000</i>
    <separator name="electronic mixer details" >
     <i type="int" name="IMIX">     4</i>
     <i type="logical" name="MIXFIRST"> F  </i>
     <i type="int" name="MAXMIX">   -45</i>
     <i name="WC">    100.00000000</i>
     <i type="int" name="INIMIX">     1</i>
     <i type="int" name="MIXPRE">     1</i>
     <i type="int" name="MREMOVE">     5</i>
    </separator>
   </separator>
   <separator name="electronic dipolcorrection" >
    <i type="logical" name="LDIPOL"> F  </i>
    <i type="logical" name="LMONO"> F  </i>
    <i type="int" name="IDIPOL">     0</i>
    <i name="EPSILON">      1.00000000</i>
    <v name="DIPOL">   -100.00000000   -100.00000000   -100.00000000</v>
    <i name="EFIELD">      0.00000000</i>
   </separator>
  </separator>
  <separator name="grids" >
   <i type="int" name="NGX">    28</i>
   <i type="int" name="NGY">    28</i>
   <i type="int" name="NGZ">   120</i>
   <i type="int" name="NGXF">    56</i>
   <i type="int" name="NGYF">    56</i>
   <i type="int" name="NGZF">   240</i>
   <i type="logical" name="ADDGRID"> F  </i>
  </separator>
  <separator name="ionic" >
   <i type="int" name="NSW">     0</i>
   <i type="int" name="IBRION">    -1</i>
   <i type="int" name="MDALGO">     0</i>
   <i type="int" name="ISIF">     2</i>
   <i name="PSTRESS">      0.00000000</i>
   <i name="EDIFFG">      0.00010000</i>
   <i type="int" name="NFREE">     0</i>
   <i name="POTIM">      0.50000000</i>
   <i name="SMASS">     -3.00000000</i>
   <i name="SCALEE">      1.00000000</i>
  </separator>
  <separator name="ionic md" >
   <i name="TEBEG">      0.00010000</i>
   <i name="TEEND">      0.00010000</i>
   <i type="int" name="NBLOCK">     1</i>
   <i type="int" name="KBLOCK">     1</i>
   <i type="int" name="NPACO">   256</i>
   <i name="APACO">     16.00000000</i>
  </separator>
  <separator name="symmetry" >
   <i type="int" name="ISYM">     2</i>
   <i name="SYMPREC">      0.00001000</i>
  </separator>
  <separator name="dos" >
   <i type="int" name="LORBIT">     0</i>
   <v name="RWIGS">     -1.00000000     -1.00000000</v>
   <i type="int" name="NEDOS">   301</i>
   <i name="EMIN">     10.00000000</i>
   <i name="EMAX">    -10.00000000</i>
   <i name="EFERMI">      0.00000000</i>
  </separator>
  <separator name="writing" >
   <i type="int" name="NWRITE">     2</i>
   <i type="logical" name="LWAVE"> F  </i>
   <i type="logical" name="LDOWNSAMPLE"> F  </i>
   <i type="logical" name="LCHARG"> T  </i>
   <i type="logical" name="LPARD"> F  </i>
   <i type="logical" name="LVTOT"> F  </i>
   <i type="logical" name="LVHAR"> F  </i>
   <i type="logical" name="LELF"> F  </i>
   <i type="logical" name="LOPTICS"> F  </i>
   <v name="STM">      0.00000000      0.00000000      0.00000000      0.00000000      0.00000000      0.00000000      0.00000000</v>
  </separator>
  <separator name="performance" >
   <i type="int" name="NPAR">     2</i>
   <i type="int" name="NSIM">     4</i>
   <i type="int" name="NBLK">    -1</i>
   <i type="logical" name="LPLANE"> T  </i>
   <i type="logical" name="LSCALAPACK"> T  </i>
   <i type="logical" name="LSCAAWARE"> F  </i>
   <i type="logical" name="LSCALU"> F  </i>
   <i type="logical" name="LASYNC"> F  </i>
   <i type="logical" name="LORBITALREAL"> F  </i>
  </separator>
  <separator name="miscellaneous" >
   <i type="int" name="IDIOT">     3</i>
   <i type="int" name="ISPECIAL">     0</i>
   <i type="logical" name="LMUSIC"> F  </i>
   <v name="POMASS">     95.94000000     32.06600000</v>
   <v name="DARWINR">      0.00000000      0.00000000</v>
   <v name="DARWINV">      1.00000000      1.00000000</v>
   <i type="logical" name="LCORR"> T  </i>
  </separator>
  <i type="logical" name="GGA_COMPAT"> T  </i>
  <i type="logical" name="LBERRY"> F  </i>
  <i type="int" name="ICORELEVEL">     0</i>
  <i type="logical" name="LDAU"> F  </i>
  <i type="int" name="I_CONSTRAINED_M">     0</i>
  <separator name="electronic exchange-correlation" >
   <i type="string" name="GGA">--</i>
   <i type="int" name="VOSKOWN">     0</i>
   <i type="logical" name="LHFCALC"> F  </i>
   <i type="string" name="PRECFOCK"></i>
   <i type="logical" name="LSYMGRAD"> F  </i>
   <i type="logical" name="LHFONE"> F  </i>
   <i type="logical" name="LRHFCALC"> F  </i>
   <i type="logical" name="LTHOMAS"> F  </i>
   <i type="logical" name="LMODELHF"> F  </i>
   <i name="ENCUT4O">     -1.00000000</i>
   <i type="int" name="EXXOEP">     0</i>
   <i type="int" name="FOURORBIT">     0</i>
   <i name="AEXX">      0.00000000</i>
   <i name="HFALPHA">      0.00000000</i>
   <i name="MCALPHA">      0.00000000</i>
   <i name="ALDAX">      1.00000000</i>
   <i name="AGGAX">      1.00000000</i>
   <i name="ALDAC">      1.00000000</i>
   <i name="AGGAC">      1.00000000</i>
   <i type="int" name="NKREDX">     1</i>
   <i type="int" name="NKREDY">     1</i>
   <i type="int" name="NKREDZ">     1</i>
   <i type="logical" name="SHIFTRED"> F  </i>
   <i type="logical" name="ODDONLY"> F  </i>
   <i type="logical" name="EVENONLY"> F  </i>
   <i type="int" name="LMAXFOCK">     0</i>
   <i type="int" name="NMAXFOCKAE">     0</i>
   <i type="logical" name="LFOCKAEDFT"> F  </i>
   <i name="HFSCREEN">      0.00000000</i>
   <i name="HFSCREENC">      0.00000000</i>
   <i type="int" name="NBANDSGWLOW">     0</i>
  </separator>
  <separator name="vdW DFT" >
   <i type="logical" name="LUSE_VDW"> F  </i>
   <i name="Zab_VDW">     -0.84910000</i>
   <i name="PARAM1">      0.12340000</i>
   <i name="PARAM2">      1.00000000</i>
   <i name="PARAM3">      0.00000000</i>
  </separator>
  <separator name="model GW" >
   <i type="int" name="MODEL_GW">     0</i>
   <i name="MODEL_EPS0">     13.11510680</i>
   <i name="MODEL_ALPHA">      1.00000000</i>
  </separator>
  <separator name="linear response parameters" >
   <i type="logical" name="LEPSILON"> F  </i>
   <i type="logical" name="LRPA"> F  </i>
   <i type="logical" name="LNABLA"> F  </i>
   <i type="logical" name="LVEL"> F  </i>
   <i type="int" name="KINTER">     0</i>
   <i name="CSHIFT">      0.10000000</i>
   <i name="OMEGAMAX">     -1.00000000</i>
   <i name="DEG_THRESHOLD">      0.00200000</i>
   <i name="RTIME">     -0.10000000</i>
   <i name="WPLASMAI">      0.00000000</i>
   <v name="DFIELD">      0.00000000      0.00000000      0.00000000</v>
   <v name="WPLASMA">      0.00000000      0.00000000      0.00000000      0.00000000      0.00000000      0.00000000      0.00000000      0.00000000      0.00000000</v>
  </separator>
  <separator name="orbital magnetization" >
   <i type="logical" name="NUCIND"> F  </i>
   <v name="MAGPOS">      0.00000000      0.00000000      0.00000000</v>
   <i type="logical" name="LNICSALL"> T  </i>
   <i type="logical" name="ORBITALMAG"> F  </i>
   <i type="logical" name="LMAGBLOCH"> F  </i>
   <i type="logical" name="LCHIMAG"> F  </i>
   <i type="logical" name="LGAUGE"> T  </i>
   <i type="int" name="MAGATOM">     0</i>
   <v name="MAGDIPOL">      0.00000000      0.00000000      0.00000000</v>
   <v name="AVECCONST">      0.00000000      0.00000000      0.00000000</v>
  </separator>
  <separator name="response functions" >
   <i type="logical" name="LADDER"> F  </i>
   <i type="logical" name="LRPAFORCE"> F  </i>
   <i type="logical" name="LFXC"> F  </i>
   <i type="logical" name="LHARTREE"> T  </i>
   <i type="int" name="IBSE">     0</i>
   <v type="int" name="KPOINT">    -1     0     0     0</v>
   <i type="logical" name="LTCTE"> F  </i>
   <i type="logical" name="LTETE"> F  </i>
   <i type="logical" name="LTRIPLET"> F  </i>
   <i type="logical" name="LFXCEPS"> F  </i>
   <i type="logical" name="LFXHEG"> F  </i>
   <i type="int" name="NATURALO">     2</i>
   <i type="logical" name="L2ORDER"> F  </i>
   <i type="logical" name="LMP2LT"> F  </i>
   <i type="logical" name="LUSEW"> F  </i>
   <i name="ENCUTGW">     -2.00000000</i>
   <i name="ENCUTGWSOFT">     -2.00000000</i>
   <i name="ENCUTLF">     -1.00000000</i>
   <i type="int" name="LMAXMP2">    -1</i>
   <i name="SCISSOR">      0.00000000</i>
   <i type="int" name="NOMEGA">     0</i>
   <i type="int" name="NOMEGAR">     0</i>
   <i type="int" name="NBANDSGW">    -1</i>
   <i type="int" name="NBANDSO">    -1</i>
   <i type="int" name="NBANDSV">    -1</i>
   <i type="int" name="NELM">     1</i>
   <i type="int" name="NELMHF">     1</i>
   <i type="int" name="DIM">     3</i>
   <i type="int" name="ANTIRES">     0</i>
   <i name="OMEGAMAX">    -30.00000000</i>
   <i name="OMEGAMIN">    -30.00000000</i>
   <i name="OMEGATL">   -200.00000000</i>
   <i type="int" name="OMEGAGRID">   140</i>
   <i name="CSHIFT">     -0.10000000</i>
   <i type="logical" name="SELFENERGY"> F  </i>
   <i type="logical" name="LSPECTRAL"> F  </i>
   <i type="logical" name="LSPECTRALGW"> F  </i>
   <i type="logical" name="LSINGLES"> F  </i>
   <i type="logical" name="LFERMIGW"> F  </i>
   <i type="logical" name="ODDONLYGW"> F  </i>
   <i type="logical" name="EVENONLYGW"> F  </i>
   <i type="int" name="NKREDLFX">     1</i>
   <i type="int" name="NKREDLFY">     1</i>
   <i type="int" name="NKREDLFZ">     1</i>
   <i type="int" name="MAXMEM">  2800</i>
   <i type="int" name="TELESCOPE">     0</i>
   <i type="int" name="TAUPAR">     1</i>
   <i type="int" name="OMEGAPAR">    -1</i>
   <i name="LAMBDA">      1.00000000</i>
  </separator>
  <separator name="External order field" >
   <i name="OFIELD_KAPPA">      0.00000000</i>
   <v name="OFIELD_K">      0.00000000      0.00000000      0.00000000</v>
   <i name="OFIELD_Q6_NEAR">      0.00000000</i>
   <i name="OFIELD_Q6_FAR">      0.00000000</i>
   <i name="OFIELD_A">      0.00000000</i>
  </separator>
 </parameters>
 <atominfo>
  <atoms>       6 </atoms>
  <types>       2 </types>
  <array name="atoms" >
   <dimension dim="1">ion</dimension>
   <field type="string">element</field>
   <field type="int">atomtype</field>
   <set>
    <rc><c>Mo</c><c>   1</c></rc>
    <rc><c>Mo</c><c>   1</c></rc>
    <rc><c>S </c><c>   2</c></rc>
    <rc><c>S </c><c>   2</c></rc>
    <rc><c>S </c><c>   2</c></rc>
    <rc><c>S </c><c>   2</c></rc>
   </set>
  </array>
  <array name="atomtypes" >
   <dimension dim="1">type</dimension>
   <field type="int">atomspertype</field>
   <field type="string">element</field>
   <field>mass</field>
   <field>valence</field>
   <field type="string">pseudopotential</field>
   <set>
    <rc><c>   2</c><c>Mo</c><c>     95.94000000</c><c>      6.00000000</c><c> PAW_PBE Mo 08Apr2002                   </c></rc>
    <rc><c>   4</c><c>S </c><c>     32.06600000</c><c>      6.00000000</c><c>  PAW_PBE S 17Jan2003                   </c></rc>
   </set>
  </array>
 </atominfo>
 <structure name="initialpos" >
  <crystal>
   <varray name="basis" >
    <v>       3.19031573       0.00000000       0.00000000 </v>
    <v>      -1.59515786       2.76289447       0.00000000 </v>
    <v>       0.00000000       0.00000000      14.87900430 </v>
   </varray>
   <i name="volume">    131.15106795 </i>
   <varray name="rec_basis" >
    <v>       0.31344860       0.18096963       0.00000000 </v>
    <v>       0.00000000       0.36193927       0.00000000 </v>
    <v>       0.00000000       0.00000000       0.06720880 </v>
   </varray>
  </crystal>
  <varray name="positions" >
   <v>       0.33333300       0.66666700       0.25000000 </v>
   <v>       0.66666700       0.33333300       0.75000000 </v>
   <v>       0.33333300       0.66666700       0.85517400 </v>
   <v>       0.66666700       0.33333300       0.14482600 </v>
   <v>       0.66666600       0.33333300       0.35517400 </v>
   <v>       0.33333400       0.66666700       0.64482600 </v>
  </varray>
 </structure>
 <calculation>
  <scstep>
   <time name="dav">    1.73    1.74</time>
   <time name="total">    1.86    1.88</time>
   <energy>
    <i name="alphaZ">     90.42577596 </i>
    <i name="ewald">  -1146.88905665 </i>
    <i name="hartreedc">   -535.10238363 </i>
    <i name="XCdc">    -72.59367835 </i>
    <i name="pawpsdc">    813.77302396 </i>
    <i name="pawaedc">   -658.68146406 </i>
    <i name="eentropy">      0.00000000 </i>
    <i name="bandstr">    273.57668886 </i>
    <i name="atom">   1542.32679363 </i>
    <i name="e_fr_energy">    306.83569973 </i>
    <i name="e_wo_entrp">    306.83569973 </i>
    <i name="e_0_energy">    306.83569973 </i>
   </energy>
  </scstep>
  <scstep>
   <time name="dav">    2.11    2.11</time>
   <time name="total">    2.11    2.12</time>
   <energy>
    <i name="e_fr_energy">    -14.53119301 </i>
    <i name="e_wo_entrp">    -14.53119301 </i>
    <i name="e_0_energy">    -14.53119301 </i>
   </energy>
  </scstep>
  <scstep>
   <time name="dav">    2.25    2.26</time>
   <time name="total">    2.25    2.26</time>
   <energy>
    <i name="e_fr_energy">    -45.85078377 </i>
    <i name="e_wo_entrp">    -45.85078377 </i>
    <i name="e_0_energy">    -45.85078377 </i>
   </energy>
  </scstep>
  <scstep>
   <time name="dav">    2.28    2.28</time>
   <time name="total">    2.28    2.28</time>
   <energy>
    <i name="e_fr_energy">    -46.80150458 </i>
    <i name="e_wo_entrp">    -46.80150458 </i>
    <i name="e_0_energy">    -46.80150458 </i>
   </energy>
  </scstep>
  <scstep>
   <time name="dav">    2.33    2.33</time>
   <time name="total">    2.47    2.47</time>
   <energy>
    <i name="e_fr_energy">    -46.82450279 </i>
    <i name="e_wo_entrp">    -46.82450279 </i>
    <i name="e_0_energy">    -46.82450279 </i>
   </energy>
  </scstep>
  <scstep>
   <time name="diag">    0.31    0.32</time>
   <time name="diis">    1.58    1.58</time>
   <time name="orth">    0.03    0.03</time>
   <time name="total">    2.19    2.19</time>
   <energy>
    <i name="e_fr_energy">    -44.44084571 </i>
    <i name="e_wo_entrp">    -44.44084571 </i>
    <i name="e_0_energy">    -44.44084571 </i>
   </energy>
  </scstep>
  <scstep>
   <time name="diag">    0.31    0.31</time>
   <time name="diis">    1.56    1.56</time>
   <time name="orth">    0.03    0.03</time>
   <time name="total">    2.16    2.17</time>
   <energy>
    <i name="e_fr_energy">    -43.69907971 </i>
    <i name="e_wo_entrp">    -43.69907971 </i>
    <i name="e_0_energy">    -43.69907971 </i>
   </energy>
  </scstep>
  <scstep>
   <time name="diag">    0.31    0.31</time>
   <time name="diis">    1.61    1.61</time>
   <time name="orth">    0.03    0.03</time>
   <time name="total">    2.22    2.22</time>
   <energy>
    <i name="e_fr_energy">    -43.63814310 </i>
    <i name="e_wo_entrp">    -43.63814310 </i>
    <i name="e_0_energy">    -43.63814310 </i>
   </energy>
  </scstep>
  <scstep>
   <time name="diag">    0.31    0.31</time>
   <time name="diis">    1.68    1.68</time>
   <time name="orth">    0.03    0.03</time>
   <time name="total">    2.28    2.28</time>
   <energy>
    <i name="e_fr_energy">    -43.62653872 </i>
    <i name="e_wo_entrp">    -43.62653872 </i>
    <i name="e_0_energy">    -43.62653872 </i>
   </energy>
  </scstep>
  <scstep>
   <time name="diag">    0.31    0.31</time>
   <time name="diis">    1.70    1.70</time>
   <time name="orth">    0.03    0.03</time>
   <time name="total">    2.30    2.31</time>
   <energy>
    <i name="e_fr_energy">    -43.60980042 </i>
    <i name="e_wo_entrp">    -43.60980042 </i>
    <i name="e_0_energy">    -43.60980042 </i>
   </energy>
  </scstep>
  <scstep>
   <time name="diag">    0.31    0.31</time>
   <time name="diis">    1.78    1.78</time>
   <time name="orth">    0.03    0.03</time>
   <time name="total">    2.39    2.39</time>
   <energy>
    <i name="e_fr_energy">    -43.60985498 </i>
    <i name="e_wo_entrp">    -43.60985498 </i>
    <i name="e_0_energy">    -43.60985498 </i>
   </energy>
  </scstep>
  <scstep>
   <time name="diag">    0.31    0.31</time>
   <time name="diis">    1.77    1.76</time>
   <time name="orth">    0.03    0.03</time>
   <time name="total">    2.37    2.37</time>
   <energy>
    <i name="e_fr_energy">    -43.61000300 </i>
    <i name="e_wo_entrp">    -43.61000300 </i>
    <i name="e_0_energy">    -43.61000300 </i>
   </energy>
  </scstep>
  <scstep>
   <time name="diag">    0.31    0.31</time>
   <time name="diis">    1.86    1.86</time>
   <time name="orth">    0.03    0.03</time>
   <time name="total">    2.47    2.47</time>
   <energy>
    <i name="e_fr_energy">    -43.61001218 </i>
    <i name="e_wo_entrp">    -43.61001218 </i>
    <i name="e_0_energy">    -43.61001218 </i>
   </energy>
  </scstep>
  <scstep>
   <time name="diag">    0.31    0.31</time>
   <time name="diis">    1.49    1.49</time>
   <time name="orth">    0.03    0.03</time>
   <time name="total">    2.10    2.10</time>
   <energy>
    <i name="e_fr_energy">    -43.60999759 </i>
    <i name="e_wo_entrp">    -43.60999759 </i>
    <i name="e_0_energy">    -43.60999759 </i>
   </energy>
  </scstep>
  <scstep>
   <time name="diag">    0.31    0.31</time>
   <time name="diis">    1.16    1.16</time>
   <time name="orth">    0.03    0.03</time>
   <time name="total">    1.63    1.63</time>
   <energy>
    <i name="alphaZ">     90.42577596 </i>
    <i name="ewald">  -1146.88905665 </i>
    <i name="hartreedc">   -542.96429349 </i>
    <i name="XCdc">    -70.38682312 </i>
    <i name="pawpsdc">    943.58510586 </i>
    <i name="pawaedc">   -791.96739398 </i>
    <i name="eentropy">      0.00000000 </i>
    <i name="bandstr">    -67.74010608 </i>
    <i name="atom">   1542.32679363 </i>
    <i name="e_fr_energy">    -43.60999786 </i>
    <i name="e_wo_entrp">    -43.60999786 </i>
    <i name="e_0_energy">    -43.60999786 </i>
   </energy>
  </scstep>
  <structure>
   <crystal>
    <varray name="basis" >
     <v>       3.19031573       0.00000000       0.00000000 </v>
     <v>      -1.59515786       2.76289447       0.00000000 </v>
     <v>       0.00000000       0.00000000      14.87900430 </v>
    </varray>
    <i name="volume">    131.15106795 </i>
    <varray name="rec_basis" >
     <v>       0.31344860       0.18096963       0.00000000 </v>
     <v>       0.00000000       0.36193927       0.00000000 </v>
     <v>       0.00000000       0.00000000       0.06720880 </v>
    </varray>
   </crystal>
   <varray name="positions" >
    <v>       0.33333300       0.66666700       0.25000000 </v>
    <v>       0.66666700       0.33333300       0.75000000 </v>
    <v>       0.33333300       0.66666700       0.85517400 </v>
    <v>       0.66666700       0.33333300       0.14482600 </v>
    <v>       0.66666600       0.33333300       0.35517400 </v>
    <v>       0.33333400       0.66666700       0.64482600 </v>
   </varray>
  </structure>
  <varray name="forces" >
   <v>      -0.00000000      -0.00000000      -0.00000000 </v>
   <v>       0.00000000      -0.00000000      -0.00000000 </v>
   <v>       0.00000000      -0.00000000      -0.08565318 </v>
   <v>      -0.00000000       0.00000000       0.08565318 </v>
   <v>      -0.00000000       0.00000000      -0.08565318 </v>
   <v>       0.00000000      -0.00000000       0.08565318 </v>
  </varray>
  <varray name="stress" >
   <v>      -4.56193507       0.00000000       0.00000000 </v>
   <v>      -0.00000000      -4.56193507       0.00000000 </v>
   <v>      -0.00000000      -0.00000000     -15.98873380 </v>
  </varray>
  <energy>
   <i name="e_fr_energy">    -44.94128488 </i>
   <i name="e_wo_entrp">    -44.94128488 </i>
   <i name="e_0_energy">      0.00000000 </i>
  </energy>
  <time name="totalsc">   35.90   36.02</time>
  <eigenvalues>
   <array>
    <dimension dim="1">band</dimension>
    <dimension dim="2">kpoint</dimension>
    <dimension dim="3">spin</dimension>
    <field>eigene</field>
    <field>occ</field>
    <set>
     <set comment="spin 1">
      <set comment="kpoint 1">
       <r>  -10.9296    1.0000 </r>
       <r>  -10.9106    1.0000 </r>
       <r>   -9.7291    1.0000 </r>
       <r>   -9.6951    1.0000 </r>
       <r>   -2.5237    1.0000 </r>
       <r>   -2.3622    1.0000 </r>
       <r>    0.5194    1.0000 </r>
       <r>    0.5194    1.0000 </r>
       <r>    0.5200    1.0000 </r>
       <r>    0.5200    1.0000 </r>
       <r>    1.1060    1.0000 </r>
       <r>    1.6243    1.0000 </r>
       <r>    1.6244    1.0000 </r>
       <r>    1.6263    1.0000 </r>
       <r>    1.6263    1.0000 </r>
       <r>    1.6743    1.0000 </r>
       <r>    2.9223    1.0000 </r>
       <r>    3.2981    1.0000 </r>
       <r>    5.8728    0.0000 </r>
       <r>    5.9288    0.0000 </r>
       <r>    6.0320    0.0000 </r>
       <r>    6.0803    0.0000 </r>
      </set>
      <set comment="kpoint 2">
       <r>  -10.7152    1.0000 </r>
       <r>  -10.6966    1.0000 </r>
       <r>   -9.6254    1.0000 </r>
       <r>   -9.5940    1.0000 </r>
       <r>   -2.2778    1.0000 </r>
       <r>   -2.1190    1.0000 </r>
       <r>    0.0549    1.0000 </r>
       <r>    0.0576    1.0000 </r>
       <r>    0.4563    1.0000 </r>
       <r>    0.6724    1.0000 </r>
       <r>    0.7535    1.0000 </r>
       <r>    0.7547    1.0000 </r>
       <r>    1.2883    1.0000 </r>
       <r>    1.2909    1.0000 </r>
       <r>    1.9304    1.0000 </r>
       <r>    2.2143    1.0000 </r>
       <r>    2.8432    1.0000 </r>
       <r>    3.0852    1.0000 </r>
       <r>    5.5186    0.0000 </r>
       <r>    5.6369    0.0000 </r>
       <r>    5.7043    0.0000 </r>
       <r>    5.8267    0.0000 </r>
      </set>
      <set comment="kpoint 3">
       <r>  -10.1455    1.0000 </r>
       <r>  -10.1288    1.0000 </r>
       <r>   -9.3531    1.0000 </r>
       <r>   -9.3287    1.0000 </r>
       <r>   -1.8880    1.0000 </r>
       <r>   -1.7771    1.0000 </r>
       <r>   -0.6917    1.0000 </r>
       <r>   -0.6482    1.0000 </r>
       <r>   -0.4614    1.0000 </r>
       <r>   -0.3600    1.0000 </r>
       <r>    0.6528    1.0000 </r>
       <r>    0.6563    1.0000 </r>
       <r>    1.3395    1.0000 </r>
       <r>    1.3430    1.0000 </r>
       <r>    1.7039    1.0000 </r>
       <r>    1.9127    1.0000 </r>
       <r>    2.3696    1.0000 </r>
       <r>    2.4181    1.0000 </r>
       <r>    5.1192    0.0000 </r>
       <r>    5.4388    0.0000 </r>
       <r>    5.4528    0.0000 </r>
       <r>    5.4859    0.0000 </r>
      </set>
      <set comment="kpoint 4">
       <r>   -9.4680    1.0000 </r>
       <r>   -9.4561    1.0000 </r>
       <r>   -9.0395    1.0000 </r>
       <r>   -9.0253    1.0000 </r>
       <r>   -2.2854    1.0000 </r>
       <r>   -2.2507    1.0000 </r>
       <r>   -1.2977    1.0000 </r>
       <r>   -1.2547    1.0000 </r>
       <r>   -0.8467    1.0000 </r>
       <r>   -0.7617    1.0000 </r>
       <r>    0.1553    1.0000 </r>
       <r>    0.1592    1.0000 </r>
       <r>    1.3418    1.0000 </r>
       <r>    1.4494    1.0000 </r>
       <r>    1.9276    1.0000 </r>
       <r>    1.9362    1.0000 </r>
       <r>    2.1732    1.0000 </r>
       <r>    2.2239    1.0000 </r>
       <r>    5.2592    0.0000 </r>
       <r>    5.2683    0.0000 </r>
       <r>    5.4542    0.0000 </r>
       <r>    5.6327    0.0000 </r>
      </set>
      <set comment="kpoint 5">
       <r>   -9.1371    1.0000 </r>
       <r>   -9.1305    1.0000 </r>
       <r>   -8.8923    1.0000 </r>
       <r>   -8.8858    1.0000 </r>
       <r>   -2.6138    1.0000 </r>
       <r>   -2.5869    1.0000 </r>
       <r>   -1.6530    1.0000 </r>
       <r>   -1.6285    1.0000 </r>
       <r>   -0.9685    1.0000 </r>
       <r>   -0.8926    1.0000 </r>
       <r>   -0.0254    1.0000 </r>
       <r>   -0.0213    1.0000 </r>
       <r>    1.2464    1.0000 </r>
       <r>    1.2659    1.0000 </r>
       <r>    2.1530    1.0000 </r>
       <r>    2.1651    1.0000 </r>
       <r>    2.4768    1.0000 </r>
       <r>    2.4807    1.0000 </r>
       <r>    5.2841    0.0000 </r>
       <r>    5.2879    0.0000 </r>
       <r>    5.7737    0.0000 </r>
       <r>    5.8289    0.0000 </r>
      </set>
      <set comment="kpoint 6">
       <r>  -10.3218    1.0000 </r>
       <r>  -10.3044    1.0000 </r>
       <r>   -9.4360    1.0000 </r>
       <r>   -9.4093    1.0000 </r>
       <r>   -1.9211    1.0000 </r>
       <r>   -1.7814    1.0000 </r>
       <r>   -0.5139    1.0000 </r>
       <r>   -0.5013    1.0000 </r>
       <r>   -0.0653    1.0000 </r>
       <r>    0.0767    1.0000 </r>
       <r>    0.4637    1.0000 </r>
       <r>    0.4898    1.0000 </r>
       <r>    1.0928    1.0000 </r>
       <r>    1.0946    1.0000 </r>
       <r>    2.0956    1.0000 </r>
       <r>    2.2980    1.0000 </r>
       <r>    2.5519    1.0000 </r>
       <r>    2.6274    1.0000 </r>
       <r>    5.0620    0.0000 </r>
       <r>    5.3259    0.0000 </r>
       <r>    5.5200    0.0000 </r>
       <r>    5.5697    0.0000 </r>
      </set>
      <set comment="kpoint 7">
       <r>   -9.6865    1.0000 </r>
       <r>   -9.6725    1.0000 </r>
       <r>   -9.1332    1.0000 </r>
       <r>   -9.1150    1.0000 </r>
       <r>   -1.9397    1.0000 </r>
       <r>   -1.8867    1.0000 </r>
       <r>   -0.9513    1.0000 </r>
       <r>   -0.9201    1.0000 </r>
       <r>   -0.7086    1.0000 </r>
       <r>   -0.6351    1.0000 </r>
       <r>   -0.0669    1.0000 </r>
       <r>    0.0078    1.0000 </r>
       <r>    1.1901    1.0000 </r>
       <r>    1.1960    1.0000 </r>
       <r>    1.7871    1.0000 </r>
       <r>    1.8735    1.0000 </r>
       <r>    2.3021    1.0000 </r>
       <r>    2.3119    1.0000 </r>
       <r>    4.9959    0.0000 </r>
       <r>    5.2121    0.0000 </r>
       <r>    5.5288    0.0000 </r>
       <r>    5.6344    0.0000 </r>
      </set>
      <set comment="kpoint 8">
       <r>   -9.1529    1.0000 </r>
       <r>   -9.1452    1.0000 </r>
       <r>   -8.8843    1.0000 </r>
       <r>   -8.8760    1.0000 </r>
       <r>   -2.3266    1.0000 </r>
       <r>   -2.2996    1.0000 </r>
       <r>   -1.7024    1.0000 </r>
       <r>   -1.6932    1.0000 </r>
       <r>   -0.8381    1.0000 </r>
       <r>   -0.7675    1.0000 </r>
       <r>   -0.0674    1.0000 </r>
       <r>   -0.0250    1.0000 </r>
       <r>    1.1998    1.0000 </r>
       <r>    1.2161    1.0000 </r>
       <r>    1.3282    1.0000 </r>
       <r>    1.3665    1.0000 </r>
       <r>    2.6244    1.0000 </r>
       <r>    2.6428    1.0000 </r>
       <r>    5.2705    0.0000 </r>
       <r>    5.3347    0.0000 </r>
       <r>    5.7787    0.0000 </r>
       <r>    5.8594    0.0000 </r>
      </set>
      <set comment="kpoint 9">
       <r>   -9.1683    1.0000 </r>
       <r>   -9.1596    1.0000 </r>
       <r>   -8.8761    1.0000 </r>
       <r>   -8.8662    1.0000 </r>
       <r>   -1.9673    1.0000 </r>
       <r>   -1.9388    1.0000 </r>
       <r>   -1.7538    1.0000 </r>
       <r>   -1.7426    1.0000 </r>
       <r>   -0.4882    1.0000 </r>
       <r>   -0.4638    1.0000 </r>
       <r>   -0.1393    1.0000 </r>
       <r>   -0.0511    1.0000 </r>
       <r>    0.2146    1.0000 </r>
       <r>    0.2372    1.0000 </r>
       <r>    1.4761    1.0000 </r>
       <r>    1.4868    1.0000 </r>
       <r>    2.6004    1.0000 </r>
       <r>    2.6102    1.0000 </r>
       <r>    5.1853    0.0000 </r>
       <r>    5.3136    0.0000 </r>
       <r>    5.8411    0.0000 </r>
       <r>    6.0863    0.0000 </r>
      </set>
      <set comment="kpoint 10">
       <r>   -8.9306    1.0000 </r>
       <r>   -8.9275    1.0000 </r>
       <r>   -8.7535    1.0000 </r>
       <r>   -8.7504    1.0000 </r>
       <r>   -2.1380    1.0000 </r>
       <r>   -2.1272    1.0000 </r>
       <r>   -1.7919    1.0000 </r>
       <r>   -1.7757    1.0000 </r>
       <r>   -0.7782    1.0000 </r>
       <r>   -0.7409    1.0000 </r>
       <r>   -0.1071    1.0000 </r>
       <r>   -0.0862    1.0000 </r>
       <r>    0.1068    1.0000 </r>
       <r>    0.1578    1.0000 </r>
       <r>    1.0756    1.0000 </r>
       <r>    1.1155    1.0000 </r>
       <r>    2.9620    1.0000 </r>
       <r>    2.9831    1.0000 </r>
       <r>    4.9235    0.0000 </r>
       <r>    4.9324    0.0000 </r>
       <r>    6.1549    0.0000 </r>
       <r>    6.3327    0.0000 </r>
      </set>
      <set comment="kpoint 11">
       <r>  -10.9202    1.0000 </r>
       <r>  -10.9202    1.0000 </r>
       <r>   -9.7120    1.0000 </r>
       <r>   -9.7120    1.0000 </r>
       <r>   -2.4457    1.0000 </r>
       <r>   -2.4457    1.0000 </r>
       <r>    0.5197    1.0000 </r>
       <r>    0.5197    1.0000 </r>
       <r>    0.5197    1.0000 </r>
       <r>    0.5197    1.0000 </r>
       <r>    1.3627    1.0000 </r>
       <r>    1.3627    1.0000 </r>
       <r>    1.6253    1.0000 </r>
       <r>    1.6253    1.0000 </r>
       <r>    1.6253    1.0000 </r>
       <r>    1.6253    1.0000 </r>
       <r>    3.1408    1.0000 </r>
       <r>    3.1408    1.0000 </r>
       <r>    5.8790    0.0000 </r>
       <r>    5.9059    0.0000 </r>
       <r>    5.9842    0.0000 </r>
       <r>    6.0885    0.0000 </r>
      </set>
      <set comment="kpoint 12">
       <r>  -10.7060    1.0000 </r>
       <r>  -10.7060    1.0000 </r>
       <r>   -9.6096    1.0000 </r>
       <r>   -9.6096    1.0000 </r>
       <r>   -2.2014    1.0000 </r>
       <r>   -2.2014    1.0000 </r>
       <r>    0.0560    1.0000 </r>
       <r>    0.0560    1.0000 </r>
       <r>    0.5710    1.0000 </r>
       <r>    0.5710    1.0000 </r>
       <r>    0.7541    1.0000 </r>
       <r>    0.7541    1.0000 </r>
       <r>    1.2896    1.0000 </r>
       <r>    1.2896    1.0000 </r>
       <r>    2.0426    1.0000 </r>
       <r>    2.0426    1.0000 </r>
       <r>    2.9901    1.0000 </r>
       <r>    2.9901    1.0000 </r>
       <r>    5.5765    0.0000 </r>
       <r>    5.6801    0.0000 </r>
       <r>    5.7065    0.0000 </r>
       <r>    5.8532    0.0000 </r>
      </set>
      <set comment="kpoint 13">
       <r>  -10.1373    1.0000 </r>
       <r>  -10.1373    1.0000 </r>
       <r>   -9.3408    1.0000 </r>
       <r>   -9.3408    1.0000 </r>
       <r>   -1.8343    1.0000 </r>
       <r>   -1.8343    1.0000 </r>
       <r>   -0.6756    1.0000 </r>
       <r>   -0.6756    1.0000 </r>
       <r>   -0.4028    1.0000 </r>
       <r>   -0.4028    1.0000 </r>
       <r>    0.6546    1.0000 </r>
       <r>    0.6546    1.0000 </r>
       <r>    1.3413    1.0000 </r>
       <r>    1.3413    1.0000 </r>
       <r>    1.8004    1.0000 </r>
       <r>    1.8005    1.0000 </r>
       <r>    2.3993    1.0000 </r>
       <r>    2.3993    1.0000 </r>
       <r>    5.2599    0.0000 </r>
       <r>    5.2604    0.0000 </r>
       <r>    5.4453    0.0000 </r>
       <r>    5.4495    0.0000 </r>
      </set>
      <set comment="kpoint 14">
       <r>   -9.4622    1.0000 </r>
       <r>   -9.4622    1.0000 </r>
       <r>   -9.0323    1.0000 </r>
       <r>   -9.0323    1.0000 </r>
       <r>   -2.2683    1.0000 </r>
       <r>   -2.2683    1.0000 </r>
       <r>   -1.2781    1.0000 </r>
       <r>   -1.2781    1.0000 </r>
       <r>   -0.8022    1.0000 </r>
       <r>   -0.8022    1.0000 </r>
       <r>    0.1572    1.0000 </r>
       <r>    0.1572    1.0000 </r>
       <r>    1.3935    1.0000 </r>
       <r>    1.3936    1.0000 </r>
       <r>    1.9319    1.0000 </r>
       <r>    1.9319    1.0000 </r>
       <r>    2.2005    1.0000 </r>
       <r>    2.2005    1.0000 </r>
       <r>    5.2637    0.0000 </r>
       <r>    5.2637    0.0000 </r>
       <r>    5.5373    0.0000 </r>
       <r>    5.5376    0.0000 </r>
      </set>
      <set comment="kpoint 15">
       <r>   -9.1338    1.0000 </r>
       <r>   -9.1338    1.0000 </r>
       <r>   -8.8890    1.0000 </r>
       <r>   -8.8890    1.0000 </r>
       <r>   -2.6005    1.0000 </r>
       <r>   -2.6005    1.0000 </r>
       <r>   -1.6416    1.0000 </r>
       <r>   -1.6416    1.0000 </r>
       <r>   -0.9296    1.0000 </r>
       <r>   -0.9296    1.0000 </r>
       <r>   -0.0233    1.0000 </r>
       <r>   -0.0233    1.0000 </r>
       <r>    1.2560    1.0000 </r>
       <r>    1.2560    1.0000 </r>
       <r>    2.1590    1.0000 </r>
       <r>    2.1590    1.0000 </r>
       <r>    2.4788    1.0000 </r>
       <r>    2.4788    1.0000 </r>
       <r>    5.2860    0.0000 </r>
       <r>    5.2860    0.0000 </r>
       <r>    5.8015    0.0000 </r>
       <r>    5.8017    0.0000 </r>
      </set>
      <set comment="kpoint 16">
       <r>  -10.3132    1.0000 </r>
       <r>  -10.3132    1.0000 </r>
       <r>   -9.4225    1.0000 </r>
       <r>   -9.4225    1.0000 </r>
       <r>   -1.8541    1.0000 </r>
       <r>   -1.8541    1.0000 </r>
       <r>   -0.5093    1.0000 </r>
       <r>   -0.5093    1.0000 </r>
       <r>    0.0125    1.0000 </r>
       <r>    0.0125    1.0000 </r>
       <r>    0.4757    1.0000 </r>
       <r>    0.4757    1.0000 </r>
       <r>    1.0937    1.0000 </r>
       <r>    1.0937    1.0000 </r>
       <r>    2.1815    1.0000 </r>
       <r>    2.1815    1.0000 </r>
       <r>    2.6014    1.0000 </r>
       <r>    2.6014    1.0000 </r>
       <r>    5.1820    0.0000 </r>
       <r>    5.1840    0.0000 </r>
       <r>    5.5452    0.0000 </r>
       <r>    5.5721    0.0000 </r>
      </set>
      <set comment="kpoint 17">
       <r>   -9.6796    1.0000 </r>
       <r>   -9.6796    1.0000 </r>
       <r>   -9.1240    1.0000 </r>
       <r>   -9.1240    1.0000 </r>
       <r>   -1.9135    1.0000 </r>
       <r>   -1.9135    1.0000 </r>
       <r>   -0.9375    1.0000 </r>
       <r>   -0.9375    1.0000 </r>
       <r>   -0.6718    1.0000 </r>
       <r>   -0.6718    1.0000 </r>
       <r>   -0.0268    1.0000 </r>
       <r>   -0.0268    1.0000 </r>
       <r>    1.1929    1.0000 </r>
       <r>    1.1929    1.0000 </r>
       <r>    1.8282    1.0000 </r>
       <r>    1.8282    1.0000 </r>
       <r>    2.3076    1.0000 </r>
       <r>    2.3076    1.0000 </r>
       <r>    5.1025    0.0000 </r>
       <r>    5.1025    0.0000 </r>
       <r>    5.5539    0.0000 </r>
       <r>    5.5588    0.0000 </r>
      </set>
      <set comment="kpoint 18">
       <r>   -9.1491    1.0000 </r>
       <r>   -9.1491    1.0000 </r>
       <r>   -8.8801    1.0000 </r>
       <r>   -8.8801    1.0000 </r>
       <r>   -2.3132    1.0000 </r>
       <r>   -2.3132    1.0000 </r>
       <r>   -1.6980    1.0000 </r>
       <r>   -1.6980    1.0000 </r>
       <r>   -0.8035    1.0000 </r>
       <r>   -0.8035    1.0000 </r>
       <r>   -0.0448    1.0000 </r>
       <r>   -0.0448    1.0000 </r>
       <r>    1.2073    1.0000 </r>
       <r>    1.2073    1.0000 </r>
       <r>    1.3473    1.0000 </r>
       <r>    1.3473    1.0000 </r>
       <r>    2.6339    1.0000 </r>
       <r>    2.6339    1.0000 </r>
       <r>    5.3029    0.0000 </r>
       <r>    5.3029    0.0000 </r>
       <r>    5.8119    0.0000 </r>
       <r>    5.8133    0.0000 </r>
      </set>
      <set comment="kpoint 19">
       <r>   -9.1641    1.0000 </r>
       <r>   -9.1641    1.0000 </r>
       <r>   -8.8711    1.0000 </r>
       <r>   -8.8711    1.0000 </r>
       <r>   -1.9533    1.0000 </r>
       <r>   -1.9533    1.0000 </r>
       <r>   -1.7481    1.0000 </r>
       <r>   -1.7481    1.0000 </r>
       <r>   -0.4798    1.0000 </r>
       <r>   -0.4798    1.0000 </r>
       <r>   -0.0910    1.0000 </r>
       <r>   -0.0910    1.0000 </r>
       <r>    0.2260    1.0000 </r>
       <r>    0.2260    1.0000 </r>
       <r>    1.4805    1.0000 </r>
       <r>    1.4805    1.0000 </r>
       <r>    2.6054    1.0000 </r>
       <r>    2.6054    1.0000 </r>
       <r>    5.2492    0.0000 </r>
       <r>    5.2493    0.0000 </r>
       <r>    5.8560    0.0000 </r>
       <r>    5.9128    0.0000 </r>
      </set>
      <set comment="kpoint 20">
       <r>   -8.9291    1.0000 </r>
       <r>   -8.9291    1.0000 </r>
       <r>   -8.7519    1.0000 </r>
       <r>   -8.7519    1.0000 </r>
       <r>   -2.1327    1.0000 </r>
       <r>   -2.1327    1.0000 </r>
       <r>   -1.7836    1.0000 </r>
       <r>   -1.7836    1.0000 </r>
       <r>   -0.7606    1.0000 </r>
       <r>   -0.7606    1.0000 </r>
       <r>   -0.0994    1.0000 </r>
       <r>   -0.0994    1.0000 </r>
       <r>    0.1371    1.0000 </r>
       <r>    0.1371    1.0000 </r>
       <r>    1.0940    1.0000 </r>
       <r>    1.0940    1.0000 </r>
       <r>    2.9725    1.0000 </r>
       <r>    2.9725    1.0000 </r>
       <r>    4.9280    0.0000 </r>
       <r>    4.9280    0.0000 </r>
       <r>    6.2287    0.0000 </r>
       <r>    6.2708    0.0000 </r>
      </set>
     </set>
    </set>
   </array>
  </eigenvalues>
  <separator name="orbital magnetization" >
   <v name="MAGDIPOLOUT">      0.00000000      0.00000000      0.00000000</v>
  </separator>
  <dos>
   <i name="efermi">      3.30949179 </i>
   <total>
    <array>
     <dimension dim="1">gridpoints</dimension>
     <dimension dim="2">spin</dimension>
     <field>energy</field>
     <field>total</field>
     <field>integrated</field>
     <set>
      <set comment="spin 1">
       <r>   -12.9296     0.0000     0.0000 </r>
       <r>   -12.8587     0.0000     0.0000 </r>
       <r>   -12.7878     0.0000     0.0000 </r>
       <r>   -12.7169     0.0000     0.0000 </r>
       <r>   -12.6461     0.0000     0.0000 </r>
       <r>   -12.5752     0.0000     0.0000 </r>
       <r>   -12.5043     0.0000     0.0000 </r>
       <r>   -12.4334     0.0000     0.0000 </r>
       <r>   -12.3626     0.0000     0.0000 </r>
       <r>   -12.2917     0.0000     0.0000 </r>
       <r>   -12.2208     0.0000     0.0000 </r>
       <r>   -12.1499     0.0000     0.0000 </r>
       <r>   -12.0791     0.0000     0.0000 </r>
       <r>   -12.0082     0.0000     0.0000 </r>
       <r>   -11.9373     0.0000     0.0000 </r>
       <r>   -11.8665     0.0000     0.0000 </r>
       <r>   -11.7956     0.0000     0.0000 </r>
       <r>   -11.7247     0.0000     0.0000 </r>
       <r>   -11.6538     0.0000     0.0000 </r>
       <r>   -11.5830     0.0000     0.0000 </r>
       <r>   -11.5121     0.0000     0.0000 </r>
       <r>   -11.4412     0.0000     0.0000 </r>
       <r>   -11.3703     0.0000     0.0000 </r>
       <r>   -11.2995     0.0000     0.0000 </r>
       <r>   -11.2286     0.0000     0.0000 </r>
       <r>   -11.1577     0.0000     0.0000 </r>
       <r>   -11.0868     0.0000     0.0000 </r>
       <r>   -11.0160     0.0000     0.0000 </r>
       <r>   -10.9451     0.0000     0.0000 </r>
       <r>   -10.8742     0.3754     0.0087 </r>
       <r>   -10.8033     0.9550     0.0559 </r>
       <r>   -10.7325     1.5346     0.1441 </r>
       <r>   -10.6616     0.9958     0.2308 </r>
       <r>   -10.5907     1.0614     0.3037 </r>
       <r>   -10.5198     1.1271     0.3813 </r>
       <r>   -10.4490     1.1928     0.4635 </r>
       <r>   -10.3781     1.2585     0.5503 </r>
       <r>   -10.3072     1.3195     0.6418 </r>
       <r>   -10.2363     1.3315     0.7358 </r>
       <r>   -10.1655     1.3433     0.8306 </r>
       <r>   -10.0946     1.3811     0.9268 </r>
       <r>   -10.0237     1.4360     1.0266 </r>
       <r>    -9.9528     1.4909     1.1303 </r>
       <r>    -9.8820     1.5459     1.2379 </r>
       <r>    -9.8111     1.6008     1.3494 </r>
       <r>    -9.7402     1.6557     1.4648 </r>
       <r>    -9.6694     3.3875     1.6197 </r>
       <r>    -9.5985     4.3405     1.9344 </r>
       <r>    -9.5276     4.6006     2.2436 </r>
       <r>    -9.4567     5.0991     2.5871 </r>
       <r>    -9.3859     5.5638     2.9670 </r>
       <r>    -9.3150     5.9903     3.3747 </r>
       <r>    -9.2441     6.5539     3.8193 </r>
       <r>    -9.1732     7.1177     4.3038 </r>
       <r>    -9.1024     8.4782     5.0926 </r>
       <r>    -9.0315     8.3413     5.6882 </r>
       <r>    -8.9606     8.6861     6.2912 </r>
       <r>    -8.8897    10.5056     6.9332 </r>
       <r>    -8.8189     6.1972     7.6247 </r>
       <r>    -8.7480     0.0000     8.0000 </r>
       <r>    -8.6771     0.0000     8.0000 </r>
       <r>    -8.6062     0.0000     8.0000 </r>
       <r>    -8.5354     0.0000     8.0000 </r>
       <r>    -8.4645     0.0000     8.0000 </r>
       <r>    -8.3936     0.0000     8.0000 </r>
       <r>    -8.3227     0.0000     8.0000 </r>
       <r>    -8.2519     0.0000     8.0000 </r>
       <r>    -8.1810     0.0000     8.0000 </r>
       <r>    -8.1101     0.0000     8.0000 </r>
       <r>    -8.0392     0.0000     8.0000 </r>
       <r>    -7.9684     0.0000     8.0000 </r>
       <r>    -7.8975     0.0000     8.0000 </r>
       <r>    -7.8266     0.0000     8.0000 </r>
       <r>    -7.7557     0.0000     8.0000 </r>
       <r>    -7.6849     0.0000     8.0000 </r>
       <r>    -7.6140     0.0000     8.0000 </r>
       <r>    -7.5431     0.0000     8.0000 </r>
       <r>    -7.4722     0.0000     8.0000 </r>
       <r>    -7.4014     0.0000     8.0000 </r>
       <r>    -7.3305     0.0000     8.0000 </r>
       <r>    -7.2596     0.0000     8.0000 </r>
       <r>    -7.1888     0.0000     8.0000 </r>
       <r>    -7.1179     0.0000     8.0000 </r>
       <r>    -7.0470     0.0000     8.0000 </r>
       <r>    -6.9761     0.0000     8.0000 </r>
       <r>    -6.9053     0.0000     8.0000 </r>
       <r>    -6.8344     0.0000     8.0000 </r>
       <r>    -6.7635     0.0000     8.0000 </r>
       <r>    -6.6926     0.0000     8.0000 </r>
       <r>    -6.6218     0.0000     8.0000 </r>
       <r>    -6.5509     0.0000     8.0000 </r>
       <r>    -6.4800     0.0000     8.0000 </r>
       <r>    -6.4091     0.0000     8.0000 </r>
       <r>    -6.3383     0.0000     8.0000 </r>
       <r>    -6.2674     0.0000     8.0000 </r>
       <r>    -6.1965     0.0000     8.0000 </r>
       <r>    -6.1256     0.0000     8.0000 </r>
       <r>    -6.0548     0.0000     8.0000 </r>
       <r>    -5.9839     0.0000     8.0000 </r>
       <r>    -5.9130     0.0000     8.0000 </r>
       <r>    -5.8421     0.0000     8.0000 </r>
       <r>    -5.7713     0.0000     8.0000 </r>
       <r>    -5.7004     0.0000     8.0000 </r>
       <r>    -5.6295     0.0000     8.0000 </r>
       <r>    -5.5586     0.0000     8.0000 </r>
       <r>    -5.4878     0.0000     8.0000 </r>
       <r>    -5.4169     0.0000     8.0000 </r>
       <r>    -5.3460     0.0000     8.0000 </r>
       <r>    -5.2751     0.0000     8.0000 </r>
       <r>    -5.2043     0.0000     8.0000 </r>
       <r>    -5.1334     0.0000     8.0000 </r>
       <r>    -5.0625     0.0000     8.0000 </r>
       <r>    -4.9917     0.0000     8.0000 </r>
       <r>    -4.9208     0.0000     8.0000 </r>
       <r>    -4.8499     0.0000     8.0000 </r>
       <r>    -4.7790     0.0000     8.0000 </r>
       <r>    -4.7082     0.0000     8.0000 </r>
       <r>    -4.6373     0.0000     8.0000 </r>
       <r>    -4.5664     0.0000     8.0000 </r>
       <r>    -4.4955     0.0000     8.0000 </r>
       <r>    -4.4247     0.0000     8.0000 </r>
       <r>    -4.3538     0.0000     8.0000 </r>
       <r>    -4.2829     0.0000     8.0000 </r>
       <r>    -4.2120     0.0000     8.0000 </r>
       <r>    -4.1412     0.0000     8.0000 </r>
       <r>    -4.0703     0.0000     8.0000 </r>
       <r>    -3.9994     0.0000     8.0000 </r>
       <r>    -3.9285     0.0000     8.0000 </r>
       <r>    -3.8577     0.0000     8.0000 </r>
       <r>    -3.7868     0.0000     8.0000 </r>
       <r>    -3.7159     0.0000     8.0000 </r>
       <r>    -3.6450     0.0000     8.0000 </r>
       <r>    -3.5742     0.0000     8.0000 </r>
       <r>    -3.5033     0.0000     8.0000 </r>
       <r>    -3.4324     0.0000     8.0000 </r>
       <r>    -3.3615     0.0000     8.0000 </r>
       <r>    -3.2907     0.0000     8.0000 </r>
       <r>    -3.2198     0.0000     8.0000 </r>
       <r>    -3.1489     0.0000     8.0000 </r>
       <r>    -3.0780     0.0000     8.0000 </r>
       <r>    -3.0072     0.0000     8.0000 </r>
       <r>    -2.9363     0.0000     8.0000 </r>
       <r>    -2.8654     0.0000     8.0000 </r>
       <r>    -2.7946     0.0000     8.0000 </r>
       <r>    -2.7237     0.0000     8.0000 </r>
       <r>    -2.6528     0.0000     8.0000 </r>
       <r>    -2.5819     0.2297     8.0025 </r>
       <r>    -2.5111     1.1121     8.0500 </r>
       <r>    -2.4402     2.1274     8.1636 </r>
       <r>    -2.3693     3.3372     8.3561 </r>
       <r>    -2.2984     5.2040     8.6484 </r>
       <r>    -2.2276     5.5670     9.0277 </r>
       <r>    -2.1567     6.0110     9.4384 </r>
       <r>    -2.0858     7.4563    10.0139 </r>
       <r>    -2.0149     6.3434    10.5028 </r>
       <r>    -1.9441     8.1142    10.9381 </r>
       <r>    -1.8732     7.7320    11.6639 </r>
       <r>    -1.8023     1.7307    11.9798 </r>
       <r>    -1.7314     8.8298    12.5983 </r>
       <r>    -1.6606     4.3680    13.0605 </r>
       <r>    -1.5897     2.6670    13.2730 </r>
       <r>    -1.5188     2.4395    13.4540 </r>
       <r>    -1.4479     2.2122    13.6188 </r>
       <r>    -1.3771     1.9852    13.7675 </r>
       <r>    -1.3062     1.7584    13.9002 </r>
       <r>    -1.2353     1.6708    14.0200 </r>
       <r>    -1.1644     1.6784    14.1387 </r>
       <r>    -1.0936     1.6859    14.2579 </r>
       <r>    -1.0227     1.6935    14.3776 </r>
       <r>    -0.9518     1.8253    14.4986 </r>
       <r>    -0.8809     5.5393    14.7422 </r>
       <r>    -0.8101    11.0272    15.3208 </r>
       <r>    -0.7392    10.4471    16.2101 </r>
       <r>    -0.6683     9.8408    16.9130 </r>
       <r>    -0.5974     7.9788    17.5704 </r>
       <r>    -0.5266     4.7722    18.0223 </r>
       <r>    -0.4557     2.6173    18.2636 </r>
       <r>    -0.3848     2.3586    18.4393 </r>
       <r>    -0.3140     2.1905    18.6003 </r>
       <r>    -0.2431     2.0304    18.7499 </r>
       <r>    -0.1722     1.8706    18.8881 </r>
       <r>    -0.1013    16.8885    19.1766 </r>
       <r>    -0.0305    20.6751    20.5933 </r>
       <r>     0.0404     7.4150    21.3360 </r>
       <r>     0.1113     6.3160    21.7851 </r>
       <r>     0.1822     5.7138    22.2664 </r>
       <r>     0.2530     3.7723    22.5807 </r>
       <r>     0.3239     3.5862    22.8415 </r>
       <r>     0.3948     3.4001    23.0891 </r>
       <r>     0.4657     3.5383    23.3250 </r>
       <r>     0.5365     5.2271    23.6334 </r>
       <r>     0.6074     5.0363    23.9982 </r>
       <r>     0.6783     4.1322    24.3412 </r>
       <r>     0.7492     2.6113    24.5801 </r>
       <r>     0.8200     1.7898    24.7124 </r>
       <r>     0.8909     1.7471    24.8377 </r>
       <r>     0.9618     1.7111    24.9602 </r>
       <r>     1.0327     1.6817    25.0804 </r>
       <r>     1.1035     4.8523    25.2595 </r>
       <r>     1.1744    11.0660    25.7968 </r>
       <r>     1.2453    17.8155    26.8887 </r>
       <r>     1.3162    13.2249    28.0305 </r>
       <r>     1.3870     4.8224    28.6435 </r>
       <r>     1.4579     3.1300    28.9056 </r>
       <r>     1.5288     2.9488    29.1187 </r>
       <r>     1.5997     2.8701    29.3249 </r>
       <r>     1.6705     3.0328    29.5309 </r>
       <r>     1.7414     3.6996    29.7617 </r>
       <r>     1.8123     6.6847    30.1116 </r>
       <r>     1.8831     8.5374    30.6747 </r>
       <r>     1.9540     4.8890    31.1452 </r>
       <r>     2.0249     4.3771    31.4784 </r>
       <r>     2.0958     3.0479    31.7466 </r>
       <r>     2.1666     1.5848    31.9065 </r>
       <r>     2.2375     2.6845    32.0333 </r>
       <r>     2.3084     7.6872    32.3454 </r>
       <r>     2.3793     7.7958    32.9298 </r>
       <r>     2.4501     7.1811    33.4578 </r>
       <r>     2.5210     6.6335    33.9483 </r>
       <r>     2.5919     6.1305    34.3987 </r>
       <r>     2.6628     4.2871    34.7767 </r>
       <r>     2.7336     3.7632    35.0620 </r>
       <r>     2.8045     3.2386    35.3101 </r>
       <r>     2.8754     2.9726    35.5258 </r>
       <r>     2.9463     2.3865    35.7198 </r>
       <r>     3.0171     0.9669    35.8853 </r>
       <r>     3.0880     0.8041    35.9499 </r>
       <r>     3.1589     0.3010    35.9860 </r>
       <r>     3.2298     0.0725    35.9983 </r>
       <r>     3.3006     0.0000    36.0000 </r>
       <r>     3.3715     0.0000    36.0000 </r>
       <r>     3.4424     0.0000    36.0000 </r>
       <r>     3.5133     0.0000    36.0000 </r>
       <r>     3.5841     0.0000    36.0000 </r>
       <r>     3.6550     0.0000    36.0000 </r>
       <r>     3.7259     0.0000    36.0000 </r>
       <r>     3.7968     0.0000    36.0000 </r>
       <r>     3.8676     0.0000    36.0000 </r>
       <r>     3.9385     0.0000    36.0000 </r>
       <r>     4.0094     0.0000    36.0000 </r>
       <r>     4.0802     0.0000    36.0000 </r>
       <r>     4.1511     0.0000    36.0000 </r>
       <r>     4.2220     0.0000    36.0000 </r>
       <r>     4.2929     0.0000    36.0000 </r>
       <r>     4.3637     0.0000    36.0000 </r>
       <r>     4.4346     0.0000    36.0000 </r>
       <r>     4.5055     0.0000    36.0000 </r>
       <r>     4.5764     0.0000    36.0000 </r>
       <r>     4.6472     0.0000    36.0000 </r>
       <r>     4.7181     0.0000    36.0000 </r>
       <r>     4.7890     0.0000    36.0000 </r>
       <r>     4.8599     0.0000    36.0000 </r>
       <r>     4.9307     8.2017    36.0544 </r>
       <r>     5.0016     1.7799    36.1650 </r>
       <r>     5.0725     5.2883    36.4098 </r>
       <r>     5.1434     8.9386    36.9117 </r>
       <r>     5.2142    13.0300    37.6957 </r>
       <r>     5.2851    25.1160    38.8608 </r>
       <r>     5.3560     2.1241    39.4590 </r>
       <r>     5.4269     1.5351    39.5853 </r>
       <r>     5.4977     9.5144    39.9052 </r>
       <r>     5.5686    12.0810    40.7886 </r>
       <r>     5.6395     7.5178    41.4524 </r>
       <r>     5.7104     7.1286    41.9889 </r>
       <r>     5.7812     9.8261    42.5010 </r>
       <r>     5.8521     5.0092    43.0557 </r>
       <r>     5.9230     3.1117    43.3121 </r>
       <r>     5.9939     2.4196    43.5078 </r>
       <r>     6.0647     1.8666    43.6589 </r>
       <r>     6.1356     1.5297    43.7775 </r>
       <r>     6.2065     1.3543    43.8894 </r>
       <r>     6.2773     1.1236    43.9549 </r>
       <r>     6.3482     0.0000    44.0000 </r>
       <r>     6.4191     0.0000    44.0000 </r>
       <r>     6.4900     0.0000    44.0000 </r>
       <r>     6.5608     0.0000    44.0000 </r>
       <r>     6.6317     0.0000    44.0000 </r>
       <r>     6.7026     0.0000    44.0000 </r>
       <r>     6.7735     0.0000    44.0000 </r>
       <r>     6.8443     0.0000    44.0000 </r>
       <r>     6.9152     0.0000    44.0000 </r>
       <r>     6.9861     0.0000    44.0000 </r>
       <r>     7.0570     0.0000    44.0000 </r>
       <r>     7.1278     0.0000    44.0000 </r>
       <r>     7.1987     0.0000    44.0000 </r>
       <r>     7.2696     0.0000    44.0000 </r>
       <r>     7.3405     0.0000    44.0000 </r>
       <r>     7.4113     0.0000    44.0000 </r>
       <r>     7.4822     0.0000    44.0000 </r>
       <r>     7.5531     0.0000    44.0000 </r>
       <r>     7.6240     0.0000    44.0000 </r>
       <r>     7.6948     0.0000    44.0000 </r>
       <r>     7.7657     0.0000    44.0000 </r>
       <r>     7.8366     0.0000    44.0000 </r>
       <r>     7.9075     0.0000    44.0000 </r>
       <r>     7.9783     0.0000    44.0000 </r>
       <r>     8.0492     0.0000    44.0000 </r>
       <r>     8.1201     0.0000    44.0000 </r>
       <r>     8.1910     0.0000    44.0000 </r>
       <r>     8.2618     0.0000    44.0000 </r>
       <r>     8.3327     0.0000    44.0000 </r>
      </set>
     </set>
    </array>
   </total>
  </dos>
 </calculation>
 <structure name="finalpos" >
  <crystal>
   <varray name="basis" >
    <v>       3.19031573       0.00000000       0.00000000 </v>
    <v>      -1.59515786       2.76289447       0.00000000 </v>
    <v>       0.00000000       0.00000000      14.87900430 </v>
   </varray>
   <i name="volume">    131.15106795 </i>
   <varray name="rec_basis" >
    <v>       0.31344860       0.18096963       0.00000000 </v>
    <v>       0.00000000       0.36193927       0.00000000 </v>
    <v>       0.00000000       0.00000000       0.06720880 </v>
   </varray>
  </crystal>
  <varray name="positions" >
   <v>       0.33333300       0.66666700       0.25000000 </v>
   <v>       0.66666700       0.33333300       0.75000000 </v>
   <v>       0.33333300       0.66666700       0.85517400 </v>
   <v>       0.66666700       0.33333300       0.14482600 </v>
   <v>       0.66666600       0.33333300       0.35517400 </v>
   <v>       0.33333400       0.66666700       0.64482600 </v>
  </varray>
 </structure>
</modeling>
