   3   3   0   0
  0.9072772E+02  0.3190316E-09  0.3190316E-09  0.3087900E-08  0.5000000E-15
  1.000000000000000E-004
  CAR 
 unknown system                          
      5.93468759    -19.78834243  301     -3.73288452      1.00000000
    -19.788  0.0000E+00  0.0000E+00
    -19.703  0.0000E+00  0.0000E+00
    -19.617  0.0000E+00  0.0000E+00
    -19.531  0.0000E+00  0.0000E+00
    -19.445  0.0000E+00  0.0000E+00
    -19.360  0.0000E+00  0.0000E+00
    -19.274  0.0000E+00  0.0000E+00
    -19.188  0.0000E+00  0.0000E+00
    -19.102  0.0000E+00  0.0000E+00
    -19.017  0.0000E+00  0.0000E+00
    -18.931  0.0000E+00  0.0000E+00
    -18.845  0.0000E+00  0.0000E+00
    -18.759  0.0000E+00  0.0000E+00
    -18.674  0.0000E+00  0.0000E+00
    -18.588  0.0000E+00  0.0000E+00
    -18.502  0.0000E+00  0.0000E+00
    -18.416  0.0000E+00  0.0000E+00
    -18.331  0.0000E+00  0.0000E+00
    -18.245  0.0000E+00  0.0000E+00
    -18.159  0.0000E+00  0.0000E+00
    -18.073  0.0000E+00  0.0000E+00
    -17.988  0.0000E+00  0.0000E+00
    -17.902  0.0000E+00  0.0000E+00
    -17.816  0.0000E+00  0.0000E+00
    -17.731  0.4422E+00  0.2485E-01
    -17.645  0.5623E+00  0.6791E-01
    -17.559  0.5235E+00  0.1151E+00
    -17.473  0.5725E+00  0.1621E+00
    -17.388  0.5725E+00  0.2119E+00
    -17.302  0.5869E+00  0.2614E+00
    -17.216  0.6190E+00  0.3131E+00
    -17.130  0.6287E+00  0.3670E+00
    -17.045  0.6531E+00  0.4219E+00
    -16.959  0.6803E+00  0.4790E+00
    -16.873  0.7116E+00  0.5386E+00
    -16.787  0.7477E+00  0.6012E+00
    -16.702  0.7851E+00  0.6669E+00
    -16.616  0.8231E+00  0.7358E+00
    -16.530  0.1963E+01  0.8564E+00
    -16.444  0.2142E+01  0.1035E+01
    -16.359  0.2274E+01  0.1225E+01
    -16.273  0.2510E+01  0.1430E+01
    -16.187  0.2881E+01  0.1661E+01
    -16.101  0.3358E+01  0.1928E+01
    -16.016  0.4681E+01  0.2253E+01
    -15.930  0.3906E+01  0.2659E+01
    -15.844  0.4636E+01  0.3014E+01
    -15.758  0.5197E+01  0.3460E+01
    -15.673  0.2592E+01  0.3807E+01
    -15.587  0.0000E+00  0.4000E+01
    -15.501  0.0000E+00  0.4000E+01
    -15.415  0.0000E+00  0.4000E+01
    -15.330  0.0000E+00  0.4000E+01
    -15.244  0.0000E+00  0.4000E+01
    -15.158  0.0000E+00  0.4000E+01
    -15.072  0.0000E+00  0.4000E+01
    -14.987  0.0000E+00  0.4000E+01
    -14.901  0.0000E+00  0.4000E+01
    -14.815  0.0000E+00  0.4000E+01
    -14.729  0.0000E+00  0.4000E+01
    -14.644  0.0000E+00  0.4000E+01
    -14.558  0.0000E+00  0.4000E+01
    -14.472  0.0000E+00  0.4000E+01
    -14.387  0.0000E+00  0.4000E+01
    -14.301  0.0000E+00  0.4000E+01
    -14.215  0.0000E+00  0.4000E+01
    -14.129  0.0000E+00  0.4000E+01
    -14.044  0.0000E+00  0.4000E+01
    -13.958  0.0000E+00  0.4000E+01
    -13.872  0.0000E+00  0.4000E+01
    -13.786  0.0000E+00  0.4000E+01
    -13.701  0.0000E+00  0.4000E+01
    -13.615  0.0000E+00  0.4000E+01
    -13.529  0.0000E+00  0.4000E+01
    -13.443  0.0000E+00  0.4000E+01
    -13.358  0.0000E+00  0.4000E+01
    -13.272  0.0000E+00  0.4000E+01
    -13.186  0.0000E+00  0.4000E+01
    -13.100  0.0000E+00  0.4000E+01
    -13.015  0.0000E+00  0.4000E+01
    -12.929  0.0000E+00  0.4000E+01
    -12.843  0.0000E+00  0.4000E+01
    -12.757  0.0000E+00  0.4000E+01
    -12.672  0.0000E+00  0.4000E+01
    -12.586  0.0000E+00  0.4000E+01
    -12.500  0.0000E+00  0.4000E+01
    -12.414  0.0000E+00  0.4000E+01
    -12.329  0.0000E+00  0.4000E+01
    -12.243  0.0000E+00  0.4000E+01
    -12.157  0.0000E+00  0.4000E+01
    -12.071  0.0000E+00  0.4000E+01
    -11.986  0.0000E+00  0.4000E+01
    -11.900  0.0000E+00  0.4000E+01
    -11.814  0.0000E+00  0.4000E+01
    -11.728  0.0000E+00  0.4000E+01
    -11.643  0.0000E+00  0.4000E+01
    -11.557  0.0000E+00  0.4000E+01
    -11.471  0.0000E+00  0.4000E+01
    -11.385  0.0000E+00  0.4000E+01
    -11.300  0.0000E+00  0.4000E+01
    -11.214  0.0000E+00  0.4000E+01
    -11.128  0.0000E+00  0.4000E+01
    -11.043  0.0000E+00  0.4000E+01
    -10.957  0.0000E+00  0.4000E+01
    -10.871  0.0000E+00  0.4000E+01
    -10.785  0.0000E+00  0.4000E+01
    -10.700  0.0000E+00  0.4000E+01
    -10.614  0.0000E+00  0.4000E+01
    -10.528  0.0000E+00  0.4000E+01
    -10.442  0.0000E+00  0.4000E+01
    -10.357  0.0000E+00  0.4000E+01
    -10.271  0.0000E+00  0.4000E+01
    -10.185  0.0000E+00  0.4000E+01
    -10.099  0.0000E+00  0.4000E+01
    -10.014  0.0000E+00  0.4000E+01
     -9.928  0.0000E+00  0.4000E+01
     -9.842  0.0000E+00  0.4000E+01
     -9.756  0.0000E+00  0.4000E+01
     -9.671  0.0000E+00  0.4000E+01
     -9.585  0.0000E+00  0.4000E+01
     -9.499  0.0000E+00  0.4000E+01
     -9.413  0.1126E+01  0.4031E+01
     -9.328  0.1062E+01  0.4128E+01
     -9.242  0.1643E+01  0.4251E+01
     -9.156  0.1786E+01  0.4398E+01
     -9.070  0.1975E+01  0.4560E+01
     -8.985  0.5309E+01  0.4822E+01
     -8.899  0.3726E+01  0.5159E+01
     -8.813  0.3153E+01  0.5462E+01
     -8.727  0.4759E+01  0.5802E+01
     -8.642  0.3510E+01  0.6269E+01
     -8.556  0.1696E+01  0.6436E+01
     -8.470  0.1873E+01  0.6614E+01
     -8.384  0.1216E+01  0.6754E+01
     -8.299  0.1010E+01  0.6848E+01
     -8.213  0.8711E+00  0.6929E+01
     -8.127  0.7749E+00  0.6998E+01
     -8.041  0.7243E+00  0.7063E+01
     -7.956  0.6852E+00  0.7123E+01
     -7.870  0.6913E+00  0.7182E+01
     -7.784  0.2234E+01  0.7251E+01
     -7.699  0.4136E+01  0.7557E+01
     -7.613  0.4986E+01  0.8039E+01
     -7.527  0.4965E+01  0.8490E+01
     -7.441  0.3952E+01  0.8886E+01
     -7.356  0.1580E+01  0.9126E+01
     -7.270  0.1144E+01  0.9237E+01
     -7.184  0.1150E+01  0.9335E+01
     -7.098  0.1152E+01  0.9434E+01
     -7.013  0.3489E+01  0.9568E+01
     -6.927  0.8821E+01  0.9986E+01
     -6.841  0.2928E+01  0.1066E+02
     -6.755  0.3278E+01  0.1092E+02
     -6.670  0.2737E+01  0.1118E+02
     -6.584  0.1927E+01  0.1137E+02
     -6.498  0.1662E+01  0.1152E+02
     -6.412  0.1597E+01  0.1167E+02
     -6.327  0.1688E+01  0.1180E+02
     -6.241  0.1892E+01  0.1197E+02
     -6.155  0.9872E+00  0.1209E+02
     -6.069  0.1908E+01  0.1223E+02
     -5.984  0.1929E+01  0.1240E+02
     -5.898  0.8825E+00  0.1252E+02
     -5.812  0.2784E+01  0.1271E+02
     -5.726  0.3405E+01  0.1296E+02
     -5.641  0.4382E+01  0.1330E+02
     -5.555  0.4447E+01  0.1379E+02
     -5.469  0.3013E+01  0.1412E+02
     -5.383  0.2699E+01  0.1436E+02
     -5.298  0.2320E+01  0.1459E+02
     -5.212  0.2393E+01  0.1478E+02
     -5.126  0.2330E+01  0.1498E+02
     -5.040  0.2188E+01  0.1518E+02
     -4.955  0.2182E+01  0.1537E+02
     -4.869  0.2161E+01  0.1555E+02
     -4.783  0.3317E+01  0.1580E+02
     -4.697  0.9666E+00  0.1599E+02
     -4.612  0.1770E+01  0.1611E+02
     -4.526  0.4661E+01  0.1642E+02
     -4.440  0.2985E+01  0.1671E+02
     -4.355  0.2786E+01  0.1695E+02
     -4.269  0.2445E+01  0.1718E+02
     -4.183  0.2131E+01  0.1737E+02
     -4.097  0.1871E+01  0.1754E+02
     -4.012  0.1606E+01  0.1769E+02
     -3.926  0.1248E+01  0.1781E+02
     -3.840  0.1363E+01  0.1792E+02
     -3.754  0.0000E+00  0.1800E+02
     -3.669  0.0000E+00  0.1800E+02
     -3.583  0.0000E+00  0.1800E+02
     -3.497  0.0000E+00  0.1800E+02
     -3.411  0.0000E+00  0.1800E+02
     -3.326  0.0000E+00  0.1800E+02
     -3.240  0.0000E+00  0.1800E+02
     -3.154  0.0000E+00  0.1800E+02
     -3.068  0.0000E+00  0.1800E+02
     -2.983  0.0000E+00  0.1800E+02
     -2.897  0.0000E+00  0.1800E+02
     -2.811  0.0000E+00  0.1800E+02
     -2.725  0.0000E+00  0.1800E+02
     -2.640  0.0000E+00  0.1800E+02
     -2.554  0.0000E+00  0.1800E+02
     -2.468  0.0000E+00  0.1800E+02
     -2.382  0.0000E+00  0.1800E+02
     -2.297  0.0000E+00  0.1800E+02
     -2.211  0.0000E+00  0.1800E+02
     -2.125  0.0000E+00  0.1800E+02
     -2.039  0.4157E+00  0.1801E+02
     -1.954  0.4714E+00  0.1805E+02
     -1.868  0.6107E+00  0.1810E+02
     -1.782  0.3135E+01  0.1823E+02
     -1.696  0.4336E+01  0.1853E+02
     -1.611  0.1158E+02  0.1909E+02
     -1.525  0.8092E+00  0.1976E+02
     -1.439  0.1904E+01  0.1986E+02
     -1.354  0.4327E+01  0.2011E+02
     -1.268  0.5698E+01  0.2068E+02
     -1.182  0.4021E+01  0.2112E+02
     -1.096  0.4780E+01  0.2156E+02
     -1.011  0.3192E+01  0.2194E+02
     -0.925  0.2592E+01  0.2222E+02
     -0.839  0.2078E+01  0.2241E+02
     -0.753  0.2517E+01  0.2263E+02
     -0.668  0.4634E+01  0.2292E+02
     -0.582  0.2232E+01  0.2320E+02
     -0.496  0.2258E+01  0.2339E+02
     -0.410  0.1973E+01  0.2360E+02
     -0.325  0.1505E+01  0.2377E+02
     -0.239  0.1454E+01  0.2390E+02
     -0.153  0.1445E+01  0.2402E+02
     -0.067  0.1521E+01  0.2415E+02
      0.018  0.1501E+01  0.2428E+02
      0.104  0.1910E+01  0.2441E+02
      0.190  0.8535E+00  0.2455E+02
      0.276  0.1262E+01  0.2465E+02
      0.361  0.1408E+01  0.2476E+02
      0.447  0.4515E+01  0.2515E+02
      0.533  0.1948E+01  0.2539E+02
      0.619  0.1702E+01  0.2554E+02
      0.704  0.1561E+01  0.2568E+02
      0.790  0.1076E+01  0.2579E+02
      0.876  0.9251E+00  0.2588E+02
      0.962  0.7871E+00  0.2595E+02
      1.047  0.0000E+00  0.2600E+02
      1.133  0.0000E+00  0.2600E+02
      1.219  0.0000E+00  0.2600E+02
      1.305  0.0000E+00  0.2600E+02
      1.390  0.0000E+00  0.2600E+02
      1.476  0.0000E+00  0.2600E+02
      1.562  0.0000E+00  0.2600E+02
      1.648  0.0000E+00  0.2600E+02
      1.733  0.2742E+00  0.2601E+02
      1.819  0.2691E+00  0.2604E+02
      1.905  0.3178E+00  0.2606E+02
      1.990  0.3513E+00  0.2609E+02
      2.076  0.3600E+00  0.2612E+02
      2.162  0.3852E+00  0.2615E+02
      2.248  0.4104E+00  0.2619E+02
      2.333  0.3934E+00  0.2622E+02
      2.419  0.4144E+00  0.2625E+02
      2.505  0.8156E+00  0.2631E+02
      2.591  0.1141E+01  0.2639E+02
      2.676  0.9382E+00  0.2648E+02
      2.762  0.1009E+01  0.2657E+02
      2.848  0.1108E+01  0.2666E+02
      2.934  0.1214E+01  0.2676E+02
      3.019  0.1211E+01  0.2686E+02
      3.105  0.1236E+01  0.2696E+02
      3.191  0.1316E+01  0.2707E+02
      3.277  0.1537E+01  0.2719E+02
      3.362  0.1975E+01  0.2734E+02
      3.448  0.1532E+01  0.2754E+02
      3.534  0.1252E+01  0.2766E+02
      3.620  0.9506E+00  0.2780E+02
      3.705  0.7595E+00  0.2787E+02
      3.791  0.5863E+00  0.2793E+02
      3.877  0.4912E+00  0.2797E+02
      3.963  0.0000E+00  0.2800E+02
      4.048  0.0000E+00  0.2800E+02
      4.134  0.0000E+00  0.2800E+02
      4.220  0.0000E+00  0.2800E+02
      4.306  0.0000E+00  0.2800E+02
      4.391  0.0000E+00  0.2800E+02
      4.477  0.0000E+00  0.2800E+02
      4.563  0.0000E+00  0.2800E+02
      4.649  0.0000E+00  0.2800E+02
      4.734  0.0000E+00  0.2800E+02
      4.820  0.0000E+00  0.2800E+02
      4.906  0.0000E+00  0.2800E+02
      4.992  0.0000E+00  0.2800E+02
      5.077  0.0000E+00  0.2800E+02
      5.163  0.0000E+00  0.2800E+02
      5.249  0.0000E+00  0.2800E+02
      5.334  0.0000E+00  0.2800E+02
      5.420  0.0000E+00  0.2800E+02
      5.506  0.0000E+00  0.2800E+02
      5.592  0.0000E+00  0.2800E+02
      5.677  0.0000E+00  0.2800E+02
      5.763  0.0000E+00  0.2800E+02
      5.849  0.0000E+00  0.2800E+02
      5.935  0.0000E+00  0.2800E+02
