    3    3    1    1
  0.9072772E+02  0.3190316E-09  0.3190316E-09  0.3087900E-08  0.5000000E-15
  1.000000000000000E-004
  CAR 
 unknown system                          
     18     30     14
 
  0.0000000E+00  0.0000000E+00  0.0000000E+00  0.3906250E-02
    1      -17.788342   1.000000
    2      -16.580319   1.000000
    3       -9.308753   1.000000
    4       -6.347863   1.000000
    5       -6.347857   1.000000
    6       -5.486712   1.000000
    7       -5.242275   1.000000
    8       -5.242243   1.000000
    9       -3.766429   1.000000
   10       -0.994791   0.000000
   11       -0.994760   0.000000
   12       -0.771068   0.000000
   13       -0.771054   0.000000
   14        1.664028   0.000000
 
  0.6250000E-01 -0.1040834E-16  0.0000000E+00  0.2343750E-01
    1      -17.733709   1.000000
    2      -16.554152   1.000000
    3       -9.243721   1.000000
    4       -6.476931   1.000000
    5       -6.287514   1.000000
    6       -5.825912   1.000000
    7       -5.335609   1.000000
    8       -4.987601   1.000000
    9       -3.794011   1.000000
   10       -1.083292   0.000000
   11       -0.936107   0.000000
   12       -0.894987   0.000000
   13       -0.836674   0.000000
   14        1.772809   0.000000
 
  0.1250000E+00 -0.2081668E-16  0.0000000E+00  0.2343750E-01
    1      -17.574194   1.000000
    2      -16.477927   1.000000
    3       -9.064219   1.000000
    4       -6.811268   1.000000
    5       -6.294648   1.000000
    6       -6.113450   1.000000
    7       -5.577996   1.000000
    8       -4.809144   1.000000
    9       -3.904816   1.000000
   10       -1.274923   0.000000
   11       -1.209077   0.000000
   12       -1.007672   0.000000
   13       -0.639985   0.000000
   14        2.038774   0.000000
 
  0.1875000E+00 -0.4163336E-16  0.0000000E+00  0.2343750E-01
    1      -17.323415   1.000000
    2      -16.358709   1.000000
    3       -8.830766   1.000000
    4       -7.223689   1.000000
    5       -6.783065   1.000000
    6       -5.892753   1.000000
    7       -5.847217   1.000000
    8       -4.855750   1.000000
    9       -4.147129   1.000000
   10       -1.535575   0.000000
   11       -1.224119   0.000000
   12       -1.153228   0.000000
   13       -0.322308   0.000000
   14        2.398726   0.000000
 
  0.2500000E+00 -0.4163336E-16  0.0000000E+00  0.2343750E-01
    1      -17.005421   1.000000
    2      -16.209088   1.000000
    3       -8.698044   1.000000
    4       -7.537907   1.000000
    5       -7.275456   1.000000
    6       -6.213007   1.000000
    7       -5.526379   1.000000
    8       -5.060747   1.000000
    9       -4.472690   1.000000
   10       -1.599095   0.000000
   11       -1.422444   0.000000
   12       -0.880389   0.000000
   13       -0.023024   0.000000
   14        2.849346   0.000000
 
  0.3125000E+00 -0.5551115E-16  0.0000000E+00  0.2343750E-01
    1      -16.657004   1.000000
    2      -16.047986   1.000000
    3       -8.843793   1.000000
    4       -7.744874   1.000000
    5       -7.627974   1.000000
    6       -6.494454   1.000000
    7       -5.291743   1.000000
    8       -5.203431   1.000000
    9       -4.694843   1.000000
   10       -1.554959   0.000000
   11       -1.501663   0.000000
   12       -0.506208   0.000000
   13        0.212100   0.000000
   14        3.336291   0.000000
 
  0.3750000E+00 -0.8326673E-16  0.0000000E+00  0.2343750E-01
    1      -16.330286   1.000000
    2      -15.900607   1.000000
    3       -9.135282   1.000000
    4       -8.142855   1.000000
    5       -7.670782   1.000000
    6       -6.710323   1.000000
    7       -5.470052   1.000000
    8       -4.935856   1.000000
    9       -4.667826   1.000000
   10       -1.603966   0.000000
   11       -1.325130   0.000000
   12       -0.161872   0.000000
   13        0.370300   0.000000
   14        3.375954   0.000000
 
  0.4375000E+00 -0.8326673E-16  0.0000000E+00  0.2343750E-01
    1      -16.090958   1.000000
    2      -15.795555   1.000000
    3       -9.376342   1.000000
    4       -8.412254   1.000000
    5       -7.754372   1.000000
    6       -6.845132   1.000000
    7       -5.574956   1.000000
    8       -4.765832   1.000000
    9       -4.486561   1.000000
   10       -1.594716   0.000000
   11       -1.147287   0.000000
   12        0.062381   0.000000
   13        0.458018   0.000000
   14        2.707218   0.000000
 
  0.5000000E+00 -0.8326673E-16  0.0000000E+00  0.1171875E-01
    1      -16.002004   1.000000
    2      -15.757241   1.000000
    3       -9.467969   1.000000
    4       -8.507779   1.000000
    5       -7.797028   1.000000
    6       -6.890875   1.000000
    7       -5.608893   1.000000
    8       -4.708763   1.000000
    9       -4.387020   1.000000
   10       -1.581711   0.000000
   11       -1.065750   0.000000
   12        0.136749   0.000000
   13        0.485741   0.000000
   14        2.415887   0.000000
 
  0.6250000E-01  0.6250000E-01  0.0000000E+00  0.2343750E-01
    1      -17.626609   1.000000
    2      -16.502933   1.000000
    3       -9.120891   1.000000
    4       -6.706455   1.000000
    5       -6.172416   1.000000
    6       -6.151997   1.000000
    7       -5.542182   1.000000
    8       -4.806356   1.000000
    9       -3.863179   1.000000
   10       -1.207415   0.000000
   11       -1.179158   0.000000
   12       -0.961459   0.000000
   13       -0.702266   0.000000
   14        1.965783   0.000000
 
  0.1250000E+00  0.6250000E-01  0.0000000E+00  0.4687500E-01
    1      -17.421287   1.000000
    2      -16.405031   1.000000
    3       -8.909263   1.000000
    4       -7.073375   1.000000
    5       -6.563744   1.000000
    6       -5.961811   1.000000
    7       -5.894394   1.000000
    8       -4.721645   1.000000
    9       -4.042006   1.000000
   10       -1.470399   0.000000
   11       -1.274514   0.000000
   12       -1.156020   0.000000
   13       -0.389318   0.000000
   14        2.266979   0.000000
 
  0.1875000E+00  0.6250000E-01  0.0000000E+00  0.4687500E-01
    1      -17.136317   1.000000
    2      -16.270006   1.000000
    3       -8.708984   1.000000
    4       -7.429457   1.000000
    5       -7.022792   1.000000
    6       -6.253082   1.000000
    7       -5.696431   1.000000
    8       -4.831369   1.000000
    9       -4.332758   1.000000
   10       -1.648344   0.000000
   11       -1.328360   0.000000
   12       -1.131240   0.000000
   13       -0.062917   0.000000
   14        2.677076   0.000000
 
  0.2500000E+00  0.6250000E-01  0.0000000E+00  0.4687500E-01
    1      -16.801656   1.000000
    2      -16.113339   1.000000
    3       -8.717742   1.000000
    4       -7.593979   1.000000
    5       -7.512724   1.000000
    6       -6.534152   1.000000
    7       -5.448688   1.000000
    8       -5.062239   1.000000
    9       -4.589754   1.000000
   10       -1.689500   0.000000
   11       -1.403148   0.000000
   12       -0.813254   0.000000
   13        0.205344   0.000000
   14        3.165147   0.000000
 
  0.3125000E+00  0.6250000E-01  0.0000000E+00  0.4687500E-01
    1      -16.461247   1.000000
    2      -15.956950   1.000000
    3       -8.958793   1.000000
    4       -7.973033   1.000000
    5       -7.615906   1.000000
    6       -6.724895   1.000000
    7       -5.304255   1.000000
    8       -5.282645   1.000000
    9       -4.608785   1.000000
   10       -1.648197   0.000000
   11       -1.356520   0.000000
   12       -0.439476   0.000000
   13        0.375324   0.000000
   14        3.590470   0.000000
 
  0.3750000E+00  0.6250000E-01  0.0000000E+00  0.4687500E-01
    1      -16.174118   1.000000
    2      -15.828169   1.000000
    3       -9.225899   1.000000
    4       -8.330199   1.000000
    5       -7.686736   1.000000
    6       -6.840159   1.000000
    7       -5.489408   1.000000
    8       -5.143318   1.000000
    9       -4.440732   1.000000
   10       -1.589070   0.000000
   11       -1.215979   0.000000
   12       -0.104265   0.000000
   13        0.426711   0.000000
   14        3.090481   0.000000
 
  0.4375000E+00  0.6250000E-01  0.0000000E+00  0.4687500E-01
    1      -16.006494   1.000000
    2      -15.754634   1.000000
    3       -9.389422   1.000000
    4       -8.525300   1.000000
    5       -7.765548   1.000000
    6       -6.894013   1.000000
    7       -5.587312   1.000000
    8       -5.046254   1.000000
    9       -4.279084   1.000000
   10       -1.565124   0.000000
   11       -1.067936   0.000000
   12        0.141319   0.000000
   13        0.369632   0.000000
   14        2.560211   0.000000
 
  0.1250000E+00  0.1250000E+00  0.0000000E+00  0.2343750E-01
    1      -17.181355   1.000000
    2      -16.290862   1.000000
    3       -8.716906   1.000000
    4       -7.375290   1.000000
    5       -6.856772   1.000000
    6       -6.391843   1.000000
    7       -5.773986   1.000000
    8       -4.674659   1.000000
    9       -4.276643   1.000000
   10       -1.674192   0.000000
   11       -1.295973   0.000000
   12       -1.284191   0.000000
   13       -0.045173   0.000000
   14        2.625044   0.000000
 
  0.1875000E+00  0.1250000E+00  0.0000000E+00  0.4687500E-01
    1      -16.878139   1.000000
    2      -16.147294   1.000000
    3       -8.636899   1.000000
    4       -7.549199   1.000000
    5       -7.275363   1.000000
    6       -6.756153   1.000000
    7       -5.651827   1.000000
    8       -4.793444   1.000000
    9       -4.509935   1.000000
   10       -1.798547   0.000000
   11       -1.335102   0.000000
   12       -1.117291   0.000000
   13        0.260425   0.000000
   14        3.090421   0.000000
 
  0.2500000E+00  0.1250000E+00  0.0000000E+00  0.4687500E-01
    1      -16.547748   1.000000
    2      -15.992280   1.000000
    3       -8.779584   1.000000
    4       -7.801969   1.000000
    5       -7.538994   1.000000
    6       -6.896168   1.000000
    7       -5.674562   1.000000
    8       -5.036886   1.000000
    9       -4.560194   1.000000
   10       -1.757564   0.000000
   11       -1.309102   0.000000
   12       -0.814229   0.000000
   13        0.462621   0.000000
   14        3.595707   0.000000
 
  0.3125000E+00  0.1250000E+00  0.0000000E+00  0.4687500E-01
    1      -16.240391   1.000000
    2      -15.850008   1.000000
    3       -9.004978   1.000000
    4       -8.260081   1.000000
    5       -7.562622   1.000000
    6       -6.928819   1.000000
    7       -5.700695   1.000000
    8       -5.307514   1.000000
    9       -4.427601   1.000000
   10       -1.604027   0.000000
   11       -1.242100   0.000000
   12       -0.477666   0.000000
   13        0.536275   0.000000
   14        3.586174   0.000000
 
  0.3750000E+00  0.1250000E+00  0.0000000E+00  0.4687500E-01
    1      -16.017242   1.000000
    2      -15.748312   1.000000
    3       -9.180606   1.000000
    4       -8.564995   1.000000
    5       -7.669316   1.000000
    6       -6.912976   1.000000
    7       -5.659391   1.000000
    8       -5.518715   1.000000
    9       -4.233297   1.000000
   10       -1.562825   0.000000
   11       -1.052557   0.000000
   12       -0.192503   0.000000
   13        0.496295   0.000000
   14        2.942749   0.000000
 
  0.4375000E+00  0.1250000E+00  0.0000000E+00  0.2343750E-01
    1      -15.934821   1.000000
    2      -15.711168   1.000000
    3       -9.245776   1.000000
    4       -8.671850   1.000000
    5       -7.726349   1.000000
    6       -6.898822   1.000000
    7       -5.634148   1.000000
    8       -5.599999   1.000000
    9       -4.134232   1.000000
   10       -1.588167   0.000000
   11       -0.927055   0.000000
   12       -0.061333   0.000000
   13        0.442966   0.000000
   14        2.659877   0.000000
 
  0.1875000E+00  0.1875000E+00  0.0000000E+00  0.2343750E-01
    1      -16.577910   1.000000
    2      -16.004272   1.000000
    3       -8.701829   1.000000
    4       -7.707417   1.000000
    5       -7.496581   1.000000
    6       -7.008758   1.000000
    7       -5.843771   1.000000
    8       -4.905941   1.000000
    9       -4.548921   1.000000
   10       -1.805968   0.000000
   11       -1.287304   0.000000
   12       -0.984351   0.000000
   13        0.506625   0.000000
   14        3.583336   0.000000
 
  0.2500000E+00  0.1875000E+00  0.0000000E+00  0.4687500E-01
    1      -16.277018   1.000000
    2      -15.860761   1.000000
    3       -8.833891   1.000000
    4       -8.209271   1.000000
    5       -7.418124   1.000000
    6       -7.024449   1.000000
    7       -6.136329   1.000000
    8       -5.149715   1.000000
    9       -4.446630   1.000000
   10       -1.635794   0.000000
   11       -1.235514   0.000000
   12       -0.763415   0.000000
   13        0.645962   0.000000
   14        3.934688   0.000000
 
  0.3125000E+00  0.1875000E+00  0.0000000E+00  0.4687500E-01
    1      -16.027853   1.000000
    2      -15.741964   1.000000
    3       -8.935693   1.000000
    4       -8.601465   1.000000
    5       -7.498745   1.000000
    6       -6.945060   1.000000
    7       -6.293222   1.000000
    8       -5.428551   1.000000
    9       -4.248797   1.000000
   10       -1.594911   0.000000
   11       -1.019075   0.000000
   12       -0.550025   0.000000
   13        0.698424   0.000000
   14        3.444777   0.000000
 
  0.3750000E+00  0.1875000E+00  0.0000000E+00  0.4687500E-01
    1      -15.884843   1.000000
    2      -15.673863   1.000000
    3       -8.979497   1.000000
    4       -8.813360   1.000000
    5       -7.638437   1.000000
    6       -6.857622   1.000000
    7       -6.321629   1.000000
    8       -5.625691   1.000000
    9       -4.059780   1.000000
   10       -1.708292   0.000000
   11       -0.745285   0.000000
   12       -0.421984   0.000000
   13        0.704292   0.000000
   14        2.971233   0.000000
 
  0.2500000E+00  0.2500000E+00  0.0000000E+00  0.2343750E-01
    1      -16.032214   1.000000
    2      -15.739325   1.000000
    3       -8.820201   1.000000
    4       -8.615732   1.000000
    5       -7.342227   1.000000
    6       -6.961353   1.000000
    7       -6.642197   1.000000
    8       -5.385273   1.000000
    9       -4.262145   1.000000
   10       -1.613802   0.000000
   11       -1.002861   0.000000
   12       -0.691066   0.000000
   13        0.784314   0.000000
   14        3.775033   0.000000
 
  0.3125000E+00  0.2500000E+00  0.0000000E+00  0.4687500E-01
    1      -15.859729   1.000000
    2      -15.652104   1.000000
    3       -8.899380   1.000000
    4       -8.725905   1.000000
    5       -7.473287   1.000000
    6       -6.923034   1.000000
    7       -6.818513   1.000000
    8       -5.644794   1.000000
    9       -4.023099   1.000000
   10       -1.813330   0.000000
   11       -0.645725   0.000000
   12       -0.630177   0.000000
   13        0.888811   0.000000
   14        3.391349   0.000000
 
  0.3750000E+00  0.2500000E+00  0.0000000E+00  0.2343750E-01
    1      -15.797310   1.000000
    2      -15.620153   1.000000
    3       -9.000146   1.000000
    4       -8.651232   1.000000
    5       -7.626474   1.000000
    6       -6.963895   1.000000
    7       -6.733732   1.000000
    8       -5.771540   1.000000
    9       -3.894726   1.000000
   10       -1.939456   0.000000
   11       -0.632688   0.000000
   12       -0.452245   0.000000
   13        0.929604   0.000000
   14        3.185770   0.000000
 
  0.3125000E+00  0.3125000E+00  0.0000000E+00  0.2343750E-01
    1      -15.766836   1.000000
    2      -15.600466   1.000000
    3       -9.068859   1.000000
    4       -8.413902   1.000000
    5       -7.664168   1.000000
    6       -7.271169   1.000000
    7       -6.662636   1.000000
    8       -5.848653   1.000000
    9       -3.815166   1.000000
   10       -2.055025   0.000000
   11       -0.713735   0.000000
   12       -0.335215   0.000000
   13        1.023965   0.000000
   14        3.431862   0.000000
