Automatically generated mesh
      30
Reciprocal lattice
    0.00000000000000    0.00000000000000    0.00000000000000             1
    0.06250000000000   -0.00000000000000    0.00000000000000             6
    0.12500000000000   -0.00000000000000    0.00000000000000             6
    0.18750000000000   -0.00000000000000    0.00000000000000             6
    0.25000000000000   -0.00000000000000    0.00000000000000             6
    0.31250000000000   -0.00000000000000    0.00000000000000             6
    0.37500000000000   -0.00000000000000    0.00000000000000             6
    0.43750000000000   -0.00000000000000    0.00000000000000             6
    0.50000000000000   -0.00000000000000    0.00000000000000             3
    0.06250000000000    0.06250000000000    0.00000000000000             6
    0.12500000000000    0.06250000000000    0.00000000000000            12
    0.18750000000000    0.06250000000000    0.00000000000000            12
    0.25000000000000    0.06250000000000    0.00000000000000            12
    0.31250000000000    0.06250000000000    0.00000000000000            12
    0.37500000000000    0.06250000000000    0.00000000000000            12
    0.43750000000000    0.06250000000000    0.00000000000000            12
    0.12500000000000    0.12500000000000    0.00000000000000             6
    0.18750000000000    0.12500000000000    0.00000000000000            12
    0.25000000000000    0.12500000000000    0.00000000000000            12
    0.31250000000000    0.12500000000000    0.00000000000000            12
    0.37500000000000    0.12500000000000    0.00000000000000            12
    0.43750000000000    0.12500000000000    0.00000000000000             6
    0.18750000000000    0.18750000000000    0.00000000000000             6
    0.25000000000000    0.18750000000000    0.00000000000000            12
    0.31250000000000    0.18750000000000    0.00000000000000            12
    0.37500000000000    0.18750000000000    0.00000000000000            12
    0.25000000000000    0.25000000000000    0.00000000000000             6
    0.31250000000000    0.25000000000000    0.00000000000000            12
    0.37500000000000    0.25000000000000    0.00000000000000             6
    0.31250000000000    0.31250000000000    0.00000000000000             6
Tetrahedra
       136    0.00065104166667
        12         2         2         2        10
        12         1         2         2         2
         6         1         1         2         2
         6         2         2        10        10
        12         3        10        10        11
        12         2         3        10        10
        12         2         2         3        10
        12         3        10        11        11
        12         3         3        10        11
        12         2         3         3        10
        12         4        11        11        12
        12         3         4        11        11
        12         3         3         4        11
        12         4        11        12        12
        12         4         4        11        12
        12         3         4         4        11
        12         5        12        12        13
        12         4         5        12        12
        12         4         4         5        12
        12         5        12        13        13
        12         5         5        12        13
        12         4         5         5        12
        12         6        13        13        14
        12         5         6        13        13
        12         5         5         6        13
        12         6        13        14        14
        12         6         6        13        14
        12         5         6         6        13
        12         7        14        14        15
        12         6         7        14        14
        12         6         6         7        14
        12         7        14        15        15
        12         7         7        14        15
        12         6         7         7        14
        12         8        15        15        16
        12         7         8        15        15
        12         7         7         8        15
        12         8        15        16        16
        12         8         8        15        16
        12         7         8         8        15
        12         9        16        16        16
        12         8         9        16        16
        12         8         8         9        16
         6         9         9        16        16
        12         8         9         9        16
        12        11        11        11        17
        12        10        11        11        11
         6        10        10        11        11
         6        11        11        17        17
        12        12        17        17        18
        12        11        12        17        17
        12        11        11        12        17
        12        12        17        18        18
        12        12        12        17        18
        12        11        12        12        17
        12        13        18        18        19
        12        12        13        18        18
        12        12        12        13        18
        12        13        18        19        19
        12        13        13        18        19
        12        12        13        13        18
        12        14        19        19        20
        12        13        14        19        19
        12        13        13        14        19
        12        14        19        20        20
        12        14        14        19        20
        12        13        14        14        19
        12        15        20        20        21
        12        14        15        20        20
        12        14        14        15        20
        12        15        20        21        21
        12        15        15        20        21
        12        14        15        15        20
        12        16        21        21        22
        12        15        16        21        21
        12        15        15        16        21
        12        16        21        22        22
        12        16        16        21        22
        12        15        16        16        21
         6        16        16        22        22
        12        16        16        16        22
        12        18        18        18        23
        12        17        18        18        18
         6        17        17        18        18
         6        18        18        23        23
        12        19        23        23        24
        12        18        19        23        23
        12        18        18        19        23
        12        19        23        24        24
        12        19        19        23        24
        12        18        19        19        23
        12        20        24        24        25
        12        19        20        24        24
        12        19        19        20        24
        12        20        24        25        25
        12        20        20        24        25
        12        19        20        20        24
        12        21        25        25        26
        12        20        21        25        25
        12        20        20        21        25
        12        21        25        26        26
        12        21        21        25        26
        12        20        21        21        25
        12        22        26        26        26
        12        21        22        26        26
        12        21        21        22        26
         6        22        22        26        26
        12        21        22        22        26
        12        24        24        24        27
        12        23        24        24        24
         6        23        23        24        24
         6        24        24        27        27
        12        25        27        27        28
        12        24        25        27        27
        12        24        24        25        27
        12        25        27        28        28
        12        25        25        27        28
        12        24        25        25        27
        12        26        28        28        29
        12        25        26        28        28
        12        25        25        26        28
        12        26        28        29        29
        12        26        26        28        29
        12        25        26        26        28
         6        26        26        29        29
        12        26        26        26        29
        12        28        28        28        30
        12        27        28        28        28
         6        27        27        28        28
         6        28        28        30        30
        12        29        30        30        30
        12        28        29        30        30
        12        28        28        29        30
         6        29        29        30        30
        12        28        29        29        30
         6        30        30        30        30
