       N       E                     dE             d eps       ncg     rms          rms(c)
DAV:   1     0.136316979157E+03    0.13632E+03   -0.52687E+03   840   0.799E+02
DAV:   2    -0.594213013706E+01   -0.14226E+03   -0.13376E+03  1454   0.163E+02
DAV:   3    -0.230484020899E+02   -0.17106E+02   -0.16934E+02  1158   0.735E+01
DAV:   4    -0.233985843127E+02   -0.35018E+00   -0.34816E+00  1098   0.132E+01
DAV:   5    -0.234076147378E+02   -0.90304E-02   -0.90274E-02  1126   0.205E+00    0.689E+00
RMM:   6    -0.222464551984E+02    0.11612E+01   -0.54357E+00   886   0.124E+01    0.262E+00
RMM:   7    -0.218623523338E+02    0.38410E+00   -0.55870E-01   873   0.342E+00    0.151E+00
RMM:   8    -0.218020586111E+02    0.60294E-01   -0.23308E-01   928   0.251E+00    0.354E-01
RMM:   9    -0.217971794043E+02    0.48792E-02   -0.87414E-03  1005   0.605E-01    0.958E-02
RMM:  10    -0.217964253744E+02    0.75403E-03   -0.16904E-03   999   0.219E-01    0.442E-02
RMM:  11    -0.217963589465E+02    0.66428E-04   -0.16175E-03   946   0.188E-01    0.533E-02
RMM:  12    -0.217961936975E+02    0.16525E-03   -0.51686E-04   914   0.128E-01    0.173E-02
RMM:  13    -0.217965331013E+02   -0.33940E-03   -0.16678E-04   855   0.722E-02    0.201E-02
RMM:  14    -0.217965903922E+02   -0.57291E-04   -0.26149E-05   767   0.283E-02    0.487E-03
RMM:  15    -0.217967162220E+02   -0.12583E-03   -0.11161E-05   593   0.171E-02    0.264E-03
RMM:  16    -0.217967570417E+02   -0.40820E-04   -0.27080E-06   521   0.844E-03    0.151E-03
RMM:  17    -0.217967889693E+02   -0.31928E-04   -0.23824E-06   445   0.698E-03    0.115E-03
RMM:  18    -0.217967933603E+02   -0.43910E-05   -0.40758E-07   249   0.419E-03
   1 F= -.22387592E+02 E0= -.22387592E+02  d E =0.000000E+00
