perl: warning: Setting locale failed.
perl: warning: Please check that your locale settings:
	LANGUAGE = (unset),
	LC_ALL = (unset),
	LC_CTYPE = "UTF-8",
	LANG = "en_US.iso885915"
    are supported and installed on your system.
perl: warning: Falling back to the standard locale ("C").
Starting job 28531329 ("jobname") on c15-19 at Fri Nov 8 09:51:15 CET 2019
 running on    4 total cores
 distrk:  each k-point on    4 cores,    1 groups
 distr:  one band on    2 cores,    2 groups
 using from now: INCAR     
 vasp.5.4.4.18Apr17-6-g9f103f2a35 (build Jun 30 2017 11:15:00) complex          
  
 POSCAR found type information on POSCAR  Mo S 
 POSCAR found :  2 types and       6 ions
 scaLAPACK will be used
 LDA part: xc-table for Pade appr. of Perdew
 POSCAR, INCAR and KPOINTS ok, starting setup
 FFT: planning ...
 WAVECAR not read
 entering main loop
       N       E                     dE             d eps       ncg     rms          rms(c)
DAV:   1     0.286716406479E+03    0.28672E+03   -0.16101E+04  1320   0.157E+03
DAV:   2    -0.162573730944E+02   -0.30297E+03   -0.29775E+03  1988   0.278E+02
DAV:   3    -0.457183884341E+02   -0.29461E+02   -0.29293E+02  1606   0.944E+01
DAV:   4    -0.467939358697E+02   -0.10755E+01   -0.10735E+01  1914   0.192E+01
DAV:   5    -0.468213819092E+02   -0.27446E-01   -0.27435E-01  1740   0.313E+00    0.973E+00
RMM:   6    -0.444191163467E+02    0.24023E+01   -0.24021E+01  1479   0.197E+01    0.333E+00
RMM:   7    -0.436933897842E+02    0.72573E+00   -0.20507E+00  1472   0.578E+00    0.177E+00
RMM:   8    -0.436295369296E+02    0.63853E-01   -0.80358E-01  1555   0.330E+00    0.793E-01
RMM:   9    -0.436171076311E+02    0.12429E-01   -0.25249E-01  1629   0.213E+00    0.498E-01
RMM:  10    -0.436040681886E+02    0.13039E-01   -0.35585E-02  1616   0.909E-01    0.572E-02
RMM:  11    -0.436043726102E+02   -0.30442E-03   -0.66143E-03  1835   0.254E-01    0.514E-02
RMM:  12    -0.436043447729E+02    0.27837E-04   -0.17934E-03  1658   0.191E-01    0.430E-02
RMM:  13    -0.436042883872E+02    0.56386E-04   -0.38179E-04  1651   0.857E-02    0.944E-03
RMM:  14    -0.436043717196E+02   -0.83332E-04   -0.12442E-04  1477   0.427E-02    0.123E-02
RMM:  15    -0.436044209290E+02   -0.49209E-04   -0.13101E-04  1482   0.523E-02    0.138E-02
RMM:  16    -0.436044408070E+02   -0.19878E-04   -0.43527E-05  1170   0.324E-02    0.239E-03
RMM:  17    -0.436044902401E+02   -0.49433E-04   -0.10328E-05  1010   0.156E-02    0.379E-03
RMM:  18    -0.436045281524E+02   -0.37912E-04   -0.47446E-06   979   0.111E-02    0.130E-03
RMM:  19    -0.436045456475E+02   -0.17495E-04   -0.26245E-06   662   0.603E-03    0.913E-04
RMM:  20    -0.436045503138E+02   -0.46663E-05   -0.12416E-06   548   0.505E-03
 Error reading item 'IVDW' from file INCAR
   1 F= -.43604550E+02 E0= -.43604550E+02  d E =0.000000E+00

Currently Loaded Modulefiles:
  1) Anaconda3/5.1.0       3) vesta/3.3.8           5) intel/2016.1
  2) gnuplot/5.0.4         4) imagemagick/6.7.9-0   6) vasp/5.4.1.Feb16

Job script resource usage:
       JobID  MaxVMSize     MaxRSS 
------------ ---------- ---------- 
28531329.ba+    499280K      6186K 

Job step resource usage:
       JobID    JobName  AllocCPUS  MaxVMSize     MaxRSS    Elapsed ExitCode 
------------ ---------- ---------- ---------- ---------- ---------- -------- 
28531329        jobname          4                         00:00:52      0:0 
28531329.0    pmi_proxy          1   1536280K    336361K   00:00:50      0:0 

Job 28531329 ("jobname") completed on c15-19 at Fri Nov 8 09:52:05 CET 2019
