perl: warning: Setting locale failed.
perl: warning: Please check that your locale settings:
	LANGUAGE = (unset),
	LC_ALL = (unset),
	LC_CTYPE = "UTF-8",
	LANG = "en_US.iso885915"
    are supported and installed on your system.
perl: warning: Falling back to the standard locale ("C").
Starting job 28532157 ("jobname") on c14-26 at Fri Nov 8 11:20:37 CET 2019
 running on    4 total cores
 distrk:  each k-point on    4 cores,    1 groups
 distr:  one band on    2 cores,    2 groups
 using from now: INCAR     
 vasp.5.4.4.18Apr17-6-g9f103f2a35 (build Jun 30 2017 11:15:00) complex          
  
 POSCAR found type information on POSCAR  Mo S 
 POSCAR found :  2 types and       3 ions
 scaLAPACK will be used
 LDA part: xc-table for Pade appr. of Perdew
 POSCAR, INCAR and KPOINTS ok, starting setup
 FFT: planning ...
 WAVECAR not read
 WARNING: random wavefunctions but no delay for mixing, default for NELMDL
 entering main loop
       N       E                     dE             d eps       ncg     rms          rms(c)
DAV:   1     0.152121816182E+03    0.15212E+03   -0.63121E+03   840   0.107E+03
DAV:   2    -0.409970891192E+01   -0.15622E+03   -0.14677E+03  1506   0.176E+02
DAV:   3    -0.229808958053E+02   -0.18881E+02   -0.18675E+02  1160   0.788E+01
DAV:   4    -0.233988111624E+02   -0.41792E+00   -0.41560E+00  1070   0.145E+01
DAV:   5    -0.234097152647E+02   -0.10904E-01   -0.10901E-01  1114   0.230E+00    0.689E+00
RMM:   6    -0.222486689984E+02    0.11610E+01   -0.54345E+00   887   0.125E+01    0.261E+00
RMM:   7    -0.218647956041E+02    0.38387E+00   -0.55594E-01   874   0.342E+00    0.150E+00
RMM:   8    -0.218045324533E+02    0.60263E-01   -0.23232E-01   929   0.253E+00    0.354E-01
RMM:   9    -0.217996479340E+02    0.48845E-02   -0.87937E-03  1005   0.610E-01    0.958E-02
RMM:  10    -0.217988899680E+02    0.75797E-03   -0.16919E-03  1002   0.221E-01    0.444E-02
RMM:  11    -0.217988216043E+02    0.68364E-04   -0.16310E-03   948   0.190E-01    0.539E-02
RMM:  12    -0.217986566644E+02    0.16494E-03   -0.52099E-04   914   0.129E-01    0.174E-02
RMM:  13    -0.217989944598E+02   -0.33780E-03   -0.16644E-04   861   0.733E-02    0.202E-02
RMM:  14    -0.217990482840E+02   -0.53824E-04   -0.26241E-05   769   0.283E-02    0.487E-03
RMM:  15    -0.217991749887E+02   -0.12670E-03   -0.11013E-05   592   0.174E-02    0.260E-03
RMM:  16    -0.217992152331E+02   -0.40244E-04   -0.26779E-06   527   0.834E-03    0.151E-03
RMM:  17    -0.217992463542E+02   -0.31121E-04   -0.24733E-06   451   0.701E-03    0.113E-03
RMM:  18    -0.217992510095E+02   -0.46553E-05   -0.42398E-07   260   0.414E-03
 Error reading item 'IVDW' from file INCAR
   1 F= -.21799251E+02 E0= -.21799251E+02  d E =0.000000E+00

Currently Loaded Modulefiles:
  1) Anaconda3/5.1.0       3) vesta/3.3.8           5) intel/2016.1
  2) gnuplot/5.0.4         4) imagemagick/6.7.9-0   6) vasp/5.4.1.Feb16

Job script resource usage:
       JobID  MaxVMSize     MaxRSS 
------------ ---------- ---------- 
28532157.ba+    499280K      5170K 

Job step resource usage:
       JobID    JobName  AllocCPUS  MaxVMSize     MaxRSS    Elapsed ExitCode 
------------ ---------- ---------- ---------- ---------- ---------- -------- 
28532157        jobname          4                         00:00:43      0:0 
28532157.0    pmi_proxy          1   1576900K    362328K   00:00:42      0:0 

Job 28532157 ("jobname") completed on c14-26 at Fri Nov 8 11:21:19 CET 2019
