<?xml version="1.0" encoding="ISO-8859-1"?>
<modeling>
 <generator>
  <i name="program" type="string">vasp </i>
  <i name="version" type="string">5.4.4.18Apr17-6-g9f103f2a35  </i>
  <i name="subversion" type="string">(build Jun 30 2017 11:15:00) complex            parallel </i>
  <i name="platform" type="string">STALLO_VASP_5.4.4 </i>
  <i name="date" type="string">2019 11 08 </i>
  <i name="time" type="string">12:22:18 </i>
 </generator>
 <incar>
  <i type="string" name="PREC">normal    ! low/normal/accurate</i>
  <i type="string" name="ALGO"> Fast      ! Algorithm for electronic re</i>
  <i type="int" name="ISPIN">     1</i>
  <i type="int" name="NELMIN">     4</i>
  <i name="EDIFF">      0.00001000</i>
  <i type="int" name="NSW">     0</i>
  <i name="ENCUT">    450.00000000</i>
  <i type="logical" name="LREAL"> F  </i>
  <i type="int" name="ISMEAR">    -5</i>
  <i name="SIGMA">      0.20000000</i>
  <i type="logical" name="LWAVE"> F  </i>
  <v type="int" name="KPOINT_BSE">    -1     0     0     0</v>
 </incar>
 <structure name="primitive_cell" >
  <crystal>
   <varray name="basis" >
    <v>       3.19031573       0.00000000       0.00000000 </v>
    <v>      -1.59515786       2.76289447       0.00000000 </v>
    <v>       0.00000000       0.00000000      30.87900430 </v>
   </varray>
   <i name="volume">    272.18315887 </i>
   <varray name="rec_basis" >
    <v>       0.31344860       0.18096963       0.00000000 </v>
    <v>       0.00000000       0.36193927       0.00000000 </v>
    <v>       0.00000000       0.00000000       0.03238446 </v>
   </varray>
  </crystal>
  <varray name="positions" >
   <v>       0.33333300      -0.33333300       0.12046214 </v>
   <v>      -0.33333400       0.33333300       0.17114009 </v>
   <v>      -0.33333300       0.33333300       0.06978420 </v>
  </varray>
 </structure>
 <varray name="primitive_index" >
  <v type="int" >        1 </v>
  <v type="int" >        3 </v>
  <v type="int" >        2 </v>
 </varray>
 <kpoints>
  <generation param="Gamma">
   <v type="int" name="divisions">      16       16        1 </v>
   <v name="usershift">      0.00000000       0.00000000       0.00000000 </v>
   <v name="genvec1">      0.06250000       0.00000000       0.00000000 </v>
   <v name="genvec2">      0.00000000       0.06250000       0.00000000 </v>
   <v name="genvec3">      0.00000000       0.00000000       1.00000000 </v>
   <v name="shift">      0.00000000       0.00000000       0.00000000 </v>
  </generation>
  <varray name="kpointlist" >
   <v>       0.00000000       0.00000000       0.00000000 </v>
   <v>       0.06250000      -0.00000000       0.00000000 </v>
   <v>       0.12500000      -0.00000000       0.00000000 </v>
   <v>       0.18750000      -0.00000000       0.00000000 </v>
   <v>       0.25000000      -0.00000000       0.00000000 </v>
   <v>       0.31250000      -0.00000000       0.00000000 </v>
   <v>       0.37500000      -0.00000000       0.00000000 </v>
   <v>       0.43750000      -0.00000000       0.00000000 </v>
   <v>       0.50000000      -0.00000000       0.00000000 </v>
   <v>       0.06250000       0.06250000       0.00000000 </v>
   <v>       0.12500000       0.06250000       0.00000000 </v>
   <v>       0.18750000       0.06250000       0.00000000 </v>
   <v>       0.25000000       0.06250000       0.00000000 </v>
   <v>       0.31250000       0.06250000       0.00000000 </v>
   <v>       0.37500000       0.06250000       0.00000000 </v>
   <v>       0.43750000       0.06250000       0.00000000 </v>
   <v>       0.12500000       0.12500000       0.00000000 </v>
   <v>       0.18750000       0.12500000       0.00000000 </v>
   <v>       0.25000000       0.12500000       0.00000000 </v>
   <v>       0.31250000       0.12500000       0.00000000 </v>
   <v>       0.37500000       0.12500000       0.00000000 </v>
   <v>       0.43750000       0.12500000       0.00000000 </v>
   <v>       0.18750000       0.18750000       0.00000000 </v>
   <v>       0.25000000       0.18750000       0.00000000 </v>
   <v>       0.31250000       0.18750000       0.00000000 </v>
   <v>       0.37500000       0.18750000       0.00000000 </v>
   <v>       0.25000000       0.25000000       0.00000000 </v>
   <v>       0.31250000       0.25000000       0.00000000 </v>
   <v>       0.37500000       0.25000000       0.00000000 </v>
   <v>       0.31250000       0.31250000       0.00000000 </v>
  </varray>
  <varray name="weights" >
   <v>       0.00390625 </v>
   <v>       0.02343750 </v>
   <v>       0.02343750 </v>
   <v>       0.02343750 </v>
   <v>       0.02343750 </v>
   <v>       0.02343750 </v>
   <v>       0.02343750 </v>
   <v>       0.02343750 </v>
   <v>       0.01171875 </v>
   <v>       0.02343750 </v>
   <v>       0.04687500 </v>
   <v>       0.04687500 </v>
   <v>       0.04687500 </v>
   <v>       0.04687500 </v>
   <v>       0.04687500 </v>
   <v>       0.04687500 </v>
   <v>       0.02343750 </v>
   <v>       0.04687500 </v>
   <v>       0.04687500 </v>
   <v>       0.04687500 </v>
   <v>       0.04687500 </v>
   <v>       0.02343750 </v>
   <v>       0.02343750 </v>
   <v>       0.04687500 </v>
   <v>       0.04687500 </v>
   <v>       0.04687500 </v>
   <v>       0.02343750 </v>
   <v>       0.04687500 </v>
   <v>       0.02343750 </v>
   <v>       0.02343750 </v>
  </varray>
  <varray name="tetrahedronlist"  type="int" >
   <v type="int" >       12        2        2        2       10 </v>
   <v type="int" >       12        1        2        2        2 </v>
   <v type="int" >        6        1        1        2        2 </v>
   <v type="int" >        6        2        2       10       10 </v>
   <v type="int" >       12        3       10       10       11 </v>
   <v type="int" >       12        2        3       10       10 </v>
   <v type="int" >       12        2        2        3       10 </v>
   <v type="int" >       12        3       10       11       11 </v>
   <v type="int" >       12        3        3       10       11 </v>
   <v type="int" >       12        2        3        3       10 </v>
   <v type="int" >       12        4       11       11       12 </v>
   <v type="int" >       12        3        4       11       11 </v>
   <v type="int" >       12        3        3        4       11 </v>
   <v type="int" >       12        4       11       12       12 </v>
   <v type="int" >       12        4        4       11       12 </v>
   <v type="int" >       12        3        4        4       11 </v>
   <v type="int" >       12        5       12       12       13 </v>
   <v type="int" >       12        4        5       12       12 </v>
   <v type="int" >       12        4        4        5       12 </v>
   <v type="int" >       12        5       12       13       13 </v>
   <v type="int" >       12        5        5       12       13 </v>
   <v type="int" >       12        4        5        5       12 </v>
   <v type="int" >       12        6       13       13       14 </v>
   <v type="int" >       12        5        6       13       13 </v>
   <v type="int" >       12        5        5        6       13 </v>
   <v type="int" >       12        6       13       14       14 </v>
   <v type="int" >       12        6        6       13       14 </v>
   <v type="int" >       12        5        6        6       13 </v>
   <v type="int" >       12        7       14       14       15 </v>
   <v type="int" >       12        6        7       14       14 </v>
   <v type="int" >       12        6        6        7       14 </v>
   <v type="int" >       12        7       14       15       15 </v>
   <v type="int" >       12        7        7       14       15 </v>
   <v type="int" >       12        6        7        7       14 </v>
   <v type="int" >       12        8       15       15       16 </v>
   <v type="int" >       12        7        8       15       15 </v>
   <v type="int" >       12        7        7        8       15 </v>
   <v type="int" >       12        8       15       16       16 </v>
   <v type="int" >       12        8        8       15       16 </v>
   <v type="int" >       12        7        8        8       15 </v>
   <v type="int" >       12        9       16       16       16 </v>
   <v type="int" >       12        8        9       16       16 </v>
   <v type="int" >       12        8        8        9       16 </v>
   <v type="int" >        6        9        9       16       16 </v>
   <v type="int" >       12        8        9        9       16 </v>
   <v type="int" >       12       11       11       11       17 </v>
   <v type="int" >       12       10       11       11       11 </v>
   <v type="int" >        6       10       10       11       11 </v>
   <v type="int" >        6       11       11       17       17 </v>
   <v type="int" >       12       12       17       17       18 </v>
   <v type="int" >       12       11       12       17       17 </v>
   <v type="int" >       12       11       11       12       17 </v>
   <v type="int" >       12       12       17       18       18 </v>
   <v type="int" >       12       12       12       17       18 </v>
   <v type="int" >       12       11       12       12       17 </v>
   <v type="int" >       12       13       18       18       19 </v>
   <v type="int" >       12       12       13       18       18 </v>
   <v type="int" >       12       12       12       13       18 </v>
   <v type="int" >       12       13       18       19       19 </v>
   <v type="int" >       12       13       13       18       19 </v>
   <v type="int" >       12       12       13       13       18 </v>
   <v type="int" >       12       14       19       19       20 </v>
   <v type="int" >       12       13       14       19       19 </v>
   <v type="int" >       12       13       13       14       19 </v>
   <v type="int" >       12       14       19       20       20 </v>
   <v type="int" >       12       14       14       19       20 </v>
   <v type="int" >       12       13       14       14       19 </v>
   <v type="int" >       12       15       20       20       21 </v>
   <v type="int" >       12       14       15       20       20 </v>
   <v type="int" >       12       14       14       15       20 </v>
   <v type="int" >       12       15       20       21       21 </v>
   <v type="int" >       12       15       15       20       21 </v>
   <v type="int" >       12       14       15       15       20 </v>
   <v type="int" >       12       16       21       21       22 </v>
   <v type="int" >       12       15       16       21       21 </v>
   <v type="int" >       12       15       15       16       21 </v>
   <v type="int" >       12       16       21       22       22 </v>
   <v type="int" >       12       16       16       21       22 </v>
   <v type="int" >       12       15       16       16       21 </v>
   <v type="int" >        6       16       16       22       22 </v>
   <v type="int" >       12       16       16       16       22 </v>
   <v type="int" >       12       18       18       18       23 </v>
   <v type="int" >       12       17       18       18       18 </v>
   <v type="int" >        6       17       17       18       18 </v>
   <v type="int" >        6       18       18       23       23 </v>
   <v type="int" >       12       19       23       23       24 </v>
   <v type="int" >       12       18       19       23       23 </v>
   <v type="int" >       12       18       18       19       23 </v>
   <v type="int" >       12       19       23       24       24 </v>
   <v type="int" >       12       19       19       23       24 </v>
   <v type="int" >       12       18       19       19       23 </v>
   <v type="int" >       12       20       24       24       25 </v>
   <v type="int" >       12       19       20       24       24 </v>
   <v type="int" >       12       19       19       20       24 </v>
   <v type="int" >       12       20       24       25       25 </v>
   <v type="int" >       12       20       20       24       25 </v>
   <v type="int" >       12       19       20       20       24 </v>
   <v type="int" >       12       21       25       25       26 </v>
   <v type="int" >       12       20       21       25       25 </v>
   <v type="int" >       12       20       20       21       25 </v>
   <v type="int" >       12       21       25       26       26 </v>
   <v type="int" >       12       21       21       25       26 </v>
   <v type="int" >       12       20       21       21       25 </v>
   <v type="int" >       12       22       26       26       26 </v>
   <v type="int" >       12       21       22       26       26 </v>
   <v type="int" >       12       21       21       22       26 </v>
   <v type="int" >        6       22       22       26       26 </v>
   <v type="int" >       12       21       22       22       26 </v>
   <v type="int" >       12       24       24       24       27 </v>
   <v type="int" >       12       23       24       24       24 </v>
   <v type="int" >        6       23       23       24       24 </v>
   <v type="int" >        6       24       24       27       27 </v>
   <v type="int" >       12       25       27       27       28 </v>
   <v type="int" >       12       24       25       27       27 </v>
   <v type="int" >       12       24       24       25       27 </v>
   <v type="int" >       12       25       27       28       28 </v>
   <v type="int" >       12       25       25       27       28 </v>
   <v type="int" >       12       24       25       25       27 </v>
   <v type="int" >       12       26       28       28       29 </v>
   <v type="int" >       12       25       26       28       28 </v>
   <v type="int" >       12       25       25       26       28 </v>
   <v type="int" >       12       26       28       29       29 </v>
   <v type="int" >       12       26       26       28       29 </v>
   <v type="int" >       12       25       26       26       28 </v>
   <v type="int" >        6       26       26       29       29 </v>
   <v type="int" >       12       26       26       26       29 </v>
   <v type="int" >       12       28       28       28       30 </v>
   <v type="int" >       12       27       28       28       28 </v>
   <v type="int" >        6       27       27       28       28 </v>
   <v type="int" >        6       28       28       30       30 </v>
   <v type="int" >       12       29       30       30       30 </v>
   <v type="int" >       12       28       29       30       30 </v>
   <v type="int" >       12       28       28       29       30 </v>
   <v type="int" >        6       29       29       30       30 </v>
   <v type="int" >       12       28       29       29       30 </v>
   <v type="int" >        6       30       30       30       30 </v>
  </varray>
  <i name="volumeweight">      0.00065104 </i>
 </kpoints>
 <parameters>
  <separator name="general" >
   <i type="string" name="SYSTEM">unknown system</i>
   <i type="logical" name="LCOMPAT"> F  </i>
  </separator>
  <separator name="electronic" >
   <i type="string" name="PREC">normal</i>
   <i name="ENMAX">    450.00000000</i>
   <i name="ENAUG">    345.27800000</i>
   <i name="EDIFF">      0.00001000</i>
   <i type="int" name="IALGO">    68</i>
   <i type="int" name="IWAVPR">    10</i>
   <i type="int" name="NBANDS">    14</i>
   <i name="NELECT">     18.00000000</i>
   <i type="int" name="TURBO">     0</i>
   <i type="int" name="IRESTART">     0</i>
   <i type="int" name="NREBOOT">     0</i>
   <i type="int" name="NMIN">     0</i>
   <i name="EREF">      0.00000000</i>
   <separator name="electronic smearing" >
    <i type="int" name="ISMEAR">    -5</i>
    <i name="SIGMA">      0.20000000</i>
    <i name="KSPACING">      0.50000000</i>
    <i type="logical" name="KGAMMA"> T  </i>
   </separator>
   <separator name="electronic projectors" >
    <i type="logical" name="LREAL"> F  </i>
    <v name="ROPT">      0.00000000      0.00000000</v>
    <i type="int" name="LMAXPAW">  -100</i>
    <i type="int" name="LMAXMIX">     2</i>
    <i type="logical" name="NLSPLINE"> F  </i>
   </separator>
   <separator name="electronic startup" >
    <i type="int" name="ISTART">     0</i>
    <i type="int" name="ICHARG">     2</i>
    <i type="int" name="INIWAV">     1</i>
   </separator>
   <separator name="electronic spin" >
    <i type="int" name="ISPIN">     1</i>
    <i type="logical" name="LNONCOLLINEAR"> F  </i>
    <v name="MAGMOM">      1.00000000      1.00000000      1.00000000</v>
    <i name="NUPDOWN">     -1.00000000</i>
    <i type="logical" name="LSORBIT"> F  </i>
    <v name="SAXIS">      0.00000000      0.00000000      1.00000000</v>
    <i type="logical" name="LSPIRAL"> F  </i>
    <v name="QSPIRAL">      0.00000000      0.00000000      0.00000000</v>
    <i type="logical" name="LZEROZ"> F  </i>
   </separator>
   <separator name="electronic exchange-correlation" >
    <i type="logical" name="LASPH"> F  </i>
    <i type="logical" name="LMETAGGA"> F  </i>
   </separator>
   <separator name="electronic convergence" >
    <i type="int" name="NELM">    60</i>
    <i type="int" name="NELMDL">     0</i>
    <i type="int" name="NELMIN">     4</i>
    <i name="ENINI">    450.00000000</i>
    <separator name="electronic convergence detail" >
     <i type="logical" name="LDIAG"> T  </i>
     <i type="logical" name="LSUBROT"> F  </i>
     <i name="WEIMIN">      0.00000000</i>
     <i name="EBREAK">      0.00000018</i>
     <i name="DEPER">      0.30000000</i>
     <i type="int" name="NRMM">     4</i>
     <i name="TIME">      0.40000000</i>
    </separator>
   </separator>
   <separator name="electronic mixer" >
    <i name="AMIX">      0.40000000</i>
    <i name="BMIX">      1.00000000</i>
    <i name="AMIN">      0.10000000</i>
    <i name="AMIX_MAG">      1.60000000</i>
    <i name="BMIX_MAG">      1.00000000</i>
    <separator name="electronic mixer details" >
     <i type="int" name="IMIX">     4</i>
     <i type="logical" name="MIXFIRST"> F  </i>
     <i type="int" name="MAXMIX">   -45</i>
     <i name="WC">    100.00000000</i>
     <i type="int" name="INIMIX">     1</i>
     <i type="int" name="MIXPRE">     1</i>
     <i type="int" name="MREMOVE">     5</i>
    </separator>
   </separator>
   <separator name="electronic dipolcorrection" >
    <i type="logical" name="LDIPOL"> F  </i>
    <i type="logical" name="LMONO"> F  </i>
    <i type="int" name="IDIPOL">     0</i>
    <i name="EPSILON">      1.00000000</i>
    <v name="DIPOL">   -100.00000000   -100.00000000   -100.00000000</v>
    <i name="EFIELD">      0.00000000</i>
   </separator>
  </separator>
  <separator name="grids" >
   <i type="int" name="NGX">    18</i>
   <i type="int" name="NGY">    18</i>
   <i type="int" name="NGZ">   160</i>
   <i type="int" name="NGXF">    36</i>
   <i type="int" name="NGYF">    36</i>
   <i type="int" name="NGZF">   320</i>
   <i type="logical" name="ADDGRID"> F  </i>
  </separator>
  <separator name="ionic" >
   <i type="int" name="NSW">     0</i>
   <i type="int" name="IBRION">    -1</i>
   <i type="int" name="MDALGO">     0</i>
   <i type="int" name="ISIF">     2</i>
   <i name="PSTRESS">      0.00000000</i>
   <i name="EDIFFG">      0.00010000</i>
   <i type="int" name="NFREE">     0</i>
   <i name="POTIM">      0.50000000</i>
   <i name="SMASS">     -3.00000000</i>
   <i name="SCALEE">      1.00000000</i>
  </separator>
  <separator name="ionic md" >
   <i name="TEBEG">      0.00010000</i>
   <i name="TEEND">      0.00010000</i>
   <i type="int" name="NBLOCK">     1</i>
   <i type="int" name="KBLOCK">     1</i>
   <i type="int" name="NPACO">   256</i>
   <i name="APACO">     16.00000000</i>
  </separator>
  <separator name="symmetry" >
   <i type="int" name="ISYM">     2</i>
   <i name="SYMPREC">      0.00001000</i>
  </separator>
  <separator name="dos" >
   <i type="int" name="LORBIT">     0</i>
   <v name="RWIGS">     -1.00000000     -1.00000000</v>
   <i type="int" name="NEDOS">   301</i>
   <i name="EMIN">     10.00000000</i>
   <i name="EMAX">    -10.00000000</i>
   <i name="EFERMI">      0.00000000</i>
  </separator>
  <separator name="writing" >
   <i type="int" name="NWRITE">     2</i>
   <i type="logical" name="LWAVE"> F  </i>
   <i type="logical" name="LDOWNSAMPLE"> F  </i>
   <i type="logical" name="LCHARG"> T  </i>
   <i type="logical" name="LPARD"> F  </i>
   <i type="logical" name="LVTOT"> F  </i>
   <i type="logical" name="LVHAR"> F  </i>
   <i type="logical" name="LELF"> F  </i>
   <i type="logical" name="LOPTICS"> F  </i>
   <v name="STM">      0.00000000      0.00000000      0.00000000      0.00000000      0.00000000      0.00000000      0.00000000</v>
  </separator>
  <separator name="performance" >
   <i type="int" name="NPAR">     2</i>
   <i type="int" name="NSIM">     4</i>
   <i type="int" name="NBLK">    -1</i>
   <i type="logical" name="LPLANE"> T  </i>
   <i type="logical" name="LSCALAPACK"> T  </i>
   <i type="logical" name="LSCAAWARE"> F  </i>
   <i type="logical" name="LSCALU"> F  </i>
   <i type="logical" name="LASYNC"> F  </i>
   <i type="logical" name="LORBITALREAL"> F  </i>
  </separator>
  <separator name="miscellaneous" >
   <i type="int" name="IDIOT">     3</i>
   <i type="int" name="ISPECIAL">     0</i>
   <i type="logical" name="LMUSIC"> F  </i>
   <v name="POMASS">     95.94000000     32.06600000</v>
   <v name="DARWINR">      0.00000000      0.00000000</v>
   <v name="DARWINV">      1.00000000      1.00000000</v>
   <i type="logical" name="LCORR"> T  </i>
  </separator>
  <i type="logical" name="GGA_COMPAT"> T  </i>
  <i type="logical" name="LBERRY"> F  </i>
  <i type="int" name="ICORELEVEL">     0</i>
  <i type="logical" name="LDAU"> F  </i>
  <i type="int" name="I_CONSTRAINED_M">     0</i>
  <separator name="electronic exchange-correlation" >
   <i type="string" name="GGA">--</i>
   <i type="int" name="VOSKOWN">     0</i>
   <i type="logical" name="LHFCALC"> F  </i>
   <i type="string" name="PRECFOCK"></i>
   <i type="logical" name="LSYMGRAD"> F  </i>
   <i type="logical" name="LHFONE"> F  </i>
   <i type="logical" name="LRHFCALC"> F  </i>
   <i type="logical" name="LTHOMAS"> F  </i>
   <i type="logical" name="LMODELHF"> F  </i>
   <i name="ENCUT4O">     -1.00000000</i>
   <i type="int" name="EXXOEP">     0</i>
   <i type="int" name="FOURORBIT">     0</i>
   <i name="AEXX">      0.00000000</i>
   <i name="HFALPHA">      0.00000000</i>
   <i name="MCALPHA">      0.00000000</i>
   <i name="ALDAX">      1.00000000</i>
   <i name="AGGAX">      1.00000000</i>
   <i name="ALDAC">      1.00000000</i>
   <i name="AGGAC">      1.00000000</i>
   <i type="int" name="NKREDX">     1</i>
   <i type="int" name="NKREDY">     1</i>
   <i type="int" name="NKREDZ">     1</i>
   <i type="logical" name="SHIFTRED"> F  </i>
   <i type="logical" name="ODDONLY"> F  </i>
   <i type="logical" name="EVENONLY"> F  </i>
   <i type="int" name="LMAXFOCK">     0</i>
   <i type="int" name="NMAXFOCKAE">     0</i>
   <i type="logical" name="LFOCKAEDFT"> F  </i>
   <i name="HFSCREEN">      0.00000000</i>
   <i name="HFSCREENC">      0.00000000</i>
   <i type="int" name="NBANDSGWLOW">     0</i>
  </separator>
  <separator name="vdW DFT" >
   <i type="logical" name="LUSE_VDW"> F  </i>
   <i name="Zab_VDW">     -0.84910000</i>
   <i name="PARAM1">      0.12340000</i>
   <i name="PARAM2">      1.00000000</i>
   <i name="PARAM3">      0.00000000</i>
  </separator>
  <separator name="model GW" >
   <i type="int" name="MODEL_GW">     0</i>
   <i name="MODEL_EPS0">     54.43663177</i>
   <i name="MODEL_ALPHA">      1.00000000</i>
  </separator>
  <separator name="linear response parameters" >
   <i type="logical" name="LEPSILON"> F  </i>
   <i type="logical" name="LRPA"> F  </i>
   <i type="logical" name="LNABLA"> F  </i>
   <i type="logical" name="LVEL"> F  </i>
   <i type="int" name="KINTER">     0</i>
   <i name="CSHIFT">      0.10000000</i>
   <i name="OMEGAMAX">     -1.00000000</i>
   <i name="DEG_THRESHOLD">      0.00200000</i>
   <i name="RTIME">     -0.10000000</i>
   <i name="WPLASMAI">      0.00000000</i>
   <v name="DFIELD">      0.00000000      0.00000000      0.00000000</v>
   <v name="WPLASMA">      0.00000000      0.00000000      0.00000000      0.00000000      0.00000000      0.00000000      0.00000000      0.00000000      0.00000000</v>
  </separator>
  <separator name="orbital magnetization" >
   <i type="logical" name="NUCIND"> F  </i>
   <v name="MAGPOS">      0.00000000      0.00000000      0.00000000</v>
   <i type="logical" name="LNICSALL"> T  </i>
   <i type="logical" name="ORBITALMAG"> F  </i>
   <i type="logical" name="LMAGBLOCH"> F  </i>
   <i type="logical" name="LCHIMAG"> F  </i>
   <i type="logical" name="LGAUGE"> T  </i>
   <i type="int" name="MAGATOM">     0</i>
   <v name="MAGDIPOL">      0.00000000      0.00000000      0.00000000</v>
   <v name="AVECCONST">      0.00000000      0.00000000      0.00000000</v>
  </separator>
  <separator name="response functions" >
   <i type="logical" name="LADDER"> F  </i>
   <i type="logical" name="LRPAFORCE"> F  </i>
   <i type="logical" name="LFXC"> F  </i>
   <i type="logical" name="LHARTREE"> T  </i>
   <i type="int" name="IBSE">     0</i>
   <v type="int" name="KPOINT">    -1     0     0     0</v>
   <i type="logical" name="LTCTE"> F  </i>
   <i type="logical" name="LTETE"> F  </i>
   <i type="logical" name="LTRIPLET"> F  </i>
   <i type="logical" name="LFXCEPS"> F  </i>
   <i type="logical" name="LFXHEG"> F  </i>
   <i type="int" name="NATURALO">     2</i>
   <i type="logical" name="L2ORDER"> F  </i>
   <i type="logical" name="LMP2LT"> F  </i>
   <i type="logical" name="LUSEW"> F  </i>
   <i name="ENCUTGW">     -2.00000000</i>
   <i name="ENCUTGWSOFT">     -2.00000000</i>
   <i name="ENCUTLF">     -1.00000000</i>
   <i type="int" name="LMAXMP2">    -1</i>
   <i name="SCISSOR">      0.00000000</i>
   <i type="int" name="NOMEGA">     0</i>
   <i type="int" name="NOMEGAR">     0</i>
   <i type="int" name="NBANDSGW">    -1</i>
   <i type="int" name="NBANDSO">    -1</i>
   <i type="int" name="NBANDSV">    -1</i>
   <i type="int" name="NELM">     1</i>
   <i type="int" name="NELMHF">     1</i>
   <i type="int" name="DIM">     3</i>
   <i type="int" name="ANTIRES">     0</i>
   <i name="OMEGAMAX">    -30.00000000</i>
   <i name="OMEGAMIN">    -30.00000000</i>
   <i name="OMEGATL">   -200.00000000</i>
   <i type="int" name="OMEGAGRID">   140</i>
   <i name="CSHIFT">     -0.10000000</i>
   <i type="logical" name="SELFENERGY"> F  </i>
   <i type="logical" name="LSPECTRAL"> F  </i>
   <i type="logical" name="LSPECTRALGW"> F  </i>
   <i type="logical" name="LSINGLES"> F  </i>
   <i type="logical" name="LFERMIGW"> F  </i>
   <i type="logical" name="ODDONLYGW"> F  </i>
   <i type="logical" name="EVENONLYGW"> F  </i>
   <i type="int" name="NKREDLFX">     1</i>
   <i type="int" name="NKREDLFY">     1</i>
   <i type="int" name="NKREDLFZ">     1</i>
   <i type="int" name="MAXMEM">  2800</i>
   <i type="int" name="TELESCOPE">     0</i>
   <i type="int" name="TAUPAR">     1</i>
   <i type="int" name="OMEGAPAR">    -1</i>
   <i name="LAMBDA">      1.00000000</i>
  </separator>
  <separator name="External order field" >
   <i name="OFIELD_KAPPA">      0.00000000</i>
   <v name="OFIELD_K">      0.00000000      0.00000000      0.00000000</v>
   <i name="OFIELD_Q6_NEAR">      0.00000000</i>
   <i name="OFIELD_Q6_FAR">      0.00000000</i>
   <i name="OFIELD_A">      0.00000000</i>
  </separator>
 </parameters>
 <atominfo>
  <atoms>       3 </atoms>
  <types>       2 </types>
  <array name="atoms" >
   <dimension dim="1">ion</dimension>
   <field type="string">element</field>
   <field type="int">atomtype</field>
   <set>
    <rc><c>Mo</c><c>   1</c></rc>
    <rc><c>S </c><c>   2</c></rc>
    <rc><c>S </c><c>   2</c></rc>
   </set>
  </array>
  <array name="atomtypes" >
   <dimension dim="1">type</dimension>
   <field type="int">atomspertype</field>
   <field type="string">element</field>
   <field>mass</field>
   <field>valence</field>
   <field type="string">pseudopotential</field>
   <set>
    <rc><c>   1</c><c>Mo</c><c>     95.94000000</c><c>      6.00000000</c><c> PAW_PBE Mo 08Apr2002                   </c></rc>
    <rc><c>   2</c><c>S </c><c>     32.06600000</c><c>      6.00000000</c><c>  PAW_PBE S 17Jan2003                   </c></rc>
   </set>
  </array>
 </atominfo>
 <structure name="initialpos" >
  <crystal>
   <varray name="basis" >
    <v>       3.19031573       0.00000000       0.00000000 </v>
    <v>      -1.59515786       2.76289447       0.00000000 </v>
    <v>       0.00000000       0.00000000      30.87900430 </v>
   </varray>
   <i name="volume">    272.18315887 </i>
   <varray name="rec_basis" >
    <v>       0.31344860       0.18096963       0.00000000 </v>
    <v>       0.00000000       0.36193927       0.00000000 </v>
    <v>       0.00000000       0.00000000       0.03238446 </v>
   </varray>
  </crystal>
  <varray name="positions" >
   <v>       0.33333300       0.66666700       0.12046214 </v>
   <v>       0.66666700       0.33333300       0.06978420 </v>
   <v>       0.66666600       0.33333300       0.17114009 </v>
  </varray>
 </structure>
 <calculation>
  <scstep>
   <time name="dav">    0.90    0.90</time>
   <time name="total">    0.96    1.00</time>
   <energy>
    <i name="alphaZ">     10.89288288 </i>
    <i name="ewald">   5368.65661653 </i>
    <i name="hartreedc">  -6042.21104469 </i>
    <i name="XCdc">    -36.31053806 </i>
    <i name="pawpsdc">    406.88651198 </i>
    <i name="pawaedc">   -329.34073203 </i>
    <i name="eentropy">      0.00000000 </i>
    <i name="bandstr">    -13.41183144 </i>
    <i name="atom">    771.15511399 </i>
    <i name="e_fr_energy">    136.31697916 </i>
    <i name="e_wo_entrp">    136.31697916 </i>
    <i name="e_0_energy">    136.31697916 </i>
   </energy>
  </scstep>
  <scstep>
   <time name="dav">    1.44    1.44</time>
   <time name="total">    1.44    1.44</time>
   <energy>
    <i name="e_fr_energy">     -5.94213014 </i>
    <i name="e_wo_entrp">     -5.94213014 </i>
    <i name="e_0_energy">     -5.94213014 </i>
   </energy>
  </scstep>
  <scstep>
   <time name="dav">    1.19    1.19</time>
   <time name="total">    1.19    1.19</time>
   <energy>
    <i name="e_fr_energy">    -23.04840209 </i>
    <i name="e_wo_entrp">    -23.04840209 </i>
    <i name="e_0_energy">    -23.04840209 </i>
   </energy>
  </scstep>
  <scstep>
   <time name="dav">    1.14    1.14</time>
   <time name="total">    1.14    1.14</time>
   <energy>
    <i name="e_fr_energy">    -23.39858431 </i>
    <i name="e_wo_entrp">    -23.39858431 </i>
    <i name="e_0_energy">    -23.39858431 </i>
   </energy>
  </scstep>
  <scstep>
   <time name="dav">    1.18    1.18</time>
   <time name="total">    1.24    1.25</time>
   <energy>
    <i name="e_fr_energy">    -23.40761474 </i>
    <i name="e_wo_entrp">    -23.40761474 </i>
    <i name="e_0_energy">    -23.40761474 </i>
   </energy>
  </scstep>
  <scstep>
   <time name="diag">    0.17    0.17</time>
   <time name="diis">    0.80    0.80</time>
   <time name="orth">    0.01    0.02</time>
   <time name="total">    1.11    1.11</time>
   <energy>
    <i name="e_fr_energy">    -22.24645520 </i>
    <i name="e_wo_entrp">    -22.24645520 </i>
    <i name="e_0_energy">    -22.24645520 </i>
   </energy>
  </scstep>
  <scstep>
   <time name="diag">    0.17    0.17</time>
   <time name="diis">    0.75    0.75</time>
   <time name="orth">    0.02    0.02</time>
   <time name="total">    1.06    1.07</time>
   <energy>
    <i name="e_fr_energy">    -21.86235233 </i>
    <i name="e_wo_entrp">    -21.86235233 </i>
    <i name="e_0_energy">    -21.86235233 </i>
   </energy>
  </scstep>
  <scstep>
   <time name="diag">    0.17    0.17</time>
   <time name="diis">    0.80    0.80</time>
   <time name="orth">    0.01    0.02</time>
   <time name="total">    1.11    1.11</time>
   <energy>
    <i name="e_fr_energy">    -21.80205861 </i>
    <i name="e_wo_entrp">    -21.80205861 </i>
    <i name="e_0_energy">    -21.80205861 </i>
   </energy>
  </scstep>
  <scstep>
   <time name="diag">    0.17    0.17</time>
   <time name="diis">    0.88    0.87</time>
   <time name="orth">    0.01    0.02</time>
   <time name="total">    1.19    1.19</time>
   <energy>
    <i name="e_fr_energy">    -21.79717940 </i>
    <i name="e_wo_entrp">    -21.79717940 </i>
    <i name="e_0_energy">    -21.79717940 </i>
   </energy>
  </scstep>
  <scstep>
   <time name="diag">    0.17    0.17</time>
   <time name="diis">    0.89    0.89</time>
   <time name="orth">    0.01    0.02</time>
   <time name="total">    1.20    1.20</time>
   <energy>
    <i name="e_fr_energy">    -21.79642537 </i>
    <i name="e_wo_entrp">    -21.79642537 </i>
    <i name="e_0_energy">    -21.79642537 </i>
   </energy>
  </scstep>
  <scstep>
   <time name="diag">    0.17    0.17</time>
   <time name="diis">    0.86    0.86</time>
   <time name="orth">    0.02    0.02</time>
   <time name="total">    1.18    1.18</time>
   <energy>
    <i name="e_fr_energy">    -21.79635895 </i>
    <i name="e_wo_entrp">    -21.79635895 </i>
    <i name="e_0_energy">    -21.79635895 </i>
   </energy>
  </scstep>
  <scstep>
   <time name="diag">    0.16    0.16</time>
   <time name="diis">    0.83    0.83</time>
   <time name="orth">    0.01    0.02</time>
   <time name="total">    1.13    1.14</time>
   <energy>
    <i name="e_fr_energy">    -21.79619370 </i>
    <i name="e_wo_entrp">    -21.79619370 </i>
    <i name="e_0_energy">    -21.79619370 </i>
   </energy>
  </scstep>
  <scstep>
   <time name="diag">    0.17    0.17</time>
   <time name="diis">    0.72    0.72</time>
   <time name="orth">    0.02    0.02</time>
   <time name="total">    1.03    1.04</time>
   <energy>
    <i name="e_fr_energy">    -21.79653310 </i>
    <i name="e_wo_entrp">    -21.79653310 </i>
    <i name="e_0_energy">    -21.79653310 </i>
   </energy>
  </scstep>
  <scstep>
   <time name="diag">    0.17    0.17</time>
   <time name="diis">    0.69    0.69</time>
   <time name="orth">    0.01    0.02</time>
   <time name="total">    1.00    1.00</time>
   <energy>
    <i name="e_fr_energy">    -21.79659039 </i>
    <i name="e_wo_entrp">    -21.79659039 </i>
    <i name="e_0_energy">    -21.79659039 </i>
   </energy>
  </scstep>
  <scstep>
   <time name="diag">    0.17    0.17</time>
   <time name="diis">    0.59    0.59</time>
   <time name="orth">    0.01    0.02</time>
   <time name="total">    0.91    0.91</time>
   <energy>
    <i name="e_fr_energy">    -21.79671622 </i>
    <i name="e_wo_entrp">    -21.79671622 </i>
    <i name="e_0_energy">    -21.79671622 </i>
   </energy>
  </scstep>
  <scstep>
   <time name="diag">    0.16    0.17</time>
   <time name="diis">    0.54    0.54</time>
   <time name="orth">    0.01    0.02</time>
   <time name="total">    0.85    0.85</time>
   <energy>
    <i name="e_fr_energy">    -21.79675704 </i>
    <i name="e_wo_entrp">    -21.79675704 </i>
    <i name="e_0_energy">    -21.79675704 </i>
   </energy>
  </scstep>
  <scstep>
   <time name="diag">    0.17    0.17</time>
   <time name="diis">    0.49    0.49</time>
   <time name="orth">    0.01    0.02</time>
   <time name="total">    0.81    0.81</time>
   <energy>
    <i name="e_fr_energy">    -21.79678897 </i>
    <i name="e_wo_entrp">    -21.79678897 </i>
    <i name="e_0_energy">    -21.79678897 </i>
   </energy>
  </scstep>
  <scstep>
   <time name="diag">    0.17    0.17</time>
   <time name="diis">    0.45    0.45</time>
   <time name="orth">    0.01    0.02</time>
   <time name="total">    0.70    0.70</time>
   <energy>
    <i name="alphaZ">     10.89288288 </i>
    <i name="ewald">   5368.65661653 </i>
    <i name="hartreedc">  -6055.62750653 </i>
    <i name="XCdc">    -35.20092942 </i>
    <i name="pawpsdc">    472.18472928 </i>
    <i name="pawaedc">   -396.37552106 </i>
    <i name="eentropy">      0.00000000 </i>
    <i name="bandstr">   -157.48217904 </i>
    <i name="atom">    771.15511399 </i>
    <i name="e_fr_energy">    -21.79679336 </i>
    <i name="e_wo_entrp">    -21.79679336 </i>
    <i name="e_0_energy">    -21.79679336 </i>
   </energy>
  </scstep>
  <structure>
   <crystal>
    <varray name="basis" >
     <v>       3.19031573       0.00000000       0.00000000 </v>
     <v>      -1.59515786       2.76289447       0.00000000 </v>
     <v>       0.00000000       0.00000000      30.87900430 </v>
    </varray>
    <i name="volume">    272.18315887 </i>
    <varray name="rec_basis" >
     <v>       0.31344860       0.18096963       0.00000000 </v>
     <v>       0.00000000       0.36193927       0.00000000 </v>
     <v>       0.00000000       0.00000000       0.03238446 </v>
    </varray>
   </crystal>
   <varray name="positions" >
    <v>       0.33333300       0.66666700       0.12046214 </v>
    <v>       0.66666700       0.33333300       0.06978420 </v>
    <v>       0.66666600       0.33333300       0.17114009 </v>
   </varray>
  </structure>
  <varray name="forces" >
   <v>      -0.00000000       0.00000000       0.00000000 </v>
   <v>       0.00000000      -0.00000000       0.11608161 </v>
   <v>       0.00000000      -0.00000000      -0.11608161 </v>
  </varray>
  <varray name="stress" >
   <v>      -0.83979329       0.00000000       0.00000000 </v>
   <v>       0.00000000      -0.83979329       0.00000000 </v>
   <v>       0.00000000       0.00000000      -2.25302273 </v>
  </varray>
  <energy>
   <i name="e_fr_energy">    -22.38759158 </i>
   <i name="e_wo_entrp">    -22.38759158 </i>
   <i name="e_0_energy">      0.00000000 </i>
  </energy>
  <time name="totalsc">   20.69   20.83</time>
  <eigenvalues>
   <array>
    <dimension dim="1">band</dimension>
    <dimension dim="2">kpoint</dimension>
    <dimension dim="3">spin</dimension>
    <field>eigene</field>
    <field>occ</field>
    <set>
     <set comment="spin 1">
      <set comment="kpoint 1">
       <r>  -17.7883    1.0000 </r>
       <r>  -16.5803    1.0000 </r>
       <r>   -9.3088    1.0000 </r>
       <r>   -6.3479    1.0000 </r>
       <r>   -6.3479    1.0000 </r>
       <r>   -5.4867    1.0000 </r>
       <r>   -5.2423    1.0000 </r>
       <r>   -5.2422    1.0000 </r>
       <r>   -3.7664    1.0000 </r>
       <r>   -0.9948    0.0000 </r>
       <r>   -0.9948    0.0000 </r>
       <r>   -0.7711    0.0000 </r>
       <r>   -0.7711    0.0000 </r>
       <r>    1.6640    0.0000 </r>
      </set>
      <set comment="kpoint 2">
       <r>  -17.7337    1.0000 </r>
       <r>  -16.5542    1.0000 </r>
       <r>   -9.2437    1.0000 </r>
       <r>   -6.4769    1.0000 </r>
       <r>   -6.2875    1.0000 </r>
       <r>   -5.8259    1.0000 </r>
       <r>   -5.3356    1.0000 </r>
       <r>   -4.9876    1.0000 </r>
       <r>   -3.7940    1.0000 </r>
       <r>   -1.0833    0.0000 </r>
       <r>   -0.9361    0.0000 </r>
       <r>   -0.8950    0.0000 </r>
       <r>   -0.8367    0.0000 </r>
       <r>    1.7728    0.0000 </r>
      </set>
      <set comment="kpoint 3">
       <r>  -17.5742    1.0000 </r>
       <r>  -16.4779    1.0000 </r>
       <r>   -9.0642    1.0000 </r>
       <r>   -6.8113    1.0000 </r>
       <r>   -6.2946    1.0000 </r>
       <r>   -6.1135    1.0000 </r>
       <r>   -5.5780    1.0000 </r>
       <r>   -4.8091    1.0000 </r>
       <r>   -3.9048    1.0000 </r>
       <r>   -1.2749    0.0000 </r>
       <r>   -1.2091    0.0000 </r>
       <r>   -1.0077    0.0000 </r>
       <r>   -0.6400    0.0000 </r>
       <r>    2.0388    0.0000 </r>
      </set>
      <set comment="kpoint 4">
       <r>  -17.3234    1.0000 </r>
       <r>  -16.3587    1.0000 </r>
       <r>   -8.8308    1.0000 </r>
       <r>   -7.2237    1.0000 </r>
       <r>   -6.7831    1.0000 </r>
       <r>   -5.8928    1.0000 </r>
       <r>   -5.8472    1.0000 </r>
       <r>   -4.8558    1.0000 </r>
       <r>   -4.1471    1.0000 </r>
       <r>   -1.5356    0.0000 </r>
       <r>   -1.2241    0.0000 </r>
       <r>   -1.1532    0.0000 </r>
       <r>   -0.3223    0.0000 </r>
       <r>    2.3987    0.0000 </r>
      </set>
      <set comment="kpoint 5">
       <r>  -17.0054    1.0000 </r>
       <r>  -16.2091    1.0000 </r>
       <r>   -8.6980    1.0000 </r>
       <r>   -7.5379    1.0000 </r>
       <r>   -7.2755    1.0000 </r>
       <r>   -6.2130    1.0000 </r>
       <r>   -5.5264    1.0000 </r>
       <r>   -5.0607    1.0000 </r>
       <r>   -4.4727    1.0000 </r>
       <r>   -1.5991    0.0000 </r>
       <r>   -1.4224    0.0000 </r>
       <r>   -0.8804    0.0000 </r>
       <r>   -0.0230    0.0000 </r>
       <r>    2.8493    0.0000 </r>
      </set>
      <set comment="kpoint 6">
       <r>  -16.6570    1.0000 </r>
       <r>  -16.0480    1.0000 </r>
       <r>   -8.8438    1.0000 </r>
       <r>   -7.7449    1.0000 </r>
       <r>   -7.6280    1.0000 </r>
       <r>   -6.4945    1.0000 </r>
       <r>   -5.2917    1.0000 </r>
       <r>   -5.2034    1.0000 </r>
       <r>   -4.6948    1.0000 </r>
       <r>   -1.5550    0.0000 </r>
       <r>   -1.5017    0.0000 </r>
       <r>   -0.5062    0.0000 </r>
       <r>    0.2121    0.0000 </r>
       <r>    3.3363    0.0000 </r>
      </set>
      <set comment="kpoint 7">
       <r>  -16.3303    1.0000 </r>
       <r>  -15.9006    1.0000 </r>
       <r>   -9.1353    1.0000 </r>
       <r>   -8.1429    1.0000 </r>
       <r>   -7.6708    1.0000 </r>
       <r>   -6.7103    1.0000 </r>
       <r>   -5.4701    1.0000 </r>
       <r>   -4.9359    1.0000 </r>
       <r>   -4.6678    1.0000 </r>
       <r>   -1.6040    0.0000 </r>
       <r>   -1.3251    0.0000 </r>
       <r>   -0.1619    0.0000 </r>
       <r>    0.3703    0.0000 </r>
       <r>    3.3760    0.0000 </r>
      </set>
      <set comment="kpoint 8">
       <r>  -16.0910    1.0000 </r>
       <r>  -15.7956    1.0000 </r>
       <r>   -9.3763    1.0000 </r>
       <r>   -8.4123    1.0000 </r>
       <r>   -7.7544    1.0000 </r>
       <r>   -6.8451    1.0000 </r>
       <r>   -5.5750    1.0000 </r>
       <r>   -4.7658    1.0000 </r>
       <r>   -4.4866    1.0000 </r>
       <r>   -1.5947    0.0000 </r>
       <r>   -1.1473    0.0000 </r>
       <r>    0.0624    0.0000 </r>
       <r>    0.4580    0.0000 </r>
       <r>    2.7072    0.0000 </r>
      </set>
      <set comment="kpoint 9">
       <r>  -16.0020    1.0000 </r>
       <r>  -15.7572    1.0000 </r>
       <r>   -9.4680    1.0000 </r>
       <r>   -8.5078    1.0000 </r>
       <r>   -7.7970    1.0000 </r>
       <r>   -6.8909    1.0000 </r>
       <r>   -5.6089    1.0000 </r>
       <r>   -4.7088    1.0000 </r>
       <r>   -4.3870    1.0000 </r>
       <r>   -1.5817    0.0000 </r>
       <r>   -1.0657    0.0000 </r>
       <r>    0.1367    0.0000 </r>
       <r>    0.4857    0.0000 </r>
       <r>    2.4159    0.0000 </r>
      </set>
      <set comment="kpoint 10">
       <r>  -17.6266    1.0000 </r>
       <r>  -16.5029    1.0000 </r>
       <r>   -9.1209    1.0000 </r>
       <r>   -6.7065    1.0000 </r>
       <r>   -6.1724    1.0000 </r>
       <r>   -6.1520    1.0000 </r>
       <r>   -5.5422    1.0000 </r>
       <r>   -4.8064    1.0000 </r>
       <r>   -3.8632    1.0000 </r>
       <r>   -1.2074    0.0000 </r>
       <r>   -1.1792    0.0000 </r>
       <r>   -0.9615    0.0000 </r>
       <r>   -0.7023    0.0000 </r>
       <r>    1.9658    0.0000 </r>
      </set>
      <set comment="kpoint 11">
       <r>  -17.4213    1.0000 </r>
       <r>  -16.4050    1.0000 </r>
       <r>   -8.9093    1.0000 </r>
       <r>   -7.0734    1.0000 </r>
       <r>   -6.5637    1.0000 </r>
       <r>   -5.9618    1.0000 </r>
       <r>   -5.8944    1.0000 </r>
       <r>   -4.7216    1.0000 </r>
       <r>   -4.0420    1.0000 </r>
       <r>   -1.4704    0.0000 </r>
       <r>   -1.2745    0.0000 </r>
       <r>   -1.1560    0.0000 </r>
       <r>   -0.3893    0.0000 </r>
       <r>    2.2670    0.0000 </r>
      </set>
      <set comment="kpoint 12">
       <r>  -17.1363    1.0000 </r>
       <r>  -16.2700    1.0000 </r>
       <r>   -8.7090    1.0000 </r>
       <r>   -7.4295    1.0000 </r>
       <r>   -7.0228    1.0000 </r>
       <r>   -6.2531    1.0000 </r>
       <r>   -5.6964    1.0000 </r>
       <r>   -4.8314    1.0000 </r>
       <r>   -4.3328    1.0000 </r>
       <r>   -1.6483    0.0000 </r>
       <r>   -1.3284    0.0000 </r>
       <r>   -1.1312    0.0000 </r>
       <r>   -0.0629    0.0000 </r>
       <r>    2.6771    0.0000 </r>
      </set>
      <set comment="kpoint 13">
       <r>  -16.8017    1.0000 </r>
       <r>  -16.1133    1.0000 </r>
       <r>   -8.7177    1.0000 </r>
       <r>   -7.5940    1.0000 </r>
       <r>   -7.5127    1.0000 </r>
       <r>   -6.5342    1.0000 </r>
       <r>   -5.4487    1.0000 </r>
       <r>   -5.0622    1.0000 </r>
       <r>   -4.5898    1.0000 </r>
       <r>   -1.6895    0.0000 </r>
       <r>   -1.4031    0.0000 </r>
       <r>   -0.8133    0.0000 </r>
       <r>    0.2053    0.0000 </r>
       <r>    3.1651    0.0000 </r>
      </set>
      <set comment="kpoint 14">
       <r>  -16.4612    1.0000 </r>
       <r>  -15.9569    1.0000 </r>
       <r>   -8.9588    1.0000 </r>
       <r>   -7.9730    1.0000 </r>
       <r>   -7.6159    1.0000 </r>
       <r>   -6.7249    1.0000 </r>
       <r>   -5.3043    1.0000 </r>
       <r>   -5.2826    1.0000 </r>
       <r>   -4.6088    1.0000 </r>
       <r>   -1.6482    0.0000 </r>
       <r>   -1.3565    0.0000 </r>
       <r>   -0.4395    0.0000 </r>
       <r>    0.3753    0.0000 </r>
       <r>    3.5905    0.0000 </r>
      </set>
      <set comment="kpoint 15">
       <r>  -16.1741    1.0000 </r>
       <r>  -15.8282    1.0000 </r>
       <r>   -9.2259    1.0000 </r>
       <r>   -8.3302    1.0000 </r>
       <r>   -7.6867    1.0000 </r>
       <r>   -6.8402    1.0000 </r>
       <r>   -5.4894    1.0000 </r>
       <r>   -5.1433    1.0000 </r>
       <r>   -4.4407    1.0000 </r>
       <r>   -1.5891    0.0000 </r>
       <r>   -1.2160    0.0000 </r>
       <r>   -0.1043    0.0000 </r>
       <r>    0.4267    0.0000 </r>
       <r>    3.0905    0.0000 </r>
      </set>
      <set comment="kpoint 16">
       <r>  -16.0065    1.0000 </r>
       <r>  -15.7546    1.0000 </r>
       <r>   -9.3894    1.0000 </r>
       <r>   -8.5253    1.0000 </r>
       <r>   -7.7655    1.0000 </r>
       <r>   -6.8940    1.0000 </r>
       <r>   -5.5873    1.0000 </r>
       <r>   -5.0463    1.0000 </r>
       <r>   -4.2791    1.0000 </r>
       <r>   -1.5651    0.0000 </r>
       <r>   -1.0679    0.0000 </r>
       <r>    0.1413    0.0000 </r>
       <r>    0.3696    0.0000 </r>
       <r>    2.5602    0.0000 </r>
      </set>
      <set comment="kpoint 17">
       <r>  -17.1814    1.0000 </r>
       <r>  -16.2909    1.0000 </r>
       <r>   -8.7169    1.0000 </r>
       <r>   -7.3753    1.0000 </r>
       <r>   -6.8568    1.0000 </r>
       <r>   -6.3918    1.0000 </r>
       <r>   -5.7740    1.0000 </r>
       <r>   -4.6747    1.0000 </r>
       <r>   -4.2766    1.0000 </r>
       <r>   -1.6742    0.0000 </r>
       <r>   -1.2960    0.0000 </r>
       <r>   -1.2842    0.0000 </r>
       <r>   -0.0452    0.0000 </r>
       <r>    2.6250    0.0000 </r>
      </set>
      <set comment="kpoint 18">
       <r>  -16.8781    1.0000 </r>
       <r>  -16.1473    1.0000 </r>
       <r>   -8.6369    1.0000 </r>
       <r>   -7.5492    1.0000 </r>
       <r>   -7.2754    1.0000 </r>
       <r>   -6.7562    1.0000 </r>
       <r>   -5.6518    1.0000 </r>
       <r>   -4.7934    1.0000 </r>
       <r>   -4.5099    1.0000 </r>
       <r>   -1.7985    0.0000 </r>
       <r>   -1.3351    0.0000 </r>
       <r>   -1.1173    0.0000 </r>
       <r>    0.2604    0.0000 </r>
       <r>    3.0904    0.0000 </r>
      </set>
      <set comment="kpoint 19">
       <r>  -16.5477    1.0000 </r>
       <r>  -15.9923    1.0000 </r>
       <r>   -8.7796    1.0000 </r>
       <r>   -7.8020    1.0000 </r>
       <r>   -7.5390    1.0000 </r>
       <r>   -6.8962    1.0000 </r>
       <r>   -5.6746    1.0000 </r>
       <r>   -5.0369    1.0000 </r>
       <r>   -4.5602    1.0000 </r>
       <r>   -1.7576    0.0000 </r>
       <r>   -1.3091    0.0000 </r>
       <r>   -0.8142    0.0000 </r>
       <r>    0.4626    0.0000 </r>
       <r>    3.5957    0.0000 </r>
      </set>
      <set comment="kpoint 20">
       <r>  -16.2404    1.0000 </r>
       <r>  -15.8500    1.0000 </r>
       <r>   -9.0050    1.0000 </r>
       <r>   -8.2601    1.0000 </r>
       <r>   -7.5626    1.0000 </r>
       <r>   -6.9288    1.0000 </r>
       <r>   -5.7007    1.0000 </r>
       <r>   -5.3075    1.0000 </r>
       <r>   -4.4276    1.0000 </r>
       <r>   -1.6040    0.0000 </r>
       <r>   -1.2421    0.0000 </r>
       <r>   -0.4777    0.0000 </r>
       <r>    0.5363    0.0000 </r>
       <r>    3.5862    0.0000 </r>
      </set>
      <set comment="kpoint 21">
       <r>  -16.0172    1.0000 </r>
       <r>  -15.7483    1.0000 </r>
       <r>   -9.1806    1.0000 </r>
       <r>   -8.5650    1.0000 </r>
       <r>   -7.6693    1.0000 </r>
       <r>   -6.9130    1.0000 </r>
       <r>   -5.6594    1.0000 </r>
       <r>   -5.5187    1.0000 </r>
       <r>   -4.2333    1.0000 </r>
       <r>   -1.5628    0.0000 </r>
       <r>   -1.0526    0.0000 </r>
       <r>   -0.1925    0.0000 </r>
       <r>    0.4963    0.0000 </r>
       <r>    2.9427    0.0000 </r>
      </set>
      <set comment="kpoint 22">
       <r>  -15.9348    1.0000 </r>
       <r>  -15.7112    1.0000 </r>
       <r>   -9.2458    1.0000 </r>
       <r>   -8.6719    1.0000 </r>
       <r>   -7.7263    1.0000 </r>
       <r>   -6.8988    1.0000 </r>
       <r>   -5.6341    1.0000 </r>
       <r>   -5.6000    1.0000 </r>
       <r>   -4.1342    1.0000 </r>
       <r>   -1.5882    0.0000 </r>
       <r>   -0.9271    0.0000 </r>
       <r>   -0.0613    0.0000 </r>
       <r>    0.4430    0.0000 </r>
       <r>    2.6599    0.0000 </r>
      </set>
      <set comment="kpoint 23">
       <r>  -16.5779    1.0000 </r>
       <r>  -16.0043    1.0000 </r>
       <r>   -8.7018    1.0000 </r>
       <r>   -7.7074    1.0000 </r>
       <r>   -7.4966    1.0000 </r>
       <r>   -7.0088    1.0000 </r>
       <r>   -5.8438    1.0000 </r>
       <r>   -4.9059    1.0000 </r>
       <r>   -4.5489    1.0000 </r>
       <r>   -1.8060    0.0000 </r>
       <r>   -1.2873    0.0000 </r>
       <r>   -0.9844    0.0000 </r>
       <r>    0.5066    0.0000 </r>
       <r>    3.5833    0.0000 </r>
      </set>
      <set comment="kpoint 24">
       <r>  -16.2770    1.0000 </r>
       <r>  -15.8608    1.0000 </r>
       <r>   -8.8339    1.0000 </r>
       <r>   -8.2093    1.0000 </r>
       <r>   -7.4181    1.0000 </r>
       <r>   -7.0244    1.0000 </r>
       <r>   -6.1363    1.0000 </r>
       <r>   -5.1497    1.0000 </r>
       <r>   -4.4466    1.0000 </r>
       <r>   -1.6358    0.0000 </r>
       <r>   -1.2355    0.0000 </r>
       <r>   -0.7634    0.0000 </r>
       <r>    0.6460    0.0000 </r>
       <r>    3.9347    0.0000 </r>
      </set>
      <set comment="kpoint 25">
       <r>  -16.0279    1.0000 </r>
       <r>  -15.7420    1.0000 </r>
       <r>   -8.9357    1.0000 </r>
       <r>   -8.6015    1.0000 </r>
       <r>   -7.4987    1.0000 </r>
       <r>   -6.9451    1.0000 </r>
       <r>   -6.2932    1.0000 </r>
       <r>   -5.4286    1.0000 </r>
       <r>   -4.2488    1.0000 </r>
       <r>   -1.5949    0.0000 </r>
       <r>   -1.0191    0.0000 </r>
       <r>   -0.5500    0.0000 </r>
       <r>    0.6984    0.0000 </r>
       <r>    3.4448    0.0000 </r>
      </set>
      <set comment="kpoint 26">
       <r>  -15.8848    1.0000 </r>
       <r>  -15.6739    1.0000 </r>
       <r>   -8.9795    1.0000 </r>
       <r>   -8.8134    1.0000 </r>
       <r>   -7.6384    1.0000 </r>
       <r>   -6.8576    1.0000 </r>
       <r>   -6.3216    1.0000 </r>
       <r>   -5.6257    1.0000 </r>
       <r>   -4.0598    1.0000 </r>
       <r>   -1.7083    0.0000 </r>
       <r>   -0.7453    0.0000 </r>
       <r>   -0.4220    0.0000 </r>
       <r>    0.7043    0.0000 </r>
       <r>    2.9712    0.0000 </r>
      </set>
      <set comment="kpoint 27">
       <r>  -16.0322    1.0000 </r>
       <r>  -15.7393    1.0000 </r>
       <r>   -8.8202    1.0000 </r>
       <r>   -8.6157    1.0000 </r>
       <r>   -7.3422    1.0000 </r>
       <r>   -6.9614    1.0000 </r>
       <r>   -6.6422    1.0000 </r>
       <r>   -5.3853    1.0000 </r>
       <r>   -4.2621    1.0000 </r>
       <r>   -1.6138    0.0000 </r>
       <r>   -1.0029    0.0000 </r>
       <r>   -0.6911    0.0000 </r>
       <r>    0.7843    0.0000 </r>
       <r>    3.7750    0.0000 </r>
      </set>
      <set comment="kpoint 28">
       <r>  -15.8597    1.0000 </r>
       <r>  -15.6521    1.0000 </r>
       <r>   -8.8994    1.0000 </r>
       <r>   -8.7259    1.0000 </r>
       <r>   -7.4733    1.0000 </r>
       <r>   -6.9230    1.0000 </r>
       <r>   -6.8185    1.0000 </r>
       <r>   -5.6448    1.0000 </r>
       <r>   -4.0231    1.0000 </r>
       <r>   -1.8133    0.0000 </r>
       <r>   -0.6457    0.0000 </r>
       <r>   -0.6302    0.0000 </r>
       <r>    0.8888    0.0000 </r>
       <r>    3.3913    0.0000 </r>
      </set>
      <set comment="kpoint 29">
       <r>  -15.7973    1.0000 </r>
       <r>  -15.6202    1.0000 </r>
       <r>   -9.0001    1.0000 </r>
       <r>   -8.6512    1.0000 </r>
       <r>   -7.6265    1.0000 </r>
       <r>   -6.9639    1.0000 </r>
       <r>   -6.7337    1.0000 </r>
       <r>   -5.7715    1.0000 </r>
       <r>   -3.8947    1.0000 </r>
       <r>   -1.9395    0.0000 </r>
       <r>   -0.6327    0.0000 </r>
       <r>   -0.4522    0.0000 </r>
       <r>    0.9296    0.0000 </r>
       <r>    3.1858    0.0000 </r>
      </set>
      <set comment="kpoint 30">
       <r>  -15.7668    1.0000 </r>
       <r>  -15.6005    1.0000 </r>
       <r>   -9.0689    1.0000 </r>
       <r>   -8.4139    1.0000 </r>
       <r>   -7.6642    1.0000 </r>
       <r>   -7.2712    1.0000 </r>
       <r>   -6.6626    1.0000 </r>
       <r>   -5.8487    1.0000 </r>
       <r>   -3.8152    1.0000 </r>
       <r>   -2.0550    0.0000 </r>
       <r>   -0.7137    0.0000 </r>
       <r>   -0.3352    0.0000 </r>
       <r>    1.0240    0.0000 </r>
       <r>    3.4319    0.0000 </r>
      </set>
     </set>
    </set>
   </array>
  </eigenvalues>
  <separator name="orbital magnetization" >
   <v name="MAGDIPOLOUT">      0.00000000      0.00000000      0.00000000</v>
  </separator>
  <dos>
   <i name="efermi">     -3.73288452 </i>
   <total>
    <array>
     <dimension dim="1">gridpoints</dimension>
     <dimension dim="2">spin</dimension>
     <field>energy</field>
     <field>total</field>
     <field>integrated</field>
     <set>
      <set comment="spin 1">
       <r>   -19.7883     0.0000     0.0000 </r>
       <r>   -19.7026     0.0000     0.0000 </r>
       <r>   -19.6169     0.0000     0.0000 </r>
       <r>   -19.5311     0.0000     0.0000 </r>
       <r>   -19.4454     0.0000     0.0000 </r>
       <r>   -19.3596     0.0000     0.0000 </r>
       <r>   -19.2739     0.0000     0.0000 </r>
       <r>   -19.1881     0.0000     0.0000 </r>
       <r>   -19.1024     0.0000     0.0000 </r>
       <r>   -19.0167     0.0000     0.0000 </r>
       <r>   -18.9309     0.0000     0.0000 </r>
       <r>   -18.8452     0.0000     0.0000 </r>
       <r>   -18.7594     0.0000     0.0000 </r>
       <r>   -18.6737     0.0000     0.0000 </r>
       <r>   -18.5879     0.0000     0.0000 </r>
       <r>   -18.5022     0.0000     0.0000 </r>
       <r>   -18.4164     0.0000     0.0000 </r>
       <r>   -18.3307     0.0000     0.0000 </r>
       <r>   -18.2450     0.0000     0.0000 </r>
       <r>   -18.1592     0.0000     0.0000 </r>
       <r>   -18.0735     0.0000     0.0000 </r>
       <r>   -17.9877     0.0000     0.0000 </r>
       <r>   -17.9020     0.0000     0.0000 </r>
       <r>   -17.8162     0.0000     0.0000 </r>
       <r>   -17.7305     0.4422     0.0248 </r>
       <r>   -17.6448     0.5623     0.0679 </r>
       <r>   -17.5590     0.5235     0.1151 </r>
       <r>   -17.4733     0.5725     0.1621 </r>
       <r>   -17.3875     0.5725     0.2119 </r>
       <r>   -17.3018     0.5869     0.2614 </r>
       <r>   -17.2160     0.6190     0.3131 </r>
       <r>   -17.1303     0.6287     0.3670 </r>
       <r>   -17.0446     0.6531     0.4219 </r>
       <r>   -16.9588     0.6803     0.4790 </r>
       <r>   -16.8731     0.7116     0.5386 </r>
       <r>   -16.7873     0.7477     0.6012 </r>
       <r>   -16.7016     0.7851     0.6669 </r>
       <r>   -16.6158     0.8231     0.7358 </r>
       <r>   -16.5301     1.9633     0.8564 </r>
       <r>   -16.4443     2.1422     1.0346 </r>
       <r>   -16.3586     2.2737     1.2255 </r>
       <r>   -16.2729     2.5099     1.4301 </r>
       <r>   -16.1871     2.8813     1.6611 </r>
       <r>   -16.1014     3.3580     1.9278 </r>
       <r>   -16.0156     4.6813     2.2531 </r>
       <r>   -15.9299     3.9057     2.6586 </r>
       <r>   -15.8441     4.6358     3.0142 </r>
       <r>   -15.7584     5.1968     3.4601 </r>
       <r>   -15.6727     2.5920     3.8068 </r>
       <r>   -15.5869     0.0000     4.0000 </r>
       <r>   -15.5012     0.0000     4.0000 </r>
       <r>   -15.4154     0.0000     4.0000 </r>
       <r>   -15.3297     0.0000     4.0000 </r>
       <r>   -15.2439     0.0000     4.0000 </r>
       <r>   -15.1582     0.0000     4.0000 </r>
       <r>   -15.0725     0.0000     4.0000 </r>
       <r>   -14.9867     0.0000     4.0000 </r>
       <r>   -14.9010     0.0000     4.0000 </r>
       <r>   -14.8152     0.0000     4.0000 </r>
       <r>   -14.7295     0.0000     4.0000 </r>
       <r>   -14.6437     0.0000     4.0000 </r>
       <r>   -14.5580     0.0000     4.0000 </r>
       <r>   -14.4722     0.0000     4.0000 </r>
       <r>   -14.3865     0.0000     4.0000 </r>
       <r>   -14.3008     0.0000     4.0000 </r>
       <r>   -14.2150     0.0000     4.0000 </r>
       <r>   -14.1293     0.0000     4.0000 </r>
       <r>   -14.0435     0.0000     4.0000 </r>
       <r>   -13.9578     0.0000     4.0000 </r>
       <r>   -13.8720     0.0000     4.0000 </r>
       <r>   -13.7863     0.0000     4.0000 </r>
       <r>   -13.7006     0.0000     4.0000 </r>
       <r>   -13.6148     0.0000     4.0000 </r>
       <r>   -13.5291     0.0000     4.0000 </r>
       <r>   -13.4433     0.0000     4.0000 </r>
       <r>   -13.3576     0.0000     4.0000 </r>
       <r>   -13.2718     0.0000     4.0000 </r>
       <r>   -13.1861     0.0000     4.0000 </r>
       <r>   -13.1004     0.0000     4.0000 </r>
       <r>   -13.0146     0.0000     4.0000 </r>
       <r>   -12.9289     0.0000     4.0000 </r>
       <r>   -12.8431     0.0000     4.0000 </r>
       <r>   -12.7574     0.0000     4.0000 </r>
       <r>   -12.6716     0.0000     4.0000 </r>
       <r>   -12.5859     0.0000     4.0000 </r>
       <r>   -12.5002     0.0000     4.0000 </r>
       <r>   -12.4144     0.0000     4.0000 </r>
       <r>   -12.3287     0.0000     4.0000 </r>
       <r>   -12.2429     0.0000     4.0000 </r>
       <r>   -12.1572     0.0000     4.0000 </r>
       <r>   -12.0714     0.0000     4.0000 </r>
       <r>   -11.9857     0.0000     4.0000 </r>
       <r>   -11.8999     0.0000     4.0000 </r>
       <r>   -11.8142     0.0000     4.0000 </r>
       <r>   -11.7285     0.0000     4.0000 </r>
       <r>   -11.6427     0.0000     4.0000 </r>
       <r>   -11.5570     0.0000     4.0000 </r>
       <r>   -11.4712     0.0000     4.0000 </r>
       <r>   -11.3855     0.0000     4.0000 </r>
       <r>   -11.2997     0.0000     4.0000 </r>
       <r>   -11.2140     0.0000     4.0000 </r>
       <r>   -11.1283     0.0000     4.0000 </r>
       <r>   -11.0425     0.0000     4.0000 </r>
       <r>   -10.9568     0.0000     4.0000 </r>
       <r>   -10.8710     0.0000     4.0000 </r>
       <r>   -10.7853     0.0000     4.0000 </r>
       <r>   -10.6995     0.0000     4.0000 </r>
       <r>   -10.6138     0.0000     4.0000 </r>
       <r>   -10.5281     0.0000     4.0000 </r>
       <r>   -10.4423     0.0000     4.0000 </r>
       <r>   -10.3566     0.0000     4.0000 </r>
       <r>   -10.2708     0.0000     4.0000 </r>
       <r>   -10.1851     0.0000     4.0000 </r>
       <r>   -10.0993     0.0000     4.0000 </r>
       <r>   -10.0136     0.0000     4.0000 </r>
       <r>    -9.9278     0.0000     4.0000 </r>
       <r>    -9.8421     0.0000     4.0000 </r>
       <r>    -9.7564     0.0000     4.0000 </r>
       <r>    -9.6706     0.0000     4.0000 </r>
       <r>    -9.5849     0.0000     4.0000 </r>
       <r>    -9.4991     0.0000     4.0000 </r>
       <r>    -9.4134     1.1257     4.0307 </r>
       <r>    -9.3276     1.0623     4.1276 </r>
       <r>    -9.2419     1.6430     4.2515 </r>
       <r>    -9.1562     1.7860     4.3975 </r>
       <r>    -9.0704     1.9748     4.5599 </r>
       <r>    -8.9847     5.3094     4.8224 </r>
       <r>    -8.8989     3.7264     5.1595 </r>
       <r>    -8.8132     3.1528     5.4617 </r>
       <r>    -8.7274     4.7591     5.8023 </r>
       <r>    -8.6417     3.5103     6.2689 </r>
       <r>    -8.5560     1.6965     6.4358 </r>
       <r>    -8.4702     1.8729     6.6139 </r>
       <r>    -8.3845     1.2157     6.7538 </r>
       <r>    -8.2987     1.0102     6.8482 </r>
       <r>    -8.2130     0.8711     6.9288 </r>
       <r>    -8.1272     0.7749     6.9983 </r>
       <r>    -8.0415     0.7243     7.0626 </r>
       <r>    -7.9557     0.6852     7.1226 </r>
       <r>    -7.8700     0.6913     7.1816 </r>
       <r>    -7.7843     2.2339     7.2510 </r>
       <r>    -7.6985     4.1359     7.5572 </r>
       <r>    -7.6128     4.9863     8.0390 </r>
       <r>    -7.5270     4.9649     8.4898 </r>
       <r>    -7.4413     3.9525     8.8861 </r>
       <r>    -7.3555     1.5800     9.1263 </r>
       <r>    -7.2698     1.1442     9.2367 </r>
       <r>    -7.1841     1.1497     9.3351 </r>
       <r>    -7.0983     1.1521     9.4338 </r>
       <r>    -7.0126     3.4887     9.5677 </r>
       <r>    -6.9268     8.8211     9.9860 </r>
       <r>    -6.8411     2.9275    10.6581 </r>
       <r>    -6.7553     3.2783    10.9234 </r>
       <r>    -6.6696     2.7366    11.1830 </r>
       <r>    -6.5839     1.9272    11.3662 </r>
       <r>    -6.4981     1.6619    11.5217 </r>
       <r>    -6.4124     1.5969    11.6660 </r>
       <r>    -6.3266     1.6882    11.7959 </r>
       <r>    -6.2409     1.8924    11.9746 </r>
       <r>    -6.1551     0.9872    12.0899 </r>
       <r>    -6.0694     1.9076    12.2325 </r>
       <r>    -5.9836     1.9295    12.3970 </r>
       <r>    -5.8979     0.8825    12.5179 </r>
       <r>    -5.8122     2.7837    12.7098 </r>
       <r>    -5.7264     3.4046    12.9643 </r>
       <r>    -5.6407     4.3817    13.2999 </r>
       <r>    -5.5549     4.4474    13.7903 </r>
       <r>    -5.4692     3.0125    14.1152 </r>
       <r>    -5.3834     2.6985    14.3590 </r>
       <r>    -5.2977     2.3203    14.5873 </r>
       <r>    -5.2120     2.3931    14.7783 </r>
       <r>    -5.1262     2.3299    14.9814 </r>
       <r>    -5.0405     2.1879    15.1808 </r>
       <r>    -4.9547     2.1822    15.3666 </r>
       <r>    -4.8690     2.1613    15.5521 </r>
       <r>    -4.7832     3.3167    15.7997 </r>
       <r>    -4.6975     0.9666    15.9890 </r>
       <r>    -4.6118     1.7695    16.1110 </r>
       <r>    -4.5260     4.6611    16.4163 </r>
       <r>    -4.4403     2.9846    16.7058 </r>
       <r>    -4.3545     2.7860    16.9485 </r>
       <r>    -4.2688     2.4447    17.1756 </r>
       <r>    -4.1830     2.1309    17.3746 </r>
       <r>    -4.0973     1.8706    17.5417 </r>
       <r>    -4.0116     1.6063    17.6882 </r>
       <r>    -3.9258     1.2477    17.8106 </r>
       <r>    -3.8401     1.3627    17.9205 </r>
       <r>    -3.7543     0.0000    18.0000 </r>
       <r>    -3.6686     0.0000    18.0000 </r>
       <r>    -3.5828     0.0000    18.0000 </r>
       <r>    -3.4971     0.0000    18.0000 </r>
       <r>    -3.4113     0.0000    18.0000 </r>
       <r>    -3.3256     0.0000    18.0000 </r>
       <r>    -3.2399     0.0000    18.0000 </r>
       <r>    -3.1541     0.0000    18.0000 </r>
       <r>    -3.0684     0.0000    18.0000 </r>
       <r>    -2.9826     0.0000    18.0000 </r>
       <r>    -2.8969     0.0000    18.0000 </r>
       <r>    -2.8111     0.0000    18.0000 </r>
       <r>    -2.7254     0.0000    18.0000 </r>
       <r>    -2.6397     0.0000    18.0000 </r>
       <r>    -2.5539     0.0000    18.0000 </r>
       <r>    -2.4682     0.0000    18.0000 </r>
       <r>    -2.3824     0.0000    18.0000 </r>
       <r>    -2.2967     0.0000    18.0000 </r>
       <r>    -2.2109     0.0000    18.0000 </r>
       <r>    -2.1252     0.0000    18.0000 </r>
       <r>    -2.0395     0.4157    18.0142 </r>
       <r>    -1.9537     0.4714    18.0522 </r>
       <r>    -1.8680     0.6107    18.0980 </r>
       <r>    -1.7822     3.1350    18.2281 </r>
       <r>    -1.6965     4.3363    18.5255 </r>
       <r>    -1.6107    11.5754    19.0931 </r>
       <r>    -1.5250     0.8092    19.7626 </r>
       <r>    -1.4392     1.9037    19.8605 </r>
       <r>    -1.3535     4.3272    20.1144 </r>
       <r>    -1.2678     5.6975    20.6791 </r>
       <r>    -1.1820     4.0205    21.1232 </r>
       <r>    -1.0963     4.7805    21.5610 </r>
       <r>    -1.0105     3.1918    21.9406 </r>
       <r>    -0.9248     2.5922    22.2159 </r>
       <r>    -0.8390     2.0782    22.4133 </r>
       <r>    -0.7533     2.5170    22.6329 </r>
       <r>    -0.6676     4.6342    22.9215 </r>
       <r>    -0.5818     2.2317    23.1976 </r>
       <r>    -0.4961     2.2577    23.3883 </r>
       <r>    -0.4103     1.9729    23.5988 </r>
       <r>    -0.3246     1.5048    23.7685 </r>
       <r>    -0.2388     1.4535    23.8953 </r>
       <r>    -0.1531     1.4451    24.0182 </r>
       <r>    -0.0674     1.5210    24.1484 </r>
       <r>     0.0184     1.5011    24.2790 </r>
       <r>     0.1041     1.9102    24.4148 </r>
       <r>     0.1899     0.8535    24.5542 </r>
       <r>     0.2756     1.2624    24.6470 </r>
       <r>     0.3614     1.4085    24.7615 </r>
       <r>     0.4471     4.5149    25.1455 </r>
       <r>     0.5329     1.9475    25.3872 </r>
       <r>     0.6186     1.7017    25.5417 </r>
       <r>     0.7043     1.5611    25.6795 </r>
       <r>     0.7901     1.0758    25.7915 </r>
       <r>     0.8758     0.9251    25.8773 </r>
       <r>     0.9616     0.7871    25.9521 </r>
       <r>     1.0473     0.0000    26.0000 </r>
       <r>     1.1331     0.0000    26.0000 </r>
       <r>     1.2188     0.0000    26.0000 </r>
       <r>     1.3045     0.0000    26.0000 </r>
       <r>     1.3903     0.0000    26.0000 </r>
       <r>     1.4760     0.0000    26.0000 </r>
       <r>     1.5618     0.0000    26.0000 </r>
       <r>     1.6475     0.0000    26.0000 </r>
       <r>     1.7333     0.2742    26.0095 </r>
       <r>     1.8190     0.2691    26.0353 </r>
       <r>     1.9047     0.3178    26.0604 </r>
       <r>     1.9905     0.3513    26.0896 </r>
       <r>     2.0762     0.3600    26.1198 </r>
       <r>     2.1620     0.3852    26.1517 </r>
       <r>     2.2477     0.4104    26.1858 </r>
       <r>     2.3335     0.3934    26.2199 </r>
       <r>     2.4192     0.4144    26.2538 </r>
       <r>     2.5050     0.8156    26.3065 </r>
       <r>     2.5907     1.1409    26.3947 </r>
       <r>     2.6764     0.9382    26.4827 </r>
       <r>     2.7622     1.0091    26.5654 </r>
       <r>     2.8479     1.1076    26.6561 </r>
       <r>     2.9337     1.2141    26.7557 </r>
       <r>     3.0194     1.2112    26.8583 </r>
       <r>     3.1052     1.2362    26.9632 </r>
       <r>     3.1909     1.3156    27.0720 </r>
       <r>     3.2766     1.5374    27.1943 </r>
       <r>     3.3624     1.9749    27.3384 </r>
       <r>     3.4481     1.5323    27.5362 </r>
       <r>     3.5339     1.2521    27.6556 </r>
       <r>     3.6196     0.9506    27.7969 </r>
       <r>     3.7054     0.7595    27.8702 </r>
       <r>     3.7911     0.5863    27.9272 </r>
       <r>     3.8768     0.4912    27.9734 </r>
       <r>     3.9626     0.0000    28.0000 </r>
       <r>     4.0483     0.0000    28.0000 </r>
       <r>     4.1341     0.0000    28.0000 </r>
       <r>     4.2198     0.0000    28.0000 </r>
       <r>     4.3056     0.0000    28.0000 </r>
       <r>     4.3913     0.0000    28.0000 </r>
       <r>     4.4770     0.0000    28.0000 </r>
       <r>     4.5628     0.0000    28.0000 </r>
       <r>     4.6485     0.0000    28.0000 </r>
       <r>     4.7343     0.0000    28.0000 </r>
       <r>     4.8200     0.0000    28.0000 </r>
       <r>     4.9058     0.0000    28.0000 </r>
       <r>     4.9915     0.0000    28.0000 </r>
       <r>     5.0773     0.0000    28.0000 </r>
       <r>     5.1630     0.0000    28.0000 </r>
       <r>     5.2487     0.0000    28.0000 </r>
       <r>     5.3345     0.0000    28.0000 </r>
       <r>     5.4202     0.0000    28.0000 </r>
       <r>     5.5060     0.0000    28.0000 </r>
       <r>     5.5917     0.0000    28.0000 </r>
       <r>     5.6775     0.0000    28.0000 </r>
       <r>     5.7632     0.0000    28.0000 </r>
       <r>     5.8489     0.0000    28.0000 </r>
       <r>     5.9347     0.0000    28.0000 </r>
      </set>
     </set>
    </array>
   </total>
  </dos>
 </calculation>
 <structure name="finalpos" >
  <crystal>
   <varray name="basis" >
    <v>       3.19031573       0.00000000       0.00000000 </v>
    <v>      -1.59515786       2.76289447       0.00000000 </v>
    <v>       0.00000000       0.00000000      30.87900430 </v>
   </varray>
   <i name="volume">    272.18315887 </i>
   <varray name="rec_basis" >
    <v>       0.31344860       0.18096963       0.00000000 </v>
    <v>       0.00000000       0.36193927       0.00000000 </v>
    <v>       0.00000000       0.00000000       0.03238446 </v>
   </varray>
  </crystal>
  <varray name="positions" >
   <v>       0.33333300       0.66666700       0.12046214 </v>
   <v>       0.66666700       0.33333300       0.06978420 </v>
   <v>       0.66666600       0.33333300       0.17114009 </v>
  </varray>
 </structure>
</modeling>
