    3    3    1    1
  0.7897505E+02  0.3190316E-09  0.3190316E-09  0.2687900E-08  0.5000000E-15
  1.000000000000000E-004
  CAR 
 unknown system                          
     18     10     14
 
  0.0000000E+00  0.0000000E+00  0.0000000E+00  0.1562500E-01
    1      -17.463530   1.000000
    2      -16.255476   1.000000
    3       -8.983934   1.000000
    4       -6.023118   1.000000
    5       -6.023112   1.000000
    6       -5.161844   1.000000
    7       -4.917533   1.000000
    8       -4.917501   1.000000
    9       -3.441675   1.000000
   10       -0.670025   0.000000
   11       -0.669994   0.000000
   12       -0.446272   0.000000
   13       -0.446259   0.000000
   14        1.991891   0.000000
 
  0.1250000E+00  0.0000000E+00  0.0000000E+00  0.9375000E-01
    1      -17.249358   1.000000
    2      -16.153067   1.000000
    3       -8.739395   1.000000
    4       -6.486509   1.000000
    5       -5.969842   1.000000
    6       -5.788697   1.000000
    7       -5.253252   1.000000
    8       -4.484292   1.000000
    9       -3.580066   1.000000
   10       -0.950119   0.000000
   11       -0.884321   0.000000
   12       -0.682875   0.000000
   13       -0.315219   0.000000
   14        2.366940   0.000000
 
  0.2500000E+00  0.0000000E+00  0.0000000E+00  0.9375000E-01
    1      -16.680591   1.000000
    2      -15.884249   1.000000
    3       -8.373239   1.000000
    4       -7.213114   1.000000
    5       -6.950665   1.000000
    6       -5.888260   1.000000
    7       -5.201610   1.000000
    8       -4.735878   1.000000
    9       -4.147953   1.000000
   10       -1.274328   0.000000
   11       -1.097673   0.000000
   12       -0.555645   0.000000
   13        0.301735   0.000000
   14        3.180328   0.000000
 
  0.3750000E+00  0.0000000E+00  0.0000000E+00  0.9375000E-01
    1      -16.005447   1.000000
    2      -15.575764   1.000000
    3       -8.810496   1.000000
    4       -7.818049   1.000000
    5       -7.345958   1.000000
    6       -6.385572   1.000000
    7       -5.145185   1.000000
    8       -4.611054   1.000000
    9       -4.343083   1.000000
   10       -1.279237   0.000000
   11       -1.000405   0.000000
   12        0.162888   0.000000
   13        0.695061   0.000000
   14        3.701402   0.000000
 
  0.5000000E+00  0.0000000E+00  0.0000000E+00  0.4687500E-01
    1      -15.677161   1.000000
    2      -15.432396   1.000000
    3       -9.143172   1.000000
    4       -8.182962   1.000000
    5       -7.472208   1.000000
    6       -6.566115   1.000000
    7       -5.284029   1.000000
    8       -4.383944   1.000000
    9       -4.062250   1.000000
   10       -1.257007   0.000000
   11       -0.741057   0.000000
   12        0.461509   0.000000
   13        0.810507   0.000000
   14        2.740718   0.000000
 
  0.1250000E+00  0.1250000E+00  0.0000000E+00  0.9375000E-01
    1      -16.856521   1.000000
    2      -15.966020   1.000000
    3       -8.392094   1.000000
    4       -7.050517   1.000000
    5       -6.531979   1.000000
    6       -6.067082   1.000000
    7       -5.449217   1.000000
    8       -4.349797   1.000000
    9       -3.951905   1.000000
   10       -1.349403   0.000000
   11       -0.971201   0.000000
   12       -0.959453   0.000000
   13        0.279593   0.000000
   14        2.954712   0.000000
 
  0.2500000E+00  0.1250000E+00  0.0000000E+00  0.1875000E+00
    1      -16.222913   1.000000
    2      -15.667428   1.000000
    3       -8.454790   1.000000
    4       -7.477182   1.000000
    5       -7.214158   1.000000
    6       -6.571383   1.000000
    7       -5.349780   1.000000
    8       -4.712025   1.000000
    9       -4.235453   1.000000
   10       -1.432798   0.000000
   11       -0.984377   0.000000
   12       -0.489484   0.000000
   13        0.787383   0.000000
   14        3.924092   0.000000
 
  0.3750000E+00  0.1250000E+00  0.0000000E+00  0.1875000E+00
    1      -15.692400   1.000000
    2      -15.423465   1.000000
    3       -8.855809   1.000000
    4       -8.240198   1.000000
    5       -7.344488   1.000000
    6       -6.588187   1.000000
    7       -5.334577   1.000000
    8       -5.193850   1.000000
    9       -3.908547   1.000000
   10       -1.238112   0.000000
   11       -0.727842   0.000000
   12        0.132258   0.000000
   13        0.821056   0.000000
   14        3.267595   0.000000
 
  0.2500000E+00  0.2500000E+00  0.0000000E+00  0.9375000E-01
    1      -15.707369   1.000000
    2      -15.414481   1.000000
    3       -8.495410   1.000000
    4       -8.290956   1.000000
    5       -7.017373   1.000000
    6       -6.636535   1.000000
    7       -6.317406   1.000000
    8       -5.060406   1.000000
    9       -3.937415   1.000000
   10       -1.289084   0.000000
   11       -0.678136   0.000000
   12       -0.366315   0.000000
   13        1.109057   0.000000
   14        4.099976   0.000000
 
  0.3750000E+00  0.2500000E+00  0.0000000E+00  0.9375000E-01
    1      -15.472471   1.000000
    2      -15.295314   1.000000
    3       -8.675375   1.000000
    4       -8.326437   1.000000
    5       -7.301660   1.000000
    6       -6.639065   1.000000
    7       -6.408915   1.000000
    8       -5.446696   1.000000
    9       -3.569995   1.000000
   10       -1.614777   0.000000
   11       -0.307924   0.000000
   12       -0.127501   0.000000
   13        1.254333   0.000000
   14        3.510597   0.000000
