 vasp.5.4.4.18Apr17-6-g9f103f2a35 (build Jun 30 2017 11:15:00) complex          
  
 executed on    STALLO_VASP_5.4.4 date 2019.11.08  11:57:50
 running on    4 total cores
 distrk:  each k-point on    4 cores,    1 groups
 distr:  one band on NCORES_PER_BAND=   2 cores,    2 groups


--------------------------------------------------------------------------------------------------------


 INCAR:
 POTCAR:   PAW_PBE Mo 08Apr2002                   
 POTCAR:    PAW_PBE S 17Jan2003                   
 POTCAR:   PAW_PBE Mo 08Apr2002                   
   VRHFIN =Mo: 4p5s4d                                                           
   LEXCH  = PE                                                                  
   EATOM  =   217.5180 eV,   15.9871 Ry                                         
                                                                                
   TITEL  = PAW_PBE Mo 08Apr2002                                                
   LULTRA =        F    use ultrasoft PP ?                                      
   IUNSCR =        1    unscreen: 0-lin 1-nonlin 2-no                           
   RPACOR =    2.200    partial core radius                                     
   POMASS =   95.940; ZVAL   =    6.000    mass and valenz                      
   RCORE  =    2.750    outmost cutoff radius                                   
   RWIGS  =    2.750; RWIGS  =    1.455    wigner-seitz radius (au A)           
   ENMAX  =  224.584; ENMIN  =  168.438 eV                                      
   RCLOC  =    2.111    cutoff for local pot                                    
   LCOR   =        T    correct aug charges                                     
   LPAW   =        T    paw PP                                                  
   EAUG   =  345.278                                                            
   DEXC   =    -.088                                                            
   RMAX   =    3.077    core radius for proj-oper                               
   RAUG   =    1.300    factor for augmentation sphere                          
   RDEP   =    2.815    radius for radial grids                                 
   QCUT   =   -4.063; QGAM   =    8.126    optimization parameters              
                                                                                
   Description                                                                  
     l     E      TYP  RCUT    TYP  RCUT                                        
     2   .000     23  2.500                                                     
     2   .000     23  2.500                                                     
     0   .000     23  2.600                                                     
     0  1.000     23  2.600                                                     
     1   .400     23  2.750                                                     
     1  2.000     23  2.750                                                     
     3   .000      7   .000                                                     
  local pseudopotential read in
  partial core-charges read in
  atomic valenz-charges read in
  non local Contribution for L=           2  read in
    real space projection operators read in
  non local Contribution for L=           2  read in
    real space projection operators read in
  non local Contribution for L=           0  read in
    real space projection operators read in
  non local Contribution for L=           0  read in
    real space projection operators read in
  non local Contribution for L=           1  read in
    real space projection operators read in
  non local Contribution for L=           1  read in
    real space projection operators read in
    PAW grid and wavefunctions read in
 
   number of l-projection  operators is LMAX  =           6
   number of lm-projection operators is LMMAX =          18
 
 POTCAR:    PAW_PBE S 17Jan2003                   
   VRHFIN =S : s2p4                                                             
   LEXCH  = PE                                                                  
   EATOM  =   276.8230 eV,   20.3459 Ry                                         
                                                                                
   TITEL  = PAW_PBE S 17Jan2003                                                 
   LULTRA =        F    use ultrasoft PP ?                                      
   IUNSCR =        1    unscreen: 0-lin 1-nonlin 2-no                           
   RPACOR =    1.500    partial core radius                                     
   POMASS =   32.066; ZVAL   =    6.000    mass and valenz                      
   RCORE  =    1.900    outmost cutoff radius                                   
   RWIGS  =    2.200; RWIGS  =    1.164    wigner-seitz radius (au A)           
   ENMAX  =  280.000; ENMIN  =  194.016 eV                                      
   ICORE  =        2    local potential                                         
   LCOR   =        T    correct aug charges                                     
   LPAW   =        T    paw PP                                                  
   EAUG   =  335.092                                                            
   DEXC   =     .000                                                            
   RMAX   =    2.867    core radius for proj-oper                               
   RAUG   =    1.300    factor for augmentation sphere                          
   RDEP   =    1.954    radius for radial grids                                 
   QCUT   =   -4.360; QGAM   =    8.721    optimization parameters              
                                                                                
   Description                                                                  
     l     E      TYP  RCUT    TYP  RCUT                                        
     0   .000     23  1.900                                                     
     0   .000     23  1.900                                                     
     1   .000     23  1.900                                                     
     1   .000     23  1.900                                                     
     2   .000     23  1.900                                                     
  local pseudopotential read in
  partial core-charges read in
  atomic valenz-charges read in
  non local Contribution for L=           0  read in
    real space projection operators read in
  non local Contribution for L=           0  read in
    real space projection operators read in
  non local Contribution for L=           1  read in
    real space projection operators read in
  non local Contribution for L=           1  read in
    real space projection operators read in
    PAW grid and wavefunctions read in
 
   number of l-projection  operators is LMAX  =           4
   number of lm-projection operators is LMMAX =           8
 
 PAW_PBE Mo 08Apr2002                   :
 energy of atom  1       EATOM= -217.5180
 kinetic energy error for atom=    0.0023 (will be added to EATOM!!)
  PAW_PBE S 17Jan2003                   :
 energy of atom  2       EATOM= -276.8230
 kinetic energy error for atom=    0.0033 (will be added to EATOM!!)
 
 
 POSCAR: MoS2_mp-2815_computed                   
  positions in cartesian coordinates
  velocities in cartesian coordinates
  No initial velocities read in
 exchange correlation table for  LEXCH =        8
   RHO(1)=    0.500       N(1)  =     2000
   RHO(2)=  100.500       N(2)  =     4000
 


--------------------------------------------------------------------------------------------------------


 ion  position               nearest neighbor table
   1  0.333  0.667  0.138-   3 2.42   2 2.42   2 2.42   3 2.42   3 2.42   2 2.42
   2  0.667  0.333  0.080-   1 2.42   1 2.42   1 2.42
   3  0.667  0.333  0.197-   1 2.42   1 2.42   1 2.42
 
  LATTYP: Found a hexagonal cell.
 ALAT       =     3.1903157300
 C/A-ratio  =     8.4251862746
  
  Lattice vectors:
  
 A1 = (   3.1903157300,   0.0000000000,   0.0000000000)
 A2 = (  -1.5951578650,   2.7628944683,   0.0000000000)
 A3 = (   0.0000000000,   0.0000000000,  26.8790043000)


Analysis of symmetry for initial positions (statically):
=====================================================================
 Subroutine PRICEL returns:
 Original cell was already a primitive cell.
 

 Routine SETGRP: Setting up the symmetry group for a 
 hexagonal supercell.


 Subroutine GETGRP returns: Found 12 space group operations
 (whereof  6 operations were pure point group operations)
 out of a pool of 24 trial point group operations.


The static configuration has the point symmetry C_3v.
 The point group associated with its full space group is D_3h.


Analysis of symmetry for dynamics (positions and initial velocities):
=====================================================================
 Subroutine PRICEL returns:
 Original cell was already a primitive cell.
 

 Routine SETGRP: Setting up the symmetry group for a 
 hexagonal supercell.


 Subroutine GETGRP returns: Found 12 space group operations
 (whereof  6 operations were pure point group operations)
 out of a pool of 24 trial point group operations.


The dynamic configuration has the point symmetry C_3v.
 The point group associated with its full space group is D_3h.


 Subroutine INISYM returns: Found 12 space group operations
 (whereof  6 operations are pure point group operations),
 and found     1 'primitive' translations

 
 
 KPOINTS: k-density: 4.0                          

Automatic generation of k-mesh.
Space group operators:
 irot       det(A)        alpha          n_x          n_y          n_z        tau_x        tau_y        tau_z
    1     1.000000     0.000001     1.000000     0.000000     0.000000     0.000000     0.000000     0.000000
    2     1.000000   120.000000     0.000000     0.000000    -1.000000     0.000000     0.000000     0.000000
    3     1.000000   120.000000     0.000000     0.000000     1.000000     0.000000     0.000000     0.000000
    4    -1.000000   179.999999     1.000000    -0.000000     0.000000     0.000000     0.000000     0.000000
    5    -1.000000   180.000000     0.500000    -0.866025     0.000000     0.000000     0.000000     0.000000
    6    -1.000000   180.000000    -0.500000    -0.866025     0.000000     0.000000     0.000000     0.000000
    7    -1.000000    60.000000     0.000000     0.000000    -1.000000    -0.000000     0.000000     0.276777
    8    -1.000000   180.000000     0.000000     0.000000     1.000000     0.000000     0.000000     0.276777
    9    -1.000000    60.000000     0.000000     0.000000     1.000000     0.000000     0.000001     0.276777
   10     1.000000   180.000000     0.866025    -0.500000     0.000000     0.000000     0.000000     0.276777
   11     1.000000   180.000000     0.000000     1.000000     0.000000     0.000000     0.000000     0.276777
   12     1.000000   179.999999     0.866025     0.500000     0.000000    -0.000000     0.000001     0.276777
 
 Subroutine IBZKPT returns following result:
 ===========================================
 
 Found     10 irreducible k-points:
 
 Following reciprocal coordinates:
            Coordinates               Weight
  0.000000  0.000000  0.000000      1.000000
  0.125000  0.000000  0.000000      6.000000
  0.250000  0.000000  0.000000      6.000000
  0.375000  0.000000  0.000000      6.000000
  0.500000  0.000000  0.000000      3.000000
  0.125000  0.125000  0.000000      6.000000
  0.250000  0.125000  0.000000     12.000000
  0.375000  0.125000  0.000000     12.000000
  0.250000  0.250000  0.000000      6.000000
  0.375000  0.250000  0.000000      6.000000
 
 Following cartesian coordinates:
            Coordinates               Weight
  0.000000  0.000000  0.000000      1.000000
  0.039181  0.022621  0.000000      6.000000
  0.078362  0.045242  0.000000      6.000000
  0.117543  0.067864  0.000000      6.000000
  0.156724  0.090485  0.000000      3.000000
  0.039181  0.067864  0.000000      6.000000
  0.078362  0.090485  0.000000     12.000000
  0.117543  0.113106  0.000000     12.000000
  0.078362  0.135727  0.000000      6.000000
  0.117543  0.158348  0.000000      6.000000
 
 TETIRR: Found     36 inequivalent tetrahedra from      384


--------------------------------------------------------------------------------------------------------




 Dimension of arrays:
   k-points           NKPTS =     10   k-points in BZ     NKDIM =     10   number of bands    NBANDS=     14
   number of dos      NEDOS =    301   number of ions     NIONS =      3
   non local maximal  LDIM  =      6   non local SUM 2l+1 LMDIM =     18
   total plane-waves  NPLWV =  45360
   max r-space proj   IRMAX =      1   max aug-charges    IRDMAX=  12490
   dimension x,y,z NGX =    18 NGY =   18 NGZ =  140
   dimension x,y,z NGXF=    36 NGYF=   36 NGZF=  280
   support grid    NGXF=    36 NGYF=   36 NGZF=  280
   ions per type =               1   2
   NGX,Y,Z   is equivalent  to a cutoff of   9.38,  9.38,  8.66 a.u.
   NGXF,Y,Z  is equivalent  to a cutoff of  18.76, 18.76, 17.32 a.u.

 SYSTEM =  unknown system                          
 POSCAR =  MoS2_mp-2815_computed                   

 Startparameter for this run:
   NWRITE =      2    write-flag & timer
   PREC   = normal    normal or accurate (medium, high low for compatibility)
   ISTART =      0    job   : 0-new  1-cont  2-samecut
   ICHARG =      2    charge: 1-file 2-atom 10-const
   ISPIN  =      1    spin polarized calculation?
   LNONCOLLINEAR =      F non collinear calculations
   LSORBIT =      F    spin-orbit coupling
   INIWAV =      1    electr: 0-lowe 1-rand  2-diag
   LASPH  =      F    aspherical Exc in radial PAW
   METAGGA=      F    non-selfconsistent MetaGGA calc.

 Electronic Relaxation 1
   ENCUT  =  450.0 eV  33.07 Ry    5.75 a.u.   5.52  5.52 46.49*2*pi/ulx,y,z
   ENINI  =  450.0     initial cutoff
   ENAUG  =  345.3 eV  augmentation charge cutoff
   NELM   =     60;   NELMIN=  4; NELMDL= -5     # of ELM steps 
   EDIFF  = 0.1E-04   stopping-criterion for ELM
   LREAL  =      F    real-space projection
   NLSPLINE    = F    spline interpolate recip. space projectors
   LCOMPAT=      F    compatible to vasp.4.4
   GGA_COMPAT  = T    GGA compatible to vasp.4.4-vasp.4.6
   LMAXPAW     = -100 max onsite density
   LMAXMIX     =    2 max onsite mixed and CHGCAR
   VOSKOWN=      0    Vosko Wilk Nusair interpolation
   ROPT   =    0.00000   0.00000
 Ionic relaxation
   EDIFFG = 0.1E-03   stopping-criterion for IOM
   NSW    =      0    number of steps for IOM
   NBLOCK =      1;   KBLOCK =      1    inner block; outer block 
   IBRION =     -1    ionic relax: 0-MD 1-quasi-New 2-CG
   NFREE  =      0    steps in history (QN), initial steepest desc. (CG)
   ISIF   =      2    stress and relaxation
   IWAVPR =     10    prediction:  0-non 1-charg 2-wave 3-comb
   ISYM   =      2    0-nonsym 1-usesym 2-fastsym
   LCORR  =      T    Harris-Foulkes like correction to forces

   POTIM  = 0.5000    time-step for ionic-motion
   TEIN   =    0.0    initial temperature
   TEBEG  =    0.0;   TEEND  =   0.0 temperature during run
   SMASS  =  -3.00    Nose mass-parameter (am)
   estimated Nose-frequenzy (Omega)   =  0.10E-29 period in steps =****** mass=  -0.233E-27a.u.
   SCALEE = 1.0000    scale energy and forces
   NPACO  =    256;   APACO  = 16.0  distance and # of slots for P.C.
   PSTRESS=    0.0 pullay stress

  Mass of Ions in am
   POMASS =  95.94 32.07
  Ionic Valenz
   ZVAL   =   6.00  6.00
  Atomic Wigner-Seitz radii
   RWIGS  =  -1.00 -1.00
  virtual crystal weights 
   VCA    =   1.00  1.00
   NELECT =      18.0000    total number of electrons
   NUPDOWN=      -1.0000    fix difference up-down

 DOS related values:
   EMIN   =  10.00;   EMAX   =-10.00  energy-range for DOS
   EFERMI =   0.00
   ISMEAR =    -5;   SIGMA  =   0.20  broadening in eV -4-tet -1-fermi 0-gaus

 Electronic relaxation 2 (details)
   IALGO  =     68    algorithm
   LDIAG  =      T    sub-space diagonalisation (order eigenvalues)
   LSUBROT=      F    optimize rotation matrix (better conditioning)
   TURBO    =      0    0=normal 1=particle mesh
   IRESTART =      0    0=no restart 2=restart with 2 vectors
   NREBOOT  =      0    no. of reboots
   NMIN     =      0    reboot dimension
   EREF     =   0.00    reference energy to select bands
   IMIX   =      4    mixing-type and parameters
     AMIX     =   0.40;   BMIX     =  1.00
     AMIX_MAG =   1.60;   BMIX_MAG =  1.00
     AMIN     =   0.10
     WC   =   100.;   INIMIX=   1;  MIXPRE=   1;  MAXMIX= -45

 Intra band minimization:
   WEIMIN = 0.0000     energy-eigenvalue tresh-hold
   EBREAK =  0.18E-06  absolut break condition
   DEPER  =   0.30     relativ break condition  

   TIME   =   0.40     timestep for ELM

  volume/ion in A,a.u.               =      78.98       532.95
  Fermi-wavevector in a.u.,A,eV,Ry     =   0.693365  1.310270  6.541070  0.480755
  Thomas-Fermi vector in A             =   1.775558
 
 Write flags
   LWAVE        =      F    write WAVECAR
   LDOWNSAMPLE  =      F    k-point downsampling of WAVECAR
   LCHARG       =      T    write CHGCAR
   LVTOT        =      F    write LOCPOT, total local potential
   LVHAR        =      F    write LOCPOT, Hartree potential only
   LELF         =      F    write electronic localiz. function (ELF)
   LORBIT       =      0    0 simple, 1 ext, 2 COOP (PROOUT), +10 PAW based schemes


 Dipole corrections
   LMONO  =      F    monopole corrections only (constant potential shift)
   LDIPOL =      F    correct potential (dipole corrections)
   IDIPOL =      0    1-x, 2-y, 3-z, 4-all directions 
   EPSILON=  1.0000000 bulk dielectric constant

 Exchange correlation treatment:
   GGA     =    --    GGA type
   LEXCH   =     8    internal setting for exchange type
   VOSKOWN=      0    Vosko Wilk Nusair interpolation
   LHFCALC =     F    Hartree Fock is set to
   LHFONE  =     F    Hartree Fock one center treatment
   AEXX    =    0.0000 exact exchange contribution

 Linear response parameters
   LEPSILON=     F    determine dielectric tensor
   LRPA    =     F    only Hartree local field effects (RPA)
   LNABLA  =     F    use nabla operator in PAW spheres
   LVEL    =     F    velocity operator in full k-point grid
   LINTERFAST=   F  fast interpolation
   KINTER  =     0    interpolate to denser k-point grid
   CSHIFT  =0.1000    complex shift for real part using Kramers Kronig
   OMEGAMAX=  -1.0    maximum frequency
   DEG_THRESHOLD= 0.2000000E-02 threshold for treating states as degnerate
   RTIME   =   -0.100 relaxation time in fs
  (WPLASMAI=    0.000 imaginary part of plasma frequency in eV, 0.658/RTIME)
   DFIELD  = 0.0000000 0.0000000 0.0000000 field for delta impulse in time
 
 Orbital magnetization related:
   ORBITALMAG=     F  switch on orbital magnetization
   LCHIMAG   =     F  perturbation theory with respect to B field
   DQ        =  0.001000  dq finite difference perturbation B field
   LLRAUG    =     F  two centre corrections for induced B field



--------------------------------------------------------------------------------------------------------


 Static calculation
 charge density and potential will be updated during run
 non-spin polarized calculation
 RMM-DIIS sequential band-by-band and
  variant of blocked Davidson during initial phase
 perform sub-space diagonalisation
    before iterative eigenvector-optimisation
 modified Broyden-mixing scheme, WC =      100.0
 initial mixing is a Kerker type mixing with AMIX =  0.4000 and BMIX =      1.0000
 Hartree-type preconditioning will be used
 using additional bands            5
 reciprocal scheme for non local part
 use partial core corrections
 calculate Harris-corrections to forces 
   (improved forces if not selfconsistent)
 use gradient corrections 
 use of overlap-Matrix (Vanderbilt PP)
 Fermi weights with tetrahedron method with Bloechl corrections


--------------------------------------------------------------------------------------------------------


  energy-cutoff  :      450.00
  volume of cell :      236.93
      direct lattice vectors                 reciprocal lattice vectors
     3.190315730  0.000000000  0.000000000     0.313448600  0.180969634  0.000000000
    -1.595157865  2.762894468  0.000000000     0.000000000  0.361939267  0.000000000
     0.000000000  0.000000000 26.879004300     0.000000000  0.000000000  0.037203759

  length of vectors
     3.190315730  3.190315730 26.879004300     0.361939267  0.361939267  0.037203759


 
 k-points in units of 2pi/SCALE and weight: k-density: 4.0                          
   0.00000000  0.00000000  0.00000000       0.016
   0.03918108  0.02262120  0.00000000       0.094
   0.07836215  0.04524241  0.00000000       0.094
   0.11754323  0.06786361  0.00000000       0.094
   0.15672430  0.09048482  0.00000000       0.047
   0.03918108  0.06786361  0.00000000       0.094
   0.07836215  0.09048482  0.00000000       0.188
   0.11754323  0.11310602  0.00000000       0.188
   0.07836215  0.13572723  0.00000000       0.094
   0.11754323  0.15834843  0.00000000       0.094
 
 k-points in reciprocal lattice and weights: k-density: 4.0                          
   0.00000000  0.00000000  0.00000000       0.016
   0.12500000  0.00000000  0.00000000       0.094
   0.25000000  0.00000000  0.00000000       0.094
   0.37500000  0.00000000  0.00000000       0.094
   0.50000000  0.00000000  0.00000000       0.047
   0.12500000  0.12500000  0.00000000       0.094
   0.25000000  0.12500000  0.00000000       0.188
   0.37500000  0.12500000  0.00000000       0.188
   0.25000000  0.25000000  0.00000000       0.094
   0.37500000  0.25000000  0.00000000       0.094
 
 position of ions in fractional coordinates (direct lattice) 
   0.33333300  0.66666700  0.13838872
   0.66666700  0.33333300  0.08016914
   0.66666600  0.33333300  0.19660830
 
 position of ions in cartesian coordinates  (Angst):
  -0.00000160  1.84193057  3.71975108
   1.59515946  0.92096390  2.15486668
   1.59515627  0.92096390  5.28463547
 


--------------------------------------------------------------------------------------------------------


 k-point  1 :   0.0000 0.0000 0.0000  plane waves:    5253
 k-point  2 :   0.1250 0.0000 0.0000  plane waves:    5211
 k-point  3 :   0.2500 0.0000 0.0000  plane waves:    5170
 k-point  4 :   0.3750 0.0000 0.0000  plane waves:    5130
 k-point  5 :   0.5000 0.0000 0.0000  plane waves:    5060
 k-point  6 :   0.1250 0.1250 0.0000  plane waves:    5169
 k-point  7 :   0.2500 0.1250 0.0000  plane waves:    5139
 k-point  8 :   0.3750 0.1250 0.0000  plane waves:    5090
 k-point  9 :   0.2500 0.2500 0.0000  plane waves:    5128
 k-point 10 :   0.3750 0.2500 0.0000  plane waves:    5122

 maximum and minimum number of plane-waves per node :      2647     2523

 maximum number of plane-waves:      5253
 maximum index in each direction: 
   IXMAX=    5   IYMAX=    5   IZMAX=   46
   IXMIN=   -6   IYMIN=   -5   IZMIN=  -46


 parallel 3D FFT for wavefunctions:
    minimum data exchange during FFTs selected (reduces bandwidth)
 parallel 3D FFT for charge:
    minimum data exchange during FFTs selected (reduces bandwidth)


 total amount of memory used by VASP MPI-rank0    50561. kBytes
=======================================================================

   base      :      30000. kBytes
   nonl-proj :       7753. kBytes
   fftplans  :       3767. kBytes
   grid      :       6016. kBytes
   one-center:         31. kBytes
   wavefun   :       2994. kBytes
 
     INWAV:  cpu time    0.0000: real time    0.0004
 Broyden mixing: mesh for mixing (old mesh)
   NGX = 11   NGY = 11   NGZ = 93
  (NGX  = 36   NGY  = 36   NGZ  =280)
  gives a total of  11253 points

 initial charge density was supplied:
 charge density of overlapping atoms calculated
 number of electron      18.0000000 magnetization 
 keeping initial charge density in first step


--------------------------------------------------------------------------------------------------------


 Maximum index for augmentation-charges         2932 (set IRDMAX)


--------------------------------------------------------------------------------------------------------


 First call to EWALD:  gamma=   0.286
 Maximum number of real-space cells 6x 6x 1
 Maximum number of reciprocal cells 2x 2x10

    FEWALD:  cpu time    0.0010: real time    0.0015


--------------------------------------- Iteration      1(   1)  ---------------------------------------


    POTLOK:  cpu time    0.0520: real time    0.0726
    SETDIJ:  cpu time    0.0030: real time    0.0037
     EDDAV:  cpu time    0.2410: real time    0.2441
 BZINTS: Fermi energy:  6.627696; 18.000000 electrons
         Band energy: -13.067076;  BLOECHL correction: -0.214137
       DOS:  cpu time    0.0000: real time    0.0011
    --------------------------------------------
      LOOP:  cpu time    0.2960: real time    0.3215

 eigenvalue-minimisations  :   280
 total energy-change (2. order) : 0.1303799E+03  (-0.5476347E+03)
 number of electron      18.0000000 magnetization 
 augmentation part       18.0000000 magnetization 

 Free energy of the ion-electron system (eV)
  ---------------------------------------------------
  alpha Z        PSCENC =        12.51390764
  Ewald energy   TEWEN  =      4286.25630342
  -Hartree energ DENC   =     -4967.71356795
  -exchange      EXHF   =         0.00000000
  -V(xc)+E(xc)   XCENC  =       -36.31055754
  PAW double counting   =       406.88651198     -329.34073203
  entropy T*S    EENTRO =         0.00000000
  eigenvalues    EBANDS =       -13.06707554
  atomic energy  EATOM  =       771.15511399
  Solvation  Ediel_sol  =         0.00000000
  ---------------------------------------------------
  free energy    TOTEN  =       130.37990398 eV

  energy without entropy =      130.37990398  energy(sigma->0) =      130.37990398


--------------------------------------------------------------------------------------------------------




--------------------------------------- Iteration      1(   2)  ---------------------------------------


     EDDAV:  cpu time    0.3509: real time    0.3520
 BZINTS: Fermi energy: -1.829019; 18.000000 electrons
         Band energy:-150.684539;  BLOECHL correction:  0.000000
       DOS:  cpu time    0.0010: real time    0.0002
    --------------------------------------------
      LOOP:  cpu time    0.3519: real time    0.3522

 eigenvalue-minimisations  :   464
 total energy-change (2. order) :-0.1376175E+03  (-0.1292347E+03)
 number of electron      18.0000000 magnetization 
 augmentation part       18.0000000 magnetization 

 Free energy of the ion-electron system (eV)
  ---------------------------------------------------
  alpha Z        PSCENC =        12.51390764
  Ewald energy   TEWEN  =      4286.25630342
  -Hartree energ DENC   =     -4967.71356795
  -exchange      EXHF   =         0.00000000
  -V(xc)+E(xc)   XCENC  =       -36.31055754
  PAW double counting   =       406.88651198     -329.34073203
  entropy T*S    EENTRO =         0.00000000
  eigenvalues    EBANDS =      -150.68453897
  atomic energy  EATOM  =       771.15511399
  Solvation  Ediel_sol  =         0.00000000
  ---------------------------------------------------
  free energy    TOTEN  =        -7.23755945 eV

  energy without entropy =       -7.23755945  energy(sigma->0) =       -7.23755945


--------------------------------------------------------------------------------------------------------




--------------------------------------- Iteration      1(   3)  ---------------------------------------


     EDDAV:  cpu time    0.3110: real time    0.3115
 BZINTS: Fermi energy: -3.309667; 18.000000 electrons
         Band energy:-166.526043;  BLOECHL correction:  0.000000
       DOS:  cpu time    0.0000: real time    0.0002
    --------------------------------------------
      LOOP:  cpu time    0.3110: real time    0.3118

 eigenvalue-minimisations  :   402
 total energy-change (2. order) :-0.1584150E+02  (-0.1570407E+02)
 number of electron      18.0000000 magnetization 
 augmentation part       18.0000000 magnetization 

 Free energy of the ion-electron system (eV)
  ---------------------------------------------------
  alpha Z        PSCENC =        12.51390764
  Ewald energy   TEWEN  =      4286.25630342
  -Hartree energ DENC   =     -4967.71356795
  -exchange      EXHF   =         0.00000000
  -V(xc)+E(xc)   XCENC  =       -36.31055754
  PAW double counting   =       406.88651198     -329.34073203
  entropy T*S    EENTRO =         0.00000000
  eigenvalues    EBANDS =      -166.52604326
  atomic energy  EATOM  =       771.15511399
  Solvation  Ediel_sol  =         0.00000000
  ---------------------------------------------------
  free energy    TOTEN  =       -23.07906374 eV

  energy without entropy =      -23.07906374  energy(sigma->0) =      -23.07906374


--------------------------------------------------------------------------------------------------------




--------------------------------------- Iteration      1(   4)  ---------------------------------------


     EDDAV:  cpu time    0.2830: real time    0.2856
 BZINTS: Fermi energy: -3.380510; 18.000000 electrons
         Band energy:-166.845938;  BLOECHL correction:  0.000000
       DOS:  cpu time    0.0000: real time    0.0002
    --------------------------------------------
      LOOP:  cpu time    0.2830: real time    0.2858

 eigenvalue-minimisations  :   354
 total energy-change (2. order) :-0.3198945E+00  (-0.3172869E+00)
 number of electron      18.0000000 magnetization 
 augmentation part       18.0000000 magnetization 

 Free energy of the ion-electron system (eV)
  ---------------------------------------------------
  alpha Z        PSCENC =        12.51390764
  Ewald energy   TEWEN  =      4286.25630342
  -Hartree energ DENC   =     -4967.71356795
  -exchange      EXHF   =         0.00000000
  -V(xc)+E(xc)   XCENC  =       -36.31055754
  PAW double counting   =       406.88651198     -329.34073203
  entropy T*S    EENTRO =         0.00000000
  eigenvalues    EBANDS =      -166.84593779
  atomic energy  EATOM  =       771.15511399
  Solvation  Ediel_sol  =         0.00000000
  ---------------------------------------------------
  free energy    TOTEN  =       -23.39895827 eV

  energy without entropy =      -23.39895827  energy(sigma->0) =      -23.39895827


--------------------------------------------------------------------------------------------------------




--------------------------------------- Iteration      1(   5)  ---------------------------------------


     EDDAV:  cpu time    0.2940: real time    0.2946
 BZINTS: Fermi energy: -3.317001; 18.000000 electrons
         Band energy:-166.854654;  BLOECHL correction:  0.000000
       DOS:  cpu time    0.0000: real time    0.0003
    CHARGE:  cpu time    0.0240: real time    0.0234
    MIXING:  cpu time    0.0010: real time    0.0017
    --------------------------------------------
      LOOP:  cpu time    0.3190: real time    0.3201

 eigenvalue-minimisations  :   376
 total energy-change (2. order) :-0.8716583E-02  (-0.8714495E-02)
 number of electron      18.0000010 magnetization 
 augmentation part       -0.9453330 magnetization 

 Broyden mixing:
  rms(total) = 0.68872E+00    rms(broyden)= 0.68871E+00
  rms(prec ) = 0.74599E+00
  weight for this iteration     100.00

 Free energy of the ion-electron system (eV)
  ---------------------------------------------------
  alpha Z        PSCENC =        12.51390764
  Ewald energy   TEWEN  =      4286.25630342
  -Hartree energ DENC   =     -4967.71356795
  -exchange      EXHF   =         0.00000000
  -V(xc)+E(xc)   XCENC  =       -36.31055754
  PAW double counting   =       406.88651198     -329.34073203
  entropy T*S    EENTRO =         0.00000000
  eigenvalues    EBANDS =      -166.85465437
  atomic energy  EATOM  =       771.15511399
  Solvation  Ediel_sol  =         0.00000000
  ---------------------------------------------------
  free energy    TOTEN  =       -23.40767485 eV

  energy without entropy =      -23.40767485  energy(sigma->0) =      -23.40767485


--------------------------------------------------------------------------------------------------------




--------------------------------------- Iteration      1(   6)  ---------------------------------------


    POTLOK:  cpu time    0.0470: real time    0.0475
    SETDIJ:  cpu time    0.0030: real time    0.0025
    EDDIAG:  cpu time    0.0490: real time    0.0489
  RMM-DIIS:  cpu time    0.2030: real time    0.2031
    ORTHCH:  cpu time    0.0040: real time    0.0045
 BZINTS: Fermi energy: -4.384225; 18.000000 electrons
         Band energy:-167.345680;  BLOECHL correction:  0.000000
       DOS:  cpu time    0.0000: real time    0.0002
    CHARGE:  cpu time    0.0230: real time    0.0227
    MIXING:  cpu time    0.0020: real time    0.0016
    --------------------------------------------
      LOOP:  cpu time    0.3309: real time    0.3311

 eigenvalue-minimisations  :   294
 total energy-change (2. order) : 0.1160604E+01  (-0.5435843E+00)
 number of electron      18.0000010 magnetization 
 augmentation part       -0.3987784 magnetization 

 Broyden mixing:
  rms(total) = 0.26173E+00    rms(broyden)= 0.26172E+00
  rms(prec ) = 0.30739E+00
  weight for this iteration     100.00

 eigenvalues of (default mixing * dielectric matrix)
  average eigenvalue GAMMA=   0.8335
  0.8335

 Free energy of the ion-electron system (eV)
  ---------------------------------------------------
  alpha Z        PSCENC =        12.51390764
  Ewald energy   TEWEN  =      4286.25630342
  -Hartree energ DENC   =     -4966.05833075
  -exchange      EXHF   =         0.00000000
  -V(xc)+E(xc)   XCENC  =       -35.42404195
  PAW double counting   =       423.98366447     -347.32800753
  entropy T*S    EENTRO =         0.00000000
  eigenvalues    EBANDS =      -167.34567990
  atomic energy  EATOM  =       771.15511399
  Solvation  Ediel_sol  =         0.00000000
  ---------------------------------------------------
  free energy    TOTEN  =       -22.24707061 eV

  energy without entropy =      -22.24707061  energy(sigma->0) =      -22.24707061


--------------------------------------------------------------------------------------------------------




--------------------------------------- Iteration      1(   7)  ---------------------------------------


    POTLOK:  cpu time    0.0420: real time    0.0422
    SETDIJ:  cpu time    0.0020: real time    0.0025
    EDDIAG:  cpu time    0.0490: real time    0.0489
  RMM-DIIS:  cpu time    0.1990: real time    0.1986
    ORTHCH:  cpu time    0.0040: real time    0.0045
 BZINTS: Fermi energy: -3.807466; 18.000000 electrons
         Band energy:-161.202252;  BLOECHL correction:  0.000000
       DOS:  cpu time    0.0000: real time    0.0002
    CHARGE:  cpu time    0.0230: real time    0.0227
    MIXING:  cpu time    0.0020: real time    0.0016
    --------------------------------------------
      LOOP:  cpu time    0.3210: real time    0.3212

 eigenvalue-minimisations  :   290
 total energy-change (2. order) : 0.3851617E+00  (-0.5537446E-01)
 number of electron      18.0000010 magnetization 
 augmentation part       -0.5990715 magnetization 

 Broyden mixing:
  rms(total) = 0.15001E+00    rms(broyden)= 0.15001E+00
  rms(prec ) = 0.15836E+00
  weight for this iteration     100.00

 eigenvalues of (default mixing * dielectric matrix)
  average eigenvalue GAMMA=   1.3615
  0.6659  2.0570

 Free energy of the ion-electron system (eV)
  ---------------------------------------------------
  alpha Z        PSCENC =        12.51390764
  Ewald energy   TEWEN  =      4286.25630342
  -Hartree energ DENC   =     -4971.44139935
  -exchange      EXHF   =         0.00000000
  -V(xc)+E(xc)   XCENC  =       -35.56790789
  PAW double counting   =       441.44268117     -365.01835631
  entropy T*S    EENTRO =         0.00000000
  eigenvalues    EBANDS =      -161.20225156
  atomic energy  EATOM  =       771.15511399
  Solvation  Ediel_sol  =         0.00000000
  ---------------------------------------------------
  free energy    TOTEN  =       -21.86190889 eV

  energy without entropy =      -21.86190889  energy(sigma->0) =      -21.86190889


--------------------------------------------------------------------------------------------------------




--------------------------------------- Iteration      1(   8)  ---------------------------------------


    POTLOK:  cpu time    0.0410: real time    0.0457
    SETDIJ:  cpu time    0.0040: real time    0.0026
    EDDIAG:  cpu time    0.0480: real time    0.0486
  RMM-DIIS:  cpu time    0.2110: real time    0.2112
    ORTHCH:  cpu time    0.0050: real time    0.0045
 BZINTS: Fermi energy: -3.707142; 18.000000 electrons
         Band energy:-156.992090;  BLOECHL correction:  0.000000
       DOS:  cpu time    0.0000: real time    0.0002
    CHARGE:  cpu time    0.0220: real time    0.0228
    MIXING:  cpu time    0.0030: real time    0.0023
    --------------------------------------------
      LOOP:  cpu time    0.3339: real time    0.3379

 eigenvalue-minimisations  :   307
 total energy-change (2. order) : 0.5987438E-01  (-0.2331522E-01)
 number of electron      18.0000010 magnetization 
 augmentation part       -0.5520359 magnetization 

 Broyden mixing:
  rms(total) = 0.35577E-01    rms(broyden)= 0.35576E-01
  rms(prec ) = 0.37921E-01
  weight for this iteration     100.00

 eigenvalues of (default mixing * dielectric matrix)
  average eigenvalue GAMMA=   1.4994
  1.9169  1.9169  0.6644

 Free energy of the ion-electron system (eV)
  ---------------------------------------------------
  alpha Z        PSCENC =        12.51390764
  Ewald energy   TEWEN  =      4286.25630342
  -Hartree energ DENC   =     -4975.34612091
  -exchange      EXHF   =         0.00000000
  -V(xc)+E(xc)   XCENC  =       -35.29747733
  PAW double counting   =       465.06705666     -389.15872790
  entropy T*S    EENTRO =         0.00000000
  eigenvalues    EBANDS =      -156.99209007
  atomic energy  EATOM  =       771.15511399
  Solvation  Ediel_sol  =         0.00000000
  ---------------------------------------------------
  free energy    TOTEN  =       -21.80203450 eV

  energy without entropy =      -21.80203450  energy(sigma->0) =      -21.80203450


--------------------------------------------------------------------------------------------------------




--------------------------------------- Iteration      1(   9)  ---------------------------------------


    POTLOK:  cpu time    0.0410: real time    0.0420
    SETDIJ:  cpu time    0.0030: real time    0.0026
    EDDIAG:  cpu time    0.0480: real time    0.0485
  RMM-DIIS:  cpu time    0.2330: real time    0.2328
    ORTHCH:  cpu time    0.0050: real time    0.0045
 BZINTS: Fermi energy: -3.634596; 18.000000 electrons
         Band energy:-155.671410;  BLOECHL correction:  0.000000
       DOS:  cpu time    0.0000: real time    0.0002
    CHARGE:  cpu time    0.0230: real time    0.0227
    MIXING:  cpu time    0.0010: real time    0.0018
    --------------------------------------------
      LOOP:  cpu time    0.3539: real time    0.3552

 eigenvalue-minimisations  :   333
 total energy-change (2. order) : 0.4844850E-02  (-0.8717839E-03)
 number of electron      18.0000010 magnetization 
 augmentation part       -0.5469868 magnetization 

 Broyden mixing:
  rms(total) = 0.96019E-02    rms(broyden)= 0.96013E-02
  rms(prec ) = 0.11843E-01
  weight for this iteration     100.00

 eigenvalues of (default mixing * dielectric matrix)
  average eigenvalue GAMMA=   1.5069
  0.6667  1.0476  2.4374  1.8757

 Free energy of the ion-electron system (eV)
  ---------------------------------------------------
  alpha Z        PSCENC =        12.51390764
  Ewald energy   TEWEN  =      4286.25630342
  -Hartree energ DENC   =     -4976.63549376
  -exchange      EXHF   =         0.00000000
  -V(xc)+E(xc)   XCENC  =       -35.24364783
  PAW double counting   =       470.49937946     -394.67134241
  entropy T*S    EENTRO =         0.00000000
  eigenvalues    EBANDS =      -155.67141017
  atomic energy  EATOM  =       771.15511399
  Solvation  Ediel_sol  =         0.00000000
  ---------------------------------------------------
  free energy    TOTEN  =       -21.79718965 eV

  energy without entropy =      -21.79718965  energy(sigma->0) =      -21.79718965


--------------------------------------------------------------------------------------------------------




--------------------------------------- Iteration      1(  10)  ---------------------------------------


    POTLOK:  cpu time    0.0420: real time    0.0421
    SETDIJ:  cpu time    0.0030: real time    0.0026
    EDDIAG:  cpu time    0.0480: real time    0.0485
  RMM-DIIS:  cpu time    0.2310: real time    0.2308
    ORTHCH:  cpu time    0.0040: real time    0.0045
 BZINTS: Fermi energy: -3.577102; 18.000000 electrons
         Band energy:-154.543993;  BLOECHL correction:  0.000000
       DOS:  cpu time    0.0000: real time    0.0002
    CHARGE:  cpu time    0.0230: real time    0.0227
    MIXING:  cpu time    0.0020: real time    0.0018
    --------------------------------------------
      LOOP:  cpu time    0.3529: real time    0.3532

 eigenvalue-minimisations  :   334
 total energy-change (2. order) : 0.7386310E-03  (-0.1706697E-03)
 number of electron      18.0000010 magnetization 
 augmentation part       -0.5514818 magnetization 

 Broyden mixing:
  rms(total) = 0.44054E-02    rms(broyden)= 0.44053E-02
  rms(prec ) = 0.60584E-02
  weight for this iteration     100.00

 eigenvalues of (default mixing * dielectric matrix)
  average eigenvalue GAMMA=   1.6700
  0.6674  1.0360  2.1596  2.2436  2.2436

 Free energy of the ion-electron system (eV)
  ---------------------------------------------------
  alpha Z        PSCENC =        12.51390764
  Ewald energy   TEWEN  =      4286.25630342
  -Hartree energ DENC   =     -4977.75312572
  -exchange      EXHF   =         0.00000000
  -V(xc)+E(xc)   XCENC  =       -35.22260359
  PAW double counting   =       472.75756757     -396.95962095
  entropy T*S    EENTRO =         0.00000000
  eigenvalues    EBANDS =      -154.54399339
  atomic energy  EATOM  =       771.15511399
  Solvation  Ediel_sol  =         0.00000000
  ---------------------------------------------------
  free energy    TOTEN  =       -21.79645102 eV

  energy without entropy =      -21.79645102  energy(sigma->0) =      -21.79645102


--------------------------------------------------------------------------------------------------------




--------------------------------------- Iteration      1(  11)  ---------------------------------------


    POTLOK:  cpu time    0.0410: real time    0.0442
    SETDIJ:  cpu time    0.0030: real time    0.0025
    EDDIAG:  cpu time    0.0490: real time    0.0485
  RMM-DIIS:  cpu time    0.2190: real time    0.2188
    ORTHCH:  cpu time    0.0040: real time    0.0045
 BZINTS: Fermi energy: -3.519451; 18.000000 electrons
         Band energy:-153.412243;  BLOECHL correction:  0.000000
       DOS:  cpu time    0.0000: real time    0.0002
    CHARGE:  cpu time    0.0230: real time    0.0229
    MIXING:  cpu time    0.0020: real time    0.0019
    --------------------------------------------
      LOOP:  cpu time    0.3409: real time    0.3435

 eigenvalue-minimisations  :   313
 total energy-change (2. order) : 0.7885867E-04  (-0.1691704E-03)
 number of electron      18.0000010 magnetization 
 augmentation part       -0.5477566 magnetization 

 Broyden mixing:
  rms(total) = 0.55438E-02    rms(broyden)= 0.55438E-02
  rms(prec ) = 0.63802E-02
  weight for this iteration     100.00

 eigenvalues of (default mixing * dielectric matrix)
  average eigenvalue GAMMA=   1.6708
  2.9075  2.6862  0.6680  0.9295  1.4168  1.4168

 Free energy of the ion-electron system (eV)
  ---------------------------------------------------
  alpha Z        PSCENC =        12.51390764
  Ewald energy   TEWEN  =      4286.25630342
  -Hartree energ DENC   =     -4978.90822635
  -exchange      EXHF   =         0.00000000
  -V(xc)+E(xc)   XCENC  =       -35.20893857
  PAW double counting   =       472.19592466     -396.38821402
  entropy T*S    EENTRO =         0.00000000
  eigenvalues    EBANDS =      -153.41224294
  atomic energy  EATOM  =       771.15511399
  Solvation  Ediel_sol  =         0.00000000
  ---------------------------------------------------
  free energy    TOTEN  =       -21.79637216 eV

  energy without entropy =      -21.79637216  energy(sigma->0) =      -21.79637216


--------------------------------------------------------------------------------------------------------




--------------------------------------- Iteration      1(  12)  ---------------------------------------


    POTLOK:  cpu time    0.0410: real time    0.0419
    SETDIJ:  cpu time    0.0040: real time    0.0025
    EDDIAG:  cpu time    0.0480: real time    0.0486
  RMM-DIIS:  cpu time    0.2130: real time    0.2126
    ORTHCH:  cpu time    0.0040: real time    0.0045
 BZINTS: Fermi energy: -3.484628; 18.000000 electrons
         Band energy:-152.762213;  BLOECHL correction:  0.000000
       DOS:  cpu time    0.0000: real time    0.0002
    CHARGE:  cpu time    0.0230: real time    0.0229
    MIXING:  cpu time    0.0020: real time    0.0020
    --------------------------------------------
      LOOP:  cpu time    0.3349: real time    0.3352

 eigenvalue-minimisations  :   304
 total energy-change (2. order) : 0.1978763E-03  (-0.5508258E-04)
 number of electron      18.0000010 magnetization 
 augmentation part       -0.5505113 magnetization 

 Broyden mixing:
  rms(total) = 0.17331E-02    rms(broyden)= 0.17330E-02
  rms(prec ) = 0.23297E-02
  weight for this iteration     100.00

 eigenvalues of (default mixing * dielectric matrix)
  average eigenvalue GAMMA=   1.9414
  3.8393  2.7162  2.7162  0.6680  0.9634  1.4398  1.2466

 Free energy of the ion-electron system (eV)
  ---------------------------------------------------
  alpha Z        PSCENC =        12.51390764
  Ewald energy   TEWEN  =      4286.25630342
  -Hartree energ DENC   =     -4979.56359366
  -exchange      EXHF   =         0.00000000
  -V(xc)+E(xc)   XCENC  =       -35.20571415
  PAW double counting   =       472.37143220     -396.56141026
  entropy T*S    EENTRO =         0.00000000
  eigenvalues    EBANDS =      -152.76221347
  atomic energy  EATOM  =       771.15511399
  Solvation  Ediel_sol  =         0.00000000
  ---------------------------------------------------
  free energy    TOTEN  =       -21.79617429 eV

  energy without entropy =      -21.79617429  energy(sigma->0) =      -21.79617429


--------------------------------------------------------------------------------------------------------




--------------------------------------- Iteration      1(  13)  ---------------------------------------


    POTLOK:  cpu time    0.0430: real time    0.0433
    SETDIJ:  cpu time    0.0030: real time    0.0025
    EDDIAG:  cpu time    0.0490: real time    0.0491
  RMM-DIIS:  cpu time    0.1980: real time    0.1981
    ORTHCH:  cpu time    0.0040: real time    0.0045
 BZINTS: Fermi energy: -3.445857; 18.000000 electrons
         Band energy:-152.046014;  BLOECHL correction:  0.000000
       DOS:  cpu time    0.0000: real time    0.0002
    CHARGE:  cpu time    0.0230: real time    0.0228
    MIXING:  cpu time    0.0020: real time    0.0020
    --------------------------------------------
      LOOP:  cpu time    0.3220: real time    0.3227

 eigenvalue-minimisations  :   287
 total energy-change (2. order) :-0.2630713E-03  (-0.1530795E-04)
 number of electron      18.0000010 magnetization 
 augmentation part       -0.5489414 magnetization 

 Broyden mixing:
  rms(total) = 0.19776E-02    rms(broyden)= 0.19776E-02
  rms(prec ) = 0.22268E-02
  weight for this iteration     100.00

 eigenvalues of (default mixing * dielectric matrix)
  average eigenvalue GAMMA=   1.9025
  4.7448  2.7056  2.3738  1.4197  1.4197  0.6681  0.9442  0.9442

 Free energy of the ion-electron system (eV)
  ---------------------------------------------------
  alpha Z        PSCENC =        12.51390764
  Ewald energy   TEWEN  =      4286.25630342
  -Hartree energ DENC   =     -4980.28182627
  -exchange      EXHF   =         0.00000000
  -V(xc)+E(xc)   XCENC  =       -35.19894598
  PAW double counting   =       472.31671366     -396.51169009
  entropy T*S    EENTRO =         0.00000000
  eigenvalues    EBANDS =      -152.04601374
  atomic energy  EATOM  =       771.15511399
  Solvation  Ediel_sol  =         0.00000000
  ---------------------------------------------------
  free energy    TOTEN  =       -21.79643736 eV

  energy without entropy =      -21.79643736  energy(sigma->0) =      -21.79643736


--------------------------------------------------------------------------------------------------------




--------------------------------------- Iteration      1(  14)  ---------------------------------------


    POTLOK:  cpu time    0.0440: real time    0.0463
    SETDIJ:  cpu time    0.0030: real time    0.0025
    EDDIAG:  cpu time    0.0480: real time    0.0487
  RMM-DIIS:  cpu time    0.1840: real time    0.1829
    ORTHCH:  cpu time    0.0040: real time    0.0045
 BZINTS: Fermi energy: -3.437196; 18.000000 electrons
         Band energy:-151.890318;  BLOECHL correction:  0.000000
       DOS:  cpu time    0.0000: real time    0.0002
    CHARGE:  cpu time    0.0230: real time    0.0228
    MIXING:  cpu time    0.0020: real time    0.0021
    --------------------------------------------
      LOOP:  cpu time    0.3080: real time    0.3101

 eigenvalue-minimisations  :   252
 total energy-change (2. order) :-0.3584081E-04  (-0.2477213E-05)
 number of electron      18.0000010 magnetization 
 augmentation part       -0.5500938 magnetization 

 Broyden mixing:
  rms(total) = 0.49618E-03    rms(broyden)= 0.49617E-03
  rms(prec ) = 0.68634E-03
  weight for this iteration     100.00

 eigenvalues of (default mixing * dielectric matrix)
  average eigenvalue GAMMA=   2.1596
  6.4308  2.9618  2.3906  2.3906  1.5071  0.6681  1.1845  0.9515  0.9515

 Free energy of the ion-electron system (eV)
  ---------------------------------------------------
  alpha Z        PSCENC =        12.51390764
  Ewald energy   TEWEN  =      4286.25630342
  -Hartree energ DENC   =     -4980.43996812
  -exchange      EXHF   =         0.00000000
  -V(xc)+E(xc)   XCENC  =       -35.20106015
  PAW double counting   =       472.13791550     -396.32836759
  entropy T*S    EENTRO =         0.00000000
  eigenvalues    EBANDS =      -151.89031789
  atomic energy  EATOM  =       771.15511399
  Solvation  Ediel_sol  =         0.00000000
  ---------------------------------------------------
  free energy    TOTEN  =       -21.79647320 eV

  energy without entropy =      -21.79647320  energy(sigma->0) =      -21.79647320


--------------------------------------------------------------------------------------------------------




--------------------------------------- Iteration      1(  15)  ---------------------------------------


    POTLOK:  cpu time    0.0450: real time    0.0447
    SETDIJ:  cpu time    0.0030: real time    0.0025
    EDDIAG:  cpu time    0.0480: real time    0.0486
  RMM-DIIS:  cpu time    0.1530: real time    0.1529
    ORTHCH:  cpu time    0.0050: real time    0.0045
 BZINTS: Fermi energy: -3.427963; 18.000000 electrons
         Band energy:-151.733374;  BLOECHL correction:  0.000000
       DOS:  cpu time    0.0000: real time    0.0002
    CHARGE:  cpu time    0.0230: real time    0.0229
    MIXING:  cpu time    0.0020: real time    0.0023
    --------------------------------------------
      LOOP:  cpu time    0.2790: real time    0.2786

 eigenvalue-minimisations  :   195
 total energy-change (2. order) :-0.1028141E-03  (-0.1106812E-05)
 number of electron      18.0000010 magnetization 
 augmentation part       -0.5498528 magnetization 

 Broyden mixing:
  rms(total) = 0.28048E-03    rms(broyden)= 0.28047E-03
  rms(prec ) = 0.37371E-03
  weight for this iteration     100.00

 eigenvalues of (default mixing * dielectric matrix)
  average eigenvalue GAMMA=   2.1428
  6.5217  3.5443  2.6184  1.7583  1.7583  1.5567  0.6681  1.0560  1.0106  0.9357

 Free energy of the ion-electron system (eV)
  ---------------------------------------------------
  alpha Z        PSCENC =        12.51390764
  Ewald energy   TEWEN  =      4286.25630342
  -Hartree energ DENC   =     -4980.59705718
  -exchange      EXHF   =         0.00000000
  -V(xc)+E(xc)   XCENC  =       -35.20085671
  PAW double counting   =       472.16480340     -396.35541653
  entropy T*S    EENTRO =         0.00000000
  eigenvalues    EBANDS =      -151.73337405
  atomic energy  EATOM  =       771.15511399
  Solvation  Ediel_sol  =         0.00000000
  ---------------------------------------------------
  free energy    TOTEN  =       -21.79657601 eV

  energy without entropy =      -21.79657601  energy(sigma->0) =      -21.79657601


--------------------------------------------------------------------------------------------------------




--------------------------------------- Iteration      1(  16)  ---------------------------------------


    POTLOK:  cpu time    0.0440: real time    0.0449
    SETDIJ:  cpu time    0.0030: real time    0.0025
    EDDIAG:  cpu time    0.0490: real time    0.0487
  RMM-DIIS:  cpu time    0.1450: real time    0.1450
    ORTHCH:  cpu time    0.0040: real time    0.0045
 BZINTS: Fermi energy: -3.424044; 18.000000 electrons
         Band energy:-151.671939;  BLOECHL correction:  0.000000
       DOS:  cpu time    0.0000: real time    0.0002
    CHARGE:  cpu time    0.0230: real time    0.0228
    MIXING:  cpu time    0.0020: real time    0.0024
    --------------------------------------------
      LOOP:  cpu time    0.2700: real time    0.2711

 eigenvalue-minimisations  :   181
 total energy-change (2. order) :-0.3087678E-04  (-0.4821022E-06)
 number of electron      18.0000010 magnetization 
 augmentation part       -0.5499878 magnetization 

 Broyden mixing:
  rms(total) = 0.17119E-03    rms(broyden)= 0.17119E-03
  rms(prec ) = 0.21737E-03
  weight for this iteration     100.00

 eigenvalues of (default mixing * dielectric matrix)
  average eigenvalue GAMMA=   2.3066
  7.3270  3.9507  3.0085  2.6432  2.1314  1.5491  0.6681  1.1217  1.0797  0.9708
  0.9224

 Free energy of the ion-electron system (eV)
  ---------------------------------------------------
  alpha Z        PSCENC =        12.51390764
  Ewald energy   TEWEN  =      4286.25630342
  -Hartree energ DENC   =     -4980.65761130
  -exchange      EXHF   =         0.00000000
  -V(xc)+E(xc)   XCENC  =       -35.20073753
  PAW double counting   =       472.22019983     -396.41184420
  entropy T*S    EENTRO =         0.00000000
  eigenvalues    EBANDS =      -151.67193876
  atomic energy  EATOM  =       771.15511399
  Solvation  Ediel_sol  =         0.00000000
  ---------------------------------------------------
  free energy    TOTEN  =       -21.79660689 eV

  energy without entropy =      -21.79660689  energy(sigma->0) =      -21.79660689


--------------------------------------------------------------------------------------------------------




--------------------------------------- Iteration      1(  17)  ---------------------------------------


    POTLOK:  cpu time    0.0440: real time    0.0442
    SETDIJ:  cpu time    0.0030: real time    0.0025
    EDDIAG:  cpu time    0.0490: real time    0.0487
  RMM-DIIS:  cpu time    0.1320: real time    0.1323
    ORTHCH:  cpu time    0.0040: real time    0.0045
 BZINTS: Fermi energy: -3.422284; 18.000000 electrons
         Band energy:-151.634323;  BLOECHL correction:  0.000000
       DOS:  cpu time    0.0010: real time    0.0002
    CHARGE:  cpu time    0.0220: real time    0.0229
    MIXING:  cpu time    0.0030: real time    0.0025
    --------------------------------------------
      LOOP:  cpu time    0.2580: real time    0.2578

 eigenvalue-minimisations  :   162
 total energy-change (2. order) :-0.4499353E-04  (-0.3351127E-06)
 number of electron      18.0000010 magnetization 
 augmentation part       -0.5500034 magnetization 

 Broyden mixing:
  rms(total) = 0.14236E-03    rms(broyden)= 0.14235E-03
  rms(prec ) = 0.16394E-03
  weight for this iteration     100.00

 eigenvalues of (default mixing * dielectric matrix)
  average eigenvalue GAMMA=   2.3199
  7.7545  4.9406  2.9348  2.4956  2.1097  1.4909  1.4909  0.6681  1.0469  1.0469
  0.9300  0.9300

 Free energy of the ion-electron system (eV)
  ---------------------------------------------------
  alpha Z        PSCENC =        12.51390764
  Ewald energy   TEWEN  =      4286.25630342
  -Hartree energ DENC   =     -4980.69612564
  -exchange      EXHF   =         0.00000000
  -V(xc)+E(xc)   XCENC  =       -35.20089496
  PAW double counting   =       472.17430455     -396.36493803
  entropy T*S    EENTRO =         0.00000000
  eigenvalues    EBANDS =      -151.63432286
  atomic energy  EATOM  =       771.15511399
  Solvation  Ediel_sol  =         0.00000000
  ---------------------------------------------------
  free energy    TOTEN  =       -21.79665188 eV

  energy without entropy =      -21.79665188  energy(sigma->0) =      -21.79665188


--------------------------------------------------------------------------------------------------------




--------------------------------------- Iteration      1(  18)  ---------------------------------------


    POTLOK:  cpu time    0.0440: real time    0.0467
    SETDIJ:  cpu time    0.0030: real time    0.0025
    EDDIAG:  cpu time    0.0480: real time    0.0486
  RMM-DIIS:  cpu time    0.1180: real time    0.1180
    ORTHCH:  cpu time    0.0040: real time    0.0045
 BZINTS: Fermi energy: -3.422430; 18.000000 electrons
         Band energy:-151.635449;  BLOECHL correction:  0.000000
       DOS:  cpu time    0.0000: real time    0.0002
    --------------------------------------------
      LOOP:  cpu time    0.2170: real time    0.2206

 eigenvalue-minimisations  :    85
 total energy-change (2. order) :-0.7586143E-05  (-0.4364837E-07)
 number of electron      18.0000010 magnetization 
 augmentation part       -0.5500034 magnetization 

 Free energy of the ion-electron system (eV)
  ---------------------------------------------------
  alpha Z        PSCENC =        12.51390764
  Ewald energy   TEWEN  =      4286.25630342
  -Hartree energ DENC   =     -4980.69481832
  -exchange      EXHF   =         0.00000000
  -V(xc)+E(xc)   XCENC  =       -35.20086205
  PAW double counting   =       472.18409527     -396.37495069
  entropy T*S    EENTRO =         0.00000000
  eigenvalues    EBANDS =      -151.63544874
  atomic energy  EATOM  =       771.15511399
  Solvation  Ediel_sol  =         0.00000000
  ---------------------------------------------------
  free energy    TOTEN  =       -21.79665947 eV

  energy without entropy =      -21.79665947  energy(sigma->0) =      -21.79665947


--------------------------------------------------------------------------------------------------------




 average (electrostatic) potential at core
  the test charge radii are     1.2296  0.9698
  (the norm of the test charge is              1.0000)
       1 -46.8756       2 -94.7141       3 -94.7142
 
 
 
 E-fermi :  -3.4224     XC(G=0):  -2.8708     alpha+bet : -2.6672


 k-point     1 :       0.0000    0.0000    0.0000
  band No.  band energies     occupation 
      1     -17.4635      2.00000
      2     -16.2555      2.00000
      3      -8.9839      2.00000
      4      -6.0231      2.00000
      5      -6.0231      2.00000
      6      -5.1618      2.00000
      7      -4.9175      2.00000
      8      -4.9175      2.00000
      9      -3.4417      2.00000
     10      -0.6700      0.00000
     11      -0.6700      0.00000
     12      -0.4463      0.00000
     13      -0.4463      0.00000
     14       1.9919      0.00000

 k-point     2 :       0.1250    0.0000    0.0000
  band No.  band energies     occupation 
      1     -17.2494      2.00000
      2     -16.1531      2.00000
      3      -8.7394      2.00000
      4      -6.4865      2.00000
      5      -5.9698      2.00000
      6      -5.7887      2.00000
      7      -5.2533      2.00000
      8      -4.4843      2.00000
      9      -3.5801      2.00000
     10      -0.9501      0.00000
     11      -0.8843      0.00000
     12      -0.6829      0.00000
     13      -0.3152      0.00000
     14       2.3669      0.00000

 k-point     3 :       0.2500    0.0000    0.0000
  band No.  band energies     occupation 
      1     -16.6806      2.00000
      2     -15.8842      2.00000
      3      -8.3732      2.00000
      4      -7.2131      2.00000
      5      -6.9507      2.00000
      6      -5.8883      2.00000
      7      -5.2016      2.00000
      8      -4.7359      2.00000
      9      -4.1480      2.00000
     10      -1.2743      0.00000
     11      -1.0977      0.00000
     12      -0.5556      0.00000
     13       0.3017      0.00000
     14       3.1803      0.00000

 k-point     4 :       0.3750    0.0000    0.0000
  band No.  band energies     occupation 
      1     -16.0054      2.00000
      2     -15.5758      2.00000
      3      -8.8105      2.00000
      4      -7.8180      2.00000
      5      -7.3460      2.00000
      6      -6.3856      2.00000
      7      -5.1452      2.00000
      8      -4.6111      2.00000
      9      -4.3431      2.00000
     10      -1.2792      0.00000
     11      -1.0004      0.00000
     12       0.1629      0.00000
     13       0.6951      0.00000
     14       3.7014      0.00000

 k-point     5 :       0.5000    0.0000    0.0000
  band No.  band energies     occupation 
      1     -15.6772      2.00000
      2     -15.4324      2.00000
      3      -9.1432      2.00000
      4      -8.1830      2.00000
      5      -7.4722      2.00000
      6      -6.5661      2.00000
      7      -5.2840      2.00000
      8      -4.3839      2.00000
      9      -4.0622      2.00000
     10      -1.2570      0.00000
     11      -0.7411      0.00000
     12       0.4615      0.00000
     13       0.8105      0.00000
     14       2.7407      0.00000

 k-point     6 :       0.1250    0.1250    0.0000
  band No.  band energies     occupation 
      1     -16.8565      2.00000
      2     -15.9660      2.00000
      3      -8.3921      2.00000
      4      -7.0505      2.00000
      5      -6.5320      2.00000
      6      -6.0671      2.00000
      7      -5.4492      2.00000
      8      -4.3498      2.00000
      9      -3.9519      2.00000
     10      -1.3494      0.00000
     11      -0.9712      0.00000
     12      -0.9595      0.00000
     13       0.2796      0.00000
     14       2.9547      0.00000

 k-point     7 :       0.2500    0.1250    0.0000
  band No.  band energies     occupation 
      1     -16.2229      2.00000
      2     -15.6674      2.00000
      3      -8.4548      2.00000
      4      -7.4772      2.00000
      5      -7.2142      2.00000
      6      -6.5714      2.00000
      7      -5.3498      2.00000
      8      -4.7120      2.00000
      9      -4.2355      2.00000
     10      -1.4328      0.00000
     11      -0.9844      0.00000
     12      -0.4895      0.00000
     13       0.7874      0.00000
     14       3.9241      0.00000

 k-point     8 :       0.3750    0.1250    0.0000
  band No.  band energies     occupation 
      1     -15.6924      2.00000
      2     -15.4235      2.00000
      3      -8.8558      2.00000
      4      -8.2402      2.00000
      5      -7.3445      2.00000
      6      -6.5882      2.00000
      7      -5.3346      2.00000
      8      -5.1939      2.00000
      9      -3.9085      2.00000
     10      -1.2381      0.00000
     11      -0.7278      0.00000
     12       0.1323      0.00000
     13       0.8211      0.00000
     14       3.2676      0.00000

 k-point     9 :       0.2500    0.2500    0.0000
  band No.  band energies     occupation 
      1     -15.7074      2.00000
      2     -15.4145      2.00000
      3      -8.4954      2.00000
      4      -8.2910      2.00000
      5      -7.0174      2.00000
      6      -6.6365      2.00000
      7      -6.3174      2.00000
      8      -5.0604      2.00000
      9      -3.9374      2.00000
     10      -1.2891      0.00000
     11      -0.6781      0.00000
     12      -0.3663      0.00000
     13       1.1091      0.00000
     14       4.1000      0.00000

 k-point    10 :       0.3750    0.2500    0.0000
  band No.  band energies     occupation 
      1     -15.4725      2.00000
      2     -15.2953      2.00000
      3      -8.6754      2.00000
      4      -8.3264      2.00000
      5      -7.3017      2.00000
      6      -6.6391      2.00000
      7      -6.4089      2.00000
      8      -5.4467      2.00000
      9      -3.5700      2.00000
     10      -1.6148      0.00000
     11      -0.3079      0.00000
     12      -0.1275      0.00000
     13       1.2543      0.00000
     14       3.5106      0.00000


--------------------------------------------------------------------------------------------------------


 soft charge-density along one line, spin component           1
         0         1         2         3         4         5         6         7         8         9
 total charge-density along one line
 
 pseudopotential strength for first ion, spin component:           1
 -9.987  -0.000   0.000   0.000   0.000   0.102   0.000  -0.000
 -0.000  -9.987  -0.000  -0.000   0.000   0.000   0.102   0.000
  0.000  -0.000  -9.966  -0.000  -0.000  -0.000   0.000   0.101
  0.000  -0.000  -0.000  -9.987  -0.000  -0.000   0.000   0.000
  0.000   0.000  -0.000  -0.000  -9.987  -0.000  -0.000   0.000
  0.102   0.000  -0.000  -0.000  -0.000   0.098  -0.000   0.000
  0.000   0.102   0.000   0.000  -0.000  -0.000   0.098  -0.000
 -0.000   0.000   0.101   0.000   0.000   0.000  -0.000   0.098
 -0.000   0.000   0.000   0.102   0.000   0.000  -0.000  -0.000
 -0.000  -0.000   0.000   0.000   0.102   0.000   0.000  -0.000
  0.000   0.000  -0.005   0.000  -0.000  -0.000  -0.000   0.000
 -0.000  -0.000   0.001  -0.000   0.000   0.000   0.000  -0.000
 -0.000   0.000  -0.000  -0.000  -0.007   0.000  -0.000   0.000
 -0.000   0.000  -0.000  -0.000   0.000  -0.000  -0.000  -0.000
 -0.007  -0.000   0.000   0.000  -0.000  -0.000  -0.000  -0.000
  0.000  -0.000   0.000   0.000   0.004  -0.000   0.000  -0.000
  0.000  -0.000   0.000   0.000  -0.000  -0.000   0.000   0.000
  0.004   0.000  -0.000  -0.000   0.000   0.000  -0.000   0.000
 total augmentation occupancy for first ion, spin component:           1
  0.965   0.000  -0.000   0.000  -0.000   0.601   0.000  -0.000  -0.000  -0.000  -0.000   0.000   0.000   0.000  -0.065  -0.000
  0.000   0.907   0.000   0.000   0.000   0.000   0.839   0.000   0.000   0.000   0.000   0.000  -0.000   0.000  -0.000   0.000
 -0.000   0.000   1.029   0.000   0.000  -0.000   0.000   0.501  -0.000   0.000   0.111  -0.019  -0.000  -0.000   0.000   0.000
  0.000   0.000   0.000   0.907  -0.000   0.000   0.000  -0.000   0.839   0.000   0.000   0.000   0.000  -0.000   0.000  -0.000
 -0.000   0.000   0.000   0.000   0.965   0.000  -0.000   0.000   0.000   0.601   0.000  -0.000  -0.065  -0.000  -0.000   0.007
  0.601  -0.000  -0.000   0.000   0.000   0.678  -0.000  -0.000  -0.000  -0.000   0.000   0.000   0.000  -0.000  -0.136  -0.000
  0.000   0.839  -0.000   0.000   0.000   0.000   1.081  -0.000   0.000  -0.000   0.000  -0.000   0.000   0.000   0.000  -0.000
 -0.000   0.000   0.501   0.000   0.000  -0.000   0.000   0.476   0.000   0.000   0.059  -0.021  -0.000  -0.000   0.000   0.000
 -0.000   0.000  -0.000   0.839   0.000  -0.000   0.000  -0.000   1.081   0.000   0.000   0.000   0.000   0.000  -0.000   0.000
 -0.000   0.000   0.000   0.000   0.601  -0.000   0.000   0.000   0.000   0.678   0.000   0.000  -0.136   0.000  -0.000   0.023
 -0.000   0.000   0.111   0.000   0.000   0.000   0.000   0.059   0.000   0.000   1.207  -0.185   0.000   0.000   0.000  -0.000
  0.000   0.000  -0.019   0.000  -0.000   0.000   0.000  -0.021   0.000  -0.000  -0.185   0.042   0.000   0.000   0.000  -0.000
  0.000  -0.000  -0.000   0.000  -0.065   0.000   0.000  -0.000  -0.000  -0.136  -0.000  -0.000   0.217   0.000   0.000  -0.032
  0.000   0.000  -0.000   0.000  -0.000  -0.000   0.000  -0.000  -0.000   0.000   0.000   0.000   0.000   0.264   0.000   0.000
 -0.065   0.000   0.000   0.000  -0.000  -0.136   0.000   0.000  -0.000  -0.000  -0.000   0.000   0.000   0.000   0.217  -0.000
 -0.000   0.000   0.000   0.000   0.007  -0.000   0.000   0.000   0.000   0.023   0.000   0.000  -0.032   0.000  -0.000   0.005
  0.000  -0.000   0.000   0.000   0.000   0.000  -0.000  -0.000  -0.000   0.000   0.000   0.000   0.000  -0.038   0.000   0.000
  0.007   0.000  -0.000  -0.000   0.000   0.023   0.000  -0.000   0.000   0.000  -0.000   0.000  -0.000  -0.000  -0.032   0.000


------------------------ aborting loop because EDIFF is reached ----------------------------------------


    CHARGE:  cpu time    0.0220: real time    0.0228
    FORLOC:  cpu time    0.0040: real time    0.0042
    FORNL :  cpu time    0.0360: real time    0.0349
    STRESS:  cpu time    0.2010: real time    0.2011
    FORCOR:  cpu time    0.0510: real time    0.0505
    FORHAR:  cpu time    0.0110: real time    0.0113
    MIXING:  cpu time    0.0030: real time    0.0026
    OFIELD:  cpu time    0.0000: real time    0.0000

  DFT-D2 method for vdW energy calculation
  -------------------------------------------------------------------

  Parameters of vdW forcefield:
         C6(Jnm^6/mol)     R0(A)
   -----------------------------
   Mo      24.670          1.639
   S        5.570          1.683

  IVDW =   1
  VDW_RADIUS =    50.000 A
  VDW_S6 =     0.750
  VDW_SR =     1.000
  VDW_D =    20.000
  LVDW_EWALD = F

  Number of pair interactions contributing to vdW energy:   12957
  Edisp (eV):   -0.59091
    FORVDW:  cpu time    0.0110: real time    0.0158

  FORCE on cell =-STRESS in cart. coord.  units (eV):
  Direction    XX          YY          ZZ          XY          YZ          ZX
  --------------------------------------------------------------------------------------
  Alpha Z    12.51391    12.51391    12.51391
  Ewald    4853.12264  4853.12308 -5419.98957     0.00019     0.00000     0.00012
  Hartree  4942.42578  4942.42579 -4904.15371     0.00002    -0.00000    -0.00000
  E(xc)     -70.29694   -70.29695   -70.90167    -0.00000    -0.00000    -0.00000
  Local  -10076.26563-10076.26596 10037.45991    -0.00021    -0.00000    -0.00006
  n-local   127.16285   125.78460   131.68456    -0.25459    -0.00000     0.00000
  augment   -25.56549   -25.56541   -26.66745     0.00007    -0.00000    -0.00000
  Kinetic   235.88881   238.69048   239.80679    -7.41129     0.00001     0.00002
  Fock        0.00000     0.00000     0.00000     0.00000     0.00000     0.00000
  vdW         0.16041     0.16041    -0.13425     0.00000     0.00000    -0.00000
  -------------------------------------------------------------------------------------
  Total      -0.14186    -0.14186    -0.38149     0.00000     0.00000    -0.00000
  in kB      -0.95930    -0.95930    -2.57979     0.00000     0.00000    -0.00000
  external pressure =       -1.50 kB  Pullay stress =        0.00 kB


 VOLUME and BASIS-vectors are now :
 -----------------------------------------------------------------------------
  energy-cutoff  :      450.00
  volume of cell :      236.93
      direct lattice vectors                 reciprocal lattice vectors
     3.190315730  0.000000000  0.000000000     0.313448600  0.180969634  0.000000000
    -1.595157865  2.762894468  0.000000000     0.000000000  0.361939267  0.000000000
     0.000000000  0.000000000 26.879004300     0.000000000  0.000000000  0.037203759

  length of vectors
     3.190315730  3.190315730 26.879004300     0.361939267  0.361939267  0.037203759


 FORCES acting on ions
    electron-ion (+dipol)            ewald-force                    non-local-force                 convergence-correction
 -----------------------------------------------------------------------------------------------
   -.109E-04 -.881E-06 -.695E-04   0.931E-04 -.108E-03 0.307E-06   0.347E-17 0.000E+00 0.203E-19   0.161E-08 -.227E-08 0.465E-06
   -.853E-03 0.495E-03 0.579E+03   -.864E-04 0.538E-04 -.584E+03   0.295E-16 -.503E-16 0.480E+01   -.136E-07 0.711E-08 0.243E-02
   0.864E-03 0.494E-03 -.579E+03   -.674E-05 0.538E-04 0.584E+03   0.520E-17 -.503E-16 -.480E+01   0.140E-07 0.711E-08 -.243E-02
 -----------------------------------------------------------------------------------------------
   -.286E-06 0.988E-03 -.104E-03   0.897E-14 0.972E-14 -.114E-12   0.382E-16 -.101E-15 0.000E+00   0.204E-08 0.119E-07 0.125E-05
 
 
 POSITION                                       TOTAL-FORCE (eV/Angst)
 -----------------------------------------------------------------------------------
     -0.00000      1.84193      3.71975         0.000000      0.000000     -0.000000
      1.59516      0.92096      2.15487        -0.000000      0.000000      0.114551
      1.59516      0.92096      5.28464        -0.000000      0.000000     -0.114551
 -----------------------------------------------------------------------------------
    total drift:                               -0.000000      0.000988     -0.000103


--------------------------------------------------------------------------------------------------------



  FREE ENERGIE OF THE ION-ELECTRON SYSTEM (eV)
  ---------------------------------------------------
  free  energy   TOTEN  =       -22.38756853 eV

  energy  without entropy=      -22.38756853  energy(sigma->0) =      -22.38756853
 


--------------------------------------------------------------------------------------------------------


    POTLOK:  cpu time    0.0470: real time    0.0466


--------------------------------------------------------------------------------------------------------


     LOOP+:  cpu time    6.3440: real time    6.7579
    4ORBIT:  cpu time    0.0000: real time    0.0000
 BZINTS: Fermi energy: -3.422430; 18.000000 electrons
         Band energy:-151.635449;  BLOECHL correction:  0.000000

 total amount of memory used by VASP MPI-rank0    50561. kBytes
=======================================================================

   base      :      30000. kBytes
   nonl-proj :       7753. kBytes
   fftplans  :       3767. kBytes
   grid      :       6016. kBytes
   one-center:         31. kBytes
   wavefun   :       2994. kBytes
 
  
  
 General timing and accounting informations for this job:
 ========================================================
  
                  Total CPU time used (sec):        7.417
                            User time (sec):        7.250
                          System time (sec):        0.167
                         Elapsed time (sec):        8.912
  
                   Maximum memory used (kb):       44836.
                   Average memory used (kb):           0.
  
                          Minor page faults:        12677
                          Major page faults:          167
                 Voluntary context switches:         2689
