perl: warning: Setting locale failed.
perl: warning: Please check that your locale settings:
	LANGUAGE = (unset),
	LC_ALL = (unset),
	LC_CTYPE = "UTF-8",
	LANG = "en_US.iso885915"
    are supported and installed on your system.
perl: warning: Falling back to the standard locale ("C").
Starting job 28532689 ("jobname") on c14-5 at Fri Nov 8 11:57:50 CET 2019
 running on    4 total cores
 distrk:  each k-point on    4 cores,    1 groups
 distr:  one band on    2 cores,    2 groups
 using from now: INCAR     
 vasp.5.4.4.18Apr17-6-g9f103f2a35 (build Jun 30 2017 11:15:00) complex          
  
 POSCAR found type information on POSCAR  Mo S 
 POSCAR found :  2 types and       3 ions
 scaLAPACK will be used
 LDA part: xc-table for Pade appr. of Perdew
 POSCAR, INCAR and KPOINTS ok, starting setup
 FFT: planning ...
 WAVECAR not read
 entering main loop
       N       E                     dE             d eps       ncg     rms          rms(c)
DAV:   1     0.130379903978E+03    0.13038E+03   -0.54763E+03   280   0.815E+02
DAV:   2    -0.723755944660E+01   -0.13762E+03   -0.12923E+03   464   0.171E+02
DAV:   3    -0.230790637364E+02   -0.15842E+02   -0.15704E+02   402   0.728E+01
DAV:   4    -0.233989582690E+02   -0.31989E+00   -0.31729E+00   354   0.125E+01
DAV:   5    -0.234076748517E+02   -0.87166E-02   -0.87145E-02   376   0.205E+00    0.689E+00
RMM:   6    -0.222470706072E+02    0.11606E+01   -0.54358E+00   294   0.124E+01    0.262E+00
RMM:   7    -0.218619088859E+02    0.38516E+00   -0.55374E-01   290   0.341E+00    0.150E+00
RMM:   8    -0.218020345042E+02    0.59874E-01   -0.23315E-01   307   0.251E+00    0.356E-01
RMM:   9    -0.217971896542E+02    0.48449E-02   -0.87178E-03   333   0.606E-01    0.960E-02
RMM:  10    -0.217964510232E+02    0.73863E-03   -0.17067E-03   334   0.221E-01    0.441E-02
RMM:  11    -0.217963721645E+02    0.78859E-04   -0.16917E-03   313   0.193E-01    0.554E-02
RMM:  12    -0.217961742883E+02    0.19788E-03   -0.55083E-04   304   0.132E-01    0.173E-02
RMM:  13    -0.217964373596E+02   -0.26307E-03   -0.15308E-04   287   0.699E-02    0.198E-02
RMM:  14    -0.217964732004E+02   -0.35841E-04   -0.24772E-05   252   0.271E-02    0.496E-03
RMM:  15    -0.217965760145E+02   -0.10281E-03   -0.11068E-05   195   0.170E-02    0.280E-03
RMM:  16    -0.217966068913E+02   -0.30877E-04   -0.48210E-06   181   0.939E-03    0.171E-03
RMM:  17    -0.217966518848E+02   -0.44994E-04   -0.33511E-06   162   0.795E-03    0.142E-03
RMM:  18    -0.217966594710E+02   -0.75861E-05   -0.43648E-07    85   0.409E-03
   1 F= -.22387569E+02 E0= -.22387569E+02  d E =0.000000E+00

Currently Loaded Modulefiles:
  1) Anaconda3/5.1.0       3) vesta/3.3.8           5) intel/2016.1
  2) gnuplot/5.0.4         4) imagemagick/6.7.9-0   6) vasp/5.4.1.Feb16

Job script resource usage:
       JobID  MaxVMSize     MaxRSS 
------------ ---------- ---------- 
28532689.ba+    216888K      2596K 

Job step resource usage:
       JobID    JobName  AllocCPUS  MaxVMSize     MaxRSS    Elapsed ExitCode 
------------ ---------- ---------- ---------- ---------- ---------- -------- 
28532689        jobname          4                         00:00:11      0:0 
28532689.0    pmi_proxy          1    279832K       538K   00:00:09      0:0 

Job 28532689 ("jobname") completed on c14-5 at Fri Nov 8 11:57:59 CET 2019
