<?xml version="1.0" encoding="ISO-8859-1"?>
<modeling>
 <generator>
  <i name="program" type="string">vasp </i>
  <i name="version" type="string">5.4.4.18Apr17-6-g9f103f2a35  </i>
  <i name="subversion" type="string">(build Jun 30 2017 11:15:00) complex            parallel </i>
  <i name="platform" type="string">STALLO_VASP_5.4.4 </i>
  <i name="date" type="string">2019 11 08 </i>
  <i name="time" type="string">11:57:50 </i>
 </generator>
 <incar>
  <i type="string" name="PREC">normal    ! low/normal/accurate</i>
  <i type="string" name="ALGO"> Fast      ! Algorithm for electronic re</i>
  <i type="int" name="ISPIN">     1</i>
  <i type="int" name="NELMIN">     4</i>
  <i name="EDIFF">      0.00001000</i>
  <i type="int" name="NSW">     0</i>
  <i name="ENCUT">    450.00000000</i>
  <i type="logical" name="LREAL"> F  </i>
  <i type="int" name="ISMEAR">    -5</i>
  <i name="SIGMA">      0.20000000</i>
  <i type="logical" name="LWAVE"> F  </i>
  <v type="int" name="KPOINT_BSE">    -1     0     0     0</v>
 </incar>
 <structure name="primitive_cell" >
  <crystal>
   <varray name="basis" >
    <v>       3.19031573       0.00000000       0.00000000 </v>
    <v>      -1.59515786       2.76289447       0.00000000 </v>
    <v>       0.00000000       0.00000000      26.87900430 </v>
   </varray>
   <i name="volume">    236.92513614 </i>
   <varray name="rec_basis" >
    <v>       0.31344860       0.18096963       0.00000000 </v>
    <v>       0.00000000       0.36193927       0.00000000 </v>
    <v>       0.00000000       0.00000000       0.03720376 </v>
   </varray>
  </crystal>
  <varray name="positions" >
   <v>       0.33333300      -0.33333300       0.13838872 </v>
   <v>      -0.33333400       0.33333300       0.19660830 </v>
   <v>      -0.33333300       0.33333300       0.08016914 </v>
  </varray>
 </structure>
 <varray name="primitive_index" >
  <v type="int" >        1 </v>
  <v type="int" >        3 </v>
  <v type="int" >        2 </v>
 </varray>
 <kpoints>
  <generation param="Gamma">
   <v type="int" name="divisions">       8        8        1 </v>
   <v name="usershift">      0.00000000       0.00000000       0.00000000 </v>
   <v name="genvec1">      0.12500000       0.00000000       0.00000000 </v>
   <v name="genvec2">      0.00000000       0.12500000       0.00000000 </v>
   <v name="genvec3">      0.00000000       0.00000000       1.00000000 </v>
   <v name="shift">      0.00000000       0.00000000       0.00000000 </v>
  </generation>
  <varray name="kpointlist" >
   <v>       0.00000000       0.00000000       0.00000000 </v>
   <v>       0.12500000       0.00000000       0.00000000 </v>
   <v>       0.25000000       0.00000000       0.00000000 </v>
   <v>       0.37500000       0.00000000       0.00000000 </v>
   <v>       0.50000000       0.00000000       0.00000000 </v>
   <v>       0.12500000       0.12500000       0.00000000 </v>
   <v>       0.25000000       0.12500000       0.00000000 </v>
   <v>       0.37500000       0.12500000       0.00000000 </v>
   <v>       0.25000000       0.25000000       0.00000000 </v>
   <v>       0.37500000       0.25000000       0.00000000 </v>
  </varray>
  <varray name="weights" >
   <v>       0.01562500 </v>
   <v>       0.09375000 </v>
   <v>       0.09375000 </v>
   <v>       0.09375000 </v>
   <v>       0.04687500 </v>
   <v>       0.09375000 </v>
   <v>       0.18750000 </v>
   <v>       0.18750000 </v>
   <v>       0.09375000 </v>
   <v>       0.09375000 </v>
  </varray>
  <varray name="tetrahedronlist"  type="int" >
   <v type="int" >       12        2        2        2        6 </v>
   <v type="int" >       12        1        2        2        2 </v>
   <v type="int" >        6        1        1        2        2 </v>
   <v type="int" >        6        2        2        6        6 </v>
   <v type="int" >       12        3        6        6        7 </v>
   <v type="int" >       12        2        3        6        6 </v>
   <v type="int" >       12        2        2        3        6 </v>
   <v type="int" >       12        3        6        7        7 </v>
   <v type="int" >       12        3        3        6        7 </v>
   <v type="int" >       12        2        3        3        6 </v>
   <v type="int" >       12        4        7        7        8 </v>
   <v type="int" >       12        3        4        7        7 </v>
   <v type="int" >       12        3        3        4        7 </v>
   <v type="int" >       12        4        7        8        8 </v>
   <v type="int" >       12        4        4        7        8 </v>
   <v type="int" >       12        3        4        4        7 </v>
   <v type="int" >       12        5        8        8        8 </v>
   <v type="int" >       12        4        5        8        8 </v>
   <v type="int" >       12        4        4        5        8 </v>
   <v type="int" >        6        5        5        8        8 </v>
   <v type="int" >       12        4        5        5        8 </v>
   <v type="int" >       12        7        7        7        9 </v>
   <v type="int" >       12        6        7        7        7 </v>
   <v type="int" >        6        6        6        7        7 </v>
   <v type="int" >        6        7        7        9        9 </v>
   <v type="int" >       12        8        9        9       10 </v>
   <v type="int" >       12        7        8        9        9 </v>
   <v type="int" >       12        7        7        8        9 </v>
   <v type="int" >       12        8        9       10       10 </v>
   <v type="int" >       12        8        8        9       10 </v>
   <v type="int" >       12        7        8        8        9 </v>
   <v type="int" >        6        8        8       10       10 </v>
   <v type="int" >       12        8        8        8       10 </v>
   <v type="int" >        6       10       10       10       10 </v>
   <v type="int" >       12        9       10       10       10 </v>
   <v type="int" >        6        9        9       10       10 </v>
  </varray>
  <i name="volumeweight">      0.00260417 </i>
 </kpoints>
 <parameters>
  <separator name="general" >
   <i type="string" name="SYSTEM">unknown system</i>
   <i type="logical" name="LCOMPAT"> F  </i>
  </separator>
  <separator name="electronic" >
   <i type="string" name="PREC">normal</i>
   <i name="ENMAX">    450.00000000</i>
   <i name="ENAUG">    345.27800000</i>
   <i name="EDIFF">      0.00001000</i>
   <i type="int" name="IALGO">    68</i>
   <i type="int" name="IWAVPR">    10</i>
   <i type="int" name="NBANDS">    14</i>
   <i name="NELECT">     18.00000000</i>
   <i type="int" name="TURBO">     0</i>
   <i type="int" name="IRESTART">     0</i>
   <i type="int" name="NREBOOT">     0</i>
   <i type="int" name="NMIN">     0</i>
   <i name="EREF">      0.00000000</i>
   <separator name="electronic smearing" >
    <i type="int" name="ISMEAR">    -5</i>
    <i name="SIGMA">      0.20000000</i>
    <i name="KSPACING">      0.50000000</i>
    <i type="logical" name="KGAMMA"> T  </i>
   </separator>
   <separator name="electronic projectors" >
    <i type="logical" name="LREAL"> F  </i>
    <v name="ROPT">      0.00000000      0.00000000</v>
    <i type="int" name="LMAXPAW">  -100</i>
    <i type="int" name="LMAXMIX">     2</i>
    <i type="logical" name="NLSPLINE"> F  </i>
   </separator>
   <separator name="electronic startup" >
    <i type="int" name="ISTART">     0</i>
    <i type="int" name="ICHARG">     2</i>
    <i type="int" name="INIWAV">     1</i>
   </separator>
   <separator name="electronic spin" >
    <i type="int" name="ISPIN">     1</i>
    <i type="logical" name="LNONCOLLINEAR"> F  </i>
    <v name="MAGMOM">      1.00000000      1.00000000      1.00000000</v>
    <i name="NUPDOWN">     -1.00000000</i>
    <i type="logical" name="LSORBIT"> F  </i>
    <v name="SAXIS">      0.00000000      0.00000000      1.00000000</v>
    <i type="logical" name="LSPIRAL"> F  </i>
    <v name="QSPIRAL">      0.00000000      0.00000000      0.00000000</v>
    <i type="logical" name="LZEROZ"> F  </i>
   </separator>
   <separator name="electronic exchange-correlation" >
    <i type="logical" name="LASPH"> F  </i>
    <i type="logical" name="LMETAGGA"> F  </i>
   </separator>
   <separator name="electronic convergence" >
    <i type="int" name="NELM">    60</i>
    <i type="int" name="NELMDL">    -5</i>
    <i type="int" name="NELMIN">     4</i>
    <i name="ENINI">    450.00000000</i>
    <separator name="electronic convergence detail" >
     <i type="logical" name="LDIAG"> T  </i>
     <i type="logical" name="LSUBROT"> F  </i>
     <i name="WEIMIN">      0.00000000</i>
     <i name="EBREAK">      0.00000018</i>
     <i name="DEPER">      0.30000000</i>
     <i type="int" name="NRMM">     4</i>
     <i name="TIME">      0.40000000</i>
    </separator>
   </separator>
   <separator name="electronic mixer" >
    <i name="AMIX">      0.40000000</i>
    <i name="BMIX">      1.00000000</i>
    <i name="AMIN">      0.10000000</i>
    <i name="AMIX_MAG">      1.60000000</i>
    <i name="BMIX_MAG">      1.00000000</i>
    <separator name="electronic mixer details" >
     <i type="int" name="IMIX">     4</i>
     <i type="logical" name="MIXFIRST"> F  </i>
     <i type="int" name="MAXMIX">   -45</i>
     <i name="WC">    100.00000000</i>
     <i type="int" name="INIMIX">     1</i>
     <i type="int" name="MIXPRE">     1</i>
     <i type="int" name="MREMOVE">     5</i>
    </separator>
   </separator>
   <separator name="electronic dipolcorrection" >
    <i type="logical" name="LDIPOL"> F  </i>
    <i type="logical" name="LMONO"> F  </i>
    <i type="int" name="IDIPOL">     0</i>
    <i name="EPSILON">      1.00000000</i>
    <v name="DIPOL">   -100.00000000   -100.00000000   -100.00000000</v>
    <i name="EFIELD">      0.00000000</i>
   </separator>
  </separator>
  <separator name="grids" >
   <i type="int" name="NGX">    18</i>
   <i type="int" name="NGY">    18</i>
   <i type="int" name="NGZ">   140</i>
   <i type="int" name="NGXF">    36</i>
   <i type="int" name="NGYF">    36</i>
   <i type="int" name="NGZF">   280</i>
   <i type="logical" name="ADDGRID"> F  </i>
  </separator>
  <separator name="ionic" >
   <i type="int" name="NSW">     0</i>
   <i type="int" name="IBRION">    -1</i>
   <i type="int" name="MDALGO">     0</i>
   <i type="int" name="ISIF">     2</i>
   <i name="PSTRESS">      0.00000000</i>
   <i name="EDIFFG">      0.00010000</i>
   <i type="int" name="NFREE">     0</i>
   <i name="POTIM">      0.50000000</i>
   <i name="SMASS">     -3.00000000</i>
   <i name="SCALEE">      1.00000000</i>
  </separator>
  <separator name="ionic md" >
   <i name="TEBEG">      0.00010000</i>
   <i name="TEEND">      0.00010000</i>
   <i type="int" name="NBLOCK">     1</i>
   <i type="int" name="KBLOCK">     1</i>
   <i type="int" name="NPACO">   256</i>
   <i name="APACO">     16.00000000</i>
  </separator>
  <separator name="symmetry" >
   <i type="int" name="ISYM">     2</i>
   <i name="SYMPREC">      0.00001000</i>
  </separator>
  <separator name="dos" >
   <i type="int" name="LORBIT">     0</i>
   <v name="RWIGS">     -1.00000000     -1.00000000</v>
   <i type="int" name="NEDOS">   301</i>
   <i name="EMIN">     10.00000000</i>
   <i name="EMAX">    -10.00000000</i>
   <i name="EFERMI">      0.00000000</i>
  </separator>
  <separator name="writing" >
   <i type="int" name="NWRITE">     2</i>
   <i type="logical" name="LWAVE"> F  </i>
   <i type="logical" name="LDOWNSAMPLE"> F  </i>
   <i type="logical" name="LCHARG"> T  </i>
   <i type="logical" name="LPARD"> F  </i>
   <i type="logical" name="LVTOT"> F  </i>
   <i type="logical" name="LVHAR"> F  </i>
   <i type="logical" name="LELF"> F  </i>
   <i type="logical" name="LOPTICS"> F  </i>
   <v name="STM">      0.00000000      0.00000000      0.00000000      0.00000000      0.00000000      0.00000000      0.00000000</v>
  </separator>
  <separator name="performance" >
   <i type="int" name="NPAR">     2</i>
   <i type="int" name="NSIM">     4</i>
   <i type="int" name="NBLK">    -1</i>
   <i type="logical" name="LPLANE"> T  </i>
   <i type="logical" name="LSCALAPACK"> T  </i>
   <i type="logical" name="LSCAAWARE"> F  </i>
   <i type="logical" name="LSCALU"> F  </i>
   <i type="logical" name="LASYNC"> F  </i>
   <i type="logical" name="LORBITALREAL"> F  </i>
  </separator>
  <separator name="miscellaneous" >
   <i type="int" name="IDIOT">     3</i>
   <i type="int" name="ISPECIAL">     0</i>
   <i type="logical" name="LMUSIC"> F  </i>
   <v name="POMASS">     95.94000000     32.06600000</v>
   <v name="DARWINR">      0.00000000      0.00000000</v>
   <v name="DARWINV">      1.00000000      1.00000000</v>
   <i type="logical" name="LCORR"> T  </i>
  </separator>
  <i type="logical" name="GGA_COMPAT"> T  </i>
  <i type="logical" name="LBERRY"> F  </i>
  <i type="int" name="ICORELEVEL">     0</i>
  <i type="logical" name="LDAU"> F  </i>
  <i type="int" name="I_CONSTRAINED_M">     0</i>
  <separator name="electronic exchange-correlation" >
   <i type="string" name="GGA">--</i>
   <i type="int" name="VOSKOWN">     0</i>
   <i type="logical" name="LHFCALC"> F  </i>
   <i type="string" name="PRECFOCK"></i>
   <i type="logical" name="LSYMGRAD"> F  </i>
   <i type="logical" name="LHFONE"> F  </i>
   <i type="logical" name="LRHFCALC"> F  </i>
   <i type="logical" name="LTHOMAS"> F  </i>
   <i type="logical" name="LMODELHF"> F  </i>
   <i name="ENCUT4O">     -1.00000000</i>
   <i type="int" name="EXXOEP">     0</i>
   <i type="int" name="FOURORBIT">     0</i>
   <i name="AEXX">      0.00000000</i>
   <i name="HFALPHA">      0.00000000</i>
   <i name="MCALPHA">      0.00000000</i>
   <i name="ALDAX">      1.00000000</i>
   <i name="AGGAX">      1.00000000</i>
   <i name="ALDAC">      1.00000000</i>
   <i name="AGGAC">      1.00000000</i>
   <i type="int" name="NKREDX">     1</i>
   <i type="int" name="NKREDY">     1</i>
   <i type="int" name="NKREDZ">     1</i>
   <i type="logical" name="SHIFTRED"> F  </i>
   <i type="logical" name="ODDONLY"> F  </i>
   <i type="logical" name="EVENONLY"> F  </i>
   <i type="int" name="LMAXFOCK">     0</i>
   <i type="int" name="NMAXFOCKAE">     0</i>
   <i type="logical" name="LFOCKAEDFT"> F  </i>
   <i name="HFSCREEN">      0.00000000</i>
   <i name="HFSCREENC">      0.00000000</i>
   <i type="int" name="NBANDSGWLOW">     0</i>
  </separator>
  <separator name="vdW DFT" >
   <i type="logical" name="LUSE_VDW"> F  </i>
   <i name="Zab_VDW">     -0.84910000</i>
   <i name="PARAM1">      0.12340000</i>
   <i name="PARAM2">      1.00000000</i>
   <i name="PARAM3">      0.00000000</i>
  </separator>
  <separator name="model GW" >
   <i type="int" name="MODEL_GW">     0</i>
   <i name="MODEL_EPS0">     47.38502723</i>
   <i name="MODEL_ALPHA">      1.00000000</i>
  </separator>
  <separator name="linear response parameters" >
   <i type="logical" name="LEPSILON"> F  </i>
   <i type="logical" name="LRPA"> F  </i>
   <i type="logical" name="LNABLA"> F  </i>
   <i type="logical" name="LVEL"> F  </i>
   <i type="int" name="KINTER">     0</i>
   <i name="CSHIFT">      0.10000000</i>
   <i name="OMEGAMAX">     -1.00000000</i>
   <i name="DEG_THRESHOLD">      0.00200000</i>
   <i name="RTIME">     -0.10000000</i>
   <i name="WPLASMAI">      0.00000000</i>
   <v name="DFIELD">      0.00000000      0.00000000      0.00000000</v>
   <v name="WPLASMA">      0.00000000      0.00000000      0.00000000      0.00000000      0.00000000      0.00000000      0.00000000      0.00000000      0.00000000</v>
  </separator>
  <separator name="orbital magnetization" >
   <i type="logical" name="NUCIND"> F  </i>
   <v name="MAGPOS">      0.00000000      0.00000000      0.00000000</v>
   <i type="logical" name="LNICSALL"> T  </i>
   <i type="logical" name="ORBITALMAG"> F  </i>
   <i type="logical" name="LMAGBLOCH"> F  </i>
   <i type="logical" name="LCHIMAG"> F  </i>
   <i type="logical" name="LGAUGE"> T  </i>
   <i type="int" name="MAGATOM">     0</i>
   <v name="MAGDIPOL">      0.00000000      0.00000000      0.00000000</v>
   <v name="AVECCONST">      0.00000000      0.00000000      0.00000000</v>
  </separator>
  <separator name="response functions" >
   <i type="logical" name="LADDER"> F  </i>
   <i type="logical" name="LRPAFORCE"> F  </i>
   <i type="logical" name="LFXC"> F  </i>
   <i type="logical" name="LHARTREE"> T  </i>
   <i type="int" name="IBSE">     0</i>
   <v type="int" name="KPOINT">    -1     0     0     0</v>
   <i type="logical" name="LTCTE"> F  </i>
   <i type="logical" name="LTETE"> F  </i>
   <i type="logical" name="LTRIPLET"> F  </i>
   <i type="logical" name="LFXCEPS"> F  </i>
   <i type="logical" name="LFXHEG"> F  </i>
   <i type="int" name="NATURALO">     2</i>
   <i type="logical" name="L2ORDER"> F  </i>
   <i type="logical" name="LMP2LT"> F  </i>
   <i type="logical" name="LUSEW"> F  </i>
   <i name="ENCUTGW">     -2.00000000</i>
   <i name="ENCUTGWSOFT">     -2.00000000</i>
   <i name="ENCUTLF">     -1.00000000</i>
   <i type="int" name="LMAXMP2">    -1</i>
   <i name="SCISSOR">      0.00000000</i>
   <i type="int" name="NOMEGA">     0</i>
   <i type="int" name="NOMEGAR">     0</i>
   <i type="int" name="NBANDSGW">    -1</i>
   <i type="int" name="NBANDSO">    -1</i>
   <i type="int" name="NBANDSV">    -1</i>
   <i type="int" name="NELM">     1</i>
   <i type="int" name="NELMHF">     1</i>
   <i type="int" name="DIM">     3</i>
   <i type="int" name="ANTIRES">     0</i>
   <i name="OMEGAMAX">    -30.00000000</i>
   <i name="OMEGAMIN">    -30.00000000</i>
   <i name="OMEGATL">   -200.00000000</i>
   <i type="int" name="OMEGAGRID">   140</i>
   <i name="CSHIFT">     -0.10000000</i>
   <i type="logical" name="SELFENERGY"> F  </i>
   <i type="logical" name="LSPECTRAL"> F  </i>
   <i type="logical" name="LSPECTRALGW"> F  </i>
   <i type="logical" name="LSINGLES"> F  </i>
   <i type="logical" name="LFERMIGW"> F  </i>
   <i type="logical" name="ODDONLYGW"> F  </i>
   <i type="logical" name="EVENONLYGW"> F  </i>
   <i type="int" name="NKREDLFX">     1</i>
   <i type="int" name="NKREDLFY">     1</i>
   <i type="int" name="NKREDLFZ">     1</i>
   <i type="int" name="MAXMEM">  2800</i>
   <i type="int" name="TELESCOPE">     0</i>
   <i type="int" name="TAUPAR">     1</i>
   <i type="int" name="OMEGAPAR">    -1</i>
   <i name="LAMBDA">      1.00000000</i>
  </separator>
  <separator name="External order field" >
   <i name="OFIELD_KAPPA">      0.00000000</i>
   <v name="OFIELD_K">      0.00000000      0.00000000      0.00000000</v>
   <i name="OFIELD_Q6_NEAR">      0.00000000</i>
   <i name="OFIELD_Q6_FAR">      0.00000000</i>
   <i name="OFIELD_A">      0.00000000</i>
  </separator>
 </parameters>
 <atominfo>
  <atoms>       3 </atoms>
  <types>       2 </types>
  <array name="atoms" >
   <dimension dim="1">ion</dimension>
   <field type="string">element</field>
   <field type="int">atomtype</field>
   <set>
    <rc><c>Mo</c><c>   1</c></rc>
    <rc><c>S </c><c>   2</c></rc>
    <rc><c>S </c><c>   2</c></rc>
   </set>
  </array>
  <array name="atomtypes" >
   <dimension dim="1">type</dimension>
   <field type="int">atomspertype</field>
   <field type="string">element</field>
   <field>mass</field>
   <field>valence</field>
   <field type="string">pseudopotential</field>
   <set>
    <rc><c>   1</c><c>Mo</c><c>     95.94000000</c><c>      6.00000000</c><c> PAW_PBE Mo 08Apr2002                   </c></rc>
    <rc><c>   2</c><c>S </c><c>     32.06600000</c><c>      6.00000000</c><c>  PAW_PBE S 17Jan2003                   </c></rc>
   </set>
  </array>
 </atominfo>
 <structure name="initialpos" >
  <crystal>
   <varray name="basis" >
    <v>       3.19031573       0.00000000       0.00000000 </v>
    <v>      -1.59515786       2.76289447       0.00000000 </v>
    <v>       0.00000000       0.00000000      26.87900430 </v>
   </varray>
   <i name="volume">    236.92513614 </i>
   <varray name="rec_basis" >
    <v>       0.31344860       0.18096963       0.00000000 </v>
    <v>       0.00000000       0.36193927       0.00000000 </v>
    <v>       0.00000000       0.00000000       0.03720376 </v>
   </varray>
  </crystal>
  <varray name="positions" >
   <v>       0.33333300       0.66666700       0.13838872 </v>
   <v>       0.66666700       0.33333300       0.08016914 </v>
   <v>       0.66666600       0.33333300       0.19660830 </v>
  </varray>
 </structure>
 <calculation>
  <scstep>
   <time name="dav">    0.24    0.24</time>
   <time name="total">    0.30    0.32</time>
   <energy>
    <i name="alphaZ">     12.51390764 </i>
    <i name="ewald">   4286.25630342 </i>
    <i name="hartreedc">  -4967.71356795 </i>
    <i name="XCdc">    -36.31055754 </i>
    <i name="pawpsdc">    406.88651198 </i>
    <i name="pawaedc">   -329.34073203 </i>
    <i name="eentropy">      0.00000000 </i>
    <i name="bandstr">    -13.06707554 </i>
    <i name="atom">    771.15511399 </i>
    <i name="e_fr_energy">    130.37990398 </i>
    <i name="e_wo_entrp">    130.37990398 </i>
    <i name="e_0_energy">    130.37990398 </i>
   </energy>
  </scstep>
  <scstep>
   <time name="dav">    0.35    0.35</time>
   <time name="total">    0.35    0.35</time>
   <energy>
    <i name="e_fr_energy">     -7.23755945 </i>
    <i name="e_wo_entrp">     -7.23755945 </i>
    <i name="e_0_energy">     -7.23755945 </i>
   </energy>
  </scstep>
  <scstep>
   <time name="dav">    0.31    0.31</time>
   <time name="total">    0.31    0.31</time>
   <energy>
    <i name="e_fr_energy">    -23.07906374 </i>
    <i name="e_wo_entrp">    -23.07906374 </i>
    <i name="e_0_energy">    -23.07906374 </i>
   </energy>
  </scstep>
  <scstep>
   <time name="dav">    0.28    0.29</time>
   <time name="total">    0.28    0.29</time>
   <energy>
    <i name="e_fr_energy">    -23.39895827 </i>
    <i name="e_wo_entrp">    -23.39895827 </i>
    <i name="e_0_energy">    -23.39895827 </i>
   </energy>
  </scstep>
  <scstep>
   <time name="dav">    0.29    0.29</time>
   <time name="total">    0.32    0.32</time>
   <energy>
    <i name="e_fr_energy">    -23.40767485 </i>
    <i name="e_wo_entrp">    -23.40767485 </i>
    <i name="e_0_energy">    -23.40767485 </i>
   </energy>
  </scstep>
  <scstep>
   <time name="diag">    0.05    0.05</time>
   <time name="diis">    0.20    0.20</time>
   <time name="orth">    0.00    0.00</time>
   <time name="total">    0.33    0.33</time>
   <energy>
    <i name="e_fr_energy">    -22.24707061 </i>
    <i name="e_wo_entrp">    -22.24707061 </i>
    <i name="e_0_energy">    -22.24707061 </i>
   </energy>
  </scstep>
  <scstep>
   <time name="diag">    0.05    0.05</time>
   <time name="diis">    0.20    0.20</time>
   <time name="orth">    0.00    0.00</time>
   <time name="total">    0.32    0.32</time>
   <energy>
    <i name="e_fr_energy">    -21.86190889 </i>
    <i name="e_wo_entrp">    -21.86190889 </i>
    <i name="e_0_energy">    -21.86190889 </i>
   </energy>
  </scstep>
  <scstep>
   <time name="diag">    0.05    0.05</time>
   <time name="diis">    0.21    0.21</time>
   <time name="orth">    0.00    0.00</time>
   <time name="total">    0.33    0.34</time>
   <energy>
    <i name="e_fr_energy">    -21.80203450 </i>
    <i name="e_wo_entrp">    -21.80203450 </i>
    <i name="e_0_energy">    -21.80203450 </i>
   </energy>
  </scstep>
  <scstep>
   <time name="diag">    0.05    0.05</time>
   <time name="diis">    0.23    0.23</time>
   <time name="orth">    0.00    0.00</time>
   <time name="total">    0.35    0.36</time>
   <energy>
    <i name="e_fr_energy">    -21.79718965 </i>
    <i name="e_wo_entrp">    -21.79718965 </i>
    <i name="e_0_energy">    -21.79718965 </i>
   </energy>
  </scstep>
  <scstep>
   <time name="diag">    0.05    0.05</time>
   <time name="diis">    0.23    0.23</time>
   <time name="orth">    0.00    0.00</time>
   <time name="total">    0.35    0.35</time>
   <energy>
    <i name="e_fr_energy">    -21.79645102 </i>
    <i name="e_wo_entrp">    -21.79645102 </i>
    <i name="e_0_energy">    -21.79645102 </i>
   </energy>
  </scstep>
  <scstep>
   <time name="diag">    0.05    0.05</time>
   <time name="diis">    0.22    0.22</time>
   <time name="orth">    0.00    0.00</time>
   <time name="total">    0.34    0.34</time>
   <energy>
    <i name="e_fr_energy">    -21.79637216 </i>
    <i name="e_wo_entrp">    -21.79637216 </i>
    <i name="e_0_energy">    -21.79637216 </i>
   </energy>
  </scstep>
  <scstep>
   <time name="diag">    0.05    0.05</time>
   <time name="diis">    0.21    0.21</time>
   <time name="orth">    0.00    0.00</time>
   <time name="total">    0.33    0.34</time>
   <energy>
    <i name="e_fr_energy">    -21.79617429 </i>
    <i name="e_wo_entrp">    -21.79617429 </i>
    <i name="e_0_energy">    -21.79617429 </i>
   </energy>
  </scstep>
  <scstep>
   <time name="diag">    0.05    0.05</time>
   <time name="diis">    0.20    0.20</time>
   <time name="orth">    0.00    0.00</time>
   <time name="total">    0.32    0.32</time>
   <energy>
    <i name="e_fr_energy">    -21.79643736 </i>
    <i name="e_wo_entrp">    -21.79643736 </i>
    <i name="e_0_energy">    -21.79643736 </i>
   </energy>
  </scstep>
  <scstep>
   <time name="diag">    0.05    0.05</time>
   <time name="diis">    0.18    0.18</time>
   <time name="orth">    0.00    0.00</time>
   <time name="total">    0.31    0.31</time>
   <energy>
    <i name="e_fr_energy">    -21.79647320 </i>
    <i name="e_wo_entrp">    -21.79647320 </i>
    <i name="e_0_energy">    -21.79647320 </i>
   </energy>
  </scstep>
  <scstep>
   <time name="diag">    0.05    0.05</time>
   <time name="diis">    0.15    0.15</time>
   <time name="orth">    0.00    0.00</time>
   <time name="total">    0.28    0.28</time>
   <energy>
    <i name="e_fr_energy">    -21.79657601 </i>
    <i name="e_wo_entrp">    -21.79657601 </i>
    <i name="e_0_energy">    -21.79657601 </i>
   </energy>
  </scstep>
  <scstep>
   <time name="diag">    0.05    0.05</time>
   <time name="diis">    0.14    0.15</time>
   <time name="orth">    0.00    0.00</time>
   <time name="total">    0.27    0.27</time>
   <energy>
    <i name="e_fr_energy">    -21.79660689 </i>
    <i name="e_wo_entrp">    -21.79660689 </i>
    <i name="e_0_energy">    -21.79660689 </i>
   </energy>
  </scstep>
  <scstep>
   <time name="diag">    0.05    0.05</time>
   <time name="diis">    0.13    0.13</time>
   <time name="orth">    0.00    0.00</time>
   <time name="total">    0.26    0.26</time>
   <energy>
    <i name="e_fr_energy">    -21.79665188 </i>
    <i name="e_wo_entrp">    -21.79665188 </i>
    <i name="e_0_energy">    -21.79665188 </i>
   </energy>
  </scstep>
  <scstep>
   <time name="diag">    0.05    0.05</time>
   <time name="diis">    0.12    0.12</time>
   <time name="orth">    0.00    0.00</time>
   <time name="total">    0.22    0.22</time>
   <energy>
    <i name="alphaZ">     12.51390764 </i>
    <i name="ewald">   4286.25630342 </i>
    <i name="hartreedc">  -4980.69481832 </i>
    <i name="XCdc">    -35.20086205 </i>
    <i name="pawpsdc">    472.18409527 </i>
    <i name="pawaedc">   -396.37495069 </i>
    <i name="eentropy">      0.00000000 </i>
    <i name="bandstr">   -151.63544874 </i>
    <i name="atom">    771.15511399 </i>
    <i name="e_fr_energy">    -21.79665947 </i>
    <i name="e_wo_entrp">    -21.79665947 </i>
    <i name="e_0_energy">    -21.79665947 </i>
   </energy>
  </scstep>
  <structure>
   <crystal>
    <varray name="basis" >
     <v>       3.19031573       0.00000000       0.00000000 </v>
     <v>      -1.59515786       2.76289447       0.00000000 </v>
     <v>       0.00000000       0.00000000      26.87900430 </v>
    </varray>
    <i name="volume">    236.92513614 </i>
    <varray name="rec_basis" >
     <v>       0.31344860       0.18096963       0.00000000 </v>
     <v>       0.00000000       0.36193927       0.00000000 </v>
     <v>       0.00000000       0.00000000       0.03720376 </v>
    </varray>
   </crystal>
   <varray name="positions" >
    <v>       0.33333300       0.66666700       0.13838872 </v>
    <v>       0.66666700       0.33333300       0.08016914 </v>
    <v>       0.66666600       0.33333300       0.19660830 </v>
   </varray>
  </structure>
  <varray name="forces" >
   <v>       0.00000000       0.00000000      -0.00000000 </v>
   <v>      -0.00000000       0.00000000       0.11455058 </v>
   <v>      -0.00000000       0.00000000      -0.11455058 </v>
  </varray>
  <varray name="stress" >
   <v>      -0.95930369       0.00000000      -0.00000000 </v>
   <v>       0.00000000      -0.95930369       0.00000000 </v>
   <v>       0.00000000       0.00000000      -2.57979027 </v>
  </varray>
  <energy>
   <i name="e_fr_energy">    -22.38756853 </i>
   <i name="e_wo_entrp">    -22.38756853 </i>
   <i name="e_0_energy">      0.00000000 </i>
  </energy>
  <time name="totalsc">    6.34    6.76</time>
  <eigenvalues>
   <array>
    <dimension dim="1">band</dimension>
    <dimension dim="2">kpoint</dimension>
    <dimension dim="3">spin</dimension>
    <field>eigene</field>
    <field>occ</field>
    <set>
     <set comment="spin 1">
      <set comment="kpoint 1">
       <r>  -17.4635    1.0000 </r>
       <r>  -16.2555    1.0000 </r>
       <r>   -8.9839    1.0000 </r>
       <r>   -6.0231    1.0000 </r>
       <r>   -6.0231    1.0000 </r>
       <r>   -5.1618    1.0000 </r>
       <r>   -4.9175    1.0000 </r>
       <r>   -4.9175    1.0000 </r>
       <r>   -3.4417    1.0000 </r>
       <r>   -0.6700    0.0000 </r>
       <r>   -0.6700    0.0000 </r>
       <r>   -0.4463    0.0000 </r>
       <r>   -0.4463    0.0000 </r>
       <r>    1.9919    0.0000 </r>
      </set>
      <set comment="kpoint 2">
       <r>  -17.2494    1.0000 </r>
       <r>  -16.1531    1.0000 </r>
       <r>   -8.7394    1.0000 </r>
       <r>   -6.4865    1.0000 </r>
       <r>   -5.9698    1.0000 </r>
       <r>   -5.7887    1.0000 </r>
       <r>   -5.2533    1.0000 </r>
       <r>   -4.4843    1.0000 </r>
       <r>   -3.5801    1.0000 </r>
       <r>   -0.9501    0.0000 </r>
       <r>   -0.8843    0.0000 </r>
       <r>   -0.6829    0.0000 </r>
       <r>   -0.3152    0.0000 </r>
       <r>    2.3669    0.0000 </r>
      </set>
      <set comment="kpoint 3">
       <r>  -16.6806    1.0000 </r>
       <r>  -15.8842    1.0000 </r>
       <r>   -8.3732    1.0000 </r>
       <r>   -7.2131    1.0000 </r>
       <r>   -6.9507    1.0000 </r>
       <r>   -5.8883    1.0000 </r>
       <r>   -5.2016    1.0000 </r>
       <r>   -4.7359    1.0000 </r>
       <r>   -4.1480    1.0000 </r>
       <r>   -1.2743    0.0000 </r>
       <r>   -1.0977    0.0000 </r>
       <r>   -0.5556    0.0000 </r>
       <r>    0.3017    0.0000 </r>
       <r>    3.1803    0.0000 </r>
      </set>
      <set comment="kpoint 4">
       <r>  -16.0054    1.0000 </r>
       <r>  -15.5758    1.0000 </r>
       <r>   -8.8105    1.0000 </r>
       <r>   -7.8180    1.0000 </r>
       <r>   -7.3460    1.0000 </r>
       <r>   -6.3856    1.0000 </r>
       <r>   -5.1452    1.0000 </r>
       <r>   -4.6111    1.0000 </r>
       <r>   -4.3431    1.0000 </r>
       <r>   -1.2792    0.0000 </r>
       <r>   -1.0004    0.0000 </r>
       <r>    0.1629    0.0000 </r>
       <r>    0.6951    0.0000 </r>
       <r>    3.7014    0.0000 </r>
      </set>
      <set comment="kpoint 5">
       <r>  -15.6772    1.0000 </r>
       <r>  -15.4324    1.0000 </r>
       <r>   -9.1432    1.0000 </r>
       <r>   -8.1830    1.0000 </r>
       <r>   -7.4722    1.0000 </r>
       <r>   -6.5661    1.0000 </r>
       <r>   -5.2840    1.0000 </r>
       <r>   -4.3839    1.0000 </r>
       <r>   -4.0622    1.0000 </r>
       <r>   -1.2570    0.0000 </r>
       <r>   -0.7411    0.0000 </r>
       <r>    0.4615    0.0000 </r>
       <r>    0.8105    0.0000 </r>
       <r>    2.7407    0.0000 </r>
      </set>
      <set comment="kpoint 6">
       <r>  -16.8565    1.0000 </r>
       <r>  -15.9660    1.0000 </r>
       <r>   -8.3921    1.0000 </r>
       <r>   -7.0505    1.0000 </r>
       <r>   -6.5320    1.0000 </r>
       <r>   -6.0671    1.0000 </r>
       <r>   -5.4492    1.0000 </r>
       <r>   -4.3498    1.0000 </r>
       <r>   -3.9519    1.0000 </r>
       <r>   -1.3494    0.0000 </r>
       <r>   -0.9712    0.0000 </r>
       <r>   -0.9595    0.0000 </r>
       <r>    0.2796    0.0000 </r>
       <r>    2.9547    0.0000 </r>
      </set>
      <set comment="kpoint 7">
       <r>  -16.2229    1.0000 </r>
       <r>  -15.6674    1.0000 </r>
       <r>   -8.4548    1.0000 </r>
       <r>   -7.4772    1.0000 </r>
       <r>   -7.2142    1.0000 </r>
       <r>   -6.5714    1.0000 </r>
       <r>   -5.3498    1.0000 </r>
       <r>   -4.7120    1.0000 </r>
       <r>   -4.2355    1.0000 </r>
       <r>   -1.4328    0.0000 </r>
       <r>   -0.9844    0.0000 </r>
       <r>   -0.4895    0.0000 </r>
       <r>    0.7874    0.0000 </r>
       <r>    3.9241    0.0000 </r>
      </set>
      <set comment="kpoint 8">
       <r>  -15.6924    1.0000 </r>
       <r>  -15.4235    1.0000 </r>
       <r>   -8.8558    1.0000 </r>
       <r>   -8.2402    1.0000 </r>
       <r>   -7.3445    1.0000 </r>
       <r>   -6.5882    1.0000 </r>
       <r>   -5.3346    1.0000 </r>
       <r>   -5.1939    1.0000 </r>
       <r>   -3.9085    1.0000 </r>
       <r>   -1.2381    0.0000 </r>
       <r>   -0.7278    0.0000 </r>
       <r>    0.1323    0.0000 </r>
       <r>    0.8211    0.0000 </r>
       <r>    3.2676    0.0000 </r>
      </set>
      <set comment="kpoint 9">
       <r>  -15.7074    1.0000 </r>
       <r>  -15.4145    1.0000 </r>
       <r>   -8.4954    1.0000 </r>
       <r>   -8.2910    1.0000 </r>
       <r>   -7.0174    1.0000 </r>
       <r>   -6.6365    1.0000 </r>
       <r>   -6.3174    1.0000 </r>
       <r>   -5.0604    1.0000 </r>
       <r>   -3.9374    1.0000 </r>
       <r>   -1.2891    0.0000 </r>
       <r>   -0.6781    0.0000 </r>
       <r>   -0.3663    0.0000 </r>
       <r>    1.1091    0.0000 </r>
       <r>    4.1000    0.0000 </r>
      </set>
      <set comment="kpoint 10">
       <r>  -15.4725    1.0000 </r>
       <r>  -15.2953    1.0000 </r>
       <r>   -8.6754    1.0000 </r>
       <r>   -8.3264    1.0000 </r>
       <r>   -7.3017    1.0000 </r>
       <r>   -6.6391    1.0000 </r>
       <r>   -6.4089    1.0000 </r>
       <r>   -5.4467    1.0000 </r>
       <r>   -3.5700    1.0000 </r>
       <r>   -1.6148    0.0000 </r>
       <r>   -0.3079    0.0000 </r>
       <r>   -0.1275    0.0000 </r>
       <r>    1.2543    0.0000 </r>
       <r>    3.5106    0.0000 </r>
      </set>
     </set>
    </set>
   </array>
  </eigenvalues>
  <separator name="orbital magnetization" >
   <v name="MAGDIPOLOUT">      0.00000000      0.00000000      0.00000000</v>
  </separator>
  <dos>
   <i name="efermi">     -3.42242960 </i>
   <total>
    <array>
     <dimension dim="1">gridpoints</dimension>
     <dimension dim="2">spin</dimension>
     <field>energy</field>
     <field>total</field>
     <field>integrated</field>
     <set>
      <set comment="spin 1">
       <r>   -19.4635     0.0000     0.0000 </r>
       <r>   -19.3783     0.0000     0.0000 </r>
       <r>   -19.2931     0.0000     0.0000 </r>
       <r>   -19.2079     0.0000     0.0000 </r>
       <r>   -19.1227     0.0000     0.0000 </r>
       <r>   -19.0375     0.0000     0.0000 </r>
       <r>   -18.9523     0.0000     0.0000 </r>
       <r>   -18.8670     0.0000     0.0000 </r>
       <r>   -18.7818     0.0000     0.0000 </r>
       <r>   -18.6966     0.0000     0.0000 </r>
       <r>   -18.6114     0.0000     0.0000 </r>
       <r>   -18.5262     0.0000     0.0000 </r>
       <r>   -18.4410     0.0000     0.0000 </r>
       <r>   -18.3558     0.0000     0.0000 </r>
       <r>   -18.2706     0.0000     0.0000 </r>
       <r>   -18.1854     0.0000     0.0000 </r>
       <r>   -18.1001     0.0000     0.0000 </r>
       <r>   -18.0149     0.0000     0.0000 </r>
       <r>   -17.9297     0.0000     0.0000 </r>
       <r>   -17.8445     0.0000     0.0000 </r>
       <r>   -17.7593     0.0000     0.0000 </r>
       <r>   -17.6741     0.0000     0.0000 </r>
       <r>   -17.5889     0.0000     0.0000 </r>
       <r>   -17.5037     0.0000     0.0000 </r>
       <r>   -17.4184     0.1843     0.0042 </r>
       <r>   -17.3332     0.5326     0.0347 </r>
       <r>   -17.2480     0.4779     0.0944 </r>
       <r>   -17.1628     0.5174     0.1368 </r>
       <r>   -17.0776     0.5569     0.1826 </r>
       <r>   -16.9924     0.5964     0.2317 </r>
       <r>   -16.9072     0.6358     0.2842 </r>
       <r>   -16.8220     0.6622     0.3398 </r>
       <r>   -16.7368     0.6693     0.3966 </r>
       <r>   -16.6515     0.6853     0.4540 </r>
       <r>   -16.5663     0.7183     0.5138 </r>
       <r>   -16.4811     0.7513     0.5764 </r>
       <r>   -16.3959     0.7843     0.6419 </r>
       <r>   -16.3107     0.8173     0.7101 </r>
       <r>   -16.2255     1.3865     0.7892 </r>
       <r>   -16.1403     2.0610     0.9707 </r>
       <r>   -16.0551     2.3559     1.1589 </r>
       <r>   -15.9699     2.6755     1.3726 </r>
       <r>   -15.8846     2.8915     1.6101 </r>
       <r>   -15.7994     3.2295     1.8709 </r>
       <r>   -15.7142     3.5681     2.1605 </r>
       <r>   -15.6290     4.2219     2.6172 </r>
       <r>   -15.5438     4.2438     2.9748 </r>
       <r>   -15.4586     3.7653     3.3664 </r>
       <r>   -15.3734     3.3507     3.7766 </r>
       <r>   -15.2882     0.0000     4.0000 </r>
       <r>   -15.2029     0.0000     4.0000 </r>
       <r>   -15.1177     0.0000     4.0000 </r>
       <r>   -15.0325     0.0000     4.0000 </r>
       <r>   -14.9473     0.0000     4.0000 </r>
       <r>   -14.8621     0.0000     4.0000 </r>
       <r>   -14.7769     0.0000     4.0000 </r>
       <r>   -14.6917     0.0000     4.0000 </r>
       <r>   -14.6065     0.0000     4.0000 </r>
       <r>   -14.5213     0.0000     4.0000 </r>
       <r>   -14.4360     0.0000     4.0000 </r>
       <r>   -14.3508     0.0000     4.0000 </r>
       <r>   -14.2656     0.0000     4.0000 </r>
       <r>   -14.1804     0.0000     4.0000 </r>
       <r>   -14.0952     0.0000     4.0000 </r>
       <r>   -14.0100     0.0000     4.0000 </r>
       <r>   -13.9248     0.0000     4.0000 </r>
       <r>   -13.8396     0.0000     4.0000 </r>
       <r>   -13.7543     0.0000     4.0000 </r>
       <r>   -13.6691     0.0000     4.0000 </r>
       <r>   -13.5839     0.0000     4.0000 </r>
       <r>   -13.4987     0.0000     4.0000 </r>
       <r>   -13.4135     0.0000     4.0000 </r>
       <r>   -13.3283     0.0000     4.0000 </r>
       <r>   -13.2431     0.0000     4.0000 </r>
       <r>   -13.1579     0.0000     4.0000 </r>
       <r>   -13.0727     0.0000     4.0000 </r>
       <r>   -12.9874     0.0000     4.0000 </r>
       <r>   -12.9022     0.0000     4.0000 </r>
       <r>   -12.8170     0.0000     4.0000 </r>
       <r>   -12.7318     0.0000     4.0000 </r>
       <r>   -12.6466     0.0000     4.0000 </r>
       <r>   -12.5614     0.0000     4.0000 </r>
       <r>   -12.4762     0.0000     4.0000 </r>
       <r>   -12.3910     0.0000     4.0000 </r>
       <r>   -12.3057     0.0000     4.0000 </r>
       <r>   -12.2205     0.0000     4.0000 </r>
       <r>   -12.1353     0.0000     4.0000 </r>
       <r>   -12.0501     0.0000     4.0000 </r>
       <r>   -11.9649     0.0000     4.0000 </r>
       <r>   -11.8797     0.0000     4.0000 </r>
       <r>   -11.7945     0.0000     4.0000 </r>
       <r>   -11.7093     0.0000     4.0000 </r>
       <r>   -11.6241     0.0000     4.0000 </r>
       <r>   -11.5388     0.0000     4.0000 </r>
       <r>   -11.4536     0.0000     4.0000 </r>
       <r>   -11.3684     0.0000     4.0000 </r>
       <r>   -11.2832     0.0000     4.0000 </r>
       <r>   -11.1980     0.0000     4.0000 </r>
       <r>   -11.1128     0.0000     4.0000 </r>
       <r>   -11.0276     0.0000     4.0000 </r>
       <r>   -10.9424     0.0000     4.0000 </r>
       <r>   -10.8571     0.0000     4.0000 </r>
       <r>   -10.7719     0.0000     4.0000 </r>
       <r>   -10.6867     0.0000     4.0000 </r>
       <r>   -10.6015     0.0000     4.0000 </r>
       <r>   -10.5163     0.0000     4.0000 </r>
       <r>   -10.4311     0.0000     4.0000 </r>
       <r>   -10.3459     0.0000     4.0000 </r>
       <r>   -10.2607     0.0000     4.0000 </r>
       <r>   -10.1755     0.0000     4.0000 </r>
       <r>   -10.0902     0.0000     4.0000 </r>
       <r>   -10.0050     0.0000     4.0000 </r>
       <r>    -9.9198     0.0000     4.0000 </r>
       <r>    -9.8346     0.0000     4.0000 </r>
       <r>    -9.7494     0.0000     4.0000 </r>
       <r>    -9.6642     0.0000     4.0000 </r>
       <r>    -9.5790     0.0000     4.0000 </r>
       <r>    -9.4938     0.0000     4.0000 </r>
       <r>    -9.4086     0.0000     4.0000 </r>
       <r>    -9.3233     0.0000     4.0000 </r>
       <r>    -9.2381     0.0000     4.0000 </r>
       <r>    -9.1529     0.0000     4.0000 </r>
       <r>    -9.0677     0.4674     4.0176 </r>
       <r>    -8.9825     0.9996     4.0800 </r>
       <r>    -8.8973     1.7946     4.1990 </r>
       <r>    -8.8121     2.6337     4.3952 </r>
       <r>    -8.7269     2.8490     4.6362 </r>
       <r>    -8.6416     3.8223     4.9524 </r>
       <r>    -8.5564     3.1577     5.2498 </r>
       <r>    -8.4712     4.9020     5.5197 </r>
       <r>    -8.3860     3.9426     5.9748 </r>
       <r>    -8.3008     5.2545     6.1664 </r>
       <r>    -8.2156     2.7452     6.4983 </r>
       <r>    -8.1304     1.3281     6.6381 </r>
       <r>    -8.0452     1.1925     6.7455 </r>
       <r>    -7.9600     1.0570     6.8413 </r>
       <r>    -7.8747     0.9214     6.9256 </r>
       <r>    -7.7895     0.8328     6.9990 </r>
       <r>    -7.7043     0.8376     7.0702 </r>
       <r>    -7.6191     0.8424     7.1418 </r>
       <r>    -7.5339     0.8471     7.2138 </r>
       <r>    -7.4487     1.8755     7.3017 </r>
       <r>    -7.3635     4.8325     7.5875 </r>
       <r>    -7.2783     5.1761     8.1214 </r>
       <r>    -7.1930     5.1539     8.5418 </r>
       <r>    -7.1078     3.2624     8.9004 </r>
       <r>    -7.0226     1.4527     9.0989 </r>
       <r>    -6.9374     1.1870     9.2073 </r>
       <r>    -6.8522     1.0909     9.3044 </r>
       <r>    -6.7670     0.9947     9.3932 </r>
       <r>    -6.6818     0.8986     9.4739 </r>
       <r>    -6.5966    11.6821    10.0493 </r>
       <r>    -6.5114     3.8336    10.6354 </r>
       <r>    -6.4261     2.3970    10.9026 </r>
       <r>    -6.3409     2.3928    11.1861 </r>
       <r>    -6.2557     1.8385    11.3527 </r>
       <r>    -6.1705     1.7268    11.5046 </r>
       <r>    -6.0853     1.6151    11.6470 </r>
       <r>    -6.0001     3.4828    11.8123 </r>
       <r>    -5.9149     2.1516    12.0595 </r>
       <r>    -5.8297     1.6886    12.2363 </r>
       <r>    -5.7444     0.8722    12.3351 </r>
       <r>    -5.6592     0.8658    12.4092 </r>
       <r>    -5.5740     0.8593    12.4827 </r>
       <r>    -5.4888     0.8529    12.5556 </r>
       <r>    -5.4036     3.7046    12.7340 </r>
       <r>    -5.3184     9.3314    13.2441 </r>
       <r>    -5.2332     7.0195    13.9607 </r>
       <r>    -5.1480     1.8710    14.3479 </r>
       <r>    -5.0628     1.4995    14.4850 </r>
       <r>    -4.9775     1.4514    14.6105 </r>
       <r>    -4.8923     1.4751    14.7332 </r>
       <r>    -4.8071     1.6587    14.8667 </r>
       <r>    -4.7219     4.2245    15.0325 </r>
       <r>    -4.6367     3.2840    15.4290 </r>
       <r>    -4.5515     2.2961    15.6413 </r>
       <r>    -4.4663     2.7186    15.8449 </r>
       <r>    -4.3811     0.6784    15.9894 </r>
       <r>    -4.2958     1.3673    16.0323 </r>
       <r>    -4.2106     4.2320    16.2748 </r>
       <r>    -4.1254     3.7128    16.6109 </r>
       <r>    -4.0402     3.3948    16.9142 </r>
       <r>    -3.9550     3.0292    17.1879 </r>
       <r>    -3.8698     2.1140    17.4117 </r>
       <r>    -3.7846     1.8003    17.5785 </r>
       <r>    -3.6994     1.4866    17.7185 </r>
       <r>    -3.6142     1.1729    17.8319 </r>
       <r>    -3.5289     0.8544    17.9627 </r>
       <r>    -3.4437     0.0201    18.0000 </r>
       <r>    -3.3585     0.0000    18.0000 </r>
       <r>    -3.2733     0.0000    18.0000 </r>
       <r>    -3.1881     0.0000    18.0000 </r>
       <r>    -3.1029     0.0000    18.0000 </r>
       <r>    -3.0177     0.0000    18.0000 </r>
       <r>    -2.9325     0.0000    18.0000 </r>
       <r>    -2.8473     0.0000    18.0000 </r>
       <r>    -2.7620     0.0000    18.0000 </r>
       <r>    -2.6768     0.0000    18.0000 </r>
       <r>    -2.5916     0.0000    18.0000 </r>
       <r>    -2.5064     0.0000    18.0000 </r>
       <r>    -2.4212     0.0000    18.0000 </r>
       <r>    -2.3360     0.0000    18.0000 </r>
       <r>    -2.2508     0.0000    18.0000 </r>
       <r>    -2.1656     0.0000    18.0000 </r>
       <r>    -2.0803     0.0000    18.0000 </r>
       <r>    -1.9951     0.0000    18.0000 </r>
       <r>    -1.9099     0.0000    18.0000 </r>
       <r>    -1.8247     0.0000    18.0000 </r>
       <r>    -1.7395     0.0000    18.0000 </r>
       <r>    -1.6543     0.0000    18.0000 </r>
       <r>    -1.5691     0.6950    18.0603 </r>
       <r>    -1.4839     0.9175    18.1290 </r>
       <r>    -1.3987     5.8435    18.3576 </r>
       <r>    -1.3134     8.2448    18.9749 </r>
       <r>    -1.2282     0.9481    19.7091 </r>
       <r>    -1.1430     0.8015    19.7837 </r>
       <r>    -1.0578     3.6090    19.9046 </r>
       <r>    -0.9726     6.1689    20.5078 </r>
       <r>    -0.8874     5.6223    20.9349 </r>
       <r>    -0.8022     4.7812    21.3285 </r>
       <r>    -0.7170     4.0620    21.8263 </r>
       <r>    -0.6317     3.2914    22.1422 </r>
       <r>    -0.5465     2.4556    22.3866 </r>
       <r>    -0.4613     2.7177    22.5941 </r>
       <r>    -0.3761     2.6284    22.8143 </r>
       <r>    -0.2909     1.8712    23.0724 </r>
       <r>    -0.2057     2.3691    23.2531 </r>
       <r>    -0.1205     2.0359    23.5017 </r>
       <r>    -0.0353     1.9754    23.6727 </r>
       <r>     0.0499     1.9149    23.8384 </r>
       <r>     0.1352     1.7517    23.9986 </r>
       <r>     0.2204     1.9155    24.1720 </r>
       <r>     0.3056     1.6235    24.3189 </r>
       <r>     0.3908     1.2508    24.4413 </r>
       <r>     0.4760     0.9584    24.5326 </r>
       <r>     0.5612     1.0581    24.6185 </r>
       <r>     0.6464     1.1578    24.7129 </r>
       <r>     0.7316     3.0020    24.8478 </r>
       <r>     0.8169    13.7974    25.2808 </r>
       <r>     0.9021     1.8082    25.5099 </r>
       <r>     0.9873     1.4799    25.6499 </r>
       <r>     1.0725     1.1515    25.7621 </r>
       <r>     1.1577     1.1044    25.8530 </r>
       <r>     1.2429     1.2686    25.9541 </r>
       <r>     1.3281     0.0000    26.0000 </r>
       <r>     1.4133     0.0000    26.0000 </r>
       <r>     1.4985     0.0000    26.0000 </r>
       <r>     1.5838     0.0000    26.0000 </r>
       <r>     1.6690     0.0000    26.0000 </r>
       <r>     1.7542     0.0000    26.0000 </r>
       <r>     1.8394     0.0000    26.0000 </r>
       <r>     1.9246     0.0000    26.0000 </r>
       <r>     2.0098     0.0239    26.0002 </r>
       <r>     2.0950     0.1375    26.0071 </r>
       <r>     2.1802     0.2511    26.0236 </r>
       <r>     2.2655     0.3647    26.0499 </r>
       <r>     2.3507     0.4782    26.0858 </r>
       <r>     2.4359     0.3357    26.1163 </r>
       <r>     2.5211     0.3563    26.1458 </r>
       <r>     2.6063     0.3768    26.1770 </r>
       <r>     2.6915     0.3974    26.2100 </r>
       <r>     2.7767     0.4690    26.2457 </r>
       <r>     2.8619     0.6103    26.2917 </r>
       <r>     2.9471     0.7516    26.3497 </r>
       <r>     3.0324     0.8640    26.4186 </r>
       <r>     3.1176     0.9737    26.4969 </r>
       <r>     3.2028     1.1008    26.5848 </r>
       <r>     3.2880     1.6590    26.6942 </r>
       <r>     3.3732     1.6956    26.8371 </r>
       <r>     3.4584     1.7321    26.9832 </r>
       <r>     3.5436     2.0873    27.1741 </r>
       <r>     3.6288     2.1254    27.3536 </r>
       <r>     3.7140     2.0848    27.5358 </r>
       <r>     3.7993     1.5933    27.6925 </r>
       <r>     3.8845     1.1018    27.8073 </r>
       <r>     3.9697     1.2934    27.9157 </r>
       <r>     4.0549     0.4475    27.9899 </r>
       <r>     4.1401     0.0000    28.0000 </r>
       <r>     4.2253     0.0000    28.0000 </r>
       <r>     4.3105     0.0000    28.0000 </r>
       <r>     4.3957     0.0000    28.0000 </r>
       <r>     4.4810     0.0000    28.0000 </r>
       <r>     4.5662     0.0000    28.0000 </r>
       <r>     4.6514     0.0000    28.0000 </r>
       <r>     4.7366     0.0000    28.0000 </r>
       <r>     4.8218     0.0000    28.0000 </r>
       <r>     4.9070     0.0000    28.0000 </r>
       <r>     4.9922     0.0000    28.0000 </r>
       <r>     5.0774     0.0000    28.0000 </r>
       <r>     5.1626     0.0000    28.0000 </r>
       <r>     5.2479     0.0000    28.0000 </r>
       <r>     5.3331     0.0000    28.0000 </r>
       <r>     5.4183     0.0000    28.0000 </r>
       <r>     5.5035     0.0000    28.0000 </r>
       <r>     5.5887     0.0000    28.0000 </r>
       <r>     5.6739     0.0000    28.0000 </r>
       <r>     5.7591     0.0000    28.0000 </r>
       <r>     5.8443     0.0000    28.0000 </r>
       <r>     5.9296     0.0000    28.0000 </r>
       <r>     6.0148     0.0000    28.0000 </r>
       <r>     6.1000     0.0000    28.0000 </r>
      </set>
     </set>
    </array>
   </total>
  </dos>
 </calculation>
 <structure name="finalpos" >
  <crystal>
   <varray name="basis" >
    <v>       3.19031573       0.00000000       0.00000000 </v>
    <v>      -1.59515786       2.76289447       0.00000000 </v>
    <v>       0.00000000       0.00000000      26.87900430 </v>
   </varray>
   <i name="volume">    236.92513614 </i>
   <varray name="rec_basis" >
    <v>       0.31344860       0.18096963       0.00000000 </v>
    <v>       0.00000000       0.36193927       0.00000000 </v>
    <v>       0.00000000       0.00000000       0.03720376 </v>
   </varray>
  </crystal>
  <varray name="positions" >
   <v>       0.33333300       0.66666700       0.13838872 </v>
   <v>       0.66666700       0.33333300       0.08016914 </v>
   <v>       0.66666600       0.33333300       0.19660830 </v>
  </varray>
 </structure>
</modeling>
