   3   3   0   0
  0.9072772E+02  0.3190316E-09  0.3190316E-09  0.3087900E-08  0.5000000E-15
  1.000000000000000E-004
  CAR 
 unknown system                          
      5.98743584    -19.78833993  301     -3.76439932      1.00000000
    -19.788  0.0000E+00  0.0000E+00
    -19.702  0.0000E+00  0.0000E+00
    -19.617  0.0000E+00  0.0000E+00
    -19.531  0.0000E+00  0.0000E+00
    -19.445  0.0000E+00  0.0000E+00
    -19.359  0.0000E+00  0.0000E+00
    -19.273  0.0000E+00  0.0000E+00
    -19.187  0.0000E+00  0.0000E+00
    -19.101  0.0000E+00  0.0000E+00
    -19.015  0.0000E+00  0.0000E+00
    -18.929  0.0000E+00  0.0000E+00
    -18.843  0.0000E+00  0.0000E+00
    -18.757  0.0000E+00  0.0000E+00
    -18.671  0.0000E+00  0.0000E+00
    -18.585  0.0000E+00  0.0000E+00
    -18.500  0.0000E+00  0.0000E+00
    -18.414  0.0000E+00  0.0000E+00
    -18.328  0.0000E+00  0.0000E+00
    -18.242  0.0000E+00  0.0000E+00
    -18.156  0.0000E+00  0.0000E+00
    -18.070  0.0000E+00  0.0000E+00
    -17.984  0.0000E+00  0.0000E+00
    -17.898  0.0000E+00  0.0000E+00
    -17.812  0.0000E+00  0.0000E+00
    -17.726  0.4680E+00  0.2702E-01
    -17.640  0.5475E+00  0.7298E-01
    -17.554  0.5506E+00  0.1184E+00
    -17.469  0.5571E+00  0.1670E+00
    -17.383  0.5739E+00  0.2153E+00
    -17.297  0.6076E+00  0.2662E+00
    -17.211  0.6085E+00  0.3179E+00
    -17.125  0.6329E+00  0.3711E+00
    -17.039  0.6574E+00  0.4267E+00
    -16.953  0.6812E+00  0.4842E+00
    -16.867  0.7104E+00  0.5439E+00
    -16.781  0.7425E+00  0.6063E+00
    -16.695  0.7908E+00  0.6723E+00
    -16.609  0.8347E+00  0.7421E+00
    -16.523  0.2065E+01  0.8722E+00
    -16.437  0.2149E+01  0.1051E+01
    -16.352  0.2346E+01  0.1243E+01
    -16.266  0.2504E+01  0.1450E+01
    -16.180  0.2905E+01  0.1682E+01
    -16.094  0.3415E+01  0.1951E+01
    -16.008  0.5260E+01  0.2291E+01
    -15.922  0.4107E+01  0.2685E+01
    -15.836  0.4430E+01  0.3048E+01
    -15.750  0.4910E+01  0.3516E+01
    -15.664  0.2887E+01  0.3826E+01
    -15.578  0.0000E+00  0.4000E+01
    -15.492  0.0000E+00  0.4000E+01
    -15.406  0.0000E+00  0.4000E+01
    -15.321  0.0000E+00  0.4000E+01
    -15.235  0.0000E+00  0.4000E+01
    -15.149  0.0000E+00  0.4000E+01
    -15.063  0.0000E+00  0.4000E+01
    -14.977  0.0000E+00  0.4000E+01
    -14.891  0.0000E+00  0.4000E+01
    -14.805  0.0000E+00  0.4000E+01
    -14.719  0.0000E+00  0.4000E+01
    -14.633  0.0000E+00  0.4000E+01
    -14.547  0.0000E+00  0.4000E+01
    -14.461  0.0000E+00  0.4000E+01
    -14.375  0.0000E+00  0.4000E+01
    -14.290  0.0000E+00  0.4000E+01
    -14.204  0.0000E+00  0.4000E+01
    -14.118  0.0000E+00  0.4000E+01
    -14.032  0.0000E+00  0.4000E+01
    -13.946  0.0000E+00  0.4000E+01
    -13.860  0.0000E+00  0.4000E+01
    -13.774  0.0000E+00  0.4000E+01
    -13.688  0.0000E+00  0.4000E+01
    -13.602  0.0000E+00  0.4000E+01
    -13.516  0.0000E+00  0.4000E+01
    -13.430  0.0000E+00  0.4000E+01
    -13.344  0.0000E+00  0.4000E+01
    -13.258  0.0000E+00  0.4000E+01
    -13.173  0.0000E+00  0.4000E+01
    -13.087  0.0000E+00  0.4000E+01
    -13.001  0.0000E+00  0.4000E+01
    -12.915  0.0000E+00  0.4000E+01
    -12.829  0.0000E+00  0.4000E+01
    -12.743  0.0000E+00  0.4000E+01
    -12.657  0.0000E+00  0.4000E+01
    -12.571  0.0000E+00  0.4000E+01
    -12.485  0.0000E+00  0.4000E+01
    -12.399  0.0000E+00  0.4000E+01
    -12.313  0.0000E+00  0.4000E+01
    -12.227  0.0000E+00  0.4000E+01
    -12.142  0.0000E+00  0.4000E+01
    -12.056  0.0000E+00  0.4000E+01
    -11.970  0.0000E+00  0.4000E+01
    -11.884  0.0000E+00  0.4000E+01
    -11.798  0.0000E+00  0.4000E+01
    -11.712  0.0000E+00  0.4000E+01
    -11.626  0.0000E+00  0.4000E+01
    -11.540  0.0000E+00  0.4000E+01
    -11.454  0.0000E+00  0.4000E+01
    -11.368  0.0000E+00  0.4000E+01
    -11.282  0.0000E+00  0.4000E+01
    -11.196  0.0000E+00  0.4000E+01
    -11.110  0.0000E+00  0.4000E+01
    -11.025  0.0000E+00  0.4000E+01
    -10.939  0.0000E+00  0.4000E+01
    -10.853  0.0000E+00  0.4000E+01
    -10.767  0.0000E+00  0.4000E+01
    -10.681  0.0000E+00  0.4000E+01
    -10.595  0.0000E+00  0.4000E+01
    -10.509  0.0000E+00  0.4000E+01
    -10.423  0.0000E+00  0.4000E+01
    -10.337  0.0000E+00  0.4000E+01
    -10.251  0.0000E+00  0.4000E+01
    -10.165  0.0000E+00  0.4000E+01
    -10.079  0.0000E+00  0.4000E+01
     -9.994  0.0000E+00  0.4000E+01
     -9.908  0.0000E+00  0.4000E+01
     -9.822  0.0000E+00  0.4000E+01
     -9.736  0.0000E+00  0.4000E+01
     -9.650  0.0000E+00  0.4000E+01
     -9.564  0.0000E+00  0.4000E+01
     -9.478  0.0000E+00  0.4000E+01
     -9.392  0.9327E+00  0.4065E+01
     -9.306  0.1204E+01  0.4155E+01
     -9.220  0.1626E+01  0.4292E+01
     -9.134  0.1839E+01  0.4442E+01
     -9.048  0.3058E+01  0.4632E+01
     -8.963  0.3264E+01  0.4898E+01
     -8.877  0.4095E+01  0.5189E+01
     -8.791  0.4305E+01  0.5554E+01
     -8.705  0.5292E+01  0.5979E+01
     -8.619  0.1939E+01  0.6325E+01
     -8.533  0.1740E+01  0.6478E+01
     -8.447  0.1686E+01  0.6658E+01
     -8.361  0.1219E+01  0.6780E+01
     -8.275  0.9551E+00  0.6873E+01
     -8.189  0.8309E+00  0.6948E+01
     -8.103  0.7650E+00  0.7017E+01
     -8.017  0.7154E+00  0.7080E+01
     -7.931  0.6770E+00  0.7140E+01
     -7.846  0.6872E+00  0.7198E+01
     -7.760  0.3213E+01  0.7341E+01
     -7.674  0.4361E+01  0.7670E+01
     -7.588  0.5541E+01  0.8169E+01
     -7.502  0.5097E+01  0.8621E+01
     -7.416  0.3261E+01  0.8971E+01
     -7.330  0.1125E+01  0.9167E+01
     -7.244  0.1152E+01  0.9263E+01
     -7.158  0.1233E+01  0.9372E+01
     -7.072  0.1211E+01  0.9477E+01
     -6.986  0.4093E+01  0.9693E+01
     -6.900  0.1350E+02  0.1016E+02
     -6.815  0.3420E+01  0.1072E+02
     -6.729  0.2659E+01  0.1097E+02
     -6.643  0.2325E+01  0.1127E+02
     -6.557  0.1731E+01  0.1144E+02
     -6.471  0.1621E+01  0.1158E+02
     -6.385  0.1514E+01  0.1172E+02
     -6.299  0.1695E+01  0.1186E+02
     -6.213  0.1926E+01  0.1201E+02
     -6.127  0.1634E+01  0.1212E+02
     -6.041  0.3373E+01  0.1233E+02
     -5.955  0.9514E+00  0.1247E+02
     -5.869  0.1145E+01  0.1255E+02
     -5.784  0.5199E+01  0.1277E+02
     -5.698  0.4595E+01  0.1306E+02
     -5.612  0.3325E+01  0.1338E+02
     -5.526  0.5247E+01  0.1390E+02
     -5.440  0.3170E+01  0.1422E+02
     -5.354  0.4090E+01  0.1452E+02
     -5.268  0.1530E+01  0.1466E+02
     -5.182  0.3439E+01  0.1480E+02
     -5.096  0.2053E+01  0.1506E+02
     -5.010  0.2099E+01  0.1523E+02
     -4.924  0.2308E+01  0.1542E+02
     -4.838  0.2377E+01  0.1562E+02
     -4.752  0.2679E+01  0.1587E+02
     -4.667  0.1115E+01  0.1603E+02
     -4.581  0.2625E+01  0.1620E+02
     -4.495  0.3149E+01  0.1653E+02
     -4.409  0.2867E+01  0.1680E+02
     -4.323  0.2635E+01  0.1703E+02
     -4.237  0.2378E+01  0.1725E+02
     -4.151  0.2011E+01  0.1744E+02
     -4.065  0.1681E+01  0.1760E+02
     -3.979  0.1388E+01  0.1773E+02
     -3.893  0.1261E+01  0.1785E+02
     -3.807  0.1104E+01  0.1796E+02
     -3.721  0.0000E+00  0.1800E+02
     -3.636  0.0000E+00  0.1800E+02
     -3.550  0.0000E+00  0.1800E+02
     -3.464  0.0000E+00  0.1800E+02
     -3.378  0.0000E+00  0.1800E+02
     -3.292  0.0000E+00  0.1800E+02
     -3.206  0.0000E+00  0.1800E+02
     -3.120  0.0000E+00  0.1800E+02
     -3.034  0.0000E+00  0.1800E+02
     -2.948  0.0000E+00  0.1800E+02
     -2.862  0.0000E+00  0.1800E+02
     -2.776  0.0000E+00  0.1800E+02
     -2.690  0.0000E+00  0.1800E+02
     -2.604  0.0000E+00  0.1800E+02
     -2.519  0.0000E+00  0.1800E+02
     -2.433  0.0000E+00  0.1800E+02
     -2.347  0.0000E+00  0.1800E+02
     -2.261  0.0000E+00  0.1800E+02
     -2.175  0.0000E+00  0.1800E+02
     -2.089  0.1117E+00  0.1800E+02
     -2.003  0.5843E+00  0.1803E+02
     -1.917  0.5231E+00  0.1807E+02
     -1.831  0.6522E+00  0.1812E+02
     -1.745  0.3553E+01  0.1835E+02
     -1.659  0.5178E+01  0.1870E+02
     -1.573  0.1121E+02  0.1959E+02
     -1.488  0.8104E+00  0.1979E+02
     -1.402  0.2686E+01  0.1995E+02
     -1.316  0.6355E+01  0.2037E+02
     -1.230  0.6446E+01  0.2089E+02
     -1.144  0.4999E+01  0.2134E+02
     -1.058  0.4304E+01  0.2176E+02
     -0.972  0.2872E+01  0.2206E+02
     -0.886  0.2092E+01  0.2232E+02
     -0.800  0.2737E+01  0.2251E+02
     -0.714  0.2968E+01  0.2273E+02
     -0.628  0.2785E+01  0.2308E+02
     -0.542  0.2594E+01  0.2329E+02
     -0.457  0.2226E+01  0.2349E+02
     -0.371  0.2031E+01  0.2368E+02
     -0.285  0.1506E+01  0.2383E+02
     -0.199  0.1431E+01  0.2395E+02
     -0.113  0.1403E+01  0.2407E+02
     -0.027  0.1600E+01  0.2420E+02
      0.059  0.1513E+01  0.2434E+02
      0.145  0.3139E+01  0.2450E+02
      0.231  0.9743E+00  0.2460E+02
      0.317  0.1407E+01  0.2470E+02
      0.403  0.5755E+01  0.2490E+02
      0.489  0.2266E+01  0.2529E+02
      0.575  0.1908E+01  0.2546E+02
      0.660  0.1587E+01  0.2561E+02
      0.746  0.1293E+01  0.2574E+02
      0.832  0.1093E+01  0.2583E+02
      0.918  0.7930E+00  0.2591E+02
      1.004  0.8032E+00  0.2598E+02
      1.090  0.0000E+00  0.2600E+02
      1.176  0.0000E+00  0.2600E+02
      1.262  0.0000E+00  0.2600E+02
      1.348  0.0000E+00  0.2600E+02
      1.434  0.0000E+00  0.2600E+02
      1.520  0.0000E+00  0.2600E+02
      1.606  0.0000E+00  0.2600E+02
      1.691  0.1338E+00  0.2600E+02
      1.777  0.2640E+00  0.2603E+02
      1.863  0.3179E+00  0.2605E+02
      1.949  0.3298E+00  0.2608E+02
      2.035  0.3388E+00  0.2611E+02
      2.121  0.3561E+00  0.2614E+02
      2.207  0.3626E+00  0.2617E+02
      2.293  0.3894E+00  0.2620E+02
      2.379  0.4162E+00  0.2623E+02
      2.465  0.7060E+00  0.2628E+02
      2.551  0.1122E+01  0.2636E+02
      2.637  0.9196E+00  0.2644E+02
      2.723  0.1023E+01  0.2653E+02
      2.808  0.1141E+01  0.2662E+02
      2.894  0.1130E+01  0.2672E+02
      2.980  0.1139E+01  0.2682E+02
      3.066  0.1187E+01  0.2692E+02
      3.152  0.1302E+01  0.2702E+02
      3.238  0.1424E+01  0.2714E+02
      3.324  0.1579E+01  0.2727E+02
      3.410  0.2041E+01  0.2744E+02
      3.496  0.1659E+01  0.2760E+02
      3.582  0.1174E+01  0.2772E+02
      3.668  0.8863E+00  0.2781E+02
      3.754  0.9136E+00  0.2790E+02
      3.839  0.5532E+00  0.2796E+02
      3.925  0.2320E+00  0.2799E+02
      4.011  0.0000E+00  0.2800E+02
      4.097  0.0000E+00  0.2800E+02
      4.183  0.0000E+00  0.2800E+02
      4.269  0.0000E+00  0.2800E+02
      4.355  0.0000E+00  0.2800E+02
      4.441  0.0000E+00  0.2800E+02
      4.527  0.0000E+00  0.2800E+02
      4.613  0.0000E+00  0.2800E+02
      4.699  0.0000E+00  0.2800E+02
      4.785  0.0000E+00  0.2800E+02
      4.870  0.0000E+00  0.2800E+02
      4.956  0.0000E+00  0.2800E+02
      5.042  0.0000E+00  0.2800E+02
      5.128  0.0000E+00  0.2800E+02
      5.214  0.0000E+00  0.2800E+02
      5.300  0.0000E+00  0.2800E+02
      5.386  0.0000E+00  0.2800E+02
      5.472  0.0000E+00  0.2800E+02
      5.558  0.0000E+00  0.2800E+02
      5.644  0.0000E+00  0.2800E+02
      5.730  0.0000E+00  0.2800E+02
      5.816  0.0000E+00  0.2800E+02
      5.902  0.0000E+00  0.2800E+02
      5.987  0.0000E+00  0.2800E+02
