    3    3    1    1
  0.9072772E+02  0.3190316E-09  0.3190316E-09  0.3087900E-08  0.5000000E-15
  1.000000000000000E-004
  CAR 
 unknown system                          
     18     37     14
 
  0.0000000E+00  0.0000000E+00  0.0000000E+00  0.3086420E-02
    1      -17.788340   1.000000
    2      -16.580317   1.000000
    3       -9.308751   1.000000
    4       -6.347860   1.000000
    5       -6.347854   1.000000
    6       -5.486711   1.000000
    7       -5.242273   1.000000
    8       -5.242241   1.000000
    9       -3.766428   1.000000
   10       -0.994789   0.000000
   11       -0.994758   0.000000
   12       -0.771066   0.000000
   13       -0.771052   0.000000
   14        1.664003   0.000000
 
  0.5555556E-01 -0.3469447E-17  0.0000000E+00  0.1851852E-01
    1      -17.745111   1.000000
    2      -16.559609   1.000000
    3       -9.257167   1.000000
    4       -6.450641   1.000000
    5       -6.300081   1.000000
    6       -5.776453   1.000000
    7       -5.316613   1.000000
    8       -5.018696   1.000000
    9       -3.787797   1.000000
   10       -1.067067   0.000000
   11       -0.915227   0.000000
   12       -0.904238   0.000000
   13       -0.823293   0.000000
   14        1.751220   0.000000
 
  0.1111111E+00 -0.6938894E-17  0.0000000E+00  0.1851852E-01
    1      -17.618161   1.000000
    2      -16.498908   1.000000
    3       -9.111900   1.000000
    4       -6.725009   1.000000
    5       -6.188061   1.000000
    6       -6.161095   1.000000
    7       -5.515112   1.000000
    8       -4.830138   1.000000
    9       -3.870029   1.000000
   10       -1.198677   0.000000
   11       -1.190960   0.000000
   12       -0.963389   0.000000
   13       -0.705457   0.000000
   14        1.968202   0.000000
 
  0.1666667E+00 -0.2775558E-16  0.0000000E+00  0.1851852E-01
    1      -17.415893   1.000000
    2      -16.402572   1.000000
    3       -8.907721   1.000000
    4       -7.087264   1.000000
    5       -6.619063   1.000000
    6       -5.944220   1.000000
    7       -5.784390   1.000000
    8       -4.816365   1.000000
    9       -4.051286   1.000000
   10       -1.468623   0.000000
   11       -1.198876   0.000000
   12       -1.151035   0.000000
   13       -0.429506   0.000000
   14        2.305241   0.000000
 
  0.2222222E+00 -0.1387779E-16  0.0000000E+00  0.1851852E-01
    1      -17.153019   1.000000
    2      -16.278279   1.000000
    3       -8.729461   1.000000
    4       -7.423666   1.000000
    5       -7.057327   1.000000
    6       -6.073316   1.000000
    7       -5.672637   1.000000
    8       -4.959026   1.000000
    9       -4.327704   1.000000
   10       -1.595256   0.000000
   11       -1.340109   0.000000
   12       -1.022525   0.000000
   13       -0.149967   0.000000
   14        2.644083   0.000000
 
  0.2777778E+00 -0.2775558E-16  0.0000000E+00  0.1851852E-01
    1      -16.851604   1.000000
    2      -16.137536   1.000000
    3       -8.728630   1.000000
    4       -7.600653   1.000000
    5       -7.489373   1.000000
    6       -6.344797   1.000000
    7       -5.379606   1.000000
    8       -5.166609   1.000000
    9       -4.596825   1.000000
   10       -1.570740   0.000000
   11       -1.491389   0.000000
   12       -0.718241   0.000000
   13        0.090794   0.000000
   14        3.068214   0.000000
 
  0.3333333E+00 -0.2775558E-16  0.0000000E+00  0.1851852E-01
    1      -16.542646   1.000000
    2      -15.995941   1.000000
    3       -8.936992   1.000000
    4       -7.888314   1.000000
    5       -7.636871   1.000000
    6       -6.574646   1.000000
    7       -5.358900   1.000000
    8       -5.105473   1.000000
    9       -4.714470   1.000000
   10       -1.580273   0.000000
   11       -1.447780   0.000000
   12       -0.382509   0.000000
   13        0.273299   0.000000
   14        3.472954   0.000000
 
  0.3888889E+00 -0.2775558E-16  0.0000000E+00  0.1851852E-01
    1      -16.267096   1.000000
    2      -15.872604   1.000000
    3       -9.197806   1.000000
    4       -8.215750   1.000000
    5       -7.687998   1.000000
    6       -6.747666   1.000000
    7       -5.499774   1.000000
    8       -4.888700   1.000000
    9       -4.632842   1.000000
   10       -1.605200   0.000000
   11       -1.282802   0.000000
   12       -0.099669   0.000000
   13        0.395488   0.000000
   14        3.223240   0.000000
 
  0.4444444E+00 -0.2775558E-16  0.0000000E+00  0.1851852E-01
    1      -16.072704   1.000000
    2      -15.787658   1.000000
    3       -9.395081   1.000000
    4       -8.432053   1.000000
    5       -7.762673   1.000000
    6       -6.854700   1.000000
    7       -5.582131   1.000000
    8       -4.753840   1.000000
    9       -4.467485   1.000000
   10       -1.592464   0.000000
   11       -1.131427   0.000000
   12        0.078084   0.000000
   13        0.463903   0.000000
   14        2.648983   0.000000
 
  0.5000000E+00 -0.2775558E-16  0.0000000E+00  0.9259259E-02
    1      -16.002001   1.000000
    2      -15.757239   1.000000
    3       -9.467967   1.000000
    4       -8.507777   1.000000
    5       -7.797026   1.000000
    6       -6.890873   1.000000
    7       -5.608892   1.000000
    8       -4.708760   1.000000
    9       -4.387018   1.000000
   10       -1.581709   0.000000
   11       -1.065748   0.000000
   12        0.136751   0.000000
   13        0.485742   0.000000
   14        2.415888   0.000000
 
  0.5555556E-01  0.5555556E-01  0.0000000E+00  0.1851852E-01
    1      -17.660010   1.000000
    2      -16.518895   1.000000
    3       -9.158470   1.000000
    4       -6.637909   1.000000
    5       -6.207937   1.000000
    6       -6.065997   1.000000
    7       -5.478360   1.000000
    8       -4.846293   1.000000
    9       -3.839555   1.000000
   10       -1.176247   0.000000
   11       -1.112021   0.000000
   12       -0.924010   0.000000
   13       -0.760370   0.000000
   14        1.900792   0.000000
 
  0.1111111E+00  0.5555556E-01  0.0000000E+00  0.3703704E-01
    1      -17.495312   1.000000
    2      -16.440286   1.000000
    3       -8.981316   1.000000
    4       -6.952023   1.000000
    5       -6.434732   1.000000
    6       -6.035179   1.000000
    7       -5.764934   1.000000
    8       -4.736793   1.000000
    9       -3.972120   1.000000
   10       -1.385943   0.000000
   11       -1.265423   0.000000
   12       -1.091669   0.000000
   13       -0.498029   0.000000
   14        2.158337   0.000000
 
  0.1666667E+00  0.5555556E-01  0.0000000E+00  0.3703704E-01
    1      -17.262464   1.000000
    2      -16.329669   1.000000
    3       -8.780903   1.000000
    4       -7.296515   1.000000
    5       -6.838060   1.000000
    6       -6.085011   1.000000
    7       -5.804873   1.000000
    8       -4.784854   1.000000
    9       -4.205467   1.000000
   10       -1.588307   0.000000
   11       -1.265690   0.000000
   12       -1.200026   0.000000
   13       -0.204396   0.000000
   14        2.496223   0.000000
 
  0.2222222E+00  0.5555556E-01  0.0000000E+00  0.3703704E-01
    1      -16.979607   1.000000
    2      -16.196474   1.000000
    3       -8.680101   1.000000
    4       -7.541974   1.000000
    5       -7.268311   1.000000
    6       -6.369720   1.000000
    7       -5.556973   1.000000
    8       -4.959859   1.000000
    9       -4.478640   1.000000
   10       -1.668798   0.000000
   11       -1.387260   0.000000
   12       -0.968475   0.000000
   13        0.062726   0.000000
   14        2.904353   0.000000
 
  0.2777778E+00  0.5555556E-01  0.0000000E+00  0.3703704E-01
    1      -16.673000   1.000000
    2      -16.054113   1.000000
    3       -8.799338   1.000000
    4       -7.698128   1.000000
    5       -7.608947   1.000000
    6       -6.590196   1.000000
    7       -5.348930   1.000000
    8       -5.178896   1.000000
    9       -4.638769   1.000000
   10       -1.665043   0.000000
   11       -1.410961   0.000000
   12       -0.646920   0.000000
   13        0.267672   0.000000
   14        3.343527   0.000000
 
  0.3333333E+00  0.5555556E-01  0.0000000E+00  0.3703704E-01
    1      -16.378396   1.000000
    2      -15.919971   1.000000
    3       -9.044246   1.000000
    4       -8.080583   1.000000
    5       -7.634572   1.000000
    6       -6.746186   1.000000
    7       -5.376526   1.000000
    8       -5.200327   1.000000
    9       -4.588310   1.000000
   10       -1.626068   0.000000
   11       -1.332106   0.000000
   12       -0.319029   0.000000
   13        0.390391   0.000000
   14        3.548537   0.000000
 
  0.3888889E+00  0.5555556E-01  0.0000000E+00  0.3703704E-01
    1      -16.140437   1.000000
    2      -15.814040   1.000000
    3       -9.272272   1.000000
    4       -8.367748   1.000000
    5       -7.707401   1.000000
    6       -6.845147   1.000000
    7       -5.518792   1.000000
    8       -5.070193   1.000000
    9       -4.425442   1.000000
   10       -1.585880   0.000000
   11       -1.190849   0.000000
   12       -0.041350   0.000000
   13        0.422506   0.000000
   14        2.963687   0.000000
 
  0.4444444E+00  0.5555556E-01  0.0000000E+00  0.3703704E-01
    1      -16.005589   1.000000
    2      -15.755158   1.000000
    3       -9.405557   1.000000
    4       -8.521829   1.000000
    5       -7.772163   1.000000
    6       -6.893139   1.000000
    7       -5.591989   1.000000
    8       -4.988278   1.000000
    9       -4.290832   1.000000
   10       -1.567602   0.000000
   11       -1.067951   0.000000
   12        0.150956   0.000000
   13        0.380874   0.000000
   14        2.530711   0.000000
 
  0.1111111E+00  0.1111111E+00  0.0000000E+00  0.1851852E-01
    1      -17.299820   1.000000
    2      -16.347167   1.000000
    3       -8.801229   1.000000
    4       -7.242227   1.000000
    5       -6.711693   1.000000
    6       -6.175403   1.000000
    7       -5.860387   1.000000
    8       -4.669739   1.000000
    9       -4.160309   1.000000
   10       -1.586791   0.000000
   11       -1.305919   0.000000
   12       -1.243108   0.000000
   13       -0.198684   0.000000
   14        2.448453   0.000000
 
  0.1666667E+00  0.1111111E+00  0.0000000E+00  0.3703704E-01
    1      -17.046227   1.000000
    2      -16.226881   1.000000
    3       -8.657529   1.000000
    4       -7.485538   1.000000
    5       -7.052143   1.000000
    6       -6.554186   1.000000
    7       -5.689737   1.000000
    8       -4.733189   1.000000
    9       -4.399803   1.000000
   10       -1.738874   0.000000
   11       -1.330401   0.000000
   12       -1.205370   0.000000
   13        0.095890   0.000000
   14        2.830054   0.000000
 
  0.2222222E+00  0.1111111E+00  0.0000000E+00  0.3703704E-01
    1      -16.756366   1.000000
    2      -16.090437   1.000000
    3       -8.682839   1.000000
    4       -7.566783   1.000000
    5       -7.496359   1.000000
    6       -6.771428   1.000000
    7       -5.602087   1.000000
    8       -4.916691   1.000000
    9       -4.563956   1.000000
   10       -1.784668   0.000000
   11       -1.341043   0.000000
   12       -0.966902   0.000000
   13        0.328553   0.000000
   14        3.268867   0.000000
 
  0.2777778E+00  0.1111111E+00  0.0000000E+00  0.3703704E-01
    1      -16.460625   1.000000
    2      -15.952862   1.000000
    3       -8.867630   1.000000
    4       -7.945609   1.000000
    5       -7.555133   1.000000
    6       -6.871547   1.000000
    7       -5.600318   1.000000
    8       -5.153119   1.000000
    9       -4.546761   1.000000
   10       -1.706565   0.000000
   11       -1.308098   0.000000
   12       -0.660568   0.000000
   13        0.469032   0.000000
   14        3.683967   0.000000
 
  0.3333333E+00  0.1111111E+00  0.0000000E+00  0.3703704E-01
    1      -16.198433   1.000000
    2      -15.832747   1.000000
    3       -9.079319   1.000000
    4       -8.314772   1.000000
    5       -7.604965   1.000000
    6       -6.905946   1.000000
    7       -5.571398   1.000000
    8       -5.377041   1.000000
    9       -4.403946   1.000000
   10       -1.585793   0.000000
   11       -1.225203   0.000000
   12       -0.355402   0.000000
   13        0.504459   0.000000
   14        3.401369   0.000000
 
  0.3888889E+00  0.1111111E+00  0.0000000E+00  0.3703704E-01
    1      -16.014615   1.000000
    2      -15.749867   1.000000
    3       -9.234748   1.000000
    4       -8.555567   1.000000
    5       -7.696670   1.000000
    6       -6.906960   1.000000
    7       -5.537637   1.000000
    8       -5.514235   1.000000
    9       -4.235529   1.000000
   10       -1.559334   0.000000
   11       -1.058568   0.000000
   12       -0.101181   0.000000
   13        0.449769   0.000000
   14        2.842484   0.000000
 
  0.4444444E+00  0.1111111E+00  0.0000000E+00  0.1851852E-01
    1      -15.948025   1.000000
    2      -15.720161   1.000000
    3       -9.291477   1.000000
    4       -8.639192   1.000000
    5       -7.739787   1.000000
    6       -6.902891   1.000000
    7       -5.596544   1.000000
    8       -5.488605   1.000000
    9       -4.157057   1.000000
   10       -1.572644   0.000000
   11       -0.964049   0.000000
   12        0.020714   0.000000
   13        0.391442   0.000000
   14        2.614066   0.000000
 
  0.1666667E+00  0.1666667E+00  0.0000000E+00  0.1851852E-01
    1      -16.785002   1.000000
    2      -16.102765   1.000000
    3       -8.636836   1.000000
    4       -7.545196   1.000000
    5       -7.372389   1.000000
    6       -6.903095   1.000000
    7       -5.704463   1.000000
    8       -4.793863   1.000000
    9       -4.538019   1.000000
   10       -1.831496   0.000000
   11       -1.317254   0.000000
   12       -1.108542   0.000000
   13        0.358696   0.000000
   14        3.242797   0.000000
 
  0.2222222E+00  0.1666667E+00  0.0000000E+00  0.3703704E-01
    1      -16.504185   1.000000
    2      -15.969628   1.000000
    3       -8.745928   1.000000
    4       -7.838375   1.000000
    5       -7.483715   1.000000
    6       -7.004913   1.000000
    7       -5.873257   1.000000
    8       -4.975982   1.000000
    9       -4.537066   1.000000
   10       -1.770025   0.000000
   11       -1.280823   0.000000
   12       -0.906920   0.000000
   13        0.537328   0.000000
   14        3.695179   0.000000
 
  0.2777778E+00  0.1666667E+00  0.0000000E+00  0.3703704E-01
    1      -16.237425   1.000000
    2      -15.843667   1.000000
    3       -8.894316   1.000000
    4       -8.271044   1.000000
    5       -7.466138   1.000000
    6       -6.994482   1.000000
    7       -6.038029   1.000000
    8       -5.221329   1.000000
    9       -4.421578   1.000000
   10       -1.609294   0.000000
   11       -1.226455   0.000000
   12       -0.663689   0.000000
   13        0.624852   0.000000
   14        3.812711   0.000000
 
  0.3333333E+00  0.1666667E+00  0.0000000E+00  0.3703704E-01
    1      -16.024755   1.000000
    2      -15.743821   1.000000
    3       -9.011981   1.000000
    4       -8.591085   1.000000
    5       -7.564197   1.000000
    6       -6.934516   1.000000
    7       -6.092921   1.000000
    8       -5.457082   1.000000
    9       -4.241326   1.000000
   10       -1.583165   0.000000
   11       -1.029954   0.000000
   12       -0.447973   0.000000
   13        0.638185   0.000000
   14        3.274173   0.000000
 
  0.3888889E+00  0.1666667E+00  0.0000000E+00  0.3703704E-01
    1      -15.905596   1.000000
    2      -15.688171   1.000000
    3       -9.073162   1.000000
    4       -8.760615   1.000000
    5       -7.667281   1.000000
    6       -6.877596   1.000000
    7       -6.092352   1.000000
    8       -5.607708   1.000000
    9       -4.089775   1.000000
   10       -1.657502   0.000000
   11       -0.817275   0.000000
   12       -0.317574   0.000000
   13        0.619744   0.000000
   14        2.872048   0.000000
 
  0.2222222E+00  0.2222222E+00  0.0000000E+00  0.1851852E-01
    1      -16.251150   1.000000
    2      -15.847229   1.000000
    3       -8.816057   1.000000
    4       -8.252473   1.000000
    5       -7.379541   1.000000
    6       -7.035624   1.000000
    7       -6.252771   1.000000
    8       -5.153281   1.000000
    9       -4.433536   1.000000
   10       -1.622884   0.000000
   11       -1.222386   0.000000
   12       -0.787141   0.000000
   13        0.676209   0.000000
   14        3.987436   0.000000
 
  0.2777778E+00  0.2222222E+00  0.0000000E+00  0.3703704E-01
    1      -16.031314   1.000000
    2      -15.739864   1.000000
    3       -8.844756   1.000000
    4       -8.612827   1.000000
    5       -7.386145   1.000000
    6       -6.957869   1.000000
    7       -6.558375   1.000000
    8       -5.394458   1.000000
    9       -4.259165   1.000000
   10       -1.609726   0.000000
   11       -1.006254   0.000000
   12       -0.662307   0.000000
   13        0.766581   0.000000
   14        3.691336   0.000000
 
  0.3333333E+00  0.2222222E+00  0.0000000E+00  0.3703704E-01
    1      -15.880258   1.000000
    2      -15.665501   1.000000
    3       -8.851295   1.000000
    4       -8.825837   1.000000
    5       -7.538752   1.000000
    6       -6.844945   1.000000
    7       -6.676548   1.000000
    8       -5.616891   1.000000
    9       -4.056516   1.000000
   10       -1.757619   0.000000
   11       -0.699483   0.000000
   12       -0.577594   0.000000
   13        0.820949   0.000000
   14        3.250154   0.000000
 
  0.3888889E+00  0.2222222E+00  0.0000000E+00  0.1851852E-01
    1      -15.826251   1.000000
    2      -15.638793   1.000000
    3       -8.934400   1.000000
    4       -8.805472   1.000000
    5       -7.633104   1.000000
    6       -6.786524   1.000000
    7       -6.695940   1.000000
    8       -5.713956   1.000000
    9       -3.957440   1.000000
   10       -1.844874   0.000000
   11       -0.558725   0.000000
   12       -0.548800   0.000000
   13        0.839504   0.000000
   14        3.055675   0.000000
 
  0.2777778E+00  0.2777778E+00  0.0000000E+00  0.1851852E-01
    1      -15.871919   1.000000
    2      -15.657284   1.000000
    3       -8.884683   1.000000
    4       -8.706281   1.000000
    5       -7.388830   1.000000
    6       -7.018329   1.000000
    7       -6.830988   1.000000
    8       -5.619747   1.000000
    9       -4.045768   1.000000
   10       -1.800319   0.000000
   11       -0.673366   0.000000
   12       -0.656433   0.000000
   13        0.900127   0.000000
   14        3.518526   0.000000
 
  0.3333333E+00  0.2777778E+00  0.0000000E+00  0.3703704E-01
    1      -15.784749   1.000000
    2      -15.611152   1.000000
    3       -9.032983   1.000000
    4       -8.531078   1.000000
    5       -7.601907   1.000000
    6       -7.164594   1.000000
    7       -6.703372   1.000000
    8       -5.800924   1.000000
    9       -3.863419   1.000000
   10       -1.993238   0.000000
   11       -0.686599   0.000000
   12       -0.400124   0.000000
   13        0.985071   0.000000
   14        3.345770   0.000000
 
  0.3333333E+00  0.3333333E+00  0.0000000E+00  0.6172840E-02
    1      -15.751398   1.000000
    2      -15.591626   1.000000
    3       -9.097756   1.000000
    4       -8.288792   1.000000
    5       -7.794882   1.000000
    6       -7.305078   1.000000
    7       -6.623631   1.000000
    8       -5.895277   1.000000
    9       -3.769477   1.000000
   10       -2.109284   0.000000
   11       -0.728191   0.000000
   12       -0.279242   0.000000
   13        1.050414   0.000000
   14        3.479098   0.000000
