       N       E                     dE             d eps       ncg     rms          rms(c)
DAV:   1     0.136004746998E+03    0.13600E+03   -0.53542E+03  1036   0.807E+02
DAV:   2    -0.595668014988E+01   -0.14196E+03   -0.13285E+03  1818   0.163E+02
DAV:   3    -0.230594470252E+02   -0.17103E+02   -0.16941E+02  1440   0.732E+01
DAV:   4    -0.233983624500E+02   -0.33892E+00   -0.33761E+00  1272   0.130E+01
DAV:   5    -0.234075963934E+02   -0.92339E-02   -0.92303E-02  1380   0.209E+00    0.689E+00
RMM:   6    -0.222464943321E+02    0.11611E+01   -0.54375E+00  1091   0.124E+01    0.262E+00
RMM:   7    -0.218623231232E+02    0.38417E+00   -0.55755E-01  1078   0.342E+00    0.151E+00
RMM:   8    -0.218020523682E+02    0.60271E-01   -0.23298E-01  1146   0.251E+00    0.354E-01
RMM:   9    -0.217971750571E+02    0.48773E-02   -0.87485E-03  1240   0.606E-01    0.958E-02
RMM:  10    -0.217964218349E+02    0.75322E-03   -0.17132E-03  1235   0.220E-01    0.442E-02
RMM:  11    -0.217963559471E+02    0.65888E-04   -0.16250E-03  1168   0.189E-01    0.534E-02
RMM:  12    -0.217961917787E+02    0.16417E-03   -0.52180E-04  1127   0.128E-01    0.174E-02
RMM:  13    -0.217965311681E+02   -0.33939E-03   -0.16742E-04  1059   0.724E-02    0.201E-02
RMM:  14    -0.217965886711E+02   -0.57503E-04   -0.26242E-05   953   0.282E-02    0.489E-03
RMM:  15    -0.217967144547E+02   -0.12578E-03   -0.11285E-05   725   0.172E-02    0.263E-03
RMM:  16    -0.217967553333E+02   -0.40879E-04   -0.26857E-06   656   0.848E-03    0.153E-03
RMM:  17    -0.217967870656E+02   -0.31732E-04   -0.24059E-06   548   0.697E-03    0.114E-03
RMM:  18    -0.217967914970E+02   -0.44314E-05   -0.40165E-07   315   0.418E-03
   1 F= -.22387590E+02 E0= -.22387590E+02  d E =0.000000E+00
