perl: warning: Setting locale failed.
perl: warning: Please check that your locale settings:
	LANGUAGE = (unset),
	LC_ALL = (unset),
	LC_CTYPE = "UTF-8",
	LANG = "en_US.iso885915"
    are supported and installed on your system.
perl: warning: Falling back to the standard locale ("C").
Starting job 28531330 ("jobname") on c15-18 at Fri Nov 8 09:52:47 CET 2019
 running on    4 total cores
 distrk:  each k-point on    4 cores,    1 groups
 distr:  one band on    2 cores,    2 groups
 using from now: INCAR     
 vasp.5.4.4.18Apr17-6-g9f103f2a35 (build Jun 30 2017 11:15:00) complex          
  
 POSCAR found type information on POSCAR  Mo S 
 POSCAR found :  2 types and       6 ions
 scaLAPACK will be used
 LDA part: xc-table for Pade appr. of Perdew
 POSCAR, INCAR and KPOINTS ok, starting setup
 FFT: planning ...
 WAVECAR not read
 entering main loop
       N       E                     dE             d eps       ncg     rms          rms(c)
DAV:   1     0.281154355012E+03    0.28115E+03   -0.15932E+04  1628   0.156E+03
DAV:   2    -0.161442778321E+02   -0.29730E+03   -0.29121E+03  2398   0.280E+02
DAV:   3    -0.456858078512E+02   -0.29542E+02   -0.29374E+02  1960   0.945E+01
DAV:   4    -0.467939894742E+02   -0.11082E+01   -0.11058E+01  2388   0.194E+01
DAV:   5    -0.468213091990E+02   -0.27320E-01   -0.27303E-01  2090   0.316E+00    0.973E+00
RMM:   6    -0.444206926945E+02    0.24006E+01   -0.24071E+01  1827   0.197E+01    0.332E+00
RMM:   7    -0.436931466929E+02    0.72755E+00   -0.19981E+00  1815   0.576E+00    0.177E+00
RMM:   8    -0.436320490373E+02    0.61098E-01   -0.83380E-01  1926   0.333E+00    0.818E-01
RMM:   9    -0.436208601809E+02    0.11189E-01   -0.30109E-01  2000   0.229E+00    0.563E-01
RMM:  10    -0.436040793687E+02    0.16781E-01   -0.56403E-02  1973   0.108E+00    0.548E-02
RMM:  11    -0.436043392034E+02   -0.25983E-03   -0.51038E-03  2246   0.242E-01    0.431E-02
RMM:  12    -0.436043289294E+02    0.10274E-04   -0.13549E-03  2029   0.171E-01    0.393E-02
RMM:  13    -0.436042952936E+02    0.33636E-04   -0.47980E-04  2038   0.935E-02    0.137E-02
RMM:  14    -0.436043802288E+02   -0.84935E-04   -0.79356E-05  1632   0.386E-02    0.576E-03
RMM:  15    -0.436044205199E+02   -0.40291E-04   -0.64899E-05  1654   0.337E-02    0.120E-02
RMM:  16    -0.436044433613E+02   -0.22841E-04   -0.53344E-05  1532   0.352E-02    0.361E-03
RMM:  17    -0.436044898624E+02   -0.46501E-04   -0.66450E-06  1237   0.130E-02    0.346E-03
RMM:  18    -0.436045317838E+02   -0.41921E-04   -0.49217E-06  1133   0.101E-02    0.109E-03
RMM:  19    -0.436045486607E+02   -0.16877E-04   -0.25239E-06   804   0.599E-03    0.301E-04
RMM:  20    -0.436045524487E+02   -0.37881E-05   -0.10237E-06   659   0.467E-03
 Error reading item 'IVDW' from file INCAR
   1 F= -.43604552E+02 E0= -.43604552E+02  d E =0.000000E+00

Currently Loaded Modulefiles:
  1) Anaconda3/5.1.0       3) vesta/3.3.8           5) intel/2016.1
  2) gnuplot/5.0.4         4) imagemagick/6.7.9-0   6) vasp/5.4.1.Feb16

Job script resource usage:
       JobID  MaxVMSize     MaxRSS 
------------ ---------- ---------- 
28531330.ba+    499284K      6000K 

Job step resource usage:
       JobID    JobName  AllocCPUS  MaxVMSize     MaxRSS    Elapsed ExitCode 
------------ ---------- ---------- ---------- ---------- ---------- -------- 
28531330        jobname          4                         00:01:00      0:0 
28531330.0    pmi_proxy          1   1593012K    384057K   00:00:57      0:0 

Job 28531330 ("jobname") completed on c15-18 at Fri Nov 8 09:53:44 CET 2019
