perl: warning: Setting locale failed.
perl: warning: Please check that your locale settings:
	LANGUAGE = (unset),
	LC_ALL = (unset),
	LC_CTYPE = "UTF-8",
	LANG = "en_US.iso885915"
    are supported and installed on your system.
perl: warning: Falling back to the standard locale ("C").
Starting job 28532158 ("jobname") on c14-26 at Fri Nov 8 11:20:37 CET 2019
 running on    4 total cores
 distrk:  each k-point on    4 cores,    1 groups
 distr:  one band on    2 cores,    2 groups
 using from now: INCAR     
 vasp.5.4.4.18Apr17-6-g9f103f2a35 (build Jun 30 2017 11:15:00) complex          
  
 POSCAR found type information on POSCAR  Mo S 
 POSCAR found :  2 types and       3 ions
 scaLAPACK will be used
 LDA part: xc-table for Pade appr. of Perdew
 POSCAR, INCAR and KPOINTS ok, starting setup
 FFT: planning ...
 WAVECAR not read
 WARNING: random wavefunctions but no delay for mixing, default for NELMDL
 entering main loop
       N       E                     dE             d eps       ncg     rms          rms(c)
DAV:   1     0.151408977362E+03    0.15141E+03   -0.62966E+03  1036   0.107E+03
DAV:   2    -0.351689200434E+01   -0.15493E+03   -0.14612E+03  1830   0.175E+02
DAV:   3    -0.229632623412E+02   -0.19446E+02   -0.19251E+02  1424   0.788E+01
DAV:   4    -0.233990230101E+02   -0.43576E+00   -0.43363E+00  1348   0.147E+01
DAV:   5    -0.234096642213E+02   -0.10641E-01   -0.10638E-01  1376   0.225E+00    0.689E+00
RMM:   6    -0.222486126595E+02    0.11611E+01   -0.54272E+00  1093   0.125E+01    0.261E+00
RMM:   7    -0.218648128868E+02    0.38380E+00   -0.55600E-01  1079   0.342E+00    0.150E+00
RMM:   8    -0.218045245152E+02    0.60288E-01   -0.23237E-01  1144   0.253E+00    0.354E-01
RMM:   9    -0.217996441510E+02    0.48804E-02   -0.88266E-03  1240   0.611E-01    0.956E-02
RMM:  10    -0.217988897015E+02    0.75445E-03   -0.17022E-03  1229   0.221E-01    0.443E-02
RMM:  11    -0.217988219771E+02    0.67724E-04   -0.16358E-03  1166   0.191E-01    0.539E-02
RMM:  12    -0.217986573466E+02    0.16463E-03   -0.52563E-04  1130   0.129E-01    0.175E-02
RMM:  13    -0.217989951211E+02   -0.33777E-03   -0.16754E-04  1059   0.735E-02    0.202E-02
RMM:  14    -0.217990489632E+02   -0.53842E-04   -0.26094E-05   953   0.283E-02    0.490E-03
RMM:  15    -0.217991756559E+02   -0.12669E-03   -0.11099E-05   734   0.175E-02    0.259E-03
RMM:  16    -0.217992157675E+02   -0.40112E-04   -0.26694E-06   651   0.840E-03    0.153E-03
RMM:  17    -0.217992468019E+02   -0.31034E-04   -0.25262E-06   561   0.703E-03    0.113E-03
RMM:  18    -0.217992514809E+02   -0.46789E-05   -0.41687E-07   312   0.410E-03
 Error reading item 'IVDW' from file INCAR
   1 F= -.21799251E+02 E0= -.21799251E+02  d E =0.000000E+00

Currently Loaded Modulefiles:
  1) Anaconda3/5.1.0       3) vesta/3.3.8           5) intel/2016.1
  2) gnuplot/5.0.4         4) imagemagick/6.7.9-0   6) vasp/5.4.1.Feb16

Job script resource usage:
       JobID  MaxVMSize     MaxRSS 
------------ ---------- ---------- 
28532158.ba+    499276K      5170K 

Job step resource usage:
       JobID    JobName  AllocCPUS  MaxVMSize     MaxRSS    Elapsed ExitCode 
------------ ---------- ---------- ---------- ---------- ---------- -------- 
28532158        jobname          4                         00:00:49      0:0 
28532158.0    pmi_proxy          1   1638684K    412614K   00:00:47      0:0 

Job 28532158 ("jobname") completed on c14-26 at Fri Nov 8 11:21:26 CET 2019
