<?xml version="1.0" encoding="ISO-8859-1"?>
<modeling>
 <generator>
  <i name="program" type="string">vasp </i>
  <i name="version" type="string">5.4.4.18Apr17-6-g9f103f2a35  </i>
  <i name="subversion" type="string">(build Jun 30 2017 11:15:00) complex            parallel </i>
  <i name="platform" type="string">STALLO_VASP_5.4.4 </i>
  <i name="date" type="string">2019 11 08 </i>
  <i name="time" type="string">12:22:18 </i>
 </generator>
 <incar>
  <i type="string" name="PREC">normal    ! low/normal/accurate</i>
  <i type="string" name="ALGO"> Fast      ! Algorithm for electronic re</i>
  <i type="int" name="ISPIN">     1</i>
  <i type="int" name="NELMIN">     4</i>
  <i name="EDIFF">      0.00001000</i>
  <i type="int" name="NSW">     0</i>
  <i name="ENCUT">    450.00000000</i>
  <i type="logical" name="LREAL"> F  </i>
  <i type="int" name="ISMEAR">    -5</i>
  <i name="SIGMA">      0.20000000</i>
  <i type="logical" name="LWAVE"> F  </i>
  <v type="int" name="KPOINT_BSE">    -1     0     0     0</v>
 </incar>
 <structure name="primitive_cell" >
  <crystal>
   <varray name="basis" >
    <v>       3.19031573       0.00000000       0.00000000 </v>
    <v>      -1.59515786       2.76289447       0.00000000 </v>
    <v>       0.00000000       0.00000000      30.87900430 </v>
   </varray>
   <i name="volume">    272.18315887 </i>
   <varray name="rec_basis" >
    <v>       0.31344860       0.18096963       0.00000000 </v>
    <v>       0.00000000       0.36193927       0.00000000 </v>
    <v>       0.00000000       0.00000000       0.03238446 </v>
   </varray>
  </crystal>
  <varray name="positions" >
   <v>       0.33333300      -0.33333300       0.12046214 </v>
   <v>      -0.33333400       0.33333300       0.17114009 </v>
   <v>      -0.33333300       0.33333300       0.06978420 </v>
  </varray>
 </structure>
 <varray name="primitive_index" >
  <v type="int" >        1 </v>
  <v type="int" >        3 </v>
  <v type="int" >        2 </v>
 </varray>
 <kpoints>
  <generation param="Gamma">
   <v type="int" name="divisions">      18       18        1 </v>
   <v name="usershift">      0.00000000       0.00000000       0.00000000 </v>
   <v name="genvec1">      0.05555556      -0.00000000       0.00000000 </v>
   <v name="genvec2">      0.00000000       0.05555556       0.00000000 </v>
   <v name="genvec3">      0.00000000       0.00000000       1.00000000 </v>
   <v name="shift">      0.00000000       0.00000000       0.00000000 </v>
  </generation>
  <varray name="kpointlist" >
   <v>       0.00000000       0.00000000       0.00000000 </v>
   <v>       0.05555556      -0.00000000       0.00000000 </v>
   <v>       0.11111111      -0.00000000       0.00000000 </v>
   <v>       0.16666667      -0.00000000       0.00000000 </v>
   <v>       0.22222222      -0.00000000       0.00000000 </v>
   <v>       0.27777778      -0.00000000       0.00000000 </v>
   <v>       0.33333333      -0.00000000       0.00000000 </v>
   <v>       0.38888889      -0.00000000       0.00000000 </v>
   <v>       0.44444444      -0.00000000       0.00000000 </v>
   <v>       0.50000000      -0.00000000       0.00000000 </v>
   <v>       0.05555556       0.05555556       0.00000000 </v>
   <v>       0.11111111       0.05555556       0.00000000 </v>
   <v>       0.16666667       0.05555556       0.00000000 </v>
   <v>       0.22222222       0.05555556       0.00000000 </v>
   <v>       0.27777778       0.05555556       0.00000000 </v>
   <v>       0.33333333       0.05555556       0.00000000 </v>
   <v>       0.38888889       0.05555556       0.00000000 </v>
   <v>       0.44444444       0.05555556       0.00000000 </v>
   <v>       0.11111111       0.11111111       0.00000000 </v>
   <v>       0.16666667       0.11111111       0.00000000 </v>
   <v>       0.22222222       0.11111111       0.00000000 </v>
   <v>       0.27777778       0.11111111       0.00000000 </v>
   <v>       0.33333333       0.11111111       0.00000000 </v>
   <v>       0.38888889       0.11111111       0.00000000 </v>
   <v>       0.44444444       0.11111111       0.00000000 </v>
   <v>       0.16666667       0.16666667       0.00000000 </v>
   <v>       0.22222222       0.16666667       0.00000000 </v>
   <v>       0.27777778       0.16666667       0.00000000 </v>
   <v>       0.33333333       0.16666667       0.00000000 </v>
   <v>       0.38888889       0.16666667       0.00000000 </v>
   <v>       0.22222222       0.22222222       0.00000000 </v>
   <v>       0.27777778       0.22222222       0.00000000 </v>
   <v>       0.33333333       0.22222222       0.00000000 </v>
   <v>       0.38888889       0.22222222       0.00000000 </v>
   <v>       0.27777778       0.27777778       0.00000000 </v>
   <v>       0.33333333       0.27777778       0.00000000 </v>
   <v>       0.33333333       0.33333333       0.00000000 </v>
  </varray>
  <varray name="weights" >
   <v>       0.00308642 </v>
   <v>       0.01851852 </v>
   <v>       0.01851852 </v>
   <v>       0.01851852 </v>
   <v>       0.01851852 </v>
   <v>       0.01851852 </v>
   <v>       0.01851852 </v>
   <v>       0.01851852 </v>
   <v>       0.01851852 </v>
   <v>       0.00925926 </v>
   <v>       0.01851852 </v>
   <v>       0.03703704 </v>
   <v>       0.03703704 </v>
   <v>       0.03703704 </v>
   <v>       0.03703704 </v>
   <v>       0.03703704 </v>
   <v>       0.03703704 </v>
   <v>       0.03703704 </v>
   <v>       0.01851852 </v>
   <v>       0.03703704 </v>
   <v>       0.03703704 </v>
   <v>       0.03703704 </v>
   <v>       0.03703704 </v>
   <v>       0.03703704 </v>
   <v>       0.01851852 </v>
   <v>       0.01851852 </v>
   <v>       0.03703704 </v>
   <v>       0.03703704 </v>
   <v>       0.03703704 </v>
   <v>       0.03703704 </v>
   <v>       0.01851852 </v>
   <v>       0.03703704 </v>
   <v>       0.03703704 </v>
   <v>       0.01851852 </v>
   <v>       0.01851852 </v>
   <v>       0.03703704 </v>
   <v>       0.00617284 </v>
  </varray>
  <varray name="tetrahedronlist"  type="int" >
   <v type="int" >       12        2        2        2       11 </v>
   <v type="int" >       12        1        2        2        2 </v>
   <v type="int" >        6        1        1        2        2 </v>
   <v type="int" >        6        2        2       11       11 </v>
   <v type="int" >       12        3       11       11       12 </v>
   <v type="int" >       12        2        3       11       11 </v>
   <v type="int" >       12        2        2        3       11 </v>
   <v type="int" >       12        3       11       12       12 </v>
   <v type="int" >       12        3        3       11       12 </v>
   <v type="int" >       12        2        3        3       11 </v>
   <v type="int" >       12        4       12       12       13 </v>
   <v type="int" >       12        3        4       12       12 </v>
   <v type="int" >       12        3        3        4       12 </v>
   <v type="int" >       12        4       12       13       13 </v>
   <v type="int" >       12        4        4       12       13 </v>
   <v type="int" >       12        3        4        4       12 </v>
   <v type="int" >       12        5       13       13       14 </v>
   <v type="int" >       12        4        5       13       13 </v>
   <v type="int" >       12        4        4        5       13 </v>
   <v type="int" >       12        5       13       14       14 </v>
   <v type="int" >       12        5        5       13       14 </v>
   <v type="int" >       12        4        5        5       13 </v>
   <v type="int" >       12        6       14       14       15 </v>
   <v type="int" >       12        5        6       14       14 </v>
   <v type="int" >       12        5        5        6       14 </v>
   <v type="int" >       12        6       14       15       15 </v>
   <v type="int" >       12        6        6       14       15 </v>
   <v type="int" >       12        5        6        6       14 </v>
   <v type="int" >       12        7       15       15       16 </v>
   <v type="int" >       12        6        7       15       15 </v>
   <v type="int" >       12        6        6        7       15 </v>
   <v type="int" >       12        7       15       16       16 </v>
   <v type="int" >       12        7        7       15       16 </v>
   <v type="int" >       12        6        7        7       15 </v>
   <v type="int" >       12        8       16       16       17 </v>
   <v type="int" >       12        7        8       16       16 </v>
   <v type="int" >       12        7        7        8       16 </v>
   <v type="int" >       12        8       16       17       17 </v>
   <v type="int" >       12        8        8       16       17 </v>
   <v type="int" >       12        7        8        8       16 </v>
   <v type="int" >       12        9       17       17       18 </v>
   <v type="int" >       12        8        9       17       17 </v>
   <v type="int" >       12        8        8        9       17 </v>
   <v type="int" >       12        9       17       18       18 </v>
   <v type="int" >       12        9        9       17       18 </v>
   <v type="int" >       12        8        9        9       17 </v>
   <v type="int" >       12       10       18       18       18 </v>
   <v type="int" >       12        9       10       18       18 </v>
   <v type="int" >       12        9        9       10       18 </v>
   <v type="int" >        6       10       10       18       18 </v>
   <v type="int" >       12        9       10       10       18 </v>
   <v type="int" >       12       12       12       12       19 </v>
   <v type="int" >       12       11       12       12       12 </v>
   <v type="int" >        6       11       11       12       12 </v>
   <v type="int" >        6       12       12       19       19 </v>
   <v type="int" >       12       13       19       19       20 </v>
   <v type="int" >       12       12       13       19       19 </v>
   <v type="int" >       12       12       12       13       19 </v>
   <v type="int" >       12       13       19       20       20 </v>
   <v type="int" >       12       13       13       19       20 </v>
   <v type="int" >       12       12       13       13       19 </v>
   <v type="int" >       12       14       20       20       21 </v>
   <v type="int" >       12       13       14       20       20 </v>
   <v type="int" >       12       13       13       14       20 </v>
   <v type="int" >       12       14       20       21       21 </v>
   <v type="int" >       12       14       14       20       21 </v>
   <v type="int" >       12       13       14       14       20 </v>
   <v type="int" >       12       15       21       21       22 </v>
   <v type="int" >       12       14       15       21       21 </v>
   <v type="int" >       12       14       14       15       21 </v>
   <v type="int" >       12       15       21       22       22 </v>
   <v type="int" >       12       15       15       21       22 </v>
   <v type="int" >       12       14       15       15       21 </v>
   <v type="int" >       12       16       22       22       23 </v>
   <v type="int" >       12       15       16       22       22 </v>
   <v type="int" >       12       15       15       16       22 </v>
   <v type="int" >       12       16       22       23       23 </v>
   <v type="int" >       12       16       16       22       23 </v>
   <v type="int" >       12       15       16       16       22 </v>
   <v type="int" >       12       17       23       23       24 </v>
   <v type="int" >       12       16       17       23       23 </v>
   <v type="int" >       12       16       16       17       23 </v>
   <v type="int" >       12       17       23       24       24 </v>
   <v type="int" >       12       17       17       23       24 </v>
   <v type="int" >       12       16       17       17       23 </v>
   <v type="int" >       12       18       24       24       25 </v>
   <v type="int" >       12       17       18       24       24 </v>
   <v type="int" >       12       17       17       18       24 </v>
   <v type="int" >       12       18       24       25       25 </v>
   <v type="int" >       12       18       18       24       25 </v>
   <v type="int" >       12       17       18       18       24 </v>
   <v type="int" >        6       18       18       25       25 </v>
   <v type="int" >       12       18       18       18       25 </v>
   <v type="int" >       12       20       20       20       26 </v>
   <v type="int" >       12       19       20       20       20 </v>
   <v type="int" >        6       19       19       20       20 </v>
   <v type="int" >        6       20       20       26       26 </v>
   <v type="int" >       12       21       26       26       27 </v>
   <v type="int" >       12       20       21       26       26 </v>
   <v type="int" >       12       20       20       21       26 </v>
   <v type="int" >       12       21       26       27       27 </v>
   <v type="int" >       12       21       21       26       27 </v>
   <v type="int" >       12       20       21       21       26 </v>
   <v type="int" >       12       22       27       27       28 </v>
   <v type="int" >       12       21       22       27       27 </v>
   <v type="int" >       12       21       21       22       27 </v>
   <v type="int" >       12       22       27       28       28 </v>
   <v type="int" >       12       22       22       27       28 </v>
   <v type="int" >       12       21       22       22       27 </v>
   <v type="int" >       12       23       28       28       29 </v>
   <v type="int" >       12       22       23       28       28 </v>
   <v type="int" >       12       22       22       23       28 </v>
   <v type="int" >       12       23       28       29       29 </v>
   <v type="int" >       12       23       23       28       29 </v>
   <v type="int" >       12       22       23       23       28 </v>
   <v type="int" >       12       24       29       29       30 </v>
   <v type="int" >       12       23       24       29       29 </v>
   <v type="int" >       12       23       23       24       29 </v>
   <v type="int" >       12       24       29       30       30 </v>
   <v type="int" >       12       24       24       29       30 </v>
   <v type="int" >       12       23       24       24       29 </v>
   <v type="int" >       12       25       30       30       30 </v>
   <v type="int" >       12       24       25       30       30 </v>
   <v type="int" >       12       24       24       25       30 </v>
   <v type="int" >        6       25       25       30       30 </v>
   <v type="int" >       12       24       25       25       30 </v>
   <v type="int" >       12       27       27       27       31 </v>
   <v type="int" >       12       26       27       27       27 </v>
   <v type="int" >        6       26       26       27       27 </v>
   <v type="int" >        6       27       27       31       31 </v>
   <v type="int" >       12       28       31       31       32 </v>
   <v type="int" >       12       27       28       31       31 </v>
   <v type="int" >       12       27       27       28       31 </v>
   <v type="int" >       12       28       31       32       32 </v>
   <v type="int" >       12       28       28       31       32 </v>
   <v type="int" >       12       27       28       28       31 </v>
   <v type="int" >       12       29       32       32       33 </v>
   <v type="int" >       12       28       29       32       32 </v>
   <v type="int" >       12       28       28       29       32 </v>
   <v type="int" >       12       29       32       33       33 </v>
   <v type="int" >       12       29       29       32       33 </v>
   <v type="int" >       12       28       29       29       32 </v>
   <v type="int" >       12       30       33       33       34 </v>
   <v type="int" >       12       29       30       33       33 </v>
   <v type="int" >       12       29       29       30       33 </v>
   <v type="int" >       12       30       33       34       34 </v>
   <v type="int" >       12       30       30       33       34 </v>
   <v type="int" >       12       29       30       30       33 </v>
   <v type="int" >        6       30       30       34       34 </v>
   <v type="int" >       12       30       30       30       34 </v>
   <v type="int" >       12       32       32       32       35 </v>
   <v type="int" >       12       31       32       32       32 </v>
   <v type="int" >        6       31       31       32       32 </v>
   <v type="int" >        6       32       32       35       35 </v>
   <v type="int" >       12       33       35       35       36 </v>
   <v type="int" >       12       32       33       35       35 </v>
   <v type="int" >       12       32       32       33       35 </v>
   <v type="int" >       12       33       35       36       36 </v>
   <v type="int" >       12       33       33       35       36 </v>
   <v type="int" >       12       32       33       33       35 </v>
   <v type="int" >       12       34       36       36       36 </v>
   <v type="int" >       12       33       34       36       36 </v>
   <v type="int" >       12       33       33       34       36 </v>
   <v type="int" >        6       34       34       36       36 </v>
   <v type="int" >       12       33       34       34       36 </v>
   <v type="int" >       24       36       36       36       37 </v>
   <v type="int" >       12       35       36       36       36 </v>
   <v type="int" >        6       35       35       36       36 </v>
   <v type="int" >       12       36       36       37       37 </v>
  </varray>
  <i name="volumeweight">      0.00051440 </i>
 </kpoints>
 <parameters>
  <separator name="general" >
   <i type="string" name="SYSTEM">unknown system</i>
   <i type="logical" name="LCOMPAT"> F  </i>
  </separator>
  <separator name="electronic" >
   <i type="string" name="PREC">normal</i>
   <i name="ENMAX">    450.00000000</i>
   <i name="ENAUG">    345.27800000</i>
   <i name="EDIFF">      0.00001000</i>
   <i type="int" name="IALGO">    68</i>
   <i type="int" name="IWAVPR">    10</i>
   <i type="int" name="NBANDS">    14</i>
   <i name="NELECT">     18.00000000</i>
   <i type="int" name="TURBO">     0</i>
   <i type="int" name="IRESTART">     0</i>
   <i type="int" name="NREBOOT">     0</i>
   <i type="int" name="NMIN">     0</i>
   <i name="EREF">      0.00000000</i>
   <separator name="electronic smearing" >
    <i type="int" name="ISMEAR">    -5</i>
    <i name="SIGMA">      0.20000000</i>
    <i name="KSPACING">      0.50000000</i>
    <i type="logical" name="KGAMMA"> T  </i>
   </separator>
   <separator name="electronic projectors" >
    <i type="logical" name="LREAL"> F  </i>
    <v name="ROPT">      0.00000000      0.00000000</v>
    <i type="int" name="LMAXPAW">  -100</i>
    <i type="int" name="LMAXMIX">     2</i>
    <i type="logical" name="NLSPLINE"> F  </i>
   </separator>
   <separator name="electronic startup" >
    <i type="int" name="ISTART">     0</i>
    <i type="int" name="ICHARG">     2</i>
    <i type="int" name="INIWAV">     1</i>
   </separator>
   <separator name="electronic spin" >
    <i type="int" name="ISPIN">     1</i>
    <i type="logical" name="LNONCOLLINEAR"> F  </i>
    <v name="MAGMOM">      1.00000000      1.00000000      1.00000000</v>
    <i name="NUPDOWN">     -1.00000000</i>
    <i type="logical" name="LSORBIT"> F  </i>
    <v name="SAXIS">      0.00000000      0.00000000      1.00000000</v>
    <i type="logical" name="LSPIRAL"> F  </i>
    <v name="QSPIRAL">      0.00000000      0.00000000      0.00000000</v>
    <i type="logical" name="LZEROZ"> F  </i>
   </separator>
   <separator name="electronic exchange-correlation" >
    <i type="logical" name="LASPH"> F  </i>
    <i type="logical" name="LMETAGGA"> F  </i>
   </separator>
   <separator name="electronic convergence" >
    <i type="int" name="NELM">    60</i>
    <i type="int" name="NELMDL">     0</i>
    <i type="int" name="NELMIN">     4</i>
    <i name="ENINI">    450.00000000</i>
    <separator name="electronic convergence detail" >
     <i type="logical" name="LDIAG"> T  </i>
     <i type="logical" name="LSUBROT"> F  </i>
     <i name="WEIMIN">      0.00000000</i>
     <i name="EBREAK">      0.00000018</i>
     <i name="DEPER">      0.30000000</i>
     <i type="int" name="NRMM">     4</i>
     <i name="TIME">      0.40000000</i>
    </separator>
   </separator>
   <separator name="electronic mixer" >
    <i name="AMIX">      0.40000000</i>
    <i name="BMIX">      1.00000000</i>
    <i name="AMIN">      0.10000000</i>
    <i name="AMIX_MAG">      1.60000000</i>
    <i name="BMIX_MAG">      1.00000000</i>
    <separator name="electronic mixer details" >
     <i type="int" name="IMIX">     4</i>
     <i type="logical" name="MIXFIRST"> F  </i>
     <i type="int" name="MAXMIX">   -45</i>
     <i name="WC">    100.00000000</i>
     <i type="int" name="INIMIX">     1</i>
     <i type="int" name="MIXPRE">     1</i>
     <i type="int" name="MREMOVE">     5</i>
    </separator>
   </separator>
   <separator name="electronic dipolcorrection" >
    <i type="logical" name="LDIPOL"> F  </i>
    <i type="logical" name="LMONO"> F  </i>
    <i type="int" name="IDIPOL">     0</i>
    <i name="EPSILON">      1.00000000</i>
    <v name="DIPOL">   -100.00000000   -100.00000000   -100.00000000</v>
    <i name="EFIELD">      0.00000000</i>
   </separator>
  </separator>
  <separator name="grids" >
   <i type="int" name="NGX">    18</i>
   <i type="int" name="NGY">    18</i>
   <i type="int" name="NGZ">   160</i>
   <i type="int" name="NGXF">    36</i>
   <i type="int" name="NGYF">    36</i>
   <i type="int" name="NGZF">   320</i>
   <i type="logical" name="ADDGRID"> F  </i>
  </separator>
  <separator name="ionic" >
   <i type="int" name="NSW">     0</i>
   <i type="int" name="IBRION">    -1</i>
   <i type="int" name="MDALGO">     0</i>
   <i type="int" name="ISIF">     2</i>
   <i name="PSTRESS">      0.00000000</i>
   <i name="EDIFFG">      0.00010000</i>
   <i type="int" name="NFREE">     0</i>
   <i name="POTIM">      0.50000000</i>
   <i name="SMASS">     -3.00000000</i>
   <i name="SCALEE">      1.00000000</i>
  </separator>
  <separator name="ionic md" >
   <i name="TEBEG">      0.00010000</i>
   <i name="TEEND">      0.00010000</i>
   <i type="int" name="NBLOCK">     1</i>
   <i type="int" name="KBLOCK">     1</i>
   <i type="int" name="NPACO">   256</i>
   <i name="APACO">     16.00000000</i>
  </separator>
  <separator name="symmetry" >
   <i type="int" name="ISYM">     2</i>
   <i name="SYMPREC">      0.00001000</i>
  </separator>
  <separator name="dos" >
   <i type="int" name="LORBIT">     0</i>
   <v name="RWIGS">     -1.00000000     -1.00000000</v>
   <i type="int" name="NEDOS">   301</i>
   <i name="EMIN">     10.00000000</i>
   <i name="EMAX">    -10.00000000</i>
   <i name="EFERMI">      0.00000000</i>
  </separator>
  <separator name="writing" >
   <i type="int" name="NWRITE">     2</i>
   <i type="logical" name="LWAVE"> F  </i>
   <i type="logical" name="LDOWNSAMPLE"> F  </i>
   <i type="logical" name="LCHARG"> T  </i>
   <i type="logical" name="LPARD"> F  </i>
   <i type="logical" name="LVTOT"> F  </i>
   <i type="logical" name="LVHAR"> F  </i>
   <i type="logical" name="LELF"> F  </i>
   <i type="logical" name="LOPTICS"> F  </i>
   <v name="STM">      0.00000000      0.00000000      0.00000000      0.00000000      0.00000000      0.00000000      0.00000000</v>
  </separator>
  <separator name="performance" >
   <i type="int" name="NPAR">     2</i>
   <i type="int" name="NSIM">     4</i>
   <i type="int" name="NBLK">    -1</i>
   <i type="logical" name="LPLANE"> T  </i>
   <i type="logical" name="LSCALAPACK"> T  </i>
   <i type="logical" name="LSCAAWARE"> F  </i>
   <i type="logical" name="LSCALU"> F  </i>
   <i type="logical" name="LASYNC"> F  </i>
   <i type="logical" name="LORBITALREAL"> F  </i>
  </separator>
  <separator name="miscellaneous" >
   <i type="int" name="IDIOT">     3</i>
   <i type="int" name="ISPECIAL">     0</i>
   <i type="logical" name="LMUSIC"> F  </i>
   <v name="POMASS">     95.94000000     32.06600000</v>
   <v name="DARWINR">      0.00000000      0.00000000</v>
   <v name="DARWINV">      1.00000000      1.00000000</v>
   <i type="logical" name="LCORR"> T  </i>
  </separator>
  <i type="logical" name="GGA_COMPAT"> T  </i>
  <i type="logical" name="LBERRY"> F  </i>
  <i type="int" name="ICORELEVEL">     0</i>
  <i type="logical" name="LDAU"> F  </i>
  <i type="int" name="I_CONSTRAINED_M">     0</i>
  <separator name="electronic exchange-correlation" >
   <i type="string" name="GGA">--</i>
   <i type="int" name="VOSKOWN">     0</i>
   <i type="logical" name="LHFCALC"> F  </i>
   <i type="string" name="PRECFOCK"></i>
   <i type="logical" name="LSYMGRAD"> F  </i>
   <i type="logical" name="LHFONE"> F  </i>
   <i type="logical" name="LRHFCALC"> F  </i>
   <i type="logical" name="LTHOMAS"> F  </i>
   <i type="logical" name="LMODELHF"> F  </i>
   <i name="ENCUT4O">     -1.00000000</i>
   <i type="int" name="EXXOEP">     0</i>
   <i type="int" name="FOURORBIT">     0</i>
   <i name="AEXX">      0.00000000</i>
   <i name="HFALPHA">      0.00000000</i>
   <i name="MCALPHA">      0.00000000</i>
   <i name="ALDAX">      1.00000000</i>
   <i name="AGGAX">      1.00000000</i>
   <i name="ALDAC">      1.00000000</i>
   <i name="AGGAC">      1.00000000</i>
   <i type="int" name="NKREDX">     1</i>
   <i type="int" name="NKREDY">     1</i>
   <i type="int" name="NKREDZ">     1</i>
   <i type="logical" name="SHIFTRED"> F  </i>
   <i type="logical" name="ODDONLY"> F  </i>
   <i type="logical" name="EVENONLY"> F  </i>
   <i type="int" name="LMAXFOCK">     0</i>
   <i type="int" name="NMAXFOCKAE">     0</i>
   <i type="logical" name="LFOCKAEDFT"> F  </i>
   <i name="HFSCREEN">      0.00000000</i>
   <i name="HFSCREENC">      0.00000000</i>
   <i type="int" name="NBANDSGWLOW">     0</i>
  </separator>
  <separator name="vdW DFT" >
   <i type="logical" name="LUSE_VDW"> F  </i>
   <i name="Zab_VDW">     -0.84910000</i>
   <i name="PARAM1">      0.12340000</i>
   <i name="PARAM2">      1.00000000</i>
   <i name="PARAM3">      0.00000000</i>
  </separator>
  <separator name="model GW" >
   <i type="int" name="MODEL_GW">     0</i>
   <i name="MODEL_EPS0">     54.43663177</i>
   <i name="MODEL_ALPHA">      1.00000000</i>
  </separator>
  <separator name="linear response parameters" >
   <i type="logical" name="LEPSILON"> F  </i>
   <i type="logical" name="LRPA"> F  </i>
   <i type="logical" name="LNABLA"> F  </i>
   <i type="logical" name="LVEL"> F  </i>
   <i type="int" name="KINTER">     0</i>
   <i name="CSHIFT">      0.10000000</i>
   <i name="OMEGAMAX">     -1.00000000</i>
   <i name="DEG_THRESHOLD">      0.00200000</i>
   <i name="RTIME">     -0.10000000</i>
   <i name="WPLASMAI">      0.00000000</i>
   <v name="DFIELD">      0.00000000      0.00000000      0.00000000</v>
   <v name="WPLASMA">      0.00000000      0.00000000      0.00000000      0.00000000      0.00000000      0.00000000      0.00000000      0.00000000      0.00000000</v>
  </separator>
  <separator name="orbital magnetization" >
   <i type="logical" name="NUCIND"> F  </i>
   <v name="MAGPOS">      0.00000000      0.00000000      0.00000000</v>
   <i type="logical" name="LNICSALL"> T  </i>
   <i type="logical" name="ORBITALMAG"> F  </i>
   <i type="logical" name="LMAGBLOCH"> F  </i>
   <i type="logical" name="LCHIMAG"> F  </i>
   <i type="logical" name="LGAUGE"> T  </i>
   <i type="int" name="MAGATOM">     0</i>
   <v name="MAGDIPOL">      0.00000000      0.00000000      0.00000000</v>
   <v name="AVECCONST">      0.00000000      0.00000000      0.00000000</v>
  </separator>
  <separator name="response functions" >
   <i type="logical" name="LADDER"> F  </i>
   <i type="logical" name="LRPAFORCE"> F  </i>
   <i type="logical" name="LFXC"> F  </i>
   <i type="logical" name="LHARTREE"> T  </i>
   <i type="int" name="IBSE">     0</i>
   <v type="int" name="KPOINT">    -1     0     0     0</v>
   <i type="logical" name="LTCTE"> F  </i>
   <i type="logical" name="LTETE"> F  </i>
   <i type="logical" name="LTRIPLET"> F  </i>
   <i type="logical" name="LFXCEPS"> F  </i>
   <i type="logical" name="LFXHEG"> F  </i>
   <i type="int" name="NATURALO">     2</i>
   <i type="logical" name="L2ORDER"> F  </i>
   <i type="logical" name="LMP2LT"> F  </i>
   <i type="logical" name="LUSEW"> F  </i>
   <i name="ENCUTGW">     -2.00000000</i>
   <i name="ENCUTGWSOFT">     -2.00000000</i>
   <i name="ENCUTLF">     -1.00000000</i>
   <i type="int" name="LMAXMP2">    -1</i>
   <i name="SCISSOR">      0.00000000</i>
   <i type="int" name="NOMEGA">     0</i>
   <i type="int" name="NOMEGAR">     0</i>
   <i type="int" name="NBANDSGW">    -1</i>
   <i type="int" name="NBANDSO">    -1</i>
   <i type="int" name="NBANDSV">    -1</i>
   <i type="int" name="NELM">     1</i>
   <i type="int" name="NELMHF">     1</i>
   <i type="int" name="DIM">     3</i>
   <i type="int" name="ANTIRES">     0</i>
   <i name="OMEGAMAX">    -30.00000000</i>
   <i name="OMEGAMIN">    -30.00000000</i>
   <i name="OMEGATL">   -200.00000000</i>
   <i type="int" name="OMEGAGRID">   140</i>
   <i name="CSHIFT">     -0.10000000</i>
   <i type="logical" name="SELFENERGY"> F  </i>
   <i type="logical" name="LSPECTRAL"> F  </i>
   <i type="logical" name="LSPECTRALGW"> F  </i>
   <i type="logical" name="LSINGLES"> F  </i>
   <i type="logical" name="LFERMIGW"> F  </i>
   <i type="logical" name="ODDONLYGW"> F  </i>
   <i type="logical" name="EVENONLYGW"> F  </i>
   <i type="int" name="NKREDLFX">     1</i>
   <i type="int" name="NKREDLFY">     1</i>
   <i type="int" name="NKREDLFZ">     1</i>
   <i type="int" name="MAXMEM">  2800</i>
   <i type="int" name="TELESCOPE">     0</i>
   <i type="int" name="TAUPAR">     1</i>
   <i type="int" name="OMEGAPAR">    -1</i>
   <i name="LAMBDA">      1.00000000</i>
  </separator>
  <separator name="External order field" >
   <i name="OFIELD_KAPPA">      0.00000000</i>
   <v name="OFIELD_K">      0.00000000      0.00000000      0.00000000</v>
   <i name="OFIELD_Q6_NEAR">      0.00000000</i>
   <i name="OFIELD_Q6_FAR">      0.00000000</i>
   <i name="OFIELD_A">      0.00000000</i>
  </separator>
 </parameters>
 <atominfo>
  <atoms>       3 </atoms>
  <types>       2 </types>
  <array name="atoms" >
   <dimension dim="1">ion</dimension>
   <field type="string">element</field>
   <field type="int">atomtype</field>
   <set>
    <rc><c>Mo</c><c>   1</c></rc>
    <rc><c>S </c><c>   2</c></rc>
    <rc><c>S </c><c>   2</c></rc>
   </set>
  </array>
  <array name="atomtypes" >
   <dimension dim="1">type</dimension>
   <field type="int">atomspertype</field>
   <field type="string">element</field>
   <field>mass</field>
   <field>valence</field>
   <field type="string">pseudopotential</field>
   <set>
    <rc><c>   1</c><c>Mo</c><c>     95.94000000</c><c>      6.00000000</c><c> PAW_PBE Mo 08Apr2002                   </c></rc>
    <rc><c>   2</c><c>S </c><c>     32.06600000</c><c>      6.00000000</c><c>  PAW_PBE S 17Jan2003                   </c></rc>
   </set>
  </array>
 </atominfo>
 <structure name="initialpos" >
  <crystal>
   <varray name="basis" >
    <v>       3.19031573       0.00000000       0.00000000 </v>
    <v>      -1.59515786       2.76289447       0.00000000 </v>
    <v>       0.00000000       0.00000000      30.87900430 </v>
   </varray>
   <i name="volume">    272.18315887 </i>
   <varray name="rec_basis" >
    <v>       0.31344860       0.18096963       0.00000000 </v>
    <v>       0.00000000       0.36193927       0.00000000 </v>
    <v>       0.00000000       0.00000000       0.03238446 </v>
   </varray>
  </crystal>
  <varray name="positions" >
   <v>       0.33333300       0.66666700       0.12046214 </v>
   <v>       0.66666700       0.33333300       0.06978420 </v>
   <v>       0.66666600       0.33333300       0.17114009 </v>
  </varray>
 </structure>
 <calculation>
  <scstep>
   <time name="dav">    1.14    1.14</time>
   <time name="total">    1.21    1.22</time>
   <energy>
    <i name="alphaZ">     10.89288288 </i>
    <i name="ewald">   5368.65661653 </i>
    <i name="hartreedc">  -6042.21104469 </i>
    <i name="XCdc">    -36.31053806 </i>
    <i name="pawpsdc">    406.88651198 </i>
    <i name="pawaedc">   -329.34073203 </i>
    <i name="eentropy">      0.00000000 </i>
    <i name="bandstr">    -13.72406360 </i>
    <i name="atom">    771.15511399 </i>
    <i name="e_fr_energy">    136.00474700 </i>
    <i name="e_wo_entrp">    136.00474700 </i>
    <i name="e_0_energy">    136.00474700 </i>
   </energy>
  </scstep>
  <scstep>
   <time name="dav">    1.76    1.77</time>
   <time name="total">    1.76    1.77</time>
   <energy>
    <i name="e_fr_energy">     -5.95668015 </i>
    <i name="e_wo_entrp">     -5.95668015 </i>
    <i name="e_0_energy">     -5.95668015 </i>
   </energy>
  </scstep>
  <scstep>
   <time name="dav">    1.45    1.46</time>
   <time name="total">    1.46    1.46</time>
   <energy>
    <i name="e_fr_energy">    -23.05944703 </i>
    <i name="e_wo_entrp">    -23.05944703 </i>
    <i name="e_0_energy">    -23.05944703 </i>
   </energy>
  </scstep>
  <scstep>
   <time name="dav">    1.32    1.32</time>
   <time name="total">    1.32    1.32</time>
   <energy>
    <i name="e_fr_energy">    -23.39836245 </i>
    <i name="e_wo_entrp">    -23.39836245 </i>
    <i name="e_0_energy">    -23.39836245 </i>
   </energy>
  </scstep>
  <scstep>
   <time name="dav">    1.36    1.36</time>
   <time name="total">    1.44    1.44</time>
   <energy>
    <i name="e_fr_energy">    -23.40759639 </i>
    <i name="e_wo_entrp">    -23.40759639 </i>
    <i name="e_0_energy">    -23.40759639 </i>
   </energy>
  </scstep>
  <scstep>
   <time name="diag">    0.22    0.22</time>
   <time name="diis">    0.93    0.93</time>
   <time name="orth">    0.02    0.02</time>
   <time name="total">    1.31    1.31</time>
   <energy>
    <i name="e_fr_energy">    -22.24649433 </i>
    <i name="e_wo_entrp">    -22.24649433 </i>
    <i name="e_0_energy">    -22.24649433 </i>
   </energy>
  </scstep>
  <scstep>
   <time name="diag">    0.22    0.22</time>
   <time name="diis">    0.91    0.91</time>
   <time name="orth">    0.02    0.02</time>
   <time name="total">    1.28    1.29</time>
   <energy>
    <i name="e_fr_energy">    -21.86232312 </i>
    <i name="e_wo_entrp">    -21.86232312 </i>
    <i name="e_0_energy">    -21.86232312 </i>
   </energy>
  </scstep>
  <scstep>
   <time name="diag">    0.22    0.22</time>
   <time name="diis">    0.98    0.98</time>
   <time name="orth">    0.02    0.02</time>
   <time name="total">    1.35    1.35</time>
   <energy>
    <i name="e_fr_energy">    -21.80205237 </i>
    <i name="e_wo_entrp">    -21.80205237 </i>
    <i name="e_0_energy">    -21.80205237 </i>
   </energy>
  </scstep>
  <scstep>
   <time name="diag">    0.21    0.21</time>
   <time name="diis">    1.08    1.08</time>
   <time name="orth">    0.02    0.02</time>
   <time name="total">    1.44    1.44</time>
   <energy>
    <i name="e_fr_energy">    -21.79717506 </i>
    <i name="e_wo_entrp">    -21.79717506 </i>
    <i name="e_0_energy">    -21.79717506 </i>
   </energy>
  </scstep>
  <scstep>
   <time name="diag">    0.21    0.21</time>
   <time name="diis">    1.05    1.05</time>
   <time name="orth">    0.02    0.02</time>
   <time name="total">    1.42    1.42</time>
   <energy>
    <i name="e_fr_energy">    -21.79642183 </i>
    <i name="e_wo_entrp">    -21.79642183 </i>
    <i name="e_0_energy">    -21.79642183 </i>
   </energy>
  </scstep>
  <scstep>
   <time name="diag">    0.22    0.22</time>
   <time name="diis">    1.01    1.01</time>
   <time name="orth">    0.02    0.02</time>
   <time name="total">    1.39    1.39</time>
   <energy>
    <i name="e_fr_energy">    -21.79635595 </i>
    <i name="e_wo_entrp">    -21.79635595 </i>
    <i name="e_0_energy">    -21.79635595 </i>
   </energy>
  </scstep>
  <scstep>
   <time name="diag">    0.21    0.21</time>
   <time name="diis">    0.96    0.96</time>
   <time name="orth">    0.02    0.02</time>
   <time name="total">    1.33    1.33</time>
   <energy>
    <i name="e_fr_energy">    -21.79619178 </i>
    <i name="e_wo_entrp">    -21.79619178 </i>
    <i name="e_0_energy">    -21.79619178 </i>
   </energy>
  </scstep>
  <scstep>
   <time name="diag">    0.22    0.22</time>
   <time name="diis">    0.88    0.88</time>
   <time name="orth">    0.02    0.02</time>
   <time name="total">    1.25    1.25</time>
   <energy>
    <i name="e_fr_energy">    -21.79653117 </i>
    <i name="e_wo_entrp">    -21.79653117 </i>
    <i name="e_0_energy">    -21.79653117 </i>
   </energy>
  </scstep>
  <scstep>
   <time name="diag">    0.21    0.21</time>
   <time name="diis">    0.84    0.84</time>
   <time name="orth">    0.02    0.02</time>
   <time name="total">    1.20    1.21</time>
   <energy>
    <i name="e_fr_energy">    -21.79658867 </i>
    <i name="e_wo_entrp">    -21.79658867 </i>
    <i name="e_0_energy">    -21.79658867 </i>
   </energy>
  </scstep>
  <scstep>
   <time name="diag">    0.21    0.21</time>
   <time name="diis">    0.65    0.65</time>
   <time name="orth">    0.02    0.02</time>
   <time name="total">    1.01    1.01</time>
   <energy>
    <i name="e_fr_energy">    -21.79671445 </i>
    <i name="e_wo_entrp">    -21.79671445 </i>
    <i name="e_0_energy">    -21.79671445 </i>
   </energy>
  </scstep>
  <scstep>
   <time name="diag">    0.20    0.20</time>
   <time name="diis">    0.59    0.59</time>
   <time name="orth">    0.02    0.02</time>
   <time name="total">    0.94    0.94</time>
   <energy>
    <i name="e_fr_energy">    -21.79675533 </i>
    <i name="e_wo_entrp">    -21.79675533 </i>
    <i name="e_0_energy">    -21.79675533 </i>
   </energy>
  </scstep>
  <scstep>
   <time name="diag">    0.20    0.20</time>
   <time name="diis">    0.51    0.51</time>
   <time name="orth">    0.02    0.02</time>
   <time name="total">    0.85    0.85</time>
   <energy>
    <i name="e_fr_energy">    -21.79678707 </i>
    <i name="e_wo_entrp">    -21.79678707 </i>
    <i name="e_0_energy">    -21.79678707 </i>
   </energy>
  </scstep>
  <scstep>
   <time name="diag">    0.19    0.19</time>
   <time name="diis">    0.44    0.44</time>
   <time name="orth">    0.02    0.02</time>
   <time name="total">    0.70    0.70</time>
   <energy>
    <i name="alphaZ">     10.89288288 </i>
    <i name="ewald">   5368.65661653 </i>
    <i name="hartreedc">  -6055.62754165 </i>
    <i name="XCdc">    -35.20093030 </i>
    <i name="pawpsdc">    472.18477647 </i>
    <i name="pawaedc">   -396.37556799 </i>
    <i name="eentropy">      0.00000000 </i>
    <i name="bandstr">   -157.48214143 </i>
    <i name="atom">    771.15511399 </i>
    <i name="e_fr_energy">    -21.79679150 </i>
    <i name="e_wo_entrp">    -21.79679150 </i>
    <i name="e_0_energy">    -21.79679150 </i>
   </energy>
  </scstep>
  <structure>
   <crystal>
    <varray name="basis" >
     <v>       3.19031573       0.00000000       0.00000000 </v>
     <v>      -1.59515786       2.76289447       0.00000000 </v>
     <v>       0.00000000       0.00000000      30.87900430 </v>
    </varray>
    <i name="volume">    272.18315887 </i>
    <varray name="rec_basis" >
     <v>       0.31344860       0.18096963       0.00000000 </v>
     <v>       0.00000000       0.36193927       0.00000000 </v>
     <v>       0.00000000       0.00000000       0.03238446 </v>
    </varray>
   </crystal>
   <varray name="positions" >
    <v>       0.33333300       0.66666700       0.12046214 </v>
    <v>       0.66666700       0.33333300       0.06978420 </v>
    <v>       0.66666600       0.33333300       0.17114009 </v>
   </varray>
  </structure>
  <varray name="forces" >
   <v>       0.00000000       0.00000000      -0.00000000 </v>
   <v>      -0.00000000      -0.00000000       0.11611068 </v>
   <v>       0.00000000       0.00000000      -0.11611068 </v>
  </varray>
  <varray name="stress" >
   <v>      -0.83978022       0.00000000      -0.00000000 </v>
   <v>      -0.00000000      -0.83978022       0.00000000 </v>
   <v>       0.00000000       0.00000000      -2.25330915 </v>
  </varray>
  <energy>
   <i name="e_fr_energy">    -22.38758971 </i>
   <i name="e_wo_entrp">    -22.38758971 </i>
   <i name="e_0_energy">      0.00000000 </i>
  </energy>
  <time name="totalsc">   24.10   24.27</time>
  <eigenvalues>
   <array>
    <dimension dim="1">band</dimension>
    <dimension dim="2">kpoint</dimension>
    <dimension dim="3">spin</dimension>
    <field>eigene</field>
    <field>occ</field>
    <set>
     <set comment="spin 1">
      <set comment="kpoint 1">
       <r>  -17.7883    1.0000 </r>
       <r>  -16.5803    1.0000 </r>
       <r>   -9.3088    1.0000 </r>
       <r>   -6.3479    1.0000 </r>
       <r>   -6.3479    1.0000 </r>
       <r>   -5.4867    1.0000 </r>
       <r>   -5.2423    1.0000 </r>
       <r>   -5.2422    1.0000 </r>
       <r>   -3.7664    1.0000 </r>
       <r>   -0.9948    0.0000 </r>
       <r>   -0.9948    0.0000 </r>
       <r>   -0.7711    0.0000 </r>
       <r>   -0.7711    0.0000 </r>
       <r>    1.6640    0.0000 </r>
      </set>
      <set comment="kpoint 2">
       <r>  -17.7451    1.0000 </r>
       <r>  -16.5596    1.0000 </r>
       <r>   -9.2572    1.0000 </r>
       <r>   -6.4506    1.0000 </r>
       <r>   -6.3001    1.0000 </r>
       <r>   -5.7765    1.0000 </r>
       <r>   -5.3166    1.0000 </r>
       <r>   -5.0187    1.0000 </r>
       <r>   -3.7878    1.0000 </r>
       <r>   -1.0671    0.0000 </r>
       <r>   -0.9152    0.0000 </r>
       <r>   -0.9042    0.0000 </r>
       <r>   -0.8233    0.0000 </r>
       <r>    1.7512    0.0000 </r>
      </set>
      <set comment="kpoint 3">
       <r>  -17.6182    1.0000 </r>
       <r>  -16.4989    1.0000 </r>
       <r>   -9.1119    1.0000 </r>
       <r>   -6.7250    1.0000 </r>
       <r>   -6.1881    1.0000 </r>
       <r>   -6.1611    1.0000 </r>
       <r>   -5.5151    1.0000 </r>
       <r>   -4.8301    1.0000 </r>
       <r>   -3.8700    1.0000 </r>
       <r>   -1.1987    0.0000 </r>
       <r>   -1.1910    0.0000 </r>
       <r>   -0.9634    0.0000 </r>
       <r>   -0.7055    0.0000 </r>
       <r>    1.9682    0.0000 </r>
      </set>
      <set comment="kpoint 4">
       <r>  -17.4159    1.0000 </r>
       <r>  -16.4026    1.0000 </r>
       <r>   -8.9077    1.0000 </r>
       <r>   -7.0873    1.0000 </r>
       <r>   -6.6191    1.0000 </r>
       <r>   -5.9442    1.0000 </r>
       <r>   -5.7844    1.0000 </r>
       <r>   -4.8164    1.0000 </r>
       <r>   -4.0513    1.0000 </r>
       <r>   -1.4686    0.0000 </r>
       <r>   -1.1989    0.0000 </r>
       <r>   -1.1510    0.0000 </r>
       <r>   -0.4295    0.0000 </r>
       <r>    2.3052    0.0000 </r>
      </set>
      <set comment="kpoint 5">
       <r>  -17.1530    1.0000 </r>
       <r>  -16.2783    1.0000 </r>
       <r>   -8.7295    1.0000 </r>
       <r>   -7.4237    1.0000 </r>
       <r>   -7.0573    1.0000 </r>
       <r>   -6.0733    1.0000 </r>
       <r>   -5.6726    1.0000 </r>
       <r>   -4.9590    1.0000 </r>
       <r>   -4.3277    1.0000 </r>
       <r>   -1.5953    0.0000 </r>
       <r>   -1.3401    0.0000 </r>
       <r>   -1.0225    0.0000 </r>
       <r>   -0.1500    0.0000 </r>
       <r>    2.6441    0.0000 </r>
      </set>
      <set comment="kpoint 6">
       <r>  -16.8516    1.0000 </r>
       <r>  -16.1375    1.0000 </r>
       <r>   -8.7286    1.0000 </r>
       <r>   -7.6007    1.0000 </r>
       <r>   -7.4894    1.0000 </r>
       <r>   -6.3448    1.0000 </r>
       <r>   -5.3796    1.0000 </r>
       <r>   -5.1666    1.0000 </r>
       <r>   -4.5968    1.0000 </r>
       <r>   -1.5707    0.0000 </r>
       <r>   -1.4914    0.0000 </r>
       <r>   -0.7182    0.0000 </r>
       <r>    0.0908    0.0000 </r>
       <r>    3.0682    0.0000 </r>
      </set>
      <set comment="kpoint 7">
       <r>  -16.5426    1.0000 </r>
       <r>  -15.9959    1.0000 </r>
       <r>   -8.9370    1.0000 </r>
       <r>   -7.8883    1.0000 </r>
       <r>   -7.6369    1.0000 </r>
       <r>   -6.5746    1.0000 </r>
       <r>   -5.3589    1.0000 </r>
       <r>   -5.1055    1.0000 </r>
       <r>   -4.7145    1.0000 </r>
       <r>   -1.5803    0.0000 </r>
       <r>   -1.4478    0.0000 </r>
       <r>   -0.3825    0.0000 </r>
       <r>    0.2733    0.0000 </r>
       <r>    3.4730    0.0000 </r>
      </set>
      <set comment="kpoint 8">
       <r>  -16.2671    1.0000 </r>
       <r>  -15.8726    1.0000 </r>
       <r>   -9.1978    1.0000 </r>
       <r>   -8.2158    1.0000 </r>
       <r>   -7.6880    1.0000 </r>
       <r>   -6.7477    1.0000 </r>
       <r>   -5.4998    1.0000 </r>
       <r>   -4.8887    1.0000 </r>
       <r>   -4.6328    1.0000 </r>
       <r>   -1.6052    0.0000 </r>
       <r>   -1.2828    0.0000 </r>
       <r>   -0.0997    0.0000 </r>
       <r>    0.3955    0.0000 </r>
       <r>    3.2232    0.0000 </r>
      </set>
      <set comment="kpoint 9">
       <r>  -16.0727    1.0000 </r>
       <r>  -15.7877    1.0000 </r>
       <r>   -9.3951    1.0000 </r>
       <r>   -8.4321    1.0000 </r>
       <r>   -7.7627    1.0000 </r>
       <r>   -6.8547    1.0000 </r>
       <r>   -5.5821    1.0000 </r>
       <r>   -4.7538    1.0000 </r>
       <r>   -4.4675    1.0000 </r>
       <r>   -1.5925    0.0000 </r>
       <r>   -1.1314    0.0000 </r>
       <r>    0.0781    0.0000 </r>
       <r>    0.4639    0.0000 </r>
       <r>    2.6490    0.0000 </r>
      </set>
      <set comment="kpoint 10">
       <r>  -16.0020    1.0000 </r>
       <r>  -15.7572    1.0000 </r>
       <r>   -9.4680    1.0000 </r>
       <r>   -8.5078    1.0000 </r>
       <r>   -7.7970    1.0000 </r>
       <r>   -6.8909    1.0000 </r>
       <r>   -5.6089    1.0000 </r>
       <r>   -4.7088    1.0000 </r>
       <r>   -4.3870    1.0000 </r>
       <r>   -1.5817    0.0000 </r>
       <r>   -1.0657    0.0000 </r>
       <r>    0.1368    0.0000 </r>
       <r>    0.4857    0.0000 </r>
       <r>    2.4159    0.0000 </r>
      </set>
      <set comment="kpoint 11">
       <r>  -17.6600    1.0000 </r>
       <r>  -16.5189    1.0000 </r>
       <r>   -9.1585    1.0000 </r>
       <r>   -6.6379    1.0000 </r>
       <r>   -6.2079    1.0000 </r>
       <r>   -6.0660    1.0000 </r>
       <r>   -5.4784    1.0000 </r>
       <r>   -4.8463    1.0000 </r>
       <r>   -3.8396    1.0000 </r>
       <r>   -1.1762    0.0000 </r>
       <r>   -1.1120    0.0000 </r>
       <r>   -0.9240    0.0000 </r>
       <r>   -0.7604    0.0000 </r>
       <r>    1.9008    0.0000 </r>
      </set>
      <set comment="kpoint 12">
       <r>  -17.4953    1.0000 </r>
       <r>  -16.4403    1.0000 </r>
       <r>   -8.9813    1.0000 </r>
       <r>   -6.9520    1.0000 </r>
       <r>   -6.4347    1.0000 </r>
       <r>   -6.0352    1.0000 </r>
       <r>   -5.7649    1.0000 </r>
       <r>   -4.7368    1.0000 </r>
       <r>   -3.9721    1.0000 </r>
       <r>   -1.3859    0.0000 </r>
       <r>   -1.2654    0.0000 </r>
       <r>   -1.0917    0.0000 </r>
       <r>   -0.4980    0.0000 </r>
       <r>    2.1583    0.0000 </r>
      </set>
      <set comment="kpoint 13">
       <r>  -17.2625    1.0000 </r>
       <r>  -16.3297    1.0000 </r>
       <r>   -8.7809    1.0000 </r>
       <r>   -7.2965    1.0000 </r>
       <r>   -6.8381    1.0000 </r>
       <r>   -6.0850    1.0000 </r>
       <r>   -5.8049    1.0000 </r>
       <r>   -4.7849    1.0000 </r>
       <r>   -4.2055    1.0000 </r>
       <r>   -1.5883    0.0000 </r>
       <r>   -1.2657    0.0000 </r>
       <r>   -1.2000    0.0000 </r>
       <r>   -0.2044    0.0000 </r>
       <r>    2.4962    0.0000 </r>
      </set>
      <set comment="kpoint 14">
       <r>  -16.9796    1.0000 </r>
       <r>  -16.1965    1.0000 </r>
       <r>   -8.6801    1.0000 </r>
       <r>   -7.5420    1.0000 </r>
       <r>   -7.2683    1.0000 </r>
       <r>   -6.3697    1.0000 </r>
       <r>   -5.5570    1.0000 </r>
       <r>   -4.9599    1.0000 </r>
       <r>   -4.4786    1.0000 </r>
       <r>   -1.6688    0.0000 </r>
       <r>   -1.3873    0.0000 </r>
       <r>   -0.9685    0.0000 </r>
       <r>    0.0627    0.0000 </r>
       <r>    2.9044    0.0000 </r>
      </set>
      <set comment="kpoint 15">
       <r>  -16.6730    1.0000 </r>
       <r>  -16.0541    1.0000 </r>
       <r>   -8.7993    1.0000 </r>
       <r>   -7.6981    1.0000 </r>
       <r>   -7.6089    1.0000 </r>
       <r>   -6.5902    1.0000 </r>
       <r>   -5.3489    1.0000 </r>
       <r>   -5.1789    1.0000 </r>
       <r>   -4.6388    1.0000 </r>
       <r>   -1.6650    0.0000 </r>
       <r>   -1.4110    0.0000 </r>
       <r>   -0.6469    0.0000 </r>
       <r>    0.2677    0.0000 </r>
       <r>    3.3435    0.0000 </r>
      </set>
      <set comment="kpoint 16">
       <r>  -16.3784    1.0000 </r>
       <r>  -15.9200    1.0000 </r>
       <r>   -9.0442    1.0000 </r>
       <r>   -8.0806    1.0000 </r>
       <r>   -7.6346    1.0000 </r>
       <r>   -6.7462    1.0000 </r>
       <r>   -5.3765    1.0000 </r>
       <r>   -5.2003    1.0000 </r>
       <r>   -4.5883    1.0000 </r>
       <r>   -1.6261    0.0000 </r>
       <r>   -1.3321    0.0000 </r>
       <r>   -0.3190    0.0000 </r>
       <r>    0.3904    0.0000 </r>
       <r>    3.5485    0.0000 </r>
      </set>
      <set comment="kpoint 17">
       <r>  -16.1404    1.0000 </r>
       <r>  -15.8140    1.0000 </r>
       <r>   -9.2723    1.0000 </r>
       <r>   -8.3677    1.0000 </r>
       <r>   -7.7074    1.0000 </r>
       <r>   -6.8451    1.0000 </r>
       <r>   -5.5188    1.0000 </r>
       <r>   -5.0702    1.0000 </r>
       <r>   -4.4254    1.0000 </r>
       <r>   -1.5859    0.0000 </r>
       <r>   -1.1908    0.0000 </r>
       <r>   -0.0413    0.0000 </r>
       <r>    0.4225    0.0000 </r>
       <r>    2.9637    0.0000 </r>
      </set>
      <set comment="kpoint 18">
       <r>  -16.0056    1.0000 </r>
       <r>  -15.7552    1.0000 </r>
       <r>   -9.4056    1.0000 </r>
       <r>   -8.5218    1.0000 </r>
       <r>   -7.7722    1.0000 </r>
       <r>   -6.8931    1.0000 </r>
       <r>   -5.5920    1.0000 </r>
       <r>   -4.9883    1.0000 </r>
       <r>   -4.2908    1.0000 </r>
       <r>   -1.5676    0.0000 </r>
       <r>   -1.0680    0.0000 </r>
       <r>    0.1510    0.0000 </r>
       <r>    0.3809    0.0000 </r>
       <r>    2.5307    0.0000 </r>
      </set>
      <set comment="kpoint 19">
       <r>  -17.2998    1.0000 </r>
       <r>  -16.3472    1.0000 </r>
       <r>   -8.8012    1.0000 </r>
       <r>   -7.2422    1.0000 </r>
       <r>   -6.7117    1.0000 </r>
       <r>   -6.1754    1.0000 </r>
       <r>   -5.8604    1.0000 </r>
       <r>   -4.6697    1.0000 </r>
       <r>   -4.1603    1.0000 </r>
       <r>   -1.5868    0.0000 </r>
       <r>   -1.3059    0.0000 </r>
       <r>   -1.2431    0.0000 </r>
       <r>   -0.1987    0.0000 </r>
       <r>    2.4485    0.0000 </r>
      </set>
      <set comment="kpoint 20">
       <r>  -17.0462    1.0000 </r>
       <r>  -16.2269    1.0000 </r>
       <r>   -8.6575    1.0000 </r>
       <r>   -7.4855    1.0000 </r>
       <r>   -7.0521    1.0000 </r>
       <r>   -6.5542    1.0000 </r>
       <r>   -5.6897    1.0000 </r>
       <r>   -4.7332    1.0000 </r>
       <r>   -4.3998    1.0000 </r>
       <r>   -1.7389    0.0000 </r>
       <r>   -1.3304    0.0000 </r>
       <r>   -1.2054    0.0000 </r>
       <r>    0.0959    0.0000 </r>
       <r>    2.8301    0.0000 </r>
      </set>
      <set comment="kpoint 21">
       <r>  -16.7564    1.0000 </r>
       <r>  -16.0904    1.0000 </r>
       <r>   -8.6828    1.0000 </r>
       <r>   -7.5668    1.0000 </r>
       <r>   -7.4964    1.0000 </r>
       <r>   -6.7714    1.0000 </r>
       <r>   -5.6021    1.0000 </r>
       <r>   -4.9167    1.0000 </r>
       <r>   -4.5640    1.0000 </r>
       <r>   -1.7847    0.0000 </r>
       <r>   -1.3410    0.0000 </r>
       <r>   -0.9669    0.0000 </r>
       <r>    0.3286    0.0000 </r>
       <r>    3.2689    0.0000 </r>
      </set>
      <set comment="kpoint 22">
       <r>  -16.4606    1.0000 </r>
       <r>  -15.9529    1.0000 </r>
       <r>   -8.8676    1.0000 </r>
       <r>   -7.9456    1.0000 </r>
       <r>   -7.5551    1.0000 </r>
       <r>   -6.8715    1.0000 </r>
       <r>   -5.6003    1.0000 </r>
       <r>   -5.1531    1.0000 </r>
       <r>   -4.5468    1.0000 </r>
       <r>   -1.7066    0.0000 </r>
       <r>   -1.3081    0.0000 </r>
       <r>   -0.6606    0.0000 </r>
       <r>    0.4690    0.0000 </r>
       <r>    3.6840    0.0000 </r>
      </set>
      <set comment="kpoint 23">
       <r>  -16.1984    1.0000 </r>
       <r>  -15.8327    1.0000 </r>
       <r>   -9.0793    1.0000 </r>
       <r>   -8.3148    1.0000 </r>
       <r>   -7.6050    1.0000 </r>
       <r>   -6.9059    1.0000 </r>
       <r>   -5.5714    1.0000 </r>
       <r>   -5.3770    1.0000 </r>
       <r>   -4.4039    1.0000 </r>
       <r>   -1.5858    0.0000 </r>
       <r>   -1.2252    0.0000 </r>
       <r>   -0.3554    0.0000 </r>
       <r>    0.5045    0.0000 </r>
       <r>    3.4014    0.0000 </r>
      </set>
      <set comment="kpoint 24">
       <r>  -16.0146    1.0000 </r>
       <r>  -15.7499    1.0000 </r>
       <r>   -9.2347    1.0000 </r>
       <r>   -8.5556    1.0000 </r>
       <r>   -7.6967    1.0000 </r>
       <r>   -6.9070    1.0000 </r>
       <r>   -5.5376    1.0000 </r>
       <r>   -5.5142    1.0000 </r>
       <r>   -4.2355    1.0000 </r>
       <r>   -1.5593    0.0000 </r>
       <r>   -1.0586    0.0000 </r>
       <r>   -0.1012    0.0000 </r>
       <r>    0.4498    0.0000 </r>
       <r>    2.8425    0.0000 </r>
      </set>
      <set comment="kpoint 25">
       <r>  -15.9480    1.0000 </r>
       <r>  -15.7202    1.0000 </r>
       <r>   -9.2915    1.0000 </r>
       <r>   -8.6392    1.0000 </r>
       <r>   -7.7398    1.0000 </r>
       <r>   -6.9029    1.0000 </r>
       <r>   -5.5965    1.0000 </r>
       <r>   -5.4886    1.0000 </r>
       <r>   -4.1571    1.0000 </r>
       <r>   -1.5726    0.0000 </r>
       <r>   -0.9640    0.0000 </r>
       <r>    0.0207    0.0000 </r>
       <r>    0.3914    0.0000 </r>
       <r>    2.6141    0.0000 </r>
      </set>
      <set comment="kpoint 26">
       <r>  -16.7850    1.0000 </r>
       <r>  -16.1028    1.0000 </r>
       <r>   -8.6368    1.0000 </r>
       <r>   -7.5452    1.0000 </r>
       <r>   -7.3724    1.0000 </r>
       <r>   -6.9031    1.0000 </r>
       <r>   -5.7045    1.0000 </r>
       <r>   -4.7939    1.0000 </r>
       <r>   -4.5380    1.0000 </r>
       <r>   -1.8315    0.0000 </r>
       <r>   -1.3173    0.0000 </r>
       <r>   -1.1085    0.0000 </r>
       <r>    0.3587    0.0000 </r>
       <r>    3.2428    0.0000 </r>
      </set>
      <set comment="kpoint 27">
       <r>  -16.5042    1.0000 </r>
       <r>  -15.9696    1.0000 </r>
       <r>   -8.7459    1.0000 </r>
       <r>   -7.8384    1.0000 </r>
       <r>   -7.4837    1.0000 </r>
       <r>   -7.0049    1.0000 </r>
       <r>   -5.8733    1.0000 </r>
       <r>   -4.9760    1.0000 </r>
       <r>   -4.5371    1.0000 </r>
       <r>   -1.7700    0.0000 </r>
       <r>   -1.2808    0.0000 </r>
       <r>   -0.9069    0.0000 </r>
       <r>    0.5373    0.0000 </r>
       <r>    3.6952    0.0000 </r>
      </set>
      <set comment="kpoint 28">
       <r>  -16.2374    1.0000 </r>
       <r>  -15.8437    1.0000 </r>
       <r>   -8.8943    1.0000 </r>
       <r>   -8.2710    1.0000 </r>
       <r>   -7.4661    1.0000 </r>
       <r>   -6.9945    1.0000 </r>
       <r>   -6.0380    1.0000 </r>
       <r>   -5.2213    1.0000 </r>
       <r>   -4.4216    1.0000 </r>
       <r>   -1.6093    0.0000 </r>
       <r>   -1.2265    0.0000 </r>
       <r>   -0.6637    0.0000 </r>
       <r>    0.6249    0.0000 </r>
       <r>    3.8127    0.0000 </r>
      </set>
      <set comment="kpoint 29">
       <r>  -16.0248    1.0000 </r>
       <r>  -15.7438    1.0000 </r>
       <r>   -9.0120    1.0000 </r>
       <r>   -8.5911    1.0000 </r>
       <r>   -7.5642    1.0000 </r>
       <r>   -6.9345    1.0000 </r>
       <r>   -6.0929    1.0000 </r>
       <r>   -5.4571    1.0000 </r>
       <r>   -4.2413    1.0000 </r>
       <r>   -1.5832    0.0000 </r>
       <r>   -1.0300    0.0000 </r>
       <r>   -0.4480    0.0000 </r>
       <r>    0.6382    0.0000 </r>
       <r>    3.2742    0.0000 </r>
      </set>
      <set comment="kpoint 30">
       <r>  -15.9056    1.0000 </r>
       <r>  -15.6882    1.0000 </r>
       <r>   -9.0732    1.0000 </r>
       <r>   -8.7606    1.0000 </r>
       <r>   -7.6673    1.0000 </r>
       <r>   -6.8776    1.0000 </r>
       <r>   -6.0924    1.0000 </r>
       <r>   -5.6077    1.0000 </r>
       <r>   -4.0898    1.0000 </r>
       <r>   -1.6575    0.0000 </r>
       <r>   -0.8173    0.0000 </r>
       <r>   -0.3176    0.0000 </r>
       <r>    0.6197    0.0000 </r>
       <r>    2.8720    0.0000 </r>
      </set>
      <set comment="kpoint 31">
       <r>  -16.2511    1.0000 </r>
       <r>  -15.8472    1.0000 </r>
       <r>   -8.8161    1.0000 </r>
       <r>   -8.2525    1.0000 </r>
       <r>   -7.3795    1.0000 </r>
       <r>   -7.0356    1.0000 </r>
       <r>   -6.2528    1.0000 </r>
       <r>   -5.1533    1.0000 </r>
       <r>   -4.4335    1.0000 </r>
       <r>   -1.6229    0.0000 </r>
       <r>   -1.2224    0.0000 </r>
       <r>   -0.7871    0.0000 </r>
       <r>    0.6762    0.0000 </r>
       <r>    3.9874    0.0000 </r>
      </set>
      <set comment="kpoint 32">
       <r>  -16.0313    1.0000 </r>
       <r>  -15.7399    1.0000 </r>
       <r>   -8.8448    1.0000 </r>
       <r>   -8.6128    1.0000 </r>
       <r>   -7.3861    1.0000 </r>
       <r>   -6.9579    1.0000 </r>
       <r>   -6.5584    1.0000 </r>
       <r>   -5.3945    1.0000 </r>
       <r>   -4.2592    1.0000 </r>
       <r>   -1.6097    0.0000 </r>
       <r>   -1.0063    0.0000 </r>
       <r>   -0.6623    0.0000 </r>
       <r>    0.7666    0.0000 </r>
       <r>    3.6913    0.0000 </r>
      </set>
      <set comment="kpoint 33">
       <r>  -15.8803    1.0000 </r>
       <r>  -15.6655    1.0000 </r>
       <r>   -8.8513    1.0000 </r>
       <r>   -8.8258    1.0000 </r>
       <r>   -7.5388    1.0000 </r>
       <r>   -6.8449    1.0000 </r>
       <r>   -6.6765    1.0000 </r>
       <r>   -5.6169    1.0000 </r>
       <r>   -4.0565    1.0000 </r>
       <r>   -1.7576    0.0000 </r>
       <r>   -0.6995    0.0000 </r>
       <r>   -0.5776    0.0000 </r>
       <r>    0.8209    0.0000 </r>
       <r>    3.2502    0.0000 </r>
      </set>
      <set comment="kpoint 34">
       <r>  -15.8263    1.0000 </r>
       <r>  -15.6388    1.0000 </r>
       <r>   -8.9344    1.0000 </r>
       <r>   -8.8055    1.0000 </r>
       <r>   -7.6331    1.0000 </r>
       <r>   -6.7865    1.0000 </r>
       <r>   -6.6959    1.0000 </r>
       <r>   -5.7140    1.0000 </r>
       <r>   -3.9574    1.0000 </r>
       <r>   -1.8449    0.0000 </r>
       <r>   -0.5587    0.0000 </r>
       <r>   -0.5488    0.0000 </r>
       <r>    0.8395    0.0000 </r>
       <r>    3.0557    0.0000 </r>
      </set>
      <set comment="kpoint 35">
       <r>  -15.8719    1.0000 </r>
       <r>  -15.6573    1.0000 </r>
       <r>   -8.8847    1.0000 </r>
       <r>   -8.7063    1.0000 </r>
       <r>   -7.3888    1.0000 </r>
       <r>   -7.0183    1.0000 </r>
       <r>   -6.8310    1.0000 </r>
       <r>   -5.6197    1.0000 </r>
       <r>   -4.0458    1.0000 </r>
       <r>   -1.8003    0.0000 </r>
       <r>   -0.6734    0.0000 </r>
       <r>   -0.6564    0.0000 </r>
       <r>    0.9001    0.0000 </r>
       <r>    3.5185    0.0000 </r>
      </set>
      <set comment="kpoint 36">
       <r>  -15.7847    1.0000 </r>
       <r>  -15.6112    1.0000 </r>
       <r>   -9.0330    1.0000 </r>
       <r>   -8.5311    1.0000 </r>
       <r>   -7.6019    1.0000 </r>
       <r>   -7.1646    1.0000 </r>
       <r>   -6.7034    1.0000 </r>
       <r>   -5.8009    1.0000 </r>
       <r>   -3.8634    1.0000 </r>
       <r>   -1.9932    0.0000 </r>
       <r>   -0.6866    0.0000 </r>
       <r>   -0.4001    0.0000 </r>
       <r>    0.9851    0.0000 </r>
       <r>    3.3458    0.0000 </r>
      </set>
      <set comment="kpoint 37">
       <r>  -15.7514    1.0000 </r>
       <r>  -15.5916    1.0000 </r>
       <r>   -9.0978    1.0000 </r>
       <r>   -8.2888    1.0000 </r>
       <r>   -7.7949    1.0000 </r>
       <r>   -7.3051    1.0000 </r>
       <r>   -6.6236    1.0000 </r>
       <r>   -5.8953    1.0000 </r>
       <r>   -3.7695    1.0000 </r>
       <r>   -2.1093    0.0000 </r>
       <r>   -0.7282    0.0000 </r>
       <r>   -0.2792    0.0000 </r>
       <r>    1.0504    0.0000 </r>
       <r>    3.4791    0.0000 </r>
      </set>
     </set>
    </set>
   </array>
  </eigenvalues>
  <separator name="orbital magnetization" >
   <v name="MAGDIPOLOUT">      0.00000000      0.00000000      0.00000000</v>
  </separator>
  <dos>
   <i name="efermi">     -3.76439932 </i>
   <total>
    <array>
     <dimension dim="1">gridpoints</dimension>
     <dimension dim="2">spin</dimension>
     <field>energy</field>
     <field>total</field>
     <field>integrated</field>
     <set>
      <set comment="spin 1">
       <r>   -19.7883     0.0000     0.0000 </r>
       <r>   -19.7024     0.0000     0.0000 </r>
       <r>   -19.6165     0.0000     0.0000 </r>
       <r>   -19.5306     0.0000     0.0000 </r>
       <r>   -19.4447     0.0000     0.0000 </r>
       <r>   -19.3587     0.0000     0.0000 </r>
       <r>   -19.2728     0.0000     0.0000 </r>
       <r>   -19.1869     0.0000     0.0000 </r>
       <r>   -19.1010     0.0000     0.0000 </r>
       <r>   -19.0151     0.0000     0.0000 </r>
       <r>   -18.9291     0.0000     0.0000 </r>
       <r>   -18.8432     0.0000     0.0000 </r>
       <r>   -18.7573     0.0000     0.0000 </r>
       <r>   -18.6714     0.0000     0.0000 </r>
       <r>   -18.5855     0.0000     0.0000 </r>
       <r>   -18.4996     0.0000     0.0000 </r>
       <r>   -18.4136     0.0000     0.0000 </r>
       <r>   -18.3277     0.0000     0.0000 </r>
       <r>   -18.2418     0.0000     0.0000 </r>
       <r>   -18.1559     0.0000     0.0000 </r>
       <r>   -18.0700     0.0000     0.0000 </r>
       <r>   -17.9840     0.0000     0.0000 </r>
       <r>   -17.8981     0.0000     0.0000 </r>
       <r>   -17.8122     0.0000     0.0000 </r>
       <r>   -17.7263     0.4680     0.0270 </r>
       <r>   -17.6404     0.5475     0.0730 </r>
       <r>   -17.5544     0.5506     0.1184 </r>
       <r>   -17.4685     0.5571     0.1670 </r>
       <r>   -17.3826     0.5739     0.2153 </r>
       <r>   -17.2967     0.6076     0.2662 </r>
       <r>   -17.2108     0.6085     0.3179 </r>
       <r>   -17.1248     0.6329     0.3711 </r>
       <r>   -17.0389     0.6574     0.4267 </r>
       <r>   -16.9530     0.6812     0.4842 </r>
       <r>   -16.8671     0.7104     0.5439 </r>
       <r>   -16.7812     0.7425     0.6063 </r>
       <r>   -16.6952     0.7908     0.6723 </r>
       <r>   -16.6093     0.8347     0.7421 </r>
       <r>   -16.5234     2.0649     0.8722 </r>
       <r>   -16.4375     2.1494     1.0512 </r>
       <r>   -16.3516     2.3464     1.2428 </r>
       <r>   -16.2657     2.5035     1.4497 </r>
       <r>   -16.1797     2.9045     1.6818 </r>
       <r>   -16.0938     3.4150     1.9513 </r>
       <r>   -16.0079     5.2604     2.2909 </r>
       <r>   -15.9220     4.1067     2.6853 </r>
       <r>   -15.8361     4.4300     3.0479 </r>
       <r>   -15.7501     4.9096     3.5161 </r>
       <r>   -15.6642     2.8873     3.8262 </r>
       <r>   -15.5783     0.0000     4.0000 </r>
       <r>   -15.4924     0.0000     4.0000 </r>
       <r>   -15.4065     0.0000     4.0000 </r>
       <r>   -15.3205     0.0000     4.0000 </r>
       <r>   -15.2346     0.0000     4.0000 </r>
       <r>   -15.1487     0.0000     4.0000 </r>
       <r>   -15.0628     0.0000     4.0000 </r>
       <r>   -14.9769     0.0000     4.0000 </r>
       <r>   -14.8909     0.0000     4.0000 </r>
       <r>   -14.8050     0.0000     4.0000 </r>
       <r>   -14.7191     0.0000     4.0000 </r>
       <r>   -14.6332     0.0000     4.0000 </r>
       <r>   -14.5473     0.0000     4.0000 </r>
       <r>   -14.4613     0.0000     4.0000 </r>
       <r>   -14.3754     0.0000     4.0000 </r>
       <r>   -14.2895     0.0000     4.0000 </r>
       <r>   -14.2036     0.0000     4.0000 </r>
       <r>   -14.1177     0.0000     4.0000 </r>
       <r>   -14.0318     0.0000     4.0000 </r>
       <r>   -13.9458     0.0000     4.0000 </r>
       <r>   -13.8599     0.0000     4.0000 </r>
       <r>   -13.7740     0.0000     4.0000 </r>
       <r>   -13.6881     0.0000     4.0000 </r>
       <r>   -13.6022     0.0000     4.0000 </r>
       <r>   -13.5162     0.0000     4.0000 </r>
       <r>   -13.4303     0.0000     4.0000 </r>
       <r>   -13.3444     0.0000     4.0000 </r>
       <r>   -13.2585     0.0000     4.0000 </r>
       <r>   -13.1726     0.0000     4.0000 </r>
       <r>   -13.0866     0.0000     4.0000 </r>
       <r>   -13.0007     0.0000     4.0000 </r>
       <r>   -12.9148     0.0000     4.0000 </r>
       <r>   -12.8289     0.0000     4.0000 </r>
       <r>   -12.7430     0.0000     4.0000 </r>
       <r>   -12.6570     0.0000     4.0000 </r>
       <r>   -12.5711     0.0000     4.0000 </r>
       <r>   -12.4852     0.0000     4.0000 </r>
       <r>   -12.3993     0.0000     4.0000 </r>
       <r>   -12.3134     0.0000     4.0000 </r>
       <r>   -12.2274     0.0000     4.0000 </r>
       <r>   -12.1415     0.0000     4.0000 </r>
       <r>   -12.0556     0.0000     4.0000 </r>
       <r>   -11.9697     0.0000     4.0000 </r>
       <r>   -11.8838     0.0000     4.0000 </r>
       <r>   -11.7978     0.0000     4.0000 </r>
       <r>   -11.7119     0.0000     4.0000 </r>
       <r>   -11.6260     0.0000     4.0000 </r>
       <r>   -11.5401     0.0000     4.0000 </r>
       <r>   -11.4542     0.0000     4.0000 </r>
       <r>   -11.3683     0.0000     4.0000 </r>
       <r>   -11.2823     0.0000     4.0000 </r>
       <r>   -11.1964     0.0000     4.0000 </r>
       <r>   -11.1105     0.0000     4.0000 </r>
       <r>   -11.0246     0.0000     4.0000 </r>
       <r>   -10.9387     0.0000     4.0000 </r>
       <r>   -10.8527     0.0000     4.0000 </r>
       <r>   -10.7668     0.0000     4.0000 </r>
       <r>   -10.6809     0.0000     4.0000 </r>
       <r>   -10.5950     0.0000     4.0000 </r>
       <r>   -10.5091     0.0000     4.0000 </r>
       <r>   -10.4231     0.0000     4.0000 </r>
       <r>   -10.3372     0.0000     4.0000 </r>
       <r>   -10.2513     0.0000     4.0000 </r>
       <r>   -10.1654     0.0000     4.0000 </r>
       <r>   -10.0795     0.0000     4.0000 </r>
       <r>    -9.9935     0.0000     4.0000 </r>
       <r>    -9.9076     0.0000     4.0000 </r>
       <r>    -9.8217     0.0000     4.0000 </r>
       <r>    -9.7358     0.0000     4.0000 </r>
       <r>    -9.6499     0.0000     4.0000 </r>
       <r>    -9.5639     0.0000     4.0000 </r>
       <r>    -9.4780     0.0000     4.0000 </r>
       <r>    -9.3921     0.9327     4.0649 </r>
       <r>    -9.3062     1.2038     4.1552 </r>
       <r>    -9.2203     1.6264     4.2916 </r>
       <r>    -9.1344     1.8389     4.4418 </r>
       <r>    -9.0484     3.0579     4.6316 </r>
       <r>    -8.9625     3.2637     4.8978 </r>
       <r>    -8.8766     4.0954     5.1888 </r>
       <r>    -8.7907     4.3051     5.5541 </r>
       <r>    -8.7048     5.2915     5.9793 </r>
       <r>    -8.6188     1.9389     6.3254 </r>
       <r>    -8.5329     1.7396     6.4777 </r>
       <r>    -8.4470     1.6861     6.6576 </r>
       <r>    -8.3611     1.2189     6.7802 </r>
       <r>    -8.2752     0.9551     6.8727 </r>
       <r>    -8.1892     0.8309     6.9480 </r>
       <r>    -8.1033     0.7650     7.0166 </r>
       <r>    -8.0174     0.7154     7.0800 </r>
       <r>    -7.9315     0.6770     7.1396 </r>
       <r>    -7.8456     0.6872     7.1978 </r>
       <r>    -7.7596     3.2127     7.3411 </r>
       <r>    -7.6737     4.3606     7.6696 </r>
       <r>    -7.5878     5.5410     8.1695 </r>
       <r>    -7.5019     5.0966     8.6210 </r>
       <r>    -7.4160     3.2612     8.9714 </r>
       <r>    -7.3300     1.1254     9.1670 </r>
       <r>    -7.2441     1.1522     9.2626 </r>
       <r>    -7.1582     1.2329     9.3723 </r>
       <r>    -7.0723     1.2106     9.4773 </r>
       <r>    -6.9864     4.0934     9.6935 </r>
       <r>    -6.9005    13.4958    10.1599 </r>
       <r>    -6.8145     3.4198    10.7239 </r>
       <r>    -6.7286     2.6591    10.9718 </r>
       <r>    -6.6427     2.3249    11.2666 </r>
       <r>    -6.5568     1.7308    11.4358 </r>
       <r>    -6.4709     1.6211    11.5794 </r>
       <r>    -6.3849     1.5140    11.7200 </r>
       <r>    -6.2990     1.6948    11.8551 </r>
       <r>    -6.2131     1.9263    12.0102 </r>
       <r>    -6.1272     1.6339    12.1216 </r>
       <r>    -6.0413     3.3733    12.3337 </r>
       <r>    -5.9553     0.9514    12.4737 </r>
       <r>    -5.8694     1.1451    12.5468 </r>
       <r>    -5.7835     5.1987    12.7724 </r>
       <r>    -5.6976     4.5955    13.0641 </r>
       <r>    -5.6117     3.3254    13.3840 </r>
       <r>    -5.5257     5.2467    13.9046 </r>
       <r>    -5.4398     3.1704    14.2194 </r>
       <r>    -5.3539     4.0905    14.5164 </r>
       <r>    -5.2680     1.5304    14.6567 </r>
       <r>    -5.1821     3.4391    14.8020 </r>
       <r>    -5.0961     2.0526    15.0594 </r>
       <r>    -5.0102     2.0990    15.2349 </r>
       <r>    -4.9243     2.3082    15.4232 </r>
       <r>    -4.8384     2.3765    15.6199 </r>
       <r>    -4.7525     2.6790    15.8743 </r>
       <r>    -4.6666     1.1149    16.0267 </r>
       <r>    -4.5806     2.6246    16.1966 </r>
       <r>    -4.4947     3.1486    16.5348 </r>
       <r>    -4.4088     2.8672    16.8002 </r>
       <r>    -4.3229     2.6346    17.0341 </r>
       <r>    -4.2370     2.3783    17.2477 </r>
       <r>    -4.1510     2.0109    17.4361 </r>
       <r>    -4.0651     1.6809    17.5975 </r>
       <r>    -3.9792     1.3879    17.7322 </r>
       <r>    -3.8933     1.2611    17.8465 </r>
       <r>    -3.8074     1.1035    17.9608 </r>
       <r>    -3.7214     0.0000    18.0000 </r>
       <r>    -3.6355     0.0000    18.0000 </r>
       <r>    -3.5496     0.0000    18.0000 </r>
       <r>    -3.4637     0.0000    18.0000 </r>
       <r>    -3.3778     0.0000    18.0000 </r>
       <r>    -3.2918     0.0000    18.0000 </r>
       <r>    -3.2059     0.0000    18.0000 </r>
       <r>    -3.1200     0.0000    18.0000 </r>
       <r>    -3.0341     0.0000    18.0000 </r>
       <r>    -2.9482     0.0000    18.0000 </r>
       <r>    -2.8622     0.0000    18.0000 </r>
       <r>    -2.7763     0.0000    18.0000 </r>
       <r>    -2.6904     0.0000    18.0000 </r>
       <r>    -2.6045     0.0000    18.0000 </r>
       <r>    -2.5186     0.0000    18.0000 </r>
       <r>    -2.4327     0.0000    18.0000 </r>
       <r>    -2.3467     0.0000    18.0000 </r>
       <r>    -2.2608     0.0000    18.0000 </r>
       <r>    -2.1749     0.0000    18.0000 </r>
       <r>    -2.0890     0.1117    18.0011 </r>
       <r>    -2.0031     0.5843    18.0310 </r>
       <r>    -1.9171     0.5231    18.0737 </r>
       <r>    -1.8312     0.6522    18.1228 </r>
       <r>    -1.7453     3.5535    18.3543 </r>
       <r>    -1.6594     5.1778    18.7011 </r>
       <r>    -1.5735    11.2123    19.5884 </r>
       <r>    -1.4875     0.8104    19.7878 </r>
       <r>    -1.4016     2.6862    19.9515 </r>
       <r>    -1.3157     6.3550    20.3671 </r>
       <r>    -1.2298     6.4459    20.8897 </r>
       <r>    -1.1439     4.9985    21.3362 </r>
       <r>    -1.0579     4.3036    21.7636 </r>
       <r>    -0.9720     2.8722    22.0604 </r>
       <r>    -0.8861     2.0917    22.3208 </r>
       <r>    -0.8002     2.7369    22.5142 </r>
       <r>    -0.7143     2.9684    22.7286 </r>
       <r>    -0.6283     2.7847    23.0762 </r>
       <r>    -0.5424     2.5936    23.2858 </r>
       <r>    -0.4565     2.2261    23.4932 </r>
       <r>    -0.3706     2.0312    23.6750 </r>
       <r>    -0.2847     1.5057    23.8274 </r>
       <r>    -0.1988     1.4313    23.9524 </r>
       <r>    -0.1128     1.4025    24.0742 </r>
       <r>    -0.0269     1.5995    24.2036 </r>
       <r>     0.0590     1.5130    24.3377 </r>
       <r>     0.1449     3.1387    24.5016 </r>
       <r>     0.2308     0.9743    24.5968 </r>
       <r>     0.3168     1.4065    24.6972 </r>
       <r>     0.4027     5.7548    24.9050 </r>
       <r>     0.4886     2.2662    25.2902 </r>
       <r>     0.5745     1.9085    25.4601 </r>
       <r>     0.6604     1.5873    25.6126 </r>
       <r>     0.7464     1.2926    25.7358 </r>
       <r>     0.8323     1.0932    25.8324 </r>
       <r>     0.9182     0.7930    25.9134 </r>
       <r>     1.0041     0.8032    25.9814 </r>
       <r>     1.0900     0.0000    26.0000 </r>
       <r>     1.1760     0.0000    26.0000 </r>
       <r>     1.2619     0.0000    26.0000 </r>
       <r>     1.3478     0.0000    26.0000 </r>
       <r>     1.4337     0.0000    26.0000 </r>
       <r>     1.5196     0.0000    26.0000 </r>
       <r>     1.6056     0.0000    26.0000 </r>
       <r>     1.6915     0.1338    26.0018 </r>
       <r>     1.7774     0.2640    26.0252 </r>
       <r>     1.8633     0.3179    26.0502 </r>
       <r>     1.9492     0.3298    26.0788 </r>
       <r>     2.0352     0.3388    26.1073 </r>
       <r>     2.1211     0.3561    26.1371 </r>
       <r>     2.2070     0.3626    26.1678 </r>
       <r>     2.2929     0.3894    26.2001 </r>
       <r>     2.3788     0.4162    26.2347 </r>
       <r>     2.4647     0.7060    26.2782 </r>
       <r>     2.5507     1.1218    26.3595 </r>
       <r>     2.6366     0.9196    26.4449 </r>
       <r>     2.7225     1.0226    26.5277 </r>
       <r>     2.8084     1.1411    26.6207 </r>
       <r>     2.8943     1.1302    26.7188 </r>
       <r>     2.9803     1.1390    26.8159 </r>
       <r>     3.0662     1.1874    26.9156 </r>
       <r>     3.1521     1.3019    27.0225 </r>
       <r>     3.2380     1.4244    27.1394 </r>
       <r>     3.3239     1.5795    27.2677 </r>
       <r>     3.4099     2.0410    27.4407 </r>
       <r>     3.4958     1.6590    27.6045 </r>
       <r>     3.5817     1.1743    27.7221 </r>
       <r>     3.6676     0.8863    27.8106 </r>
       <r>     3.7535     0.9136    27.8966 </r>
       <r>     3.8395     0.5532    27.9591 </r>
       <r>     3.9254     0.2320    27.9928 </r>
       <r>     4.0113     0.0000    28.0000 </r>
       <r>     4.0972     0.0000    28.0000 </r>
       <r>     4.1831     0.0000    28.0000 </r>
       <r>     4.2691     0.0000    28.0000 </r>
       <r>     4.3550     0.0000    28.0000 </r>
       <r>     4.4409     0.0000    28.0000 </r>
       <r>     4.5268     0.0000    28.0000 </r>
       <r>     4.6127     0.0000    28.0000 </r>
       <r>     4.6986     0.0000    28.0000 </r>
       <r>     4.7846     0.0000    28.0000 </r>
       <r>     4.8705     0.0000    28.0000 </r>
       <r>     4.9564     0.0000    28.0000 </r>
       <r>     5.0423     0.0000    28.0000 </r>
       <r>     5.1282     0.0000    28.0000 </r>
       <r>     5.2142     0.0000    28.0000 </r>
       <r>     5.3001     0.0000    28.0000 </r>
       <r>     5.3860     0.0000    28.0000 </r>
       <r>     5.4719     0.0000    28.0000 </r>
       <r>     5.5578     0.0000    28.0000 </r>
       <r>     5.6438     0.0000    28.0000 </r>
       <r>     5.7297     0.0000    28.0000 </r>
       <r>     5.8156     0.0000    28.0000 </r>
       <r>     5.9015     0.0000    28.0000 </r>
       <r>     5.9874     0.0000    28.0000 </r>
      </set>
     </set>
    </array>
   </total>
  </dos>
 </calculation>
 <structure name="finalpos" >
  <crystal>
   <varray name="basis" >
    <v>       3.19031573       0.00000000       0.00000000 </v>
    <v>      -1.59515786       2.76289447       0.00000000 </v>
    <v>       0.00000000       0.00000000      30.87900430 </v>
   </varray>
   <i name="volume">    272.18315887 </i>
   <varray name="rec_basis" >
    <v>       0.31344860       0.18096963       0.00000000 </v>
    <v>       0.00000000       0.36193927       0.00000000 </v>
    <v>       0.00000000       0.00000000       0.03238446 </v>
   </varray>
  </crystal>
  <varray name="positions" >
   <v>       0.33333300       0.66666700       0.12046214 </v>
   <v>       0.66666700       0.33333300       0.06978420 </v>
   <v>       0.66666600       0.33333300       0.17114009 </v>
  </varray>
 </structure>
</modeling>
