unknown system                          
   1.00000000000000     
     3.190316    0.000000    0.000000
    -1.595158    2.762894    0.000000
     0.000000    0.000000   14.879004
   Mo   S 
     2     4
Direct
  0.333333  0.666667  0.250000
  0.666667  0.333333  0.750000
  0.333333  0.666667  0.855174
  0.666667  0.333333  0.144826
  0.666666  0.333333  0.355174
  0.333334  0.666667  0.644826
 
   36   36  160
 0.39590     0.39896     0.40817     0.42355     0.44508     0.47264     0.50590     0.54427     0.58688     0.63259    
 0.67999     0.72750     0.77344     0.81611     0.85383     0.88507     0.90848     0.92299     0.92790     0.92297    
 0.90844     0.88501     0.85375     0.81601     0.77335     0.72740     0.67990     0.63251     0.58681     0.54420    
 0.50584     0.47260     0.44505     0.42353     0.40816     0.39896     0.39896     0.39896     0.40510     0.41739    
 0.43586     0.46043     0.49090     0.52680     0.56743     0.61178     0.65857     0.70631     0.75335     0.79799    
 0.83852     0.87332     0.90092     0.92008     0.92990     0.92988     0.92004     0.90086     0.87325     0.83844    
 0.79791     0.75327     0.70622     0.65848     0.61170     0.56736     0.52674     0.49085     0.46040     0.43583    
 0.41738     0.40509     0.40816     0.40509     0.40816     0.41739     0.43279     0.45433     0.48187     0.51511    
 0.55349     0.59616     0.64201     0.68965     0.73751     0.78388     0.82704     0.86529     0.89702     0.92083    
 0.93560     0.94059     0.93557     0.92078     0.89695     0.86521     0.82696     0.78380     0.73742     0.68956    
 0.64192     0.59608     0.55342     0.51506     0.48183     0.45429     0.43276     0.41738     0.42353     0.41738    
 0.41738     0.42354     0.43586     0.45432     0.47886     0.50926     0.54510     0.58573     0.63021     0.67732    
 0.72559     0.77335     0.81886     0.86034     0.89608     0.92449     0.94426     0.95441     0.95440     0.94425    
 0.92445     0.89601     0.86026     0.81877     0.77325     0.72549     0.67724     0.63014     0.58567     0.54505    
 0.50921     0.47883     0.45429     0.43583     0.44505     0.43584     0.43277     0.43585     0.44507     0.46043    
 0.48187     0.50926     0.54231     0.58052     0.62315     0.66918     0.71729     0.76592     0.81333     0.85769    
 0.89718     0.93008     0.95483     0.97022     0.97544     0.97022     0.95482     0.93004     0.89712     0.85761    
 0.81323     0.76582     0.71721     0.66912     0.62310     0.58046     0.54226     0.50921     0.48183     0.46040    
 0.47260     0.46041     0.45431     0.45431     0.46041     0.47262     0.49088     0.51510     0.54510     0.58052    
 0.62081     0.66513     0.71240     0.76119     0.80985     0.85653     0.89935     0.93642     0.96601     0.98665    
 0.99726     0.99726     0.98665     0.96599     0.93638     0.89929     0.85645     0.80976     0.76111     0.71233    
 0.66508     0.62075     0.58046     0.54505     0.51506     0.49085     0.50584     0.49085     0.48185     0.47884    
 0.48185     0.49087     0.50587     0.52677     0.55347     0.58572     0.62316     0.66514     0.71079     0.75890    
 0.80795     0.85617     0.90163     0.94237     0.97646      1.0022      1.0182      1.0237      1.0182      1.0022    
 0.97643     0.94233     0.90159     0.85611     0.80788     0.75883     0.71073     0.66507     0.62309     0.58567    
 0.55343     0.52674     0.54420     0.52674     0.51508     0.50924     0.50924     0.51509     0.52677     0.54423    
 0.56739     0.59612     0.63019     0.66917     0.71240     0.75890     0.80736     0.85613     0.90332     0.94694    
 0.98493      1.0154      1.0367      1.0477      1.0477      1.0367      1.0154     0.98490     0.94690     0.90329    
 0.85607     0.80729     0.75884     0.71234     0.66911     0.63014     0.59609     0.56736     0.58681     0.56736    
 0.55344     0.54508     0.54228     0.54508     0.55346     0.56740     0.58685     0.61173     0.64196     0.67728    
 0.71726     0.76117     0.80795     0.85613     0.90395     0.94941     0.99044      1.0250      1.0512      1.0675    
  1.0731      1.0675      1.0512      1.0250     0.99042     0.94939     0.90390     0.85607     0.80789     0.76112    
 0.71721     0.67723     0.64192     0.61171     0.63251     0.61170     0.59610     0.58570     0.58050     0.58049    
 0.58571     0.59614     0.61175     0.63255     0.65853     0.68960     0.72553     0.76586     0.80980     0.85616    
 0.90333     0.94942     0.99236      1.0300      1.0603      1.0816      1.0926      1.0927      1.0817      1.0603    
  1.0300     0.99234     0.94938     0.90327     0.85610     0.80977     0.76583     0.72549     0.68955     0.65849    
 0.67991     0.65849     0.64193     0.63016     0.62313     0.62078     0.62312     0.63019     0.64198     0.65854    
 0.67995     0.70627     0.73746     0.77328     0.81325     0.85648     0.90161     0.94693     0.99044      1.0300    
  1.0635      1.0890      1.1050      1.1104      1.1050      1.0890      1.0635      1.0300     0.99043     0.94690    
 0.90157     0.85645     0.81324     0.77325     0.73740     0.70622     0.72742     0.70623     0.68956     0.67725    
 0.66915     0.66512     0.66511     0.66915     0.67729     0.68961     0.70627     0.72746     0.75332     0.78384    
 0.81879     0.85762     0.89929     0.94233     0.98491      1.0250      1.0604      1.0890      1.1092      1.1196    
  1.1197      1.1092      1.0890      1.0603      1.0250     0.98491     0.94232     0.89927     0.85761     0.81878    
 0.78379     0.75325     0.77335     0.75327     0.73742     0.72550     0.71723     0.71238     0.71077     0.71238    
 0.71727     0.72556     0.73747     0.75330     0.77339     0.79795     0.82700     0.86028     0.89712     0.93637    
 0.97642      1.0154      1.0512      1.0817      1.1050      1.1197      1.1247      1.1197      1.1050      1.0816    
  1.0512      1.0154     0.97643     0.93636     0.89712     0.86028     0.82696     0.79789     0.81600     0.79791    
 0.78381     0.77326     0.76584     0.76115     0.75888     0.75888     0.76118     0.76590     0.77333     0.78385    
 0.79794     0.81605     0.83847     0.86523     0.89602     0.93003     0.96597      1.0022      1.0367      1.0675    
  1.0927      1.1104      1.1197      1.1197      1.1104      1.0926      1.0675      1.0367      1.0022     0.96598    
 0.93003     0.89603     0.86522     0.83843     0.85373     0.83843     0.82698     0.81878     0.81325     0.80979    
 0.80793     0.80734     0.80793     0.80984     0.81332     0.81885     0.82702     0.83848     0.85378     0.87326    
 0.89695     0.92444     0.95479     0.98662      1.0182      1.0477      1.0731      1.0926      1.1050      1.1092    
  1.1050      1.0926      1.0731      1.0477      1.0182     0.98664     0.95480     0.92446     0.89697     0.87325    
 0.88500     0.87324     0.86523     0.86028     0.85762     0.85648     0.85615     0.85612     0.85611     0.85616    
 0.85653     0.85770     0.86034     0.86528     0.87330     0.88504     0.90086     0.92076     0.94421     0.97018    
 0.99723      1.0237      1.0477      1.0675      1.0816      1.0890      1.0890      1.0817      1.0675      1.0477    
  1.0237     0.99727     0.97020     0.94423     0.92079     0.90087     0.90844     0.90086     0.89696     0.89603    
 0.89714     0.89930     0.90162     0.90333     0.90395     0.90333     0.90164     0.89936     0.89720     0.89609    
 0.89703     0.90092     0.90846     0.92003     0.93553     0.95435     0.97539     0.99722      1.0182      1.0367    
  1.0512      1.0603      1.0635      1.0604      1.0512      1.0367      1.0182     0.99728     0.97544     0.95439    
 0.93557     0.92006     0.92298     0.92004     0.92078     0.92447     0.93006     0.93639     0.94235     0.94695    
 0.94945     0.94944     0.94696     0.94239     0.93644     0.93010     0.92452     0.92085     0.92010     0.92299    
 0.92986     0.94055     0.95435     0.97016     0.98661      1.0022      1.0154      1.0250      1.0300      1.0300    
  1.0250      1.0154      1.0022     0.98666     0.97023     0.95440     0.94059     0.92989     0.92792     0.92989    
 0.93557     0.94425     0.95483     0.96601     0.97646     0.98495     0.99048     0.99240     0.99048     0.98498    
 0.97651     0.96605     0.95487     0.94430     0.93563     0.92992     0.92791     0.92987     0.93555     0.94420    
 0.95476     0.96596     0.97643     0.98492     0.99044     0.99236     0.99045     0.98493     0.97644     0.96601    
 0.95484     0.94426     0.93558     0.92990     0.92300     0.92990     0.94059     0.95440     0.97023     0.98668    
  1.0022      1.0154      1.0250      1.0301      1.0301      1.0250      1.0155      1.0023     0.98672     0.97027    
 0.95445     0.94063     0.92991     0.92299     0.92005     0.92078     0.92443     0.93001     0.93636     0.94233    
 0.94692     0.94942     0.94943     0.94695     0.94236     0.93641     0.93008     0.92450     0.92082     0.92007    
 0.90848     0.92009     0.93559     0.95440     0.97546     0.99731      1.0183      1.0368      1.0512      1.0604    
  1.0636      1.0604      1.0512      1.0368      1.0183     0.99734     0.97551     0.95446     0.93561     0.92007    
 0.90846     0.90088     0.89697     0.89602     0.89712     0.89930     0.90160     0.90331     0.90395     0.90334    
 0.90164     0.89934     0.89718     0.89609     0.89702     0.90091     0.88506     0.90092     0.92083     0.94426    
 0.97023     0.99731      1.0238      1.0478      1.0676      1.0817      1.0891      1.0891      1.0817      1.0676    
  1.0478      1.0238     0.99734     0.97029     0.94431     0.92083     0.90090     0.88504     0.87327     0.86523    
 0.86028     0.85764     0.85649     0.85614     0.85611     0.85613     0.85618     0.85652     0.85768     0.86035    
 0.86530     0.87331     0.85381     0.87332     0.89703     0.92451     0.95484     0.98669      1.0183      1.0478    
  1.0731      1.0927      1.1051      1.1093      1.1051      1.0927      1.0731      1.0478      1.0183     0.98673    
 0.95490     0.92453     0.89701     0.87329     0.85378     0.83846     0.82698     0.81880     0.81328     0.80981    
 0.80793     0.80735     0.80796     0.80984     0.81331     0.81886     0.82706     0.83852     0.81609     0.83851    
 0.86530     0.89610     0.93009     0.96604      1.0023      1.0368      1.0676      1.0927      1.1105      1.1197    
  1.1197      1.1105      1.0927      1.0676      1.0368      1.0023     0.96607     0.93012     0.89609     0.86528    
 0.83850     0.81605     0.79792     0.78381     0.77330     0.76588     0.76117     0.75889     0.75891     0.76120    
 0.76591     0.77334     0.78389     0.79800     0.77344     0.79799     0.82705     0.86036     0.89720     0.93643    
 0.97650      1.0155      1.0512      1.0817      1.1051      1.1197      1.1247      1.1197      1.1051      1.0817    
  1.0512      1.0154     0.97649     0.93645     0.89720     0.86034     0.82704     0.79797     0.77339     0.75329    
 0.73744     0.72554     0.71726     0.71239     0.71080     0.71242     0.71729     0.72557     0.73750     0.75337    
 0.72751     0.75336     0.78389     0.81888     0.85771     0.89936     0.94240     0.98499      1.0250      1.0604    
  1.0891      1.1093      1.1197      1.1197      1.1093      1.0891      1.0604      1.0250     0.98496     0.94239    
 0.89935     0.85767     0.81884     0.78387     0.75333     0.72746     0.70626     0.68960     0.67728     0.66915    
 0.66513     0.66515     0.66919     0.67731     0.68964     0.70632     0.68000     0.70632     0.73751     0.77336    
 0.81335     0.85655     0.90166     0.94698     0.99051      1.0301      1.0636      1.0891      1.1051      1.1105    
  1.1051      1.0891      1.0636      1.0301     0.99048     0.94697     0.90165     0.85652     0.81329     0.77332    
 0.73748     0.70628     0.67995     0.65854     0.64197     0.63019     0.62314     0.62080     0.62317     0.63022    
 0.64200     0.65857     0.63260     0.65858     0.68965     0.72559     0.76594     0.80988     0.85621     0.90337    
 0.94947     0.99241      1.0301      1.0604      1.0817      1.0927      1.0927      1.0817      1.0604      1.0301    
 0.99239     0.94944     0.90335     0.85618     0.80983     0.76588     0.72555     0.68961     0.65853     0.63255    
 0.61175     0.59614     0.58572     0.58051     0.58053     0.58574     0.59615     0.61177     0.58688     0.61179    
 0.64202     0.67733     0.71732     0.76123     0.80800     0.85617     0.90400     0.94947     0.99049      1.0250    
  1.0512      1.0676      1.0732      1.0676      1.0512      1.0250     0.99047     0.94943     0.90395     0.85613    
 0.80795     0.76118     0.71727     0.67729     0.64196     0.61173     0.58685     0.56741     0.55347     0.54509    
 0.54231     0.54511     0.55349     0.56742     0.54426     0.56744     0.59618     0.63023     0.66921     0.71245    
 0.75895     0.80741     0.85618     0.90338     0.94699     0.98497      1.0154      1.0368      1.0478      1.0478    
  1.0368      1.0154     0.98496     0.94694     0.90331     0.85611     0.80734     0.75889     0.71239     0.66917    
 0.63019     0.59612     0.56739     0.54423     0.52678     0.51510     0.50926     0.50927     0.51512     0.52680    
 0.50589     0.52681     0.55351     0.58576     0.62318     0.66518     0.71084     0.75895     0.80799     0.85622    
 0.90168     0.94241     0.97649      1.0022      1.0183      1.0237      1.0183      1.0022     0.97648     0.94236    
 0.90161     0.85614     0.80792     0.75887     0.71077     0.66513     0.62314     0.58572     0.55346     0.52677    
 0.50587     0.49088     0.48186     0.47886     0.48188     0.49090     0.47264     0.49090     0.51513     0.54513    
 0.58055     0.62084     0.66518     0.71244     0.76122     0.80987     0.85656     0.89937     0.93645     0.96605    
 0.98669     0.99730     0.99729     0.98667     0.96602     0.93640     0.89931     0.85648     0.80980     0.76114    
 0.71236     0.66510     0.62078     0.58050     0.54509     0.51509     0.49087     0.47262     0.46042     0.45432    
 0.45433     0.46044     0.44508     0.46044     0.48189     0.50928     0.54233     0.58055     0.62319     0.66922    
 0.71732     0.76593     0.81333     0.85770     0.89720     0.93010     0.95486     0.97025     0.97546     0.97022    
 0.95482     0.93005     0.89714     0.85763     0.81326     0.76586     0.71723     0.66913     0.62311     0.58049    
 0.54228     0.50924     0.48186     0.46042     0.44507     0.43585     0.43279     0.43586     0.42355     0.43587    
 0.45434     0.47888     0.50928     0.54513     0.58576     0.63024     0.67734     0.72560     0.77336     0.81887    
 0.86035     0.89608     0.92450     0.94428     0.95442     0.95441     0.94425     0.92446     0.89602     0.86027    
 0.81878     0.77328     0.72552     0.67726     0.63016     0.58569     0.54507     0.50923     0.47884     0.45431    
 0.43585     0.42354     0.41739     0.41739     0.40817     0.41740     0.43280     0.45434     0.48189     0.51513    
 0.55350     0.59617     0.64202     0.68966     0.73752     0.78390     0.82706     0.86529     0.89701     0.92082    
 0.93559     0.94060     0.93558     0.92079     0.89696     0.86521     0.82696     0.78379     0.73742     0.68957    
 0.64194     0.59611     0.55344     0.51507     0.48184     0.45430     0.43277     0.41738     0.40816     0.40510    
 0.39896     0.40510     0.41740     0.43587     0.46044     0.49090     0.52681     0.56743     0.61178     0.65858    
 0.70632     0.75337     0.79800     0.83853     0.87332     0.90091     0.92007     0.92989     0.92989     0.92005    
 0.90087     0.87325     0.83843     0.79789     0.75326     0.70622     0.65849     0.61171     0.56737     0.52675    
 0.49085     0.46040     0.43584     0.41738     0.40509     0.39896     0.40591     0.40918     0.41897     0.43528    
 0.45805     0.48709     0.52204     0.56233     0.60709     0.65517     0.70516     0.75542     0.80417     0.84958    
 0.88985     0.92328     0.94837     0.96393     0.96921     0.96391     0.94833     0.92322     0.88977     0.84949    
 0.80407     0.75532     0.70506     0.65509     0.60702     0.56227     0.52199     0.48704     0.45802     0.43526    
 0.41896     0.40917     0.40917     0.40917     0.41619     0.43020     0.45112     0.47877     0.51286     0.55289    
 0.59811     0.64749     0.69971     0.75318     0.80610     0.85652     0.90250     0.94210     0.97360     0.99549    
  1.0067      1.0067     0.99545     0.97353     0.94203     0.90242     0.85644     0.80601     0.75309     0.69962    
 0.64740     0.59803     0.55283     0.51282     0.47874     0.45109     0.43018     0.41618     0.41896     0.41521    
 0.41897     0.43020     0.44882     0.47466     0.50745     0.54675     0.59195     0.64215     0.69616     0.75246    
 0.80928     0.86461     0.91636     0.96240      1.0007      1.0295      1.0474      1.0535      1.0474      1.0295    
  1.0007     0.96232     0.91628     0.86453     0.80919     0.75237     0.69607     0.64207     0.59189     0.54670    
 0.50741     0.47463     0.44880     0.43018     0.43526     0.42731     0.42731     0.43527     0.45111     0.47466    
 0.50566     0.54375     0.58838     0.63882     0.69402     0.75261     0.81288     0.87281     0.93019     0.98272    
  1.0281      1.0643      1.0896      1.1025      1.1025      1.0896      1.0643      1.0281     0.98264     0.93009    
 0.87271     0.81278     0.75253     0.69395     0.63876     0.58833     0.54370     0.50563     0.47463     0.45109    
 0.45802     0.44549     0.44130     0.44549     0.45803     0.47876     0.50744     0.54375     0.58722     0.63723    
 0.69291     0.75306     0.81609     0.88005     0.94266      1.0015      1.0540      1.0979      1.1310      1.1516    
  1.1586      1.1516      1.1310      1.0979      1.0540      1.0014     0.94256     0.87995     0.81601     0.75300    
 0.69286     0.63718     0.58717     0.54370     0.50741     0.47873     0.48704     0.46969     0.46096     0.46096    
 0.46970     0.48706     0.51284     0.54674     0.58838     0.63724     0.69258     0.75341     0.81830     0.88543    
 0.95257      1.0172      1.0766      1.1281      1.1693      1.1981      1.2129      1.2129      1.1981      1.1693    
  1.1281      1.0765      1.0171     0.95248     0.88535     0.81823     0.75335     0.69253     0.63718     0.58833    
 0.54671     0.51281     0.52198     0.49970     0.48622     0.48171     0.48622     0.49971     0.52201     0.55286    
 0.59193     0.63881     0.69292     0.75341     0.81909     0.88830     0.95894      1.0285      1.0941      1.1530    
  1.2022      1.2395      1.2627      1.2705      1.2627      1.2394      1.2022      1.1529      1.0941      1.0284    
 0.95887     0.88824     0.81903     0.75335     0.69285     0.63876     0.59189     0.55283     0.56226     0.53511    
 0.51684     0.50765     0.50764     0.51685     0.53513     0.56230     0.59806     0.64211     0.69400     0.75305    
 0.81830     0.88830     0.96114      1.0344      1.1052      1.1706      1.2275      1.2731      1.3050      1.3214    
  1.3214      1.3050      1.2731      1.2275      1.1706      1.1051      1.0343     0.96107     0.88824     0.81824    
 0.75299     0.69394     0.64208     0.59804     0.60702     0.57523     0.55231     0.53847     0.53384     0.53847    
 0.55234     0.57527     0.60705     0.64744     0.69611     0.75257     0.81606     0.88541     0.95893      1.0344    
  1.1090      1.1797      1.2434      1.2969      1.3374      1.3627      1.3713      1.3627      1.3374      1.2969    
  1.2434      1.1797      1.1089      1.0343     0.95887     0.88537     0.81601     0.75252     0.69607     0.64741    
 0.65510     0.61910     0.59188     0.57361     0.56444     0.56444     0.57362     0.59191     0.61915     0.65513    
 0.69966     0.75241     0.81282     0.87999     0.95253      1.0285      1.1052      1.1798      1.2489      1.3093    
  1.3578      1.3917      1.4092      1.4092      1.3917      1.3578      1.3092      1.2489      1.1797      1.1051    
  1.0284     0.95250     0.87996     0.81278     0.75236     0.69963     0.70508     0.66547     0.63447     0.61223    
 0.59883     0.59435     0.59883     0.61225     0.63452     0.66552     0.70511     0.75314     0.80923     0.87274    
 0.94259      1.0171      1.0941      1.1706      1.2434      1.3093      1.3647      1.4067      1.4330      1.4420    
  1.4330      1.4068      1.3647      1.3092      1.2434      1.1705      1.0940      1.0171     0.94258     0.87271    
 0.80918     0.75309     0.75533     0.71288     0.67880     0.65320     0.63612     0.62756     0.62755     0.63612    
 0.65324     0.67885     0.71291     0.75537     0.80606     0.86457     0.93012      1.0014      1.0765      1.1529    
  1.2275      1.2969      1.3578      1.4068      1.4411      1.4589      1.4589      1.4411      1.4067      1.3578    
  1.2969      1.2275      1.1529      1.0765      1.0014     0.93011     0.86452     0.80600     0.80407     0.75968    
 0.72339     0.69522     0.67516     0.66314     0.65913     0.66314     0.67519     0.69528     0.72343     0.75970    
 0.80412     0.85648     0.91631     0.98265      1.0540      1.1281      1.2022      1.2731      1.3374      1.3918    
  1.4330      1.4589      1.4677      1.4589      1.4330      1.3917      1.3374      1.2731      1.2022      1.1281    
  1.0540     0.98266     0.91628     0.85642     0.84948     0.80416     0.76662     0.73682     0.71465     0.69997    
 0.69265     0.69265     0.69999     0.71471     0.73689     0.76666     0.80419     0.84953     0.90244     0.96233    
  1.0281      1.0979      1.1693      1.2394      1.3050      1.3627      1.4093      1.4420      1.4589      1.4589    
  1.4420      1.4092      1.3627      1.3050      1.2395      1.1693      1.0979      1.0281     0.96233     0.90240    
 0.88976     0.84463     0.80688     0.77646     0.75316     0.73674     0.72698     0.72374     0.72699     0.73678    
 0.75323     0.77652     0.80692     0.84467     0.88980     0.94204      1.0006      1.0643      1.1310      1.1981    
  1.2626      1.3214      1.3713      1.4092      1.4330      1.4411      1.4330      1.4092      1.3713      1.3214    
  1.2627      1.1981      1.1310      1.0643      1.0007     0.94203     0.92321     0.87943     0.84257     0.81258    
 0.78919     0.77206     0.76086     0.75532     0.75531     0.76087     0.77211     0.78926     0.81264     0.84262    
 0.87948     0.92324     0.97352      1.0295      1.0895      1.1515      1.2128      1.2705      1.3214      1.3627    
  1.3917      1.4067      1.4068      1.3917      1.3627      1.3214      1.2705      1.2129      1.1516      1.0896    
  1.0295     0.97354     0.94833     0.90707     0.87220     0.84370     0.82127     0.80448     0.79289     0.78610    
 0.78386     0.78609     0.79291     0.80454     0.82133     0.84376     0.87226     0.90713     0.94834     0.99543    
  1.0474      1.1025      1.1585      1.2128      1.2626      1.3050      1.3374      1.3577      1.3647      1.3578    
  1.3374      1.3050      1.2627      1.2129      1.1586      1.1025      1.0474     0.99547     0.96392     0.92630    
 0.89445     0.86846     0.84800     0.83259     0.82166     0.81470     0.81132     0.81132     0.81471     0.82169    
 0.83264     0.84805     0.86850     0.89451     0.92634     0.96392      1.0067      1.0535      1.1025      1.1515    
  1.1981      1.2394      1.2731      1.2969      1.3092      1.3093      1.2969      1.2731      1.2395      1.1981    
  1.1516      1.1025      1.0535      1.0067     0.96922     0.93616     0.90826     0.88568     0.86813     0.85506    
 0.84581     0.83974     0.83634     0.83524     0.83634     0.83977     0.84585     0.85510     0.86817     0.88573    
 0.90832     0.93619     0.96920      1.0067      1.0474      1.0895      1.1309      1.1693      1.2022      1.2275    
  1.2434      1.2489      1.2434      1.2275      1.2022      1.1693      1.1310      1.0896      1.0474      1.0067    
 0.96394     0.93618     0.91296     0.89452     0.88065     0.87075     0.86409     0.85992     0.85756     0.85650    
 0.85650     0.85756     0.85995     0.86413     0.87078     0.88069     0.89457     0.91299     0.93618     0.96392    
 0.99546      1.0295      1.0643      1.0979      1.1281      1.1529      1.1706      1.1798      1.1798      1.1706    
  1.1529      1.1281      1.0979      1.0644      1.0295     0.99548     0.94837     0.92634     0.90829     0.89453    
 0.88490     0.87883     0.87551     0.87409     0.87376     0.87384     0.87390     0.87382     0.87375     0.87411    
 0.87554     0.87886     0.88494     0.89458     0.90831     0.92632     0.94834     0.97355      1.0007      1.0281    
  1.0540      1.0765      1.0941      1.1052      1.1090      1.1052      1.0941      1.0766      1.0540      1.0282    
  1.0007     0.97358     0.92327     0.90714     0.89450     0.88570     0.88065     0.87883     0.87940     0.88140    
 0.88392     0.88611     0.88735     0.88733     0.88608     0.88391     0.88142     0.87941     0.87886     0.88070    
 0.88574     0.89449     0.90711     0.92324     0.94205     0.96234     0.98266      1.0014      1.0171      1.0284    
  1.0343      1.0344      1.0285      1.0172      1.0015     0.98273     0.96241     0.94209     0.88984     0.87950    
 0.87227     0.86849     0.86815     0.87076     0.87552     0.88140     0.88737     0.89246     0.89586     0.89703    
 0.89583     0.89244     0.88738     0.88141     0.87552     0.87079     0.86819     0.86851     0.87225     0.87947    
 0.88980     0.90243     0.91629     0.93013     0.94262     0.95253     0.95891     0.96113     0.95895     0.95257    
 0.94265     0.93019     0.91637     0.90250     0.84957     0.84471     0.84265     0.84376     0.84804     0.85508    
 0.86411     0.87410     0.88391     0.89245     0.89876     0.90209     0.90208     0.89874     0.89245     0.88391    
 0.87409     0.86411     0.85511     0.84807     0.84376     0.84262     0.84468     0.84953     0.85645     0.86454    
 0.87275     0.88001     0.88541     0.88830     0.88832     0.88544     0.88003     0.87279     0.86462     0.85654    
 0.80417     0.80424     0.80696     0.81266     0.82134     0.83263     0.84584     0.85995     0.87376     0.88609    
 0.89584     0.90209     0.90423     0.90208     0.89584     0.88610     0.87375     0.85992     0.84584     0.83264    
 0.82133     0.81264     0.80694     0.80422     0.80412     0.80603     0.80921     0.81282     0.81606     0.81829    
 0.81909     0.81832     0.81609     0.81286     0.80928     0.80611     0.75543     0.75976     0.76671     0.77655    
 0.78928     0.80455     0.82170     0.83978     0.85758     0.87384     0.88735     0.89703     0.90208     0.90207    
 0.89702     0.88736     0.87384     0.85756     0.83975     0.82169     0.80453     0.78924     0.77651     0.76668    
 0.75973     0.75537     0.75313     0.75241     0.75257     0.75304     0.75340     0.75342     0.75308     0.75260    
 0.75245     0.75319     0.70517     0.71297     0.72348     0.73692     0.75326     0.77214     0.79294     0.81474    
 0.83636     0.85652     0.87392     0.88736     0.89585     0.89874     0.89583     0.88734     0.87392     0.85651    
 0.83634     0.81472     0.79292     0.77210     0.75320     0.73687     0.72344     0.71292     0.70512     0.69967    
 0.69612     0.69399     0.69290     0.69258     0.69293     0.69402     0.69614     0.69971     0.65518     0.66556    
 0.67890     0.69532     0.71475     0.73683     0.76092     0.78614     0.81135     0.83526     0.85651     0.87384    
 0.88611     0.89247     0.89245     0.88609     0.87383     0.85650     0.83523     0.81132     0.78612     0.76089    
 0.73677     0.71469     0.69527     0.67885     0.66551     0.65513     0.64746     0.64212     0.63880     0.63722    
 0.63724     0.63883     0.64214     0.64748     0.60709     0.61919     0.63456     0.65329     0.67524     0.70005    
 0.72706     0.75538     0.78391     0.81135     0.83635     0.85756     0.87376     0.88393     0.88739     0.88392    
 0.87376     0.85756     0.83632     0.81130     0.78386     0.75534     0.72701     0.69999     0.67519     0.65324    
 0.63451     0.61913     0.60705     0.59808     0.59193     0.58837     0.58722     0.58839     0.59195     0.59810    
 0.56233     0.57531     0.59196     0.61230     0.63618     0.66321     0.69272     0.72381     0.75538     0.78615    
 0.81474     0.83976     0.85993     0.87409     0.88141     0.88141     0.87410     0.85993     0.83975     0.81469    
 0.78608     0.75531     0.72375     0.69265     0.66315     0.63614     0.61226     0.59190     0.57525     0.56230    
 0.55286     0.54674     0.54374     0.54375     0.54676     0.55288     0.52204     0.53517     0.55238     0.57368    
 0.59889     0.62762     0.65919     0.69271     0.72705     0.76093     0.79296     0.82171     0.84584     0.86410    
 0.87551     0.87938     0.87551     0.86410     0.84582     0.82167     0.79288     0.76085     0.72697     0.69264    
 0.65913     0.62756     0.59885     0.57363     0.55233     0.53513     0.52201     0.51284     0.50744     0.50566    
 0.50745     0.51286     0.48708     0.49975     0.51689     0.53853     0.56450     0.59441     0.62762     0.66320    
 0.70004     0.73682     0.77214     0.80456     0.83265     0.85509     0.87076     0.87882     0.87881     0.87074    
 0.85506     0.83260     0.80450     0.77207     0.73674     0.69996     0.66312     0.62754     0.59435     0.56445    