unknown system                          
   1.00000000000000     
     3.190316    0.000000    0.000000
    -1.595158    2.762894    0.000000
     0.000000    0.000000   14.879004
   Mo   S 
     2     4
Direct
  0.333333  0.666667  0.250000
  0.666667  0.333333  0.750000
  0.333333  0.666667  0.855174
  0.666667  0.333333  0.144826
  0.666666  0.333333  0.355174
  0.333334  0.666667  0.644826
 
   36   36  160
 0.39589609314E+00 0.39896195652E+00 0.40816978253E+00 0.42354805904E+00 0.44508245512E+00
 0.47264089301E+00 0.50589659917E+00 0.54426697045E+00 0.58688199525E+00 0.63258853647E+00
 0.67998834810E+00 0.72750149492E+00 0.77344380292E+00 0.81610654204E+00 0.85383015956E+00
 0.88507288984E+00 0.90848434931E+00 0.92299330344E+00 0.92790349968E+00 0.92297237663E+00
 0.90844229985E+00 0.88501038843E+00 0.85374998065E+00 0.81601391724E+00 0.77334548826E+00
 0.72740407285E+00 0.67989675591E+00 0.63250554614E+00 0.58680867746E+00 0.54420360525E+00
 0.50584338497E+00 0.47259810541E+00 0.44505014463E+00 0.42352567587E+00 0.40815612938E+00
 0.39895561232E+00 0.39895599507E+00 0.39895881086E+00 0.40509618426E+00 0.41739295822E+00
 0.43586053806E+00 0.46043392965E+00 0.49089523305E+00 0.52680100119E+00 0.56743279989E+00
 0.61178255248E+00 0.65857320648E+00 0.70630943715E+00 0.75334967640E+00 0.79798585114E+00
 0.83851793559E+00 0.87332214105E+00 0.90092366502E+00 0.92008364361E+00 0.92989681306E+00
 0.92988228133E+00 0.92004140895E+00 0.90085930277E+00 0.87324562533E+00 0.83843825895E+00
 0.79790544636E+00 0.75326588154E+00 0.70622067572E+00 0.65848237530E+00 0.61169577705E+00
 0.56735668956E+00 0.52673989698E+00 0.49084909543E+00 0.46039930519E+00 0.43583450732E+00
 0.41737516462E+00 0.40508662955E+00 0.40815726227E+00 0.40509005216E+00 0.40816361474E+00
 0.41739058044E+00 0.43278677765E+00 0.45432539336E+00 0.48187232852E+00 0.51511300989E+00
 0.55348915960E+00 0.59616224906E+00 0.64200907064E+00 0.68964942033E+00 0.73750511464E+00
 0.78388008960E+00 0.82704096194E+00 0.86528684544E+00 0.89701929255E+00 0.92082858755E+00
 0.93559591027E+00 0.94059496259E+00 0.93557189833E+00 0.92078022391E+00 0.89695193406E+00
 0.86521065827E+00 0.82696206158E+00 0.78379737180E+00 0.73741701917E+00 0.68955921063E+00
 0.64192240778E+00 0.59608394824E+00 0.55342322685E+00 0.51506152682E+00 0.48183311874E+00
 0.45429431394E+00 0.43276283198E+00 0.41737554726E+00 0.42352698155E+00 0.41737991785E+00
 0.41738252256E+00 0.42353778041E+00 0.43585599190E+00 0.45432481676E+00 0.47886296105E+00
 0.50925850535E+00 0.54510199478E+00 0.58573349233E+00 0.63021406473E+00 0.67732312007E+00
 0.72558819305E+00 0.77335182810E+00 0.81885893548E+00 0.86033832040E+00 0.89607508016E+00
 0.92449387805E+00 0.94426327629E+00 0.95440732581E+00 0.95440328882E+00 0.94424586884E+00
 0.92445491571E+00 0.89601380327E+00 0.86025944519E+00 0.81876692460E+00 0.77325330277E+00
 0.72549424708E+00 0.67724198104E+00 0.63014481551E+00 0.58567189743E+00 0.54504801344E+00
 0.50921349462E+00 0.47882509324E+00 0.45429300816E+00 0.43583358419E+00 0.44505014464E+00
 0.43584042154E+00 0.43277145249E+00 0.43584503708E+00 0.44506642885E+00 0.46042580100E+00
 0.48186966244E+00 0.50925840833E+00 0.54230604230E+00 0.58051888506E+00 0.62315130024E+00
 0.66917862587E+00 0.71729003571E+00 0.76592064380E+00 0.81332871371E+00 0.85769014674E+00
 0.89718374760E+00 0.93007637727E+00 0.95482865383E+00 0.97021576347E+00 0.97543994801E+00
 0.97021682553E+00 0.95481721500E+00 0.93004092964E+00 0.89712232234E+00 0.85760554929E+00
 0.81322870869E+00 0.76582194385E+00 0.71720899544E+00 0.66911589088E+00 0.62309517608E+00
 0.58046334328E+00 0.54225517083E+00 0.50921496937E+00 0.48183198583E+00 0.46039614201E+00
 0.47259524779E+00 0.46040536732E+00 0.45430601851E+00 0.45430668471E+00 0.46041353076E+00
 0.47261789379E+00 0.49087886068E+00 0.51510269788E+00 0.54509982761E+00 0.58052205995E+00
 0.62080653699E+00 0.66513481270E+00 0.71239895126E+00 0.76119077525E+00 0.80984505618E+00
 0.85653013241E+00 0.89934659012E+00 0.93642050758E+00 0.96601294196E+00 0.98665173203E+00
 0.99726019183E+00 0.99726117689E+00 0.98664674255E+00 0.96599014384E+00 0.93637837108E+00
 0.89928779744E+00 0.85645436280E+00 0.80975860503E+00 0.76111053197E+00 0.71233447194E+00
 0.66507719923E+00 0.62074572118E+00 0.58046326610E+00 0.54505217695E+00 0.51506438452E+00
 0.49084585503E+00 0.50583767868E+00 0.49085428927E+00 0.48184864851E+00 0.47884318872E+00
 0.48185106798E+00 0.49087018586E+00 0.50586684568E+00 0.52677191400E+00 0.55346553444E+00
 0.58572469664E+00 0.62315560416E+00 0.66514023330E+00 0.71078962588E+00 0.75890031345E+00
 0.80795162106E+00 0.85617070921E+00 0.90163428813E+00 0.94236925555E+00 0.97646352171E+00
 0.10022075267E+01 0.10182440445E+01 0.10236919848E+01 0.10182378832E+01 0.10021852869E+01
 0.97642627681E+00 0.94232813374E+00 0.90158910081E+00 0.85611164635E+00 0.80788162880E+00
 0.75883339660E+00 0.71072767917E+00 0.66507434147E+00 0.62308946981E+00 0.58567320324E+00
 0.55343006602E+00 0.52674027957E+00 0.54419810658E+00 0.52674426308E+00 0.51507964277E+00
 0.50923726446E+00 0.50923708173E+00 0.51508945239E+00 0.52677315671E+00 0.54423259880E+00
 0.56739043760E+00 0.59612321541E+00 0.63019187492E+00 0.66917197195E+00 0.71239790837E+00
 0.75890049714E+00 0.80735969134E+00 0.85612803812E+00 0.90332343063E+00 0.94693577648E+00
 0.98493323329E+00 0.10154023028E+01 0.10367181995E+01 0.10476950916E+01 0.10476954181E+01
 0.10367087720E+01 0.10153735743E+01 0.98489767350E+00 0.94690489895E+00 0.90328532150E+00
 0.85607011662E+00 0.80729279119E+00 0.75883889511E+00 0.71233711265E+00 0.66910761179E+00
 0.63013801126E+00 0.59608944677E+00 0.56736257065E+00 0.58680867735E+00 0.56736173844E+00
 0.55344053719E+00 0.54507569833E+00 0.54228200870E+00 0.54507804550E+00 0.55346433617E+00
 0.56740420724E+00 0.58684542409E+00 0.61173298547E+00 0.64195914437E+00 0.67728181076E+00
 0.71725716278E+00 0.76116915376E+00 0.80794673094E+00 0.85613255612E+00 0.90394929343E+00
 0.94941343957E+00 0.99044108268E+00 0.10249733036E+01 0.10511535598E+01 0.10675092115E+01
 0.10730821486E+01 0.10675223040E+01 0.10511532353E+01 0.10249522951E+01 0.99041616321E+00
 0.94938520598E+00 0.90389991993E+00 0.85606547297E+00 0.80788733515E+00 0.76112353186E+00
 0.71720899533E+00 0.67723053305E+00 0.64192127494E+00 0.61170553657E+00 0.63251444361E+00
 0.61170349625E+00 0.59609653453E+00 0.58569810512E+00 0.58049507391E+00 0.58049203650E+00
 0.58570720844E+00 0.59613587613E+00 0.61175334699E+00 0.63255165671E+00 0.65852629819E+00
 0.68959740056E+00 0.72552904880E+00 0.76585931928E+00 0.80980245137E+00 0.85615958496E+00
 0.90332966441E+00 0.94941806683E+00 0.99235535798E+00 0.10300088411E+01 0.10603459451E+01
 0.10816402560E+01 0.10926364584E+01 0.10926530569E+01 0.10816658773E+01 0.10603484936E+01
 0.10299938798E+01 0.99233721276E+00 0.94938396119E+00 0.90327092548E+00 0.85610274897E+00
 0.80977036029E+00 0.76583362175E+00 0.72548665528E+00 0.68955031320E+00 0.65849089017E+00
 0.67991155456E+00 0.65849310072E+00 0.64192850031E+00 0.63016328691E+00 0.62312890649E+00
 0.62078056245E+00 0.62312443743E+00 0.63018548754E+00 0.64197877228E+00 0.65854044412E+00
 0.67995008500E+00 0.70627155416E+00 0.73745871930E+00 0.77328423996E+00 0.81325266442E+00
 0.85647681684E+00 0.90161319073E+00 0.94693032561E+00 0.99044053788E+00 0.10300138365E+01
 0.10635148542E+01 0.10890104816E+01 0.11049771266E+01 0.11104290831E+01 0.11050012904E+01
 0.10890217567E+01 0.10635032678E+01 0.10300027773E+01 0.99043096181E+00 0.94689940026E+00
 0.90156859582E+00 0.85645150519E+00 0.81324350736E+00 0.77325460840E+00 0.73740335335E+00
 0.70622105845E+00 0.72741572671E+00 0.70623170583E+00 0.68956094150E+00 0.67725069962E+00
 0.66914698840E+00 0.66511940311E+00 0.66511401533E+00 0.66915363508E+00 0.67729185639E+00
 0.68961282465E+00 0.70626972288E+00 0.72745879142E+00 0.75331818783E+00 0.78383848478E+00
 0.81879223398E+00 0.85761708045E+00 0.89929233929E+00 0.94233326555E+00 0.98490837010E+00
 0.10249687726E+01 0.10603655929E+01 0.10890313593E+01 0.11092132902E+01 0.11196486059E+01
 0.11196568988E+01 0.11092166185E+01 0.10890101028E+01 0.10603457374E+01 0.10249740913E+01
 0.98491482574E+00 0.94231647969E+00 0.89927328587E+00 0.85761442272E+00 0.81877727259E+00
 0.78378571777E+00 0.75325461035E+00 0.77334548836E+00 0.75327282986E+00 0.73741947554E+00
 0.72549825796E+00 0.71723461755E+00 0.71238091554E+00 0.71077452498E+00 0.71238195107E+00
 0.71726738657E+00 0.72555716960E+00 0.73746559921E+00 0.75330410976E+00 0.77339457870E+00
 0.79794997442E+00 0.82699510562E+00 0.86027640670E+00 0.89712399141E+00 0.93637057439E+00
 0.97641672286E+00 0.10153683690E+01 0.10511548380E+01 0.10816728527E+01 0.11050095988E+01
 0.11196622129E+01 0.11246644647E+01 0.11196626423E+01 0.11049864916E+01 0.10816395824E+01
 0.10511532355E+01 0.10153964703E+01 0.97643198292E+00 0.93636383128E+00 0.89712232244E+00
 0.86027553684E+00 0.82696092849E+00 0.79788766620E+00 0.81600156808E+00 0.79790575687E+00
 0.78380510755E+00 0.77326137374E+00 0.76584291756E+00 0.76115421110E+00 0.75888459430E+00
 0.75888427002E+00 0.76117562904E+00 0.76590423399E+00 0.77332893255E+00 0.78384625135E+00
 0.79794084692E+00 0.81605382043E+00 0.83846852217E+00 0.86522862555E+00 0.89601737540E+00
 0.93003099703E+00 0.96597103535E+00 0.10021631975E+01 0.10366902750E+01 0.10675134818E+01
 0.10926575737E+01 0.11104449893E+01 0.11196672612E+01 0.11196726091E+01 0.11104414322E+01
 0.10926318099E+01 0.10674998126E+01 0.10367156229E+01 0.10021976361E+01 0.96598065213E+00
 0.93003136092E+00 0.89602745842E+00 0.86522300743E+00 0.83842552683E+00 0.85373319458E+00
 0.83843354834E+00 0.82697555036E+00 0.81878415353E+00 0.81324754387E+00 0.80979243493E+00
 0.80792954684E+00 0.80733936486E+00 0.80793469288E+00 0.80983520244E+00 0.81332341845E+00
 0.81885046647E+00 0.82702106275E+00 0.83848276510E+00 0.85378165605E+00 0.87325952481E+00
 0.89694985787E+00 0.92443936790E+00 0.95479209433E+00 0.98661767849E+00 0.10182114047E+01
 0.10476777330E+01 0.10730776438E+01 0.10926452243E+01 0.11049928129E+01 0.11092249443E+01
 0.11050087112E+01 0.10926453556E+01 0.10730653625E+01 0.10476899196E+01 0.10182489629E+01
 0.98664388465E+00 0.95480042896E+00 0.92445622159E+00 0.89696985292E+00 0.87324600779E+00
 0.88499933054E+00 0.87324032988E+00 0.86522561715E+00 0.86028276348E+00 0.85762328512E+00
 0.85647569296E+00 0.85614956184E+00 0.85611708218E+00 0.85611281744E+00 0.85616113363E+00
 0.85652916100E+00 0.85769620789E+00 0.86034463146E+00 0.86528403980E+00 0.87330313189E+00
 0.88503610252E+00 0.90085873473E+00 0.92075788924E+00 0.94420966320E+00 0.97017681556E+00
 0.99722749243E+00 0.10236714979E+01 0.10476887906E+01 0.10675121899E+01 0.10816443974E+01
 0.10890086479E+01 0.10890215394E+01 0.10816602111E+01 0.10675082959E+01 0.10476895325E+01
 0.10237030425E+01 0.99726937666E+00 0.97020298722E+00 0.94423350546E+00 0.92079128159E+00
 0.90087074292E+00 0.90844229968E+00 0.90085706572E+00 0.89696219965E+00 0.89603472844E+00
 0.89713830126E+00 0.89930056363E+00 0.90161721798E+00 0.90333254685E+00 0.90395218070E+00
 0.90332628480E+00 0.90163850424E+00 0.89935527674E+00 0.89719850464E+00 0.89609262025E+00
 0.89703167934E+00 0.90092213746E+00 0.90846342652E+00 0.92003029561E+00 0.93553399596E+00
 0.95435096659E+00 0.97538898575E+00 0.99722414761E+00 0.10182281908E+01 0.10367170268E+01
 0.10511548378E+01 0.10603395363E+01 0.10635000556E+01 0.10603514502E+01 0.10511535597E+01
 0.10367092954E+01 0.10182497508E+01 0.99727745204E+00 0.97543994784E+00 0.95438758044E+00
 0.93557076549E+00 0.92005542880E+00 0.92298189993E+00 0.92004290014E+00 0.92078190880E+00
 0.92446643435E+00 0.93005527539E+00 0.93639145188E+00 0.94235409574E+00 0.94695431168E+00
 0.94944505810E+00 0.94944030585E+00 0.94695959541E+00 0.94239019896E+00 0.93644176881E+00
 0.93010102545E+00 0.92452114981E+00 0.92085273159E+00 0.92009631318E+00 0.92298752387E+00
 0.92986419319E+00 0.94054881555E+00 0.95434608729E+00 0.97015623461E+00 0.98660815537E+00
 0.10021850703E+01 0.10153952897E+01 0.10249709030E+01 0.10300043131E+01 0.10300094669E+01
 0.10249726846E+01 0.10153872809E+01 0.10021980034E+01 0.98666411311E+00 0.97022806722E+00
 0.95439910814E+00 0.94058543928E+00 0.92989142201E+00 0.92791662091E+00 0.92988591273E+00
 0.93556576067E+00 0.94424684296E+00 0.95483191139E+00 0.96601267030E+00 0.97645970685E+00
 0.98495147051E+00 0.99048262184E+00 0.99239670512E+00 0.99048291375E+00 0.98497597715E+00
 0.97650626722E+00 0.96605461023E+00 0.95486873012E+00 0.94430069141E+00 0.93562760467E+00
 0.92991807667E+00 0.92790974524E+00 0.92987371654E+00 0.93554711714E+00 0.94419860537E+00
 0.95476218702E+00 0.96595868622E+00 0.97642984428E+00 0.98492002398E+00 0.99044221525E+00
 0.99236425544E+00 0.99045420385E+00 0.98492773461E+00 0.97644469410E+00 0.96601008430E+00
 0.95484177508E+00 0.94426458193E+00 0.93558392182E+00 0.92989719574E+00 0.92300282666E+00
 0.92990041048E+00 0.94058577328E+00 0.95439781005E+00 0.97023354337E+00 0.98668278479E+00
 0.10022314027E+01 0.10154314926E+01 0.10250210056E+01 0.10300570541E+01 0.10300519324E+01
 0.10250251593E+01 0.10154649108E+01 0.10022753618E+01 0.98671680299E+00 0.97027260585E+00
 0.95445406273E+00 0.94063150718E+00 0.92990855338E+00 0.92298752402E+00 0.92005422153E+00
 0.92077847004E+00 0.92442984438E+00 0.93000912436E+00 0.93636270029E+00 0.94233113498E+00
 0.94692080233E+00 0.94941744109E+00 0.94943310510E+00 0.94695079815E+00 0.94235973210E+00
 0.93640812656E+00 0.93008312008E+00 0.92450209548E+00 0.92081906412E+00 0.92007450295E+00
 0.90848434936E+00 0.92008515219E+00 0.93558982463E+00 0.95440181104E+00 0.97545780038E+00
 0.99730696472E+00 0.10182950110E+01 0.10367682859E+01 0.10512191366E+01 0.10604155070E+01
 0.10635586685E+01 0.10603958532E+01 0.10512176785E+01 0.10367958602E+01 0.10183273878E+01
 0.99733964655E+00 0.97550882426E+00 0.95445894188E+00 0.93561448328E+00 0.92007238740E+00
 0.90846342673E+00 0.90088419498E+00 0.89696664377E+00 0.89601532208E+00 0.89712399136E+00
 0.89929508781E+00 0.90159839192E+00 0.90330636446E+00 0.90394929359E+00 0.90334333167E+00
 0.90163999427E+00 0.89933504526E+00 0.89718374765E+00 0.89608817686E+00 0.89701815949E+00
 0.90090887980E+00 0.88506183233E+00 0.90092157314E+00 0.92083014222E+00 0.94426411668E+00
 0.97023244014E+00 0.99730604005E+00 0.10237532942E+01 0.10477546360E+01 0.10675833917E+01
 0.10817366557E+01 0.10890917861E+01 0.10890709165E+01 0.10817041560E+01 0.10675793478E+01
 0.10477721776E+01 0.10237737582E+01 0.99734299153E+00 0.97029318683E+00 0.94431174887E+00
 0.92083215048E+00 0.90089667736E+00 0.88503610269E+00 0.87327058249E+00 0.86522991724E+00
 0.86028274662E+00 0.85763979196E+00 0.85648787425E+00 0.85613962967E+00 0.85611135636E+00
 0.85613359735E+00 0.85618176677E+00 0.85652193239E+00 0.85768186967E+00 0.86035068384E+00
 0.86529790293E+00 0.87331070062E+00 0.85381337347E+00 0.87331684466E+00 0.89702916754E+00
 0.92450515512E+00 0.95484347259E+00 0.98668790167E+00 0.10183009908E+01 0.10477542030E+01
 0.10731410244E+01 0.10927264063E+01 0.11050870236E+01 0.11092948697E+01 0.11050547274E+01
 0.10927057085E+01 0.10731460515E+01 0.10477611199E+01 0.10183106018E+01 0.98672632652E+00
 0.95489863745E+00 0.92453067293E+00 0.89701489320E+00 0.87329207430E+00 0.85378165607E+00
 0.83845617282E+00 0.82697831973E+00 0.81880388810E+00 0.81328424913E+00 0.80981134861E+00
 0.80792994481E+00 0.80735419290E+00 0.80796270078E+00 0.80984219830E+00 0.81331192764E+00
 0.81886024135E+00 0.82705888081E+00 0.83851831804E+00 0.81609419242E+00 0.83851277773E+00
 0.86530135759E+00 0.89609573815E+00 0.93009103474E+00 0.96603564096E+00 0.10022534379E+01
 0.10367775131E+01 0.10675705209E+01 0.10927098834E+01 0.11105216192E+01 0.11197485609E+01
 0.11197352253E+01 0.11105062545E+01 0.10927180579E+01 0.10675806394E+01 0.10367691082E+01
 0.10022534893E+01 0.96606695979E+00 0.93012289811E+00 0.89609467333E+00 0.86528274810E+00
 0.83849511443E+00 0.81605382027E+00 0.79792022747E+00 0.78381448172E+00 0.77329658954E+00
 0.76588056606E+00 0.76116694646E+00 0.75889364632E+00 0.75891266285E+00 0.76120026673E+00
 0.76590551376E+00 0.77333817303E+00 0.78389243902E+00 0.79799858300E+00 0.77344380273E+00
 0.79798545555E+00 0.82705409699E+00 0.86036145223E+00 0.89719999299E+00 0.93643394979E+00
 0.97649695095E+00 0.10154600791E+01 0.10512195593E+01 0.10817111933E+01 0.11050629454E+01
 0.11197404432E+01 0.11247389105E+01 0.11197301772E+01 0.11050715136E+01 0.10817326111E+01
 0.10512176782E+01 0.10154379898E+01 0.97649314610E+00 0.93644964316E+00 0.89719850461E+00
 0.86033829160E+00 0.82703784892E+00 0.79797059373E+00 0.77339457840E+00 0.75328913624E+00
 0.73744392075E+00 0.72553754897E+00 0.71725716269E+00 0.71238600930E+00 0.71079533227E+00
 0.71241920653E+00 0.71729003551E+00 0.72556948964E+00 0.73750398185E+00 0.75336669131E+00
 0.72751314890E+00 0.75335616997E+00 0.78388745558E+00 0.81887607155E+00 0.85770800198E+00
 0.89936001149E+00 0.94239553982E+00 0.98498687832E+00 0.10250417563E+01 0.10604130571E+01
 0.10890807696E+01 0.11092918951E+01 0.11197346995E+01 0.11197245576E+01 0.11092832159E+01
 0.10890936284E+01 0.10604219097E+01 0.10250230284E+01 0.98496432317E+00 0.94239232970E+00
 0.89935252812E+00 0.85767349623E+00 0.81883881271E+00 0.78387025489E+00 0.75333316116E+00
 0.72745879110E+00 0.70625990011E+00 0.68960015712E+00 0.67728332247E+00 0.66915481935E+00
 0.66512857940E+00 0.66514932453E+00 0.66919306028E+00 0.67731277169E+00 0.68963776637E+00
 0.70632070858E+00 0.68000314697E+00 0.70632044057E+00 0.73750712343E+00 0.77335984684E+00
 0.81334774161E+00 0.85655220527E+00 0.90166292169E+00 0.94698489446E+00 0.99050705132E+00
 0.10300719428E+01 0.10635705637E+01 0.10890924236E+01 0.11050777442E+01 0.11105092697E+01
 0.11050554387E+01 0.10890807287E+01 0.10635734675E+01 0.10300614557E+01 0.99048123615E+00
 0.94696911881E+00 0.90165330306E+00 0.85651810316E+00 0.81329183354E+00 0.77331658347E+00
 0.73748039828E+00 0.70628137676E+00 0.67995008478E+00 0.65853519571E+00 0.64197394318E+00
 0.63018637623E+00 0.62313509896E+00 0.62080367938E+00 0.62316609913E+00 0.63021537036E+00
 0.64199540459E+00 0.65857358921E+00 0.63259743406E+00 0.65858403592E+00 0.68965089964E+00
 0.72559220308E+00 0.76594203116E+00 0.80987933569E+00 0.85620902744E+00 0.90337031411E+00
 0.94947278915E+00 0.99241458554E+00 0.10300630452E+01 0.10604158136E+01 0.10817374886E+01
 0.10927311302E+01 0.10927175085E+01 0.10817167004E+01 0.10604100022E+01 0.10300564284E+01
 0.99238780753E+00 0.94944093170E+00 0.90334958509E+00 0.85618108878E+00 0.80982630461E+00
 0.76588298701E+00 0.72554866986E+00 0.68961006844E+00 0.65853154653E+00 0.63255165668E+00
 0.61175202536E+00 0.59613761144E+00 0.58571579887E+00 0.58051030462E+00 0.58052500223E+00
 0.58574108410E+00 0.59615335132E+00 0.61177403752E+00 0.58688199530E+00 0.61179029195E+00
 0.64201541625E+00 0.67733197055E+00 0.71731601486E+00 0.76123446580E+00 0.80799959709E+00
 0.85617482867E+00 0.90400108418E+00 0.94947403389E+00 0.99049225235E+00 0.10250199599E+01
 0.10512195596E+01 0.10675930129E+01 0.10731578104E+01 0.10675843069E+01 0.10512191366E+01
 0.10250216247E+01 0.99046950052E+00 0.94942539243E+00 0.90395218092E+00 0.85613401765E+00
 0.80795147884E+00 0.76117783583E+00 0.71726738652E+00 0.67729034487E+00 0.64196397353E+00
 0.61173430714E+00 0.58684542425E+00 0.56740607859E+00 0.55347124064E+00 0.54509254286E+00
 0.54230604235E+00 0.54511083143E+00 0.55348802660E+00 0.56742227477E+00 0.54426147188E+00
 0.56743795370E+00 0.59617543227E+00 0.63023280690E+00 0.66920965607E+00 0.71244515304E+00
 0.75895124928E+00 0.80740623318E+00 0.85617947247E+00 0.90338471043E+00 0.94699039301E+00
 0.98496972549E+00 0.10154371829E+01 0.10367706626E+01 0.10477597018E+01 0.10477601951E+01
 0.10367771898E+01 0.10154465146E+01 0.98495696911E+00 0.94693928960E+00 0.90331264568E+00
 0.85611152339E+00 0.80734486368E+00 0.75889112074E+00 0.71239384991E+00 0.66917078763E+00
 0.63019098609E+00 0.59612147986E+00 0.56738856640E+00 0.54423259906E+00 0.52677741268E+00
 0.51510005689E+00 0.50925569019E+00 0.50926530984E+00 0.51511850852E+00 0.52679511979E+00
 0.50589089262E+00 0.52680566025E+00 0.55350687275E+00 0.58575997466E+00 0.62318465131E+00
 0.66517671515E+00 0.71083608914E+00 0.75894575059E+00 0.80799389064E+00 0.85621792521E+00
 0.90168342715E+00 0.94240719372E+00 0.97649124429E+00 0.10022410885E+01 0.10182899113E+01
 0.10237422366E+01 0.10182893046E+01 0.10022409262E+01 0.97647853472E+00 0.94236361900E+00
 0.90161151136E+00 0.85613850418E+00 0.80791846740E+00 0.75887224508E+00 0.71076881862E+00
 0.66512566938E+00 0.62314494268E+00 0.58571610582E+00 0.55345862956E+00 0.52676765820E+00
 0.50586684593E+00 0.49087600293E+00 0.48186395591E+00 0.47886426686E+00 0.48187916794E+00
 0.49089561564E+00 0.47263803498E+00 0.49090057569E+00 0.51513104364E+00 0.54512981366E+00
 0.58055042136E+00 0.62084103185E+00 0.66517957304E+00 0.71244251220E+00 0.76122146545E+00
 0.80986758025E+00 0.85655506333E+00 0.89937452351E+00 0.93644848950E+00 0.96604513237E+00
 0.98669075949E+00 0.99729784026E+00 0.99728970432E+00 0.98667040370E+00 0.96601552835E+00
 0.93640383320E+00 0.89931210830E+00 0.85648389267E+00 0.80979529275E+00 0.76114471960E+00
 0.71236066018E+00 0.66510489146E+00 0.62078342051E+00 0.58050379194E+00 0.54508532978E+00
 0.51509209298E+00 0.49087304374E+00 0.47261789393E+00 0.46042016255E+00 0.45432065310E+00
 0.45432825127E+00 0.46043717017E+00 0.44508245509E+00 0.46043968727E+00 0.48188752657E+00
 0.50928224404E+00 0.54233307941E+00 0.58055049852E+00 0.62319035787E+00 0.66921793550E+00
 0.71731601479E+00 0.76593035270E+00 0.81333294275E+00 0.85769912886E+00 0.89719999316E+00
 0.93010060348E+00 0.95486025868E+00 0.97024627850E+00 0.97545780030E+00 0.97022123928E+00
 0.95481879017E+00 0.93004853294E+00 0.89713830140E+00 0.85763156214E+00 0.81326432994E+00
 0.76585804757E+00 0.71723461742E+00 0.66913255367E+00 0.62311410785E+00 0.58048895730E+00
 0.54228200878E+00 0.50923979953E+00 0.48185677429E+00 0.46041916923E+00 0.44506642882E+00
 0.43585190535E+00 0.43278564476E+00 0.43586293618E+00 0.42354936506E+00 0.43586601517E+00
 0.45433686057E+00 0.47888089190E+00 0.50928076920E+00 0.54512564984E+00 0.58575866879E+00
 0.63023961158E+00 0.67734341894E+00 0.72559979474E+00 0.77335854082E+00 0.81886572340E+00
 0.86034536060E+00 0.89608208300E+00 0.92450384938E+00 0.94427648038E+00 0.95441751954E+00
 0.95440602741E+00 0.94424553700E+00 0.92445821695E+00 0.89602163186E+00 0.86027040004E+00
 0.81878284779E+00 0.77327502914E+00 0.72551696140E+00 0.67726104751E+00 0.63016198089E+00
 0.58569051355E+00 0.54506686209E+00 0.50923046007E+00 0.47884188284E+00 0.45431084840E+00
 0.43584912354E+00 0.42353778024E+00 0.41738927451E+00 0.41739388150E+00 0.40817091563E+00
 0.41739776086E+00 0.43279527034E+00 0.45433816650E+00 0.48188865966E+00 0.51512818572E+00
 0.55350003312E+00 0.59616993364E+00 0.64201654945E+00 0.68965979738E+00 0.73752078926E+00
 0.78389910954E+00 0.82705522999E+00 0.86528900816E+00 0.89701124845E+00 0.92081908473E+00
 0.93559095789E+00 0.94059529670E+00 0.93557774890E+00 0.92079143211E+00 0.89696333270E+00
 0.86521455946E+00 0.82695763130E+00 0.78379275839E+00 0.73742060883E+00 0.68957259553E+00
 0.64194216592E+00 0.59610543196E+00 0.55344167024E+00 0.51507414424E+00 0.48184180914E+00
 0.45430316081E+00 0.43277258561E+00 0.41738382834E+00 0.40816361453E+00 0.40509656691E+00
 0.39896233921E+00 0.40510014873E+00 0.41739737807E+00 0.43586693833E+00 0.46044285082E+00
 0.49090381637E+00 0.52680527744E+00 0.56743207220E+00 0.61178053232E+00 0.65857552116E+00
 0.70632005794E+00 0.75336744134E+00 0.79800323598E+00 0.83852550982E+00 0.87331646179E+00
 0.90091013268E+00 0.92007113251E+00 0.92989127008E+00 0.92988553010E+00 0.92005204080E+00
 0.90087185111E+00 0.87325177028E+00 0.83843316547E+00 0.79789302472E+00 0.75325581522E+00
 0.70622043486E+00 0.65849271809E+00 0.61171201103E+00 0.56737226344E+00 0.52675014436E+00
 0.49085390646E+00 0.46040212680E+00 0.43583802381E+00 0.41737899487E+00 0.40508966938E+00
 0.39895881072E+00 0.40591015793E+00 0.40917684109E+00 0.41897217185E+00 0.43528480407E+00
 0.45804900692E+00 0.48708669143E+00 0.52204384925E+00 0.56233280024E+00 0.60709183652E+00
 0.65517221754E+00 0.70515776543E+00 0.75541554738E+00 0.80416948300E+00 0.84958485960E+00
 0.88985375137E+00 0.92327973109E+00 0.94836906890E+00 0.96393480941E+00 0.96920568596E+00
 0.96391337859E+00 0.94832659109E+00 0.92321750855E+00 0.88977456033E+00 0.84949316172E+00
 0.80407119046E+00 0.75531714728E+00 0.70506483380E+00 0.65508815645E+00 0.60701785078E+00
 0.56226900426E+00 0.52199032051E+00 0.48704366305E+00 0.45801648376E+00 0.43526222653E+00
 0.41895838920E+00 0.40917044879E+00 0.40917079498E+00 0.40917364863E+00 0.41619382362E+00
 0.43020179382E+00 0.45111690156E+00 0.47877145758E+00 0.51286122116E+00 0.55288812055E+00
 0.59810698104E+00 0.64748880610E+00 0.69971079504E+00 0.75318060513E+00 0.80609521354E+00
 0.85652340301E+00 0.90249691168E+00 0.94210465370E+00 0.97359544332E+00 0.99549372787E+00
 0.10067214706E+01 0.10067067027E+01 0.99545098153E+00 0.97353072341E+00 0.94202822159E+00
 0.90241762078E+00 0.85644323169E+00 0.80601116853E+00 0.75309120510E+00 0.69961930457E+00
 0.64740160942E+00 0.59803068355E+00 0.55282695410E+00 0.51281509637E+00 0.47873690583E+00
 0.45109094252E+00 0.43018399945E+00 0.41618420643E+00 0.41895948558E+00 0.41521029088E+00
 0.41896573795E+00 0.43019920073E+00 0.44882062566E+00 0.47466148503E+00 0.50744763483E+00
 0.54675493792E+00 0.59195328939E+00 0.64215159387E+00 0.69615669476E+00 0.75246183642E+00
 0.80927900322E+00 0.86461311443E+00 0.91635803419E+00 0.96239841457E+00 0.10007204973E+01
 0.10295400365E+01 0.10474411446E+01 0.10535066910E+01 0.10474169885E+01 0.10294912796E+01
 0.10006523591E+01 0.96232113320E+00 0.91627815455E+00 0.86453000997E+00 0.80919114455E+00
 0.75237206044E+00 0.69607028676E+00 0.64207338188E+00 0.59188748870E+00 0.54670372239E+00
 0.50740877726E+00 0.47463077280E+00 0.44879700327E+00 0.43018438861E+00 0.43526352435E+00
 0.42731113613E+00 0.42731363982E+00 0.43527396394E+00 0.45111184731E+00 0.47466057285E+00
 0.50566248688E+00 0.54374687366E+00 0.58838331985E+00 0.63881996360E+00 0.69401977519E+00
 0.75261099101E+00 0.81287732566E+00 0.87280670746E+00 0.93018695883E+00 0.98271931602E+00
 0.10281385332E+01 0.10643494194E+01 0.10895811089E+01 0.11025398052E+01 0.11025359504E+01
 0.10895639925E+01 0.10643102612E+01 0.10280761815E+01 0.98263886947E+00 0.93009384675E+00
 0.87270813951E+00 0.81278403919E+00 0.75253047406E+00 0.69395083198E+00 0.63875858503E+00
 0.58832969287E+00 0.54370238888E+00 0.50562529546E+00 0.47462951794E+00 0.45109007683E+00
 0.45801648376E+00 0.44549013852E+00 0.44129842903E+00 0.44549451350E+00 0.45803213299E+00
 0.47876248993E+00 0.50744431914E+00 0.54374633462E+00 0.58721839374E+00 0.63723340667E+00
 0.69291496519E+00 0.75306200731E+00 0.81609315743E+00 0.88004855208E+00 0.94266488968E+00
 0.10014964218E+01 0.10540491478E+01 0.10979270146E+01 0.11309996314E+01 0.11515774639E+01
 0.11585661339E+01 0.11515791777E+01 0.11309890309E+01 0.10978919768E+01 0.10539874569E+01
 0.10014112193E+01 0.94256442893E+00 0.87994966144E+00 0.81601204015E+00 0.75299933744E+00
 0.69285924766E+00 0.63717861390E+00 0.58716841095E+00 0.54370384282E+00 0.50740768085E+00
 0.47873380786E+00 0.48704077239E+00 0.46968798738E+00 0.46095660194E+00 0.46095708284E+00
 0.46969561014E+00 0.48706257714E+00 0.51284378773E+00 0.54674356960E+00 0.58837987308E+00
 0.63723559337E+00 0.69258446667E+00 0.75340610181E+00 0.81829960645E+00 0.88543249817E+00
 0.95257037690E+00 0.10171855884E+01 0.10766014796E+01 0.11281492655E+01 0.11693477198E+01
 0.11981014342E+01 0.12128848870E+01 0.12128861498E+01 0.11980972580E+01 0.11693261354E+01
 0.11281084011E+01 0.10765435586E+01 0.10171099730E+01 0.95248341920E+00 0.88535154930E+00
 0.81823485696E+00 0.75334906664E+00 0.69252500145E+00 0.63717847502E+00 0.58833379543E+00
 0.54670657007E+00 0.51281185948E+00 0.52198450280E+00 0.49969940147E+00 0.48621963353E+00
 0.48170557637E+00 0.48622143390E+00 0.49971443204E+00 0.52201268304E+00 0.55285762311E+00
 0.59192804523E+00 0.63880926569E+00 0.69291750172E+00 0.75341027567E+00 0.81908832385E+00
 0.88830475378E+00 0.95893767115E+00 0.10284632537E+01 0.10940969836E+01 0.11529562727E+01
 0.12022447709E+01 0.12394689747E+01 0.12626562212E+01 0.12705327496E+01 0.12626502250E+01
 0.12394472689E+01 0.12022086496E+01 0.11529166633E+01 0.10940529627E+01 0.10284044695E+01
 0.95886747030E+00 0.88823809642E+00 0.81902756756E+00 0.75334621892E+00 0.69285342998E+00
 0.63875983991E+00 0.59189440276E+00 0.55282734320E+00 0.56226333556E+00 0.53510642325E+00
 0.51683643726E+00 0.50764519227E+00 0.50764448462E+00 0.51684514845E+00 0.53513420744E+00
 0.56229645605E+00 0.59806272365E+00 0.64211082467E+00 0.69399593885E+00 0.75305329650E+00
 0.81829610467E+00 0.88830330592E+00 0.96113796030E+00 0.10343673080E+01 0.11051866640E+01
 0.11705836156E+01 0.12275169685E+01 0.12731361636E+01 0.13050298768E+01 0.13214446780E+01
 0.13214451955E+01 0.13050207847E+01 0.12731078038E+01 0.12274822580E+01 0.11705541784E+01
 0.11051498910E+01 0.10343102833E+01 0.96107226477E+00 0.88824380802E+00 0.81823772080E+00
 0.75299091698E+00 0.69394386556E+00 0.64207909350E+00 0.59803678425E+00 0.60701785067E+00
 0.57522842744E+00 0.55231285030E+00 0.53847047637E+00 0.53383574546E+00 0.53847163485E+00
 0.55233529894E+00 0.57526948645E+00 0.60705238708E+00 0.64743669871E+00 0.69610516214E+00
 0.75256851207E+00 0.81605819646E+00 0.88540791366E+00 0.95893034270E+00 0.10343707618E+01
 0.11089935004E+01 0.11797462445E+01 0.12434346411E+01 0.12969268103E+01 0.13374148567E+01
 0.13626769779E+01 0.13712746987E+01 0.13626914466E+01 0.13374158043E+01 0.12969065552E+01
 0.12434109563E+01 0.11797199523E+01 0.11089459197E+01 0.10343053155E+01 0.95887328806E+00
 0.88536507645E+00 0.81601204004E+00 0.75251853970E+00 0.69606919043E+00 0.64741189972E+00
 0.65509756913E+00 0.61909823202E+00 0.59187610024E+00 0.57361457569E+00 0.56443997136E+00