   6   6   0   0
  0.2185851E+02  0.3190316E-09  0.3190316E-09  0.1487900E-08  0.5000000E-15
  1.000000000000000E-004
  CAR 
 unknown system                          
      8.31315495    -12.92989238  301      3.30333629      1.00000000
    -12.930  0.0000E+00  0.0000E+00
    -12.859  0.0000E+00  0.0000E+00
    -12.788  0.0000E+00  0.0000E+00
    -12.717  0.0000E+00  0.0000E+00
    -12.647  0.0000E+00  0.0000E+00
    -12.576  0.0000E+00  0.0000E+00
    -12.505  0.0000E+00  0.0000E+00
    -12.434  0.0000E+00  0.0000E+00
    -12.363  0.0000E+00  0.0000E+00
    -12.293  0.0000E+00  0.0000E+00
    -12.222  0.0000E+00  0.0000E+00
    -12.151  0.0000E+00  0.0000E+00
    -12.080  0.0000E+00  0.0000E+00
    -12.009  0.0000E+00  0.0000E+00
    -11.939  0.0000E+00  0.0000E+00
    -11.868  0.0000E+00  0.0000E+00
    -11.797  0.0000E+00  0.0000E+00
    -11.726  0.0000E+00  0.0000E+00
    -11.655  0.0000E+00  0.0000E+00
    -11.584  0.0000E+00  0.0000E+00
    -11.514  0.0000E+00  0.0000E+00
    -11.443  0.0000E+00  0.0000E+00
    -11.372  0.0000E+00  0.0000E+00
    -11.301  0.0000E+00  0.0000E+00
    -11.230  0.0000E+00  0.0000E+00
    -11.160  0.0000E+00  0.0000E+00
    -11.089  0.0000E+00  0.0000E+00
    -11.018  0.0000E+00  0.0000E+00
    -10.947  0.0000E+00  0.0000E+00
    -10.876  0.7862E+00  0.1770E-01
    -10.806  0.9251E+00  0.9995E-01
    -10.735  0.1044E+01  0.1697E+00
    -10.664  0.1164E+01  0.2479E+00
    -10.593  0.1152E+01  0.3315E+00
    -10.522  0.1115E+01  0.4107E+00
    -10.452  0.1171E+01  0.4916E+00
    -10.381  0.1227E+01  0.5765E+00
    -10.310  0.1283E+01  0.6654E+00
    -10.239  0.1281E+01  0.7555E+00
    -10.168  0.1316E+01  0.8475E+00
    -10.097  0.1359E+01  0.9420E+00
    -10.027  0.1409E+01  0.1040E+01
     -9.956  0.1459E+01  0.1142E+01
     -9.885  0.1532E+01  0.1247E+01
     -9.814  0.1623E+01  0.1359E+01
     -9.743  0.1706E+01  0.1477E+01
     -9.673  0.3858E+01  0.1662E+01
     -9.602  0.4226E+01  0.1950E+01
     -9.531  0.4310E+01  0.2257E+01
     -9.460  0.4848E+01  0.2578E+01
     -9.389  0.5309E+01  0.2940E+01
     -9.319  0.5834E+01  0.3333E+01
     -9.248  0.6580E+01  0.3771E+01
     -9.177  0.7594E+01  0.4272E+01
     -9.106  0.8733E+01  0.4984E+01
     -9.035  0.7615E+01  0.5559E+01
     -8.965  0.9623E+01  0.6157E+01
     -8.894  0.9843E+01  0.6889E+01
     -8.823  0.6006E+01  0.7534E+01
     -8.752  0.5170E+01  0.7926E+01
     -8.681  0.0000E+00  0.8000E+01
     -8.610  0.0000E+00  0.8000E+01
     -8.540  0.0000E+00  0.8000E+01
     -8.469  0.0000E+00  0.8000E+01
     -8.398  0.0000E+00  0.8000E+01
     -8.327  0.0000E+00  0.8000E+01
     -8.256  0.0000E+00  0.8000E+01
     -8.186  0.0000E+00  0.8000E+01
     -8.115  0.0000E+00  0.8000E+01
     -8.044  0.0000E+00  0.8000E+01
     -7.973  0.0000E+00  0.8000E+01
     -7.902  0.0000E+00  0.8000E+01
     -7.832  0.0000E+00  0.8000E+01
     -7.761  0.0000E+00  0.8000E+01
     -7.690  0.0000E+00  0.8000E+01
     -7.619  0.0000E+00  0.8000E+01
     -7.548  0.0000E+00  0.8000E+01
     -7.478  0.0000E+00  0.8000E+01
     -7.407  0.0000E+00  0.8000E+01
     -7.336  0.0000E+00  0.8000E+01
     -7.265  0.0000E+00  0.8000E+01
     -7.194  0.0000E+00  0.8000E+01
     -7.123  0.0000E+00  0.8000E+01
     -7.053  0.0000E+00  0.8000E+01
     -6.982  0.0000E+00  0.8000E+01
     -6.911  0.0000E+00  0.8000E+01
     -6.840  0.0000E+00  0.8000E+01
     -6.769  0.0000E+00  0.8000E+01
     -6.699  0.0000E+00  0.8000E+01
     -6.628  0.0000E+00  0.8000E+01
     -6.557  0.0000E+00  0.8000E+01
     -6.486  0.0000E+00  0.8000E+01
     -6.415  0.0000E+00  0.8000E+01
     -6.345  0.0000E+00  0.8000E+01
     -6.274  0.0000E+00  0.8000E+01
     -6.203  0.0000E+00  0.8000E+01
     -6.132  0.0000E+00  0.8000E+01
     -6.061  0.0000E+00  0.8000E+01
     -5.990  0.0000E+00  0.8000E+01
     -5.920  0.0000E+00  0.8000E+01
     -5.849  0.0000E+00  0.8000E+01
     -5.778  0.0000E+00  0.8000E+01
     -5.707  0.0000E+00  0.8000E+01
     -5.636  0.0000E+00  0.8000E+01
     -5.566  0.0000E+00  0.8000E+01
     -5.495  0.0000E+00  0.8000E+01
     -5.424  0.0000E+00  0.8000E+01
     -5.353  0.0000E+00  0.8000E+01
     -5.282  0.0000E+00  0.8000E+01
     -5.212  0.0000E+00  0.8000E+01
     -5.141  0.0000E+00  0.8000E+01
     -5.070  0.0000E+00  0.8000E+01
     -4.999  0.0000E+00  0.8000E+01
     -4.928  0.0000E+00  0.8000E+01
     -4.858  0.0000E+00  0.8000E+01
     -4.787  0.0000E+00  0.8000E+01
     -4.716  0.0000E+00  0.8000E+01
     -4.645  0.0000E+00  0.8000E+01
     -4.574  0.0000E+00  0.8000E+01
     -4.503  0.0000E+00  0.8000E+01
     -4.433  0.0000E+00  0.8000E+01
     -4.362  0.0000E+00  0.8000E+01
     -4.291  0.0000E+00  0.8000E+01
     -4.220  0.0000E+00  0.8000E+01
     -4.149  0.0000E+00  0.8000E+01
     -4.079  0.0000E+00  0.8000E+01
     -4.008  0.0000E+00  0.8000E+01
     -3.937  0.0000E+00  0.8000E+01
     -3.866  0.0000E+00  0.8000E+01
     -3.795  0.0000E+00  0.8000E+01
     -3.725  0.0000E+00  0.8000E+01
     -3.654  0.0000E+00  0.8000E+01
     -3.583  0.0000E+00  0.8000E+01
     -3.512  0.0000E+00  0.8000E+01
     -3.441  0.0000E+00  0.8000E+01
     -3.371  0.0000E+00  0.8000E+01
     -3.300  0.0000E+00  0.8000E+01
     -3.229  0.0000E+00  0.8000E+01
     -3.158  0.0000E+00  0.8000E+01
     -3.087  0.0000E+00  0.8000E+01
     -3.016  0.0000E+00  0.8000E+01
     -2.946  0.0000E+00  0.8000E+01
     -2.875  0.0000E+00  0.8000E+01
     -2.804  0.0000E+00  0.8000E+01
     -2.733  0.0000E+00  0.8000E+01
     -2.662  0.0000E+00  0.8000E+01
     -2.592  0.2207E+00  0.8002E+01
     -2.521  0.1926E+01  0.8077E+01
     -2.450  0.2675E+01  0.8268E+01
     -2.379  0.2955E+01  0.8461E+01
     -2.308  0.3595E+01  0.8689E+01
     -2.238  0.3846E+01  0.8954E+01
     -2.167  0.7025E+01  0.9313E+01
     -2.096  0.9395E+01  0.9916E+01
     -2.025  0.6450E+01  0.1042E+02
     -1.954  0.5447E+01  0.1089E+02
     -1.884  0.1217E+02  0.1139E+02
     -1.813  0.1219E+02  0.1207E+02
     -1.742  0.5705E+01  0.1268E+02
     -1.671  0.5154E+01  0.1292E+02
     -1.600  0.3406E+01  0.1323E+02
     -1.529  0.2786E+01  0.1345E+02
     -1.459  0.2226E+01  0.1362E+02
     -1.388  0.1942E+01  0.1377E+02
     -1.317  0.1747E+01  0.1390E+02
     -1.246  0.1642E+01  0.1402E+02
     -1.175  0.1569E+01  0.1413E+02
     -1.105  0.1497E+01  0.1424E+02
     -1.034  0.1434E+01  0.1435E+02
     -0.963  0.1497E+01  0.1445E+02
     -0.892  0.5901E+01  0.1470E+02
     -0.821  0.8405E+01  0.1523E+02
     -0.751  0.1069E+02  0.1590E+02
     -0.680  0.1128E+02  0.1676E+02
     -0.609  0.9722E+01  0.1744E+02
     -0.538  0.6501E+01  0.1805E+02
     -0.467  0.2206E+01  0.1832E+02
     -0.396  0.2153E+01  0.1847E+02
     -0.326  0.2234E+01  0.1862E+02
     -0.255  0.2329E+01  0.1879E+02
     -0.184  0.2679E+01  0.1895E+02
     -0.113  0.8198E+01  0.1931E+02
     -0.042  0.1285E+02  0.2026E+02
      0.028  0.8301E+01  0.2130E+02
      0.099  0.5785E+01  0.2172E+02
      0.170  0.6170E+01  0.2220E+02
      0.241  0.4114E+01  0.2256E+02
      0.312  0.3768E+01  0.2283E+02
      0.382  0.3550E+01  0.2309E+02
      0.453  0.3331E+01  0.2333E+02
      0.524  0.3188E+01  0.2356E+02
      0.595  0.4839E+01  0.2384E+02
      0.666  0.2711E+01  0.2411E+02
      0.736  0.2599E+01  0.2430E+02
      0.807  0.3620E+01  0.2452E+02
      0.878  0.3522E+01  0.2480E+02
      0.949  0.2797E+01  0.2504E+02
      1.020  0.2591E+01  0.2522E+02
      1.091  0.1039E+02  0.2546E+02
      1.161  0.7851E+01  0.2617E+02
      1.232  0.6944E+01  0.2670E+02
      1.303  0.1046E+02  0.2737E+02
      1.374  0.7630E+01  0.2794E+02
      1.445  0.8125E+01  0.2849E+02
      1.515  0.5843E+01  0.2897E+02
      1.586  0.4038E+01  0.2931E+02
      1.657  0.3705E+01  0.2957E+02
      1.728  0.4645E+01  0.2986E+02
      1.799  0.4817E+01  0.3027E+02
      1.869  0.4718E+01  0.3062E+02
      1.940  0.4766E+01  0.3095E+02
      2.011  0.4649E+01  0.3129E+02
      2.082  0.2333E+01  0.3163E+02
      2.153  0.3168E+01  0.3181E+02
      2.223  0.3358E+01  0.3206E+02
      2.294  0.6027E+01  0.3234E+02
      2.365  0.1027E+02  0.3297E+02
      2.436  0.5881E+01  0.3344E+02
      2.507  0.5818E+01  0.3385E+02
      2.578  0.5429E+01  0.3425E+02
      2.648  0.4742E+01  0.3461E+02
      2.719  0.3958E+01  0.3492E+02
      2.790  0.3259E+01  0.3518E+02
      2.861  0.3326E+01  0.3541E+02
      2.932  0.2964E+01  0.3564E+02
      3.002  0.2385E+01  0.3581E+02
      3.073  0.7488E+00  0.3591E+02
      3.144  0.4608E+00  0.3595E+02
      3.215  0.4412E+00  0.3599E+02
      3.286  0.9031E-02  0.3600E+02
      3.356  0.0000E+00  0.3600E+02
      3.427  0.0000E+00  0.3600E+02
      3.498  0.0000E+00  0.3600E+02
      3.569  0.0000E+00  0.3600E+02
      3.640  0.0000E+00  0.3600E+02
      3.710  0.0000E+00  0.3600E+02
      3.781  0.0000E+00  0.3600E+02
      3.852  0.0000E+00  0.3600E+02
      3.923  0.0000E+00  0.3600E+02
      3.994  0.0000E+00  0.3600E+02
      4.065  0.0000E+00  0.3600E+02
      4.135  0.0000E+00  0.3600E+02
      4.206  0.0000E+00  0.3600E+02
      4.277  0.0000E+00  0.3600E+02
      4.348  0.0000E+00  0.3600E+02
      4.419  0.0000E+00  0.3600E+02
      4.489  0.0000E+00  0.3600E+02
      4.560  0.0000E+00  0.3600E+02
      4.631  0.0000E+00  0.3600E+02
      4.702  0.0000E+00  0.3600E+02
      4.773  0.8725E-01  0.3600E+02
      4.843  0.5328E+00  0.3602E+02
      4.914  0.9807E+00  0.3608E+02
      4.985  0.2404E+01  0.3618E+02
      5.056  0.4568E+01  0.3643E+02
      5.127  0.6915E+01  0.3683E+02
      5.198  0.9538E+01  0.3740E+02
      5.268  0.1765E+02  0.3835E+02
      5.339  0.2333E+01  0.3944E+02
      5.410  0.3027E+01  0.3963E+02
      5.481  0.6385E+01  0.3991E+02
      5.552  0.8997E+01  0.4051E+02
      5.622  0.8925E+01  0.4114E+02
      5.693  0.7105E+01  0.4167E+02
      5.764  0.7142E+01  0.4218E+02
      5.835  0.6056E+01  0.4271E+02
      5.906  0.3792E+01  0.4303E+02
      5.976  0.3210E+01  0.4327E+02
      6.047  0.2475E+01  0.4348E+02
      6.118  0.2671E+01  0.4364E+02
      6.189  0.9725E+00  0.4383E+02
      6.260  0.2682E+01  0.4395E+02
      6.330  0.0000E+00  0.4400E+02
      6.401  0.0000E+00  0.4400E+02
      6.472  0.0000E+00  0.4400E+02
      6.543  0.0000E+00  0.4400E+02
      6.614  0.0000E+00  0.4400E+02
      6.685  0.0000E+00  0.4400E+02
      6.755  0.0000E+00  0.4400E+02
      6.826  0.0000E+00  0.4400E+02
      6.897  0.0000E+00  0.4400E+02
      6.968  0.0000E+00  0.4400E+02
      7.039  0.0000E+00  0.4400E+02
      7.109  0.0000E+00  0.4400E+02
      7.180  0.0000E+00  0.4400E+02
      7.251  0.0000E+00  0.4400E+02
      7.322  0.0000E+00  0.4400E+02
      7.393  0.0000E+00  0.4400E+02
      7.463  0.0000E+00  0.4400E+02
      7.534  0.0000E+00  0.4400E+02
      7.605  0.0000E+00  0.4400E+02
      7.676  0.0000E+00  0.4400E+02
      7.747  0.0000E+00  0.4400E+02
      7.817  0.0000E+00  0.4400E+02
      7.888  0.0000E+00  0.4400E+02
      7.959  0.0000E+00  0.4400E+02
      8.030  0.0000E+00  0.4400E+02
      8.101  0.0000E+00  0.4400E+02
      8.172  0.0000E+00  0.4400E+02
      8.242  0.0000E+00  0.4400E+02
      8.313  0.0000E+00  0.4400E+02
