Automatically generated mesh
      38
Reciprocal lattice
    0.00000000000000    0.00000000000000    0.00000000000000             1
    0.08333333333333   -0.00000000000000    0.00000000000000             6
    0.16666666666667   -0.00000000000000    0.00000000000000             6
    0.25000000000000   -0.00000000000000    0.00000000000000             6
    0.33333333333333   -0.00000000000000    0.00000000000000             6
    0.41666666666667   -0.00000000000000    0.00000000000000             6
    0.50000000000000   -0.00000000000000    0.00000000000000             3
    0.08333333333333    0.08333333333333    0.00000000000000             6
    0.16666666666667    0.08333333333333    0.00000000000000            12
    0.25000000000000    0.08333333333333    0.00000000000000            12
    0.33333333333333    0.08333333333333    0.00000000000000            12
    0.41666666666667    0.08333333333333    0.00000000000000            12
    0.16666666666667    0.16666666666667    0.00000000000000             6
    0.25000000000000    0.16666666666667    0.00000000000000            12
    0.33333333333333    0.16666666666667    0.00000000000000            12
    0.41666666666667    0.16666666666667    0.00000000000000             6
    0.25000000000000    0.25000000000000    0.00000000000000             6
    0.33333333333333    0.25000000000000    0.00000000000000            12
    0.33333333333333    0.33333333333333    0.00000000000000             2
    0.00000000000000    0.00000000000000    0.33333333333333             2
    0.08333333333333   -0.00000000000000    0.33333333333333            12
    0.16666666666667   -0.00000000000000    0.33333333333333            12
    0.25000000000000   -0.00000000000000    0.33333333333333            12
    0.33333333333333   -0.00000000000000    0.33333333333333            12
    0.41666666666667   -0.00000000000000    0.33333333333333            12
    0.50000000000000   -0.00000000000000    0.33333333333333             6
    0.08333333333333    0.08333333333333    0.33333333333333            12
    0.16666666666667    0.08333333333333    0.33333333333333            24
    0.25000000000000    0.08333333333333    0.33333333333333            24
    0.33333333333333    0.08333333333333    0.33333333333333            24
    0.41666666666667    0.08333333333333    0.33333333333333            24
    0.16666666666667    0.16666666666667    0.33333333333333            12
    0.25000000000000    0.16666666666667    0.33333333333333            24
    0.33333333333333    0.16666666666667    0.33333333333333            24
    0.41666666666667    0.16666666666667    0.33333333333333            12
    0.25000000000000    0.25000000000000    0.33333333333333            12
    0.33333333333333    0.25000000000000    0.33333333333333            24
    0.33333333333333    0.33333333333333    0.33333333333333             4
Tetrahedra
       369    0.00038580246914
         8         2         2         8        21
         8         1         2         2        21
         4         1         2        20        21
         4         2         8        21        27
         8         2        21        21        27
         8         2        20        21        21
         8         3         8         9        27
         8         2         3         8        27
         4         2         3        21        27
         4         3         9        27        28
         8         3        22        27        28
         8         3        21        22        27
         8         4         9        10        28
         8         3         4         9        28
         4         3         4        22        28
         4         4        10        28        29
         8         4        23        28        29
         8         4        22        23        28
         8         5        10        11        29
         8         4         5        10        29
         4         4         5        23        29
         4         5        11        29        30
         8         5        24        29        30
         8         5        23        24        29
         8         6        11        12        30
         8         5         6        11        30
         4         5         6        24        30
         4         6        12        30        31
         8         6        25        30        31
         8         6        24        25        30
         8         7        12        12        31
         8         6         7        12        31
         4         6         7        25        31
         4         7        12        31        31
         4         7        26        31        31
         8         7        25        26        31
         8         6        11        12        31
         4         6         7        26        31
         4         6        11        30        31
         8         6        25        26        31
         8         5        10        11        30
         4         5         6        25        30
         4         5        10        29        30
         8         5        24        25        30
         8         4         9        10        29
         4         4         5        24        29
         4         4         9        28        29
         8         4        23        24        29
         8         3         8         9        28
         4         3         4        23        28
         4         3         8        27        28
         8         3        22        23        28
         4         2         2         8        27
         4         2         3        22        27
         4         2         2        21        27
         8         2        21        22        27
         4         1         2        21        21
         4         1        20        21        21
         8         3         8         9        22
         8         2         3         8        22
         4         2         8        21        22
         4         8         9        22        28
         8         8        22        27        28
         8         8        21        22        27
         8         9         9        13        28
         8         8         9         9        28
         4         8         9        27        28
         4         9        13        28        32
         8         9        28        28        32
         8         9        27        28        28
         8        10        13        14        32
         8         9        10        13        32
         4         9        10        28        32
         4        10        14        32        33
         8        10        29        32        33
         8        10        28        29        32
         8        11        14        15        33
         8        10        11        14        33
         4        10        11        29        33
         4        11        15        33        34
         8        11        30        33        34
         8        11        29        30        33
         8        12        15        16        34
         8        11        12        15        34
         4        11        12        30        34
         4        12        16        34        35
         8        12        31        34        35
         8        12        30        31        34
         8        12        15        16        35
         4        12        12        16        35
         4        12        12        31        35
         4        12        15        34        35
         8        12        31        31        35
         8        11        14        15        34
         4        11        12        31        34
         4        11        14        33        34
         8        11        30        31        34
         8        10        13        14        33
         4        10        11        30        33
         4        10        13        32        33
         8        10        29        30        33
         4         9         9        13        32
         4         9        10        29        32
         4         9         9        28        32
         8         9        28        29        32
         4         8         9        28        28
         4         3         8        22        28
         4         8        27        28        28
         4         2         8        22        27
         8         4         9        10        23
         8         3         4         9        23
         4         3         9        22        23
         4         9        10        23        29
         8         9        23        28        29
         8         9        22        23        28
         8        10        13        14        29
         8         9        10        13        29
         4         9        13        28        29
         4        13        14        29        33
         8        13        29        32        33
         8        13        28        29        32
         8        14        14        17        33
         8        13        14        14        33
         4        13        14        32        33
         4        14        17        33        36
         8        14        33        33        36
         8        14        32        33        33
         8        15        17        18        36
         8        14        15        17        36
         4        14        15        33        36
         4        15        18        36        37
         8        15        34        36        37
         8        15        33        34        36
         8        16        18        18        37
         8        15        16        18        37
         4        15        16        34        37
         4        16        18        37        37
         4        16        35        37        37
         8        16        34        35        37
         8        15        17        18        37
         4        15        16        35        37
         4        15        17        36        37
         8        15        34        35        37
         4        14        14        17        36
         4        14        15        34        36
         4        14        14        33        36
         8        14        33        34        36
         4        13        14        33        33
         4        10        13        29        33
         4        13        32        33        33
         4         9        13        29        32
         4         4         9        23        29
         4         3         9        23        28
         8         5        10        11        24
         8         4         5        10        24
         4         4        10        23        24
         4        10        11        24        30
         8        10        24        29        30
         8        10        23        24        29
         8        11        14        15        30
         8        10        11        14        30
         4        10        14        29        30
         4        14        15        30        34
         8        14        30        33        34
         8        14        29        30        33
         8        15        17        18        34
         8        14        15        17        34
         4        14        17        33        34
         4        17        18        34        37
         8        17        34        36        37
         8        17        33        34        36
        16        18        18        19        37
         8        17        18        18        37
         4        17        18        36        37
         8        18        19        37        38
        16        18        37        37        38
         8        18        36        37        37
         8        18        18        19        38
         8        18        18        37        38
         4        17        18        37        37
         4        15        17        34        37
         4        17        36        37        37
         4        14        17        34        36
         4        11        14        30        34
         4        10        14        30        33
         4         5        10        24        30
         4         4        10        24        29
         8         6        11        12        25
         8         5         6        11        25
         4         5        11        24        25
         4        11        12        25        31
         8        11        25        30        31
         8        11        24        25        30
         8        12        15        16        31
         8        11        12        15        31
         4        11        15        30        31
         4        15        16        31        35
         8        15        31        34        35
         8        15        30        31        34
         4        16        18        18        35
         8        15        16        18        35
         4        15        18        34        35
         4        18        18        35        37
         8        18        35        37        37
         8        18        34        35        37
         8        18        19        37        37
         8        19        37        37        38
         4        16        18        35        37
         4        15        18        35        37
         4        12        15        31        35
         4        11        15        31        34
         4         6        11        25        31
         4         5        11        25        30
         4         7        12        12        26
         8         6         7        12        26
         4         6        12        25        26
         4        12        12        26        31
         8        12        26        31        31
         8        12        25        26        31
         8        12        12        16        31
         4        12        16        31        31
         4        15        16        31        34
         8        16        31        34        35
         4        16        31        31        35
         8        15        16        18        34
         4        16        18        34        35
         4        17        18        34        36
         8        18        34        36        37
         4        17        18        18        36
         4        18        18        36        37
         4        15        18        34        36
         4        16        18        34        37
         4        12        16        31        34
         4        12        16        31        35
         4         7        12        26        31
         4         6        12        26        31
         8         6         7        12        25
         4         7        12        25        26
         4        11        12        25        30
         8        12        25        30        31
         8        11        12        15        30
         4        12        15        30        31
         4        14        15        30        33
         8        15        30        33        34
         8        14        15        17        33
         4        15        17        33        34
         4        14        17        33        33
         4        17        33        33        36
         4        15        17        33        36
         4        11        15        30        33
         4        12        15        30        34
         4         6        12        25        30
         4         7        12        25        31
         8         5         6        11        24
         4         6        11        24        25
         4        10        11        24        29
         8        11        24        29        30
         8        10        11        14        29
         4        11        14        29        30
         4        13        14        29        32
         8        14        29        32        33
         4        13        14        14        32
         4        14        14        32        33
         4        10        14        29        32
         4        11        14        29        33
         4         5        11        24        29
         4         6        11        24        30
         8         4         5        10        23
         4         5        10        23        24
         4         9        10        23        28
         8        10        23        28        29
         8         9        10        13        28
         4        10        13        28        29
         4         9        13        28        28
         4        13        28        28        32
         4        10        13        28        32
         4         4        10        23        28
         4         5        10        23        29
         8         3         4         9        22
         4         4         9        22        23
         4         8         9        22        27
         8         9        22        27        28
         4         8         9         9        27
         4         9         9        27        28
         4         3         9        22        27
         4         4         9        22        28
         8         2         3         8        21
         4         3         8        21        22
         4         2         8        21        21
         4         8        21        21        27
         4         3         8        21        27
         4         1         2         2        20
         4         2         2        20        21
        12        21        21        21        27
        12        20        21        21        21
         6        20        20        21        21
         6        21        21        27        27
        12        22        27        27        28
        12        21        22        27        27
        12        21        21        22        27
        12        22        27        28        28
        12        22        22        27        28
        12        21        22        22        27
        12        23        28        28        29
        12        22        23        28        28
        12        22        22        23        28
        12        23        28        29        29
        12        23        23        28        29
        12        22        23        23        28
        12        24        29        29        30
        12        23        24        29        29
        12        23        23        24        29
        12        24        29        30        30
        12        24        24        29        30
        12        23        24        24        29
        12        25        30        30        31
        12        24        25        30        30
        12        24        24        25        30
        12        25        30        31        31
        12        25        25        30        31
        12        24        25        25        30
        12        26        31        31        31
        12        25        26        31        31
        12        25        25        26        31
         6        26        26        31        31
        12        25        26        26        31
        12        28        28        28        32
        12        27        28        28        28
         6        27        27        28        28
         6        28        28        32        32
        12        29        32        32        33
        12        28        29        32        32
        12        28        28        29        32
        12        29        32        33        33
        12        29        29        32        33
        12        28        29        29        32
        12        30        33        33        34
        12        29        30        33        33
        12        29        29        30        33
        12        30        33        34        34
        12        30        30        33        34
        12        29        30        30        33
        12        31        34        34        35
        12        30        31        34        34
        12        30        30        31        34
        12        31        34        35        35
        12        31        31        34        35
        12        30        31        31        34
         6        31        31        35        35
        12        31        31        31        35
        12        33        33        33        36
        12        32        33        33        33
         6        32        32        33        33
         6        33        33        36        36
        12        34        36        36        37
        12        33        34        36        36
        12        33        33        34        36
        12        34        36        37        37
        12        34        34        36        37
        12        33        34        34        36
        12        35        37        37        37
        12        34        35        37        37
        12        34        34        35        37
         6        35        35        37        37
        12        34        35        35        37
        24        37        37        37        38
        12        36        37        37        37
         6        36        36        37        37
        12        37        37        38        38
