 vasp.5.4.4.18Apr17-6-g9f103f2a35 (build Jun 30 2017 11:15:00) complex          
  
 executed on    STALLO_VASP_5.4.4 date 2019.11.08  12:18:47
 running on    4 total cores
 distrk:  each k-point on    4 cores,    1 groups
 distr:  one band on NCORES_PER_BAND=   2 cores,    2 groups


--------------------------------------------------------------------------------------------------------


 INCAR:
 POTCAR:   PAW_PBE Mo 08Apr2002                   
 POTCAR:    PAW_PBE S 17Jan2003                   
 POTCAR:   PAW_PBE Mo 08Apr2002                   
   VRHFIN =Mo: 4p5s4d                                                           
   LEXCH  = PE                                                                  
   EATOM  =   217.5180 eV,   15.9871 Ry                                         
                                                                                
   TITEL  = PAW_PBE Mo 08Apr2002                                                
   LULTRA =        F    use ultrasoft PP ?                                      
   IUNSCR =        1    unscreen: 0-lin 1-nonlin 2-no                           
   RPACOR =    2.200    partial core radius                                     
   POMASS =   95.940; ZVAL   =    6.000    mass and valenz                      
   RCORE  =    2.750    outmost cutoff radius                                   
   RWIGS  =    2.750; RWIGS  =    1.455    wigner-seitz radius (au A)           
   ENMAX  =  224.584; ENMIN  =  168.438 eV                                      
   RCLOC  =    2.111    cutoff for local pot                                    
   LCOR   =        T    correct aug charges                                     
   LPAW   =        T    paw PP                                                  
   EAUG   =  345.278                                                            
   DEXC   =    -.088                                                            
   RMAX   =    3.077    core radius for proj-oper                               
   RAUG   =    1.300    factor for augmentation sphere                          
   RDEP   =    2.815    radius for radial grids                                 
   QCUT   =   -4.063; QGAM   =    8.126    optimization parameters              
                                                                                
   Description                                                                  
     l     E      TYP  RCUT    TYP  RCUT                                        
     2   .000     23  2.500                                                     
     2   .000     23  2.500                                                     
     0   .000     23  2.600                                                     
     0  1.000     23  2.600                                                     
     1   .400     23  2.750                                                     
     1  2.000     23  2.750                                                     
     3   .000      7   .000                                                     
  local pseudopotential read in
  partial core-charges read in
  atomic valenz-charges read in
  non local Contribution for L=           2  read in
    real space projection operators read in
  non local Contribution for L=           2  read in
    real space projection operators read in
  non local Contribution for L=           0  read in
    real space projection operators read in
  non local Contribution for L=           0  read in
    real space projection operators read in
  non local Contribution for L=           1  read in
    real space projection operators read in
  non local Contribution for L=           1  read in
    real space projection operators read in
    PAW grid and wavefunctions read in
 
   number of l-projection  operators is LMAX  =           6
   number of lm-projection operators is LMMAX =          18
 
 POTCAR:    PAW_PBE S 17Jan2003                   
   VRHFIN =S : s2p4                                                             
   LEXCH  = PE                                                                  
   EATOM  =   276.8230 eV,   20.3459 Ry                                         
                                                                                
   TITEL  = PAW_PBE S 17Jan2003                                                 
   LULTRA =        F    use ultrasoft PP ?                                      
   IUNSCR =        1    unscreen: 0-lin 1-nonlin 2-no                           
   RPACOR =    1.500    partial core radius                                     
   POMASS =   32.066; ZVAL   =    6.000    mass and valenz                      
   RCORE  =    1.900    outmost cutoff radius                                   
   RWIGS  =    2.200; RWIGS  =    1.164    wigner-seitz radius (au A)           
   ENMAX  =  280.000; ENMIN  =  194.016 eV                                      
   ICORE  =        2    local potential                                         
   LCOR   =        T    correct aug charges                                     
   LPAW   =        T    paw PP                                                  
   EAUG   =  335.092                                                            
   DEXC   =     .000                                                            
   RMAX   =    2.867    core radius for proj-oper                               
   RAUG   =    1.300    factor for augmentation sphere                          
   RDEP   =    1.954    radius for radial grids                                 
   QCUT   =   -4.360; QGAM   =    8.721    optimization parameters              
                                                                                
   Description                                                                  
     l     E      TYP  RCUT    TYP  RCUT                                        
     0   .000     23  1.900                                                     
     0   .000     23  1.900                                                     
     1   .000     23  1.900                                                     
     1   .000     23  1.900                                                     
     2   .000     23  1.900                                                     
  local pseudopotential read in
  partial core-charges read in
  atomic valenz-charges read in
  non local Contribution for L=           0  read in
    real space projection operators read in
  non local Contribution for L=           0  read in
    real space projection operators read in
  non local Contribution for L=           1  read in
    real space projection operators read in
  non local Contribution for L=           1  read in
    real space projection operators read in
    PAW grid and wavefunctions read in
 
   number of l-projection  operators is LMAX  =           4
   number of lm-projection operators is LMMAX =           8
 
 PAW_PBE Mo 08Apr2002                   :
 energy of atom  1       EATOM= -217.5180
 kinetic energy error for atom=    0.0023 (will be added to EATOM!!)
  PAW_PBE S 17Jan2003                   :
 energy of atom  2       EATOM= -276.8230
 kinetic energy error for atom=    0.0033 (will be added to EATOM!!)
 
 
 POSCAR: MoS2_mp-2815_computed                   
  positions in direct lattice
  No initial velocities read in
 exchange correlation table for  LEXCH =        8
   RHO(1)=    0.500       N(1)  =     2000
   RHO(2)=  100.500       N(2)  =     4000
 


--------------------------------------------------------------------------------------------------------


 ion  position               nearest neighbor table
   1  0.333  0.667  0.250-   5 2.42   4 2.42   4 2.42   5 2.42   5 2.42   4 2.42
   2  0.667  0.333  0.750-   6 2.42   3 2.42   3 2.42   6 2.42   6 2.42   3 2.42
   3  0.333  0.667  0.855-   2 2.42   2 2.42   2 2.42
   4  0.667  0.333  0.145-   1 2.42   1 2.42   1 2.42
   5  0.667  0.333  0.355-   1 2.42   1 2.42   1 2.42
   6  0.333  0.667  0.645-   2 2.42   2 2.42   2 2.42
 
  LATTYP: Found a hexagonal cell.
 ALAT       =     3.1903157300
 C/A-ratio  =     4.6638030713
  
  Lattice vectors:
  
 A1 = (   3.1903157300,   0.0000000000,   0.0000000000)
 A2 = (  -1.5951578650,   2.7628944683,   0.0000000000)
 A3 = (   0.0000000000,   0.0000000000,  14.8790043000)


Analysis of symmetry for initial positions (statically):
=====================================================================
 Subroutine PRICEL returns:
 Original cell was already a primitive cell.
 

 Routine SETGRP: Setting up the symmetry group for a 
 hexagonal supercell.


 Subroutine GETGRP returns: Found 24 space group operations
 (whereof 12 operations were pure point group operations)
 out of a pool of 24 trial point group operations.


The static configuration has the point symmetry D_3d.
 The point group associated with its full space group is D_6h.


Analysis of symmetry for dynamics (positions and initial velocities):
=====================================================================
 Subroutine PRICEL returns:
 Original cell was already a primitive cell.
 

 Routine SETGRP: Setting up the symmetry group for a 
 hexagonal supercell.


 Subroutine GETGRP returns: Found 24 space group operations
 (whereof 12 operations were pure point group operations)
 out of a pool of 24 trial point group operations.


The dynamic configuration has the point symmetry D_3d.
 The point group associated with its full space group is D_6h.


 Subroutine INISYM returns: Found 24 space group operations
 (whereof 12 operations are pure point group operations),
 and found     1 'primitive' translations

 
 
 KPOINTS: k-density: 6.0                          

Automatic generation of k-mesh.
Space group operators:
 irot       det(A)        alpha          n_x          n_y          n_z        tau_x        tau_y        tau_z
    1     1.000000     0.000001     1.000000     0.000000     0.000000     0.000000     0.000000     0.000000
    2    -1.000000     0.000001     1.000000     0.000000     0.000000     0.000000     0.000000     0.000000
    3     1.000000   120.000000     0.000000     0.000000    -1.000000     0.000000     0.000000     0.000000
    4    -1.000000   120.000000     0.000000     0.000000    -1.000000     0.000000     0.000000     0.000000
    5     1.000000   120.000000     0.000000     0.000000     1.000000     0.000000     0.000000     0.000000
    6    -1.000000   120.000000     0.000000     0.000000     1.000000     0.000000     0.000000     0.000000
    7     1.000000   179.999999     1.000000    -0.000000     0.000000     0.000000     0.000000     0.000000
    8    -1.000000   179.999999     1.000000    -0.000000     0.000000     0.000000     0.000000     0.000000
    9     1.000000   180.000000     0.500000    -0.866025     0.000000     0.000000     0.000000     0.000000
   10    -1.000000   180.000000     0.500000    -0.866025     0.000000     0.000000     0.000000     0.000000
   11     1.000000   180.000000    -0.500000    -0.866025     0.000000     0.000000     0.000000     0.000000
   12    -1.000000   180.000000    -0.500000    -0.866025     0.000000     0.000000     0.000000     0.000000
   13     1.000000    60.000000     0.000000     0.000000    -1.000000     0.000001     0.000000     0.500000
   14    -1.000000    60.000000     0.000000     0.000000    -1.000000     0.000001     0.000000     0.500000
   15     1.000000   180.000000     0.000000     0.000000     1.000000     0.000000     0.000000     0.500000
   16    -1.000000   180.000000     0.000000     0.000000     1.000000     0.000000     0.000000     0.500000
   17     1.000000    60.000000     0.000000     0.000000     1.000000     0.000000     0.000000     0.500000
   18    -1.000000    60.000000     0.000000     0.000000     1.000000     0.000000     0.000000     0.500000
   19     1.000000   179.999999     0.866025    -0.500000     0.000000     0.000000     0.000000     0.500000
   20    -1.000000   179.999999     0.866025    -0.500000     0.000000     0.000000     0.000000     0.500000
   21     1.000000   180.000000     0.000000     1.000000     0.000000     0.000001     0.000000     0.500000
   22    -1.000000   180.000000     0.000000     1.000000     0.000000     0.000001     0.000000     0.500000
   23     1.000000   179.999999     0.866025     0.500000     0.000000     0.000000     0.000000     0.500000
   24    -1.000000   179.999999     0.866025     0.500000     0.000000     0.000000     0.000000     0.500000
 
 Subroutine IBZKPT returns following result:
 ===========================================
 
 Found     38 irreducible k-points:
 
 Following reciprocal coordinates:
            Coordinates               Weight
  0.000000  0.000000  0.000000      1.000000
  0.083333 -0.000000  0.000000      6.000000
  0.166667 -0.000000  0.000000      6.000000
  0.250000 -0.000000  0.000000      6.000000
  0.333333 -0.000000  0.000000      6.000000
  0.416667 -0.000000  0.000000      6.000000
  0.500000 -0.000000  0.000000      3.000000
  0.083333  0.083333  0.000000      6.000000
  0.166667  0.083333  0.000000     12.000000
  0.250000  0.083333  0.000000     12.000000
  0.333333  0.083333  0.000000     12.000000
  0.416667  0.083333  0.000000     12.000000
  0.166667  0.166667  0.000000      6.000000
  0.250000  0.166667  0.000000     12.000000
  0.333333  0.166667  0.000000     12.000000
  0.416667  0.166667  0.000000      6.000000
  0.250000  0.250000  0.000000      6.000000
  0.333333  0.250000  0.000000     12.000000
  0.333333  0.333333  0.000000      2.000000
  0.000000  0.000000  0.333333      2.000000
  0.083333 -0.000000  0.333333     12.000000
  0.166667 -0.000000  0.333333     12.000000
  0.250000 -0.000000  0.333333     12.000000
  0.333333 -0.000000  0.333333     12.000000
  0.416667 -0.000000  0.333333     12.000000
  0.500000 -0.000000  0.333333      6.000000
  0.083333  0.083333  0.333333     12.000000
  0.166667  0.083333  0.333333     24.000000
  0.250000  0.083333  0.333333     24.000000
  0.333333  0.083333  0.333333     24.000000
  0.416667  0.083333  0.333333     24.000000
  0.166667  0.166667  0.333333     12.000000
  0.250000  0.166667  0.333333     24.000000
  0.333333  0.166667  0.333333     24.000000
  0.416667  0.166667  0.333333     12.000000
  0.250000  0.250000  0.333333     12.000000
  0.333333  0.250000  0.333333     24.000000
  0.333333  0.333333  0.333333      4.000000
 
 Following cartesian coordinates:
            Coordinates               Weight
  0.000000  0.000000  0.000000      1.000000
  0.026121  0.015081  0.000000      6.000000
  0.052241  0.030162  0.000000      6.000000
  0.078362  0.045242  0.000000      6.000000
  0.104483  0.060323  0.000000      6.000000
  0.130604  0.075404  0.000000      6.000000
  0.156724  0.090485  0.000000      3.000000
  0.026121  0.045242  0.000000      6.000000
  0.052241  0.060323  0.000000     12.000000
  0.078362  0.075404  0.000000     12.000000
  0.104483  0.090485  0.000000     12.000000
  0.130604  0.105566  0.000000     12.000000
  0.052241  0.090485  0.000000      6.000000
  0.078362  0.105566  0.000000     12.000000
  0.104483  0.120646  0.000000     12.000000
  0.130604  0.135727  0.000000      6.000000
  0.078362  0.135727  0.000000      6.000000
  0.104483  0.150808  0.000000     12.000000
  0.104483  0.180970  0.000000      2.000000
  0.000000  0.000000  0.022403      2.000000
  0.026121  0.015081  0.022403     12.000000
  0.052241  0.030162  0.022403     12.000000
  0.078362  0.045242  0.022403     12.000000
  0.104483  0.060323  0.022403     12.000000
  0.130604  0.075404  0.022403     12.000000
  0.156724  0.090485  0.022403      6.000000
  0.026121  0.045242  0.022403     12.000000
  0.052241  0.060323  0.022403     24.000000
  0.078362  0.075404  0.022403     24.000000
  0.104483  0.090485  0.022403     24.000000
  0.130604  0.105566  0.022403     24.000000
  0.052241  0.090485  0.022403     12.000000
  0.078362  0.105566  0.022403     24.000000
  0.104483  0.120646  0.022403     24.000000
  0.130604  0.135727  0.022403     12.000000
  0.078362  0.135727  0.022403     12.000000
  0.104483  0.150808  0.022403     24.000000
  0.104483  0.180970  0.022403      4.000000
 
 TETIRR: Found    369 inequivalent tetrahedra from     2592


--------------------------------------------------------------------------------------------------------




 Dimension of arrays:
   k-points           NKPTS =     38   k-points in BZ     NKDIM =     38   number of bands    NBANDS=     22
   number of dos      NEDOS =    301   number of ions     NIONS =      6
   non local maximal  LDIM  =      6   non local SUM 2l+1 LMDIM =     18
   total plane-waves  NPLWV =  25920
   max r-space proj   IRMAX =      1   max aug-charges    IRDMAX=  12887
   dimension x,y,z NGX =    18 NGY =   18 NGZ =   80
   dimension x,y,z NGXF=    36 NGYF=   36 NGZF=  160
   support grid    NGXF=    36 NGYF=   36 NGZF=  160
   ions per type =               2   4
   NGX,Y,Z   is equivalent  to a cutoff of   9.38,  9.38,  8.94 a.u.
   NGXF,Y,Z  is equivalent  to a cutoff of  18.76, 18.76, 17.88 a.u.

 SYSTEM =  unknown system                          
 POSCAR =  MoS2_mp-2815_computed                   

 Startparameter for this run:
   NWRITE =      2    write-flag & timer
   PREC   = normal    normal or accurate (medium, high low for compatibility)
   ISTART =      0    job   : 0-new  1-cont  2-samecut
   ICHARG =      2    charge: 1-file 2-atom 10-const
   ISPIN  =      1    spin polarized calculation?
   LNONCOLLINEAR =      F non collinear calculations
   LSORBIT =      F    spin-orbit coupling
   INIWAV =      1    electr: 0-lowe 1-rand  2-diag
   LASPH  =      F    aspherical Exc in radial PAW
   METAGGA=      F    non-selfconsistent MetaGGA calc.

 Electronic Relaxation 1
   ENCUT  =  450.0 eV  33.07 Ry    5.75 a.u.   5.52  5.52 25.74*2*pi/ulx,y,z
   ENINI  =  450.0     initial cutoff
   ENAUG  =  345.3 eV  augmentation charge cutoff
   NELM   =     60;   NELMIN=  4; NELMDL=  0     # of ELM steps 
   EDIFF  = 0.1E-04   stopping-criterion for ELM
   LREAL  =      F    real-space projection
   NLSPLINE    = F    spline interpolate recip. space projectors
   LCOMPAT=      F    compatible to vasp.4.4
   GGA_COMPAT  = T    GGA compatible to vasp.4.4-vasp.4.6
   LMAXPAW     = -100 max onsite density
   LMAXMIX     =    2 max onsite mixed and CHGCAR
   VOSKOWN=      0    Vosko Wilk Nusair interpolation
   ROPT   =    0.00000   0.00000
 Ionic relaxation
   EDIFFG = 0.1E-03   stopping-criterion for IOM
   NSW    =      0    number of steps for IOM
   NBLOCK =      1;   KBLOCK =      1    inner block; outer block 
   IBRION =     -1    ionic relax: 0-MD 1-quasi-New 2-CG
   NFREE  =      0    steps in history (QN), initial steepest desc. (CG)
   ISIF   =      2    stress and relaxation
   IWAVPR =     10    prediction:  0-non 1-charg 2-wave 3-comb
   ISYM   =      2    0-nonsym 1-usesym 2-fastsym
   LCORR  =      T    Harris-Foulkes like correction to forces

   POTIM  = 0.5000    time-step for ionic-motion
   TEIN   =    0.0    initial temperature
   TEBEG  =    0.0;   TEEND  =   0.0 temperature during run
   SMASS  =  -3.00    Nose mass-parameter (am)
   estimated Nose-frequenzy (Omega)   =  0.10E-29 period in steps =****** mass=  -0.233E-27a.u.
   SCALEE = 1.0000    scale energy and forces
   NPACO  =    256;   APACO  = 16.0  distance and # of slots for P.C.
   PSTRESS=    0.0 pullay stress

  Mass of Ions in am
   POMASS =  95.94 32.07
  Ionic Valenz
   ZVAL   =   6.00  6.00
  Atomic Wigner-Seitz radii
   RWIGS  =  -1.00 -1.00
  virtual crystal weights 
   VCA    =   1.00  1.00
   NELECT =      36.0000    total number of electrons
   NUPDOWN=      -1.0000    fix difference up-down

 DOS related values:
   EMIN   =  10.00;   EMAX   =-10.00  energy-range for DOS
   EFERMI =   0.00
   ISMEAR =    -5;   SIGMA  =   0.20  broadening in eV -4-tet -1-fermi 0-gaus

 Electronic relaxation 2 (details)
   IALGO  =     68    algorithm
   LDIAG  =      T    sub-space diagonalisation (order eigenvalues)
   LSUBROT=      F    optimize rotation matrix (better conditioning)
   TURBO    =      0    0=normal 1=particle mesh
   IRESTART =      0    0=no restart 2=restart with 2 vectors
   NREBOOT  =      0    no. of reboots
   NMIN     =      0    reboot dimension
   EREF     =   0.00    reference energy to select bands
   IMIX   =      4    mixing-type and parameters
     AMIX     =   0.40;   BMIX     =  1.00
     AMIX_MAG =   1.60;   BMIX_MAG =  1.00
     AMIN     =   0.10
     WC   =   100.;   INIMIX=   1;  MIXPRE=   1;  MAXMIX= -45

 Intra band minimization:
   WEIMIN = 0.0000     energy-eigenvalue tresh-hold
   EBREAK =  0.11E-06  absolut break condition
   DEPER  =   0.30     relativ break condition  

   TIME   =   0.40     timestep for ELM

  volume/ion in A,a.u.               =      21.86       147.51
  Fermi-wavevector in a.u.,A,eV,Ry     =   1.063943  2.010561 15.401453  1.131975
  Thomas-Fermi vector in A             =   2.199445
 
 Write flags
   LWAVE        =      F    write WAVECAR
   LDOWNSAMPLE  =      F    k-point downsampling of WAVECAR
   LCHARG       =      T    write CHGCAR
   LVTOT        =      F    write LOCPOT, total local potential
   LVHAR        =      F    write LOCPOT, Hartree potential only
   LELF         =      F    write electronic localiz. function (ELF)
   LORBIT       =      0    0 simple, 1 ext, 2 COOP (PROOUT), +10 PAW based schemes


 Dipole corrections
   LMONO  =      F    monopole corrections only (constant potential shift)
   LDIPOL =      F    correct potential (dipole corrections)
   IDIPOL =      0    1-x, 2-y, 3-z, 4-all directions 
   EPSILON=  1.0000000 bulk dielectric constant

 Exchange correlation treatment:
   GGA     =    --    GGA type
   LEXCH   =     8    internal setting for exchange type
   VOSKOWN=      0    Vosko Wilk Nusair interpolation
   LHFCALC =     F    Hartree Fock is set to
   LHFONE  =     F    Hartree Fock one center treatment
   AEXX    =    0.0000 exact exchange contribution

 Linear response parameters
   LEPSILON=     F    determine dielectric tensor
   LRPA    =     F    only Hartree local field effects (RPA)
   LNABLA  =     F    use nabla operator in PAW spheres
   LVEL    =     F    velocity operator in full k-point grid
   LINTERFAST=   F  fast interpolation
   KINTER  =     0    interpolate to denser k-point grid
   CSHIFT  =0.1000    complex shift for real part using Kramers Kronig
   OMEGAMAX=  -1.0    maximum frequency
   DEG_THRESHOLD= 0.2000000E-02 threshold for treating states as degnerate
   RTIME   =   -0.100 relaxation time in fs
  (WPLASMAI=    0.000 imaginary part of plasma frequency in eV, 0.658/RTIME)
   DFIELD  = 0.0000000 0.0000000 0.0000000 field for delta impulse in time
 
 Orbital magnetization related:
   ORBITALMAG=     F  switch on orbital magnetization
   LCHIMAG   =     F  perturbation theory with respect to B field
   DQ        =  0.001000  dq finite difference perturbation B field
   LLRAUG    =     F  two centre corrections for induced B field



--------------------------------------------------------------------------------------------------------


 Static calculation
 charge density and potential will be updated during run
 non-spin polarized calculation
 RMM-DIIS sequential band-by-band and
  variant of blocked Davidson during initial phase
 perform sub-space diagonalisation
    before iterative eigenvector-optimisation
 modified Broyden-mixing scheme, WC =      100.0
 initial mixing is a Kerker type mixing with AMIX =  0.4000 and BMIX =      1.0000
 Hartree-type preconditioning will be used
 using additional bands            4
 reciprocal scheme for non local part
 use partial core corrections
 calculate Harris-corrections to forces 
   (improved forces if not selfconsistent)
 use gradient corrections 
 use of overlap-Matrix (Vanderbilt PP)
 Fermi weights with tetrahedron method with Bloechl corrections


--------------------------------------------------------------------------------------------------------


  energy-cutoff  :      450.00
  volume of cell :      131.15
      direct lattice vectors                 reciprocal lattice vectors
     3.190315730  0.000000000  0.000000000     0.313448600  0.180969634  0.000000000
    -1.595157865  2.762894468  0.000000000     0.000000000  0.361939267  0.000000000
     0.000000000  0.000000000 14.879004300     0.000000000  0.000000000  0.067208798

  length of vectors
     3.190315730  3.190315730 14.879004300     0.361939267  0.361939267  0.067208798


 
 k-points in units of 2pi/SCALE and weight: k-density: 6.0                          
   0.00000000  0.00000000  0.00000000       0.002
   0.02612072  0.01508080  0.00000000       0.014
   0.05224143  0.03016161  0.00000000       0.014
   0.07836215  0.04524241  0.00000000       0.014
   0.10448287  0.06032321  0.00000000       0.014
   0.13060358  0.07540401  0.00000000       0.014
   0.15672430  0.09048482  0.00000000       0.007
   0.02612072  0.04524241  0.00000000       0.014
   0.05224143  0.06032321  0.00000000       0.028
   0.07836215  0.07540401  0.00000000       0.028
   0.10448287  0.09048482  0.00000000       0.028
   0.13060358  0.10556562  0.00000000       0.028
   0.05224143  0.09048482  0.00000000       0.014
   0.07836215  0.10556562  0.00000000       0.028
   0.10448287  0.12064642  0.00000000       0.028
   0.13060358  0.13572723  0.00000000       0.014
   0.07836215  0.13572723  0.00000000       0.014
   0.10448287  0.15080803  0.00000000       0.028
   0.10448287  0.18096963  0.00000000       0.005
   0.00000000  0.00000000  0.02240293       0.005
   0.02612072  0.01508080  0.02240293       0.028
   0.05224143  0.03016161  0.02240293       0.028
   0.07836215  0.04524241  0.02240293       0.028
   0.10448287  0.06032321  0.02240293       0.028
   0.13060358  0.07540401  0.02240293       0.028
   0.15672430  0.09048482  0.02240293       0.014
   0.02612072  0.04524241  0.02240293       0.028
   0.05224143  0.06032321  0.02240293       0.056
   0.07836215  0.07540401  0.02240293       0.056
   0.10448287  0.09048482  0.02240293       0.056
   0.13060358  0.10556562  0.02240293       0.056
   0.05224143  0.09048482  0.02240293       0.028
   0.07836215  0.10556562  0.02240293       0.056
   0.10448287  0.12064642  0.02240293       0.056
   0.13060358  0.13572723  0.02240293       0.028
   0.07836215  0.13572723  0.02240293       0.028
   0.10448287  0.15080803  0.02240293       0.056
   0.10448287  0.18096963  0.02240293       0.009
 
 k-points in reciprocal lattice and weights: k-density: 6.0                          
   0.00000000  0.00000000  0.00000000       0.002
   0.08333333 -0.00000000  0.00000000       0.014
   0.16666667 -0.00000000  0.00000000       0.014
   0.25000000 -0.00000000  0.00000000       0.014
   0.33333333 -0.00000000  0.00000000       0.014
   0.41666667 -0.00000000  0.00000000       0.014
   0.50000000 -0.00000000  0.00000000       0.007
   0.08333333  0.08333333  0.00000000       0.014
   0.16666667  0.08333333  0.00000000       0.028
   0.25000000  0.08333333  0.00000000       0.028
   0.33333333  0.08333333  0.00000000       0.028
   0.41666667  0.08333333  0.00000000       0.028
   0.16666667  0.16666667  0.00000000       0.014
   0.25000000  0.16666667  0.00000000       0.028
   0.33333333  0.16666667  0.00000000       0.028
   0.41666667  0.16666667  0.00000000       0.014
   0.25000000  0.25000000  0.00000000       0.014
   0.33333333  0.25000000  0.00000000       0.028
   0.33333333  0.33333333  0.00000000       0.005
   0.00000000  0.00000000  0.33333333       0.005
   0.08333333 -0.00000000  0.33333333       0.028
   0.16666667 -0.00000000  0.33333333       0.028
   0.25000000 -0.00000000  0.33333333       0.028
   0.33333333 -0.00000000  0.33333333       0.028
   0.41666667 -0.00000000  0.33333333       0.028
   0.50000000 -0.00000000  0.33333333       0.014
   0.08333333  0.08333333  0.33333333       0.028
   0.16666667  0.08333333  0.33333333       0.056
   0.25000000  0.08333333  0.33333333       0.056
   0.33333333  0.08333333  0.33333333       0.056
   0.41666667  0.08333333  0.33333333       0.056
   0.16666667  0.16666667  0.33333333       0.028
   0.25000000  0.16666667  0.33333333       0.056
   0.33333333  0.16666667  0.33333333       0.056
   0.41666667  0.16666667  0.33333333       0.028
   0.25000000  0.25000000  0.33333333       0.028
   0.33333333  0.25000000  0.33333333       0.056
   0.33333333  0.33333333  0.33333333       0.009
 
 position of ions in fractional coordinates (direct lattice) 
   0.33333300  0.66666700  0.25000000
   0.66666700  0.33333300  0.75000000
   0.33333300  0.66666700  0.85517400
   0.66666700  0.33333300  0.14482600
   0.66666600  0.33333300  0.35517400
   0.33333400  0.66666700  0.64482600
 
 position of ions in cartesian coordinates  (Angst):
  -0.00000160  1.84193057  3.71975108
   1.59515946  0.92096390 11.15925323
  -0.00000160  1.84193057 12.72413762
   1.59515946  0.92096390  2.15486668
   1.59515627  0.92096390  5.28463547
   0.00000160  1.84193057  9.59436883
 


--------------------------------------------------------------------------------------------------------


 k-point  1 :   0.0000 0.0000 0.0000  plane waves:    2895
 k-point  2 :   0.0833-0.0000 0.0000  plane waves:    2895
 k-point  3 :   0.1667-0.0000 0.0000  plane waves:    2867
 k-point  4 :   0.2500-0.0000 0.0000  plane waves:    2848
 k-point  5 :   0.3333-0.0000 0.0000  plane waves:    2838
 k-point  6 :   0.4167-0.0000 0.0000  plane waves:    2820
 k-point  7 :   0.5000-0.0000 0.0000  plane waves:    2784
 k-point  8 :   0.0833 0.0833 0.0000  plane waves:    2889
 k-point  9 :   0.1667 0.0833 0.0000  plane waves:    2854
 k-point 10 :   0.2500 0.0833 0.0000  plane waves:    2847
 k-point 11 :   0.3333 0.0833 0.0000  plane waves:    2822
 k-point 12 :   0.4167 0.0833 0.0000  plane waves:    2816
 k-point 13 :   0.1667 0.1667 0.0000  plane waves:    2851
 k-point 14 :   0.2500 0.1667 0.0000  plane waves:    2849
 k-point 15 :   0.3333 0.1667 0.0000  plane waves:    2832
 k-point 16 :   0.4167 0.1667 0.0000  plane waves:    2834
 k-point 17 :   0.2500 0.2500 0.0000  plane waves:    2838
 k-point 18 :   0.3333 0.2500 0.0000  plane waves:    2840
 k-point 19 :   0.3333 0.3333 0.0000  plane waves:    2832
 k-point 20 :   0.0000 0.0000 0.3333  plane waves:    2890
 k-point 21 :   0.0833-0.0000 0.3333  plane waves:    2886
 k-point 22 :   0.1667-0.0000 0.3333  plane waves:    2875
 k-point 23 :   0.2500-0.0000 0.3333  plane waves:    2859
 k-point 24 :   0.3333-0.0000 0.3333  plane waves:    2836
 k-point 25 :   0.4167-0.0000 0.3333  plane waves:    2826
 k-point 26 :   0.5000-0.0000 0.3333  plane waves:    2814
 k-point 27 :   0.0833 0.0833 0.3333  plane waves:    2879
 k-point 28 :   0.1667 0.0833 0.3333  plane waves:    2852
 k-point 29 :   0.2500 0.0833 0.3333  plane waves:    2848
 k-point 30 :   0.3333 0.0833 0.3333  plane waves:    2831
 k-point 31 :   0.4167 0.0833 0.3333  plane waves:    2822
 k-point 32 :   0.1667 0.1667 0.3333  plane waves:    2853
 k-point 33 :   0.2500 0.1667 0.3333  plane waves:    2847
 k-point 34 :   0.3333 0.1667 0.3333  plane waves:    2828
 k-point 35 :   0.4167 0.1667 0.3333  plane waves:    2816
 k-point 36 :   0.2500 0.2500 0.3333  plane waves:    2831
 k-point 37 :   0.3333 0.2500 0.3333  plane waves:    2831
 k-point 38 :   0.3333 0.3333 0.3333  plane waves:    2856

 maximum and minimum number of plane-waves per node :      1453     1381

 maximum number of plane-waves:      2895
 maximum index in each direction: 
   IXMAX=    5   IYMAX=    5   IZMAX=   25
   IXMIN=   -6   IYMIN=   -5   IZMIN=  -26


 parallel 3D FFT for wavefunctions:
    minimum data exchange during FFTs selected (reduces bandwidth)
 parallel 3D FFT for charge:
    minimum data exchange during FFTs selected (reduces bandwidth)


 total amount of memory used by VASP MPI-rank0    61660. kBytes
=======================================================================

   base      :      30000. kBytes
   nonl-proj :      16052. kBytes
   fftplans  :       2162. kBytes
   grid      :       3449. kBytes
   one-center:         46. kBytes
   wavefun   :       9951. kBytes
 
     INWAV:  cpu time    0.0000: real time    0.0000
 Broyden mixing: mesh for mixing (old mesh)
   NGX = 11   NGY = 11   NGZ = 51
  (NGX  = 36   NGY  = 36   NGZ  =160)
  gives a total of   6171 points

 initial charge density was supplied:
 charge density of overlapping atoms calculated
 number of electron      36.0000000 magnetization 
 keeping initial charge density in first step


--------------------------------------------------------------------------------------------------------


 Maximum index for augmentation-charges         3021 (set IRDMAX)


--------------------------------------------------------------------------------------------------------


 First call to EWALD:  gamma=   0.349
 Maximum number of real-space cells 5x 5x 1
 Maximum number of reciprocal cells 2x 2x 7

    FEWALD:  cpu time    0.0010: real time    0.0015


--------------------------------------- Iteration      1(   1)  ---------------------------------------


    POTLOK:  cpu time    0.0310: real time    0.0795
    SETDIJ:  cpu time    0.0050: real time    0.0054
     EDDAV:  cpu time    0.8139: real time    0.8191
 BZINTS: Fermi energy: 14.533035; 36.000000 electrons
         Band energy: 164.827841;  BLOECHL correction: -0.278118
       DOS:  cpu time    0.0130: real time    0.0135
    --------------------------------------------
      LOOP:  cpu time    0.8629: real time    0.9175

 eigenvalue-minimisations  :  1672
 total energy-change (2. order) : 0.1980703E+03  (-0.1469614E+04)
 number of electron      36.0000000 magnetization 
 augmentation part       36.0000000 magnetization 

 Free energy of the ion-electron system (eV)
  ---------------------------------------------------
  alpha Z        PSCENC =        90.42577596
  Ewald energy   TEWEN  =     -1146.88905665
  -Hartree energ DENC   =      -535.10238363
  -exchange      EXHF   =         0.00000000
  -V(xc)+E(xc)   XCENC  =       -72.59368150
  PAW double counting   =       813.77302396     -658.68146406
  entropy T*S    EENTRO =         0.00000000
  eigenvalues    EBANDS =       164.82784122
  atomic energy  EATOM  =      1542.31022798
  Solvation  Ediel_sol  =         0.00000000
  ---------------------------------------------------
  free energy    TOTEN  =       198.07028330 eV

  energy without entropy =      198.07028330  energy(sigma->0) =      198.07028330


--------------------------------------------------------------------------------------------------------




--------------------------------------- Iteration      1(   2)  ---------------------------------------


     EDDAV:  cpu time    1.0258: real time    1.0293
 BZINTS: Fermi energy:  5.821481; 36.000000 electrons
         Band energy: -61.918511;  BLOECHL correction:  0.000000
       DOS:  cpu time    0.0060: real time    0.0061
    --------------------------------------------
      LOOP:  cpu time    1.0318: real time    1.0353

 eigenvalue-minimisations  :  2270
 total energy-change (2. order) :-0.2267464E+03  (-0.2199169E+03)
 number of electron      36.0000000 magnetization 
 augmentation part       36.0000000 magnetization 

 Free energy of the ion-electron system (eV)
  ---------------------------------------------------
  alpha Z        PSCENC =        90.42577596
  Ewald energy   TEWEN  =     -1146.88905665
  -Hartree energ DENC   =      -535.10238363
  -exchange      EXHF   =         0.00000000
  -V(xc)+E(xc)   XCENC  =       -72.59368150
  PAW double counting   =       813.77302396     -658.68146406
  entropy T*S    EENTRO =         0.00000000
  eigenvalues    EBANDS =       -61.91851108
  atomic energy  EATOM  =      1542.31022798
  Solvation  Ediel_sol  =         0.00000000
  ---------------------------------------------------
  free energy    TOTEN  =       -28.67606900 eV

  energy without entropy =      -28.67606900  energy(sigma->0) =      -28.67606900


--------------------------------------------------------------------------------------------------------




--------------------------------------- Iteration      1(   3)  ---------------------------------------


     EDDAV:  cpu time    1.0148: real time    1.0185
 BZINTS: Fermi energy:  3.885176; 36.000000 electrons
         Band energy: -79.558265;  BLOECHL correction:  0.000000
       DOS:  cpu time    0.0020: real time    0.0031
    --------------------------------------------
      LOOP:  cpu time    1.0168: real time    1.0215

 eigenvalue-minimisations  :  2238
 total energy-change (2. order) :-0.1763975E+02  (-0.1755736E+02)
 number of electron      36.0000000 magnetization 
 augmentation part       36.0000000 magnetization 

 Free energy of the ion-electron system (eV)
  ---------------------------------------------------
  alpha Z        PSCENC =        90.42577596
  Ewald energy   TEWEN  =     -1146.88905665
  -Hartree energ DENC   =      -535.10238363
  -exchange      EXHF   =         0.00000000
  -V(xc)+E(xc)   XCENC  =       -72.59368150
  PAW double counting   =       813.77302396     -658.68146406
  entropy T*S    EENTRO =         0.00000000
  eigenvalues    EBANDS =       -79.55826522
  atomic energy  EATOM  =      1542.31022798
  Solvation  Ediel_sol  =         0.00000000
  ---------------------------------------------------
  free energy    TOTEN  =       -46.31582314 eV

  energy without entropy =      -46.31582314  energy(sigma->0) =      -46.31582314


--------------------------------------------------------------------------------------------------------




--------------------------------------- Iteration      1(   4)  ---------------------------------------


     EDDAV:  cpu time    1.0408: real time    1.0427
 BZINTS: Fermi energy:  3.899052; 36.000000 electrons
         Band energy: -80.050187;  BLOECHL correction:  0.000000
       DOS:  cpu time    0.0030: real time    0.0030
    --------------------------------------------
      LOOP:  cpu time    1.0438: real time    1.0457

 eigenvalue-minimisations  :  2324
 total energy-change (2. order) :-0.4919221E+00  (-0.4910937E+00)
 number of electron      36.0000000 magnetization 
 augmentation part       36.0000000 magnetization 

 Free energy of the ion-electron system (eV)
  ---------------------------------------------------
  alpha Z        PSCENC =        90.42577596
  Ewald energy   TEWEN  =     -1146.88905665
  -Hartree energ DENC   =      -535.10238363
  -exchange      EXHF   =         0.00000000
  -V(xc)+E(xc)   XCENC  =       -72.59368150
  PAW double counting   =       813.77302396     -658.68146406
  entropy T*S    EENTRO =         0.00000000
  eigenvalues    EBANDS =       -80.05018736
  atomic energy  EATOM  =      1542.31022798
  Solvation  Ediel_sol  =         0.00000000
  ---------------------------------------------------
  free energy    TOTEN  =       -46.80774528 eV

  energy without entropy =      -46.80774528  energy(sigma->0) =      -46.80774528


--------------------------------------------------------------------------------------------------------




--------------------------------------- Iteration      1(   5)  ---------------------------------------


     EDDAV:  cpu time    1.0158: real time    1.0192
 BZINTS: Fermi energy:  3.904366; 36.000000 electrons
         Band energy: -80.062808;  BLOECHL correction:  0.000000
       DOS:  cpu time    0.0020: real time    0.0030
    CHARGE:  cpu time    0.0650: real time    0.0649
    MIXING:  cpu time    0.0020: real time    0.0012
    --------------------------------------------
      LOOP:  cpu time    1.0848: real time    1.0884

 eigenvalue-minimisations  :  2256
 total energy-change (2. order) :-0.1262016E-01  (-0.1261551E-01)
 number of electron      36.0000009 magnetization 
 augmentation part       -1.8906269 magnetization 

 Broyden mixing:
  rms(total) = 0.97340E+00    rms(broyden)= 0.97339E+00
  rms(prec ) = 0.12180E+01
  weight for this iteration     100.00

 Free energy of the ion-electron system (eV)
  ---------------------------------------------------
  alpha Z        PSCENC =        90.42577596
  Ewald energy   TEWEN  =     -1146.88905665
  -Hartree energ DENC   =      -535.10238363
  -exchange      EXHF   =         0.00000000
  -V(xc)+E(xc)   XCENC  =       -72.59368150
  PAW double counting   =       813.77302396     -658.68146406
  entropy T*S    EENTRO =         0.00000000
  eigenvalues    EBANDS =       -80.06280752
  atomic energy  EATOM  =      1542.31022798
  Solvation  Ediel_sol  =         0.00000000
  ---------------------------------------------------
  free energy    TOTEN  =       -46.82036545 eV

  energy without entropy =      -46.82036545  energy(sigma->0) =      -46.82036545


--------------------------------------------------------------------------------------------------------




--------------------------------------- Iteration      1(   6)  ---------------------------------------


    POTLOK:  cpu time    0.0280: real time    0.0308
    SETDIJ:  cpu time    0.0040: real time    0.0043
    EDDIAG:  cpu time    0.1700: real time    0.1707
  RMM-DIIS:  cpu time    0.6699: real time    0.6688
    ORTHCH:  cpu time    0.0180: real time    0.0192
 BZINTS: Fermi energy:  2.892639; 36.000000 electrons
         Band energy: -79.160263;  BLOECHL correction:  0.000000
       DOS:  cpu time    0.0030: real time    0.0031
    CHARGE:  cpu time    0.0640: real time    0.0638
    MIXING:  cpu time    0.0010: real time    0.0009
    --------------------------------------------
      LOOP:  cpu time    0.9579: real time    0.9616

 eigenvalue-minimisations  :  1863
 total energy-change (2. order) : 0.2387867E+01  (-0.2432075E+01)
 number of electron      36.0000006 magnetization 
 augmentation part       -0.8607224 magnetization 

 Broyden mixing:
  rms(total) = 0.33711E+00    rms(broyden)= 0.33711E+00
  rms(prec ) = 0.49345E+00
  weight for this iteration     100.00

 eigenvalues of (default mixing * dielectric matrix)
  average eigenvalue GAMMA=   0.8738
  0.8738

 Free energy of the ion-electron system (eV)
  ---------------------------------------------------
  alpha Z        PSCENC =        90.42577596
  Ewald energy   TEWEN  =     -1146.88905665
  -Hartree energ DENC   =      -533.60667233
  -exchange      EXHF   =         0.00000000
  -V(xc)+E(xc)   XCENC  =       -70.82505594
  PAW double counting   =       847.85040434     -694.53785943
  entropy T*S    EENTRO =         0.00000000
  eigenvalues    EBANDS =       -79.16026254
  atomic energy  EATOM  =      1542.31022798
  Solvation  Ediel_sol  =         0.00000000
  ---------------------------------------------------
  free energy    TOTEN  =       -44.43249859 eV

  energy without entropy =      -44.43249859  energy(sigma->0) =      -44.43249859


--------------------------------------------------------------------------------------------------------




--------------------------------------- Iteration      1(   7)  ---------------------------------------


    POTLOK:  cpu time    0.0260: real time    0.0271
    SETDIJ:  cpu time    0.0050: real time    0.0043
    EDDIAG:  cpu time    0.1700: real time    0.1706
  RMM-DIIS:  cpu time    0.6789: real time    0.6779
    ORTHCH:  cpu time    0.0190: real time    0.0191
 BZINTS: Fermi energy:  3.200726; 36.000000 electrons
         Band energy: -73.414545;  BLOECHL correction:  0.000000
       DOS:  cpu time    0.0030: real time    0.0030
    CHARGE:  cpu time    0.0640: real time    0.0639
    MIXING:  cpu time    0.0010: real time    0.0009
    --------------------------------------------
      LOOP:  cpu time    0.9669: real time    0.9667

 eigenvalue-minimisations  :  1862
 total energy-change (2. order) : 0.7368150E+00  (-0.1962968E+00)
 number of electron      36.0000007 magnetization 
 augmentation part       -1.1138632 magnetization 

 Broyden mixing:
  rms(total) = 0.17922E+00    rms(broyden)= 0.17922E+00
  rms(prec ) = 0.21386E+00
  weight for this iteration     100.00

 eigenvalues of (default mixing * dielectric matrix)
  average eigenvalue GAMMA=   1.4084
  0.7573  2.0594

 Free energy of the ion-electron system (eV)
  ---------------------------------------------------
  alpha Z        PSCENC =        90.42577596
  Ewald energy   TEWEN  =     -1146.88905665
  -Hartree energ DENC   =      -537.92757416
  -exchange      EXHF   =         0.00000000
  -V(xc)+E(xc)   XCENC  =       -71.01722580
  PAW double counting   =       881.21063526     -728.39392113
  entropy T*S    EENTRO =         0.00000000
  eigenvalues    EBANDS =       -73.41454509
  atomic energy  EATOM  =      1542.31022798
  Solvation  Ediel_sol  =         0.00000000
  ---------------------------------------------------
  free energy    TOTEN  =       -43.69568363 eV

  energy without entropy =      -43.69568363  energy(sigma->0) =      -43.69568363


--------------------------------------------------------------------------------------------------------




--------------------------------------- Iteration      1(   8)  ---------------------------------------


    POTLOK:  cpu time    0.0270: real time    0.0300
    SETDIJ:  cpu time    0.0050: real time    0.0044
    EDDIAG:  cpu time    0.1710: real time    0.1713
  RMM-DIIS:  cpu time    0.6949: real time    0.6950
    ORTHCH:  cpu time    0.0190: real time    0.0191
 BZINTS: Fermi energy:  3.368333; 36.000000 electrons
         Band energy: -68.479752;  BLOECHL correction:  0.000000
       DOS:  cpu time    0.0030: real time    0.0030
    CHARGE:  cpu time    0.0630: real time    0.0637
    MIXING:  cpu time    0.0020: real time    0.0016
    --------------------------------------------
      LOOP:  cpu time    0.9849: real time    0.9882

 eigenvalue-minimisations  :  1922
 total energy-change (2. order) : 0.6544666E-01  (-0.8766471E-01)
 number of electron      36.0000007 magnetization 
 augmentation part       -1.1679916 magnetization 

 Broyden mixing:
  rms(total) = 0.81600E-01    rms(broyden)= 0.81599E-01
  rms(prec ) = 0.10878E+00
  weight for this iteration     100.00

 eigenvalues of (default mixing * dielectric matrix)
  average eigenvalue GAMMA=   1.4741
  2.1162  1.4900  0.8162

 Free energy of the ion-electron system (eV)
  ---------------------------------------------------
  alpha Z        PSCENC =        90.42577596
  Ewald energy   TEWEN  =     -1146.88905665
  -Hartree energ DENC   =      -542.19538507
  -exchange      EXHF   =         0.00000000
  -V(xc)+E(xc)   XCENC  =       -70.63061049
  PAW double counting   =       931.73160865     -779.90304558
  entropy T*S    EENTRO =         0.00000000
  eigenvalues    EBANDS =       -68.47975177
  atomic energy  EATOM  =      1542.31022798
  Solvation  Ediel_sol  =         0.00000000
  ---------------------------------------------------
  free energy    TOTEN  =       -43.63023696 eV

  energy without entropy =      -43.63023696  energy(sigma->0) =      -43.63023696


--------------------------------------------------------------------------------------------------------




--------------------------------------- Iteration      1(   9)  ---------------------------------------


    POTLOK:  cpu time    0.0270: real time    0.0272
    SETDIJ:  cpu time    0.0050: real time    0.0043
    EDDIAG:  cpu time    0.1690: real time    0.1698
  RMM-DIIS:  cpu time    0.7199: real time    0.7195
    ORTHCH:  cpu time    0.0190: real time    0.0191
 BZINTS: Fermi energy:  3.237516; 36.000000 electrons
         Band energy: -68.883813;  BLOECHL correction:  0.000000
       DOS:  cpu time    0.0030: real time    0.0031
    CHARGE:  cpu time    0.0640: real time    0.0639
    MIXING:  cpu time    0.0010: real time    0.0010
    --------------------------------------------
      LOOP:  cpu time    1.0078: real time    1.0078

 eigenvalue-minimisations  :  1990
 total energy-change (2. order) : 0.1126804E-01  (-0.2624853E-01)
 number of electron      36.0000007 magnetization 
 augmentation part       -1.0495912 magnetization 

 Broyden mixing:
  rms(total) = 0.52699E-01    rms(broyden)= 0.52698E-01
  rms(prec ) = 0.73124E-01
  weight for this iteration     100.00

 eigenvalues of (default mixing * dielectric matrix)
  average eigenvalue GAMMA=   1.5273
  2.1524  2.1524  0.9022  0.9022

 Free energy of the ion-electron system (eV)
  ---------------------------------------------------
  alpha Z        PSCENC =        90.42577596
  Ewald energy   TEWEN  =     -1146.88905665
  -Hartree energ DENC   =      -541.85982231
  -exchange      EXHF   =         0.00000000
  -V(xc)+E(xc)   XCENC  =       -70.38125508
  PAW double counting   =       938.44003977     -786.78106558
  entropy T*S    EENTRO =         0.00000000
  eigenvalues    EBANDS =       -68.88381302
  atomic energy  EATOM  =      1542.31022798
  Solvation  Ediel_sol  =         0.00000000
  ---------------------------------------------------
  free energy    TOTEN  =       -43.61896893 eV

  energy without entropy =      -43.61896893  energy(sigma->0) =      -43.61896893


--------------------------------------------------------------------------------------------------------




--------------------------------------- Iteration      1(  10)  ---------------------------------------


    POTLOK:  cpu time    0.0280: real time    0.0297
    SETDIJ:  cpu time    0.0040: real time    0.0043
    EDDIAG:  cpu time    0.1710: real time    0.1711
  RMM-DIIS:  cpu time    0.7419: real time    0.7412
    ORTHCH:  cpu time    0.0180: real time    0.0191
 BZINTS: Fermi energy:  3.362747; 36.000000 electrons
         Band energy: -68.032281;  BLOECHL correction:  0.000000
       DOS:  cpu time    0.0030: real time    0.0030
    CHARGE:  cpu time    0.0640: real time    0.0641
    MIXING:  cpu time    0.0020: real time    0.0011
    --------------------------------------------
      LOOP:  cpu time    1.0318: real time    1.0335

 eigenvalue-minimisations  :  2010
 total energy-change (2. order) : 0.1350696E-01  (-0.5426028E-02)
 number of electron      36.0000007 magnetization 
 augmentation part       -1.1046739 magnetization 

 Broyden mixing:
  rms(total) = 0.68777E-02    rms(broyden)= 0.68773E-02
  rms(prec ) = 0.87535E-02
  weight for this iteration     100.00

 eigenvalues of (default mixing * dielectric matrix)
  average eigenvalue GAMMA=   1.4330
  2.4490  1.5855  0.8887  0.8887  1.3535

 Free energy of the ion-electron system (eV)
  ---------------------------------------------------
  alpha Z        PSCENC =        90.42577596
  Ewald energy   TEWEN  =     -1146.88905665
  -Hartree energ DENC   =      -542.60899929
  -exchange      EXHF   =         0.00000000
  -V(xc)+E(xc)   XCENC  =       -70.42537603
  PAW double counting   =       944.34171199     -792.72746524
  entropy T*S    EENTRO =         0.00000000
  eigenvalues    EBANDS =       -68.03228070
  atomic energy  EATOM  =      1542.31022798
  Solvation  Ediel_sol  =         0.00000000
  ---------------------------------------------------
  free energy    TOTEN  =       -43.60546197 eV

  energy without entropy =      -43.60546197  energy(sigma->0) =      -43.60546197


--------------------------------------------------------------------------------------------------------




--------------------------------------- Iteration      1(  11)  ---------------------------------------


    POTLOK:  cpu time    0.0270: real time    0.0305
    SETDIJ:  cpu time    0.0050: real time    0.0044
    EDDIAG:  cpu time    0.1710: real time    0.1715
  RMM-DIIS:  cpu time    0.7799: real time    0.7793
    ORTHCH:  cpu time    0.0190: real time    0.0192
 BZINTS: Fermi energy:  3.298915; 36.000000 electrons
         Band energy: -67.888430;  BLOECHL correction:  0.000000
       DOS:  cpu time    0.0030: real time    0.0027
    CHARGE:  cpu time    0.0640: real time    0.0646
    MIXING:  cpu time    0.0020: real time    0.0011
    --------------------------------------------
      LOOP:  cpu time    1.0708: real time    1.0732

 eigenvalue-minimisations  :  2144
 total energy-change (2. order) :-0.1362491E-03  (-0.3073120E-03)
 number of electron      36.0000007 magnetization 
 augmentation part       -1.0999654 magnetization 

 Broyden mixing:
  rms(total) = 0.29672E-02    rms(broyden)= 0.29672E-02
  rms(prec ) = 0.35996E-02
  weight for this iteration     100.00

 eigenvalues of (default mixing * dielectric matrix)
  average eigenvalue GAMMA=   1.6659
  2.8491  2.5904  1.8030  0.8973  0.8973  0.9585

 Free energy of the ion-electron system (eV)
  ---------------------------------------------------
  alpha Z        PSCENC =        90.42577596
  Ewald energy   TEWEN  =     -1146.88905665
  -Hartree energ DENC   =      -542.76869183
  -exchange      EXHF   =         0.00000000
  -V(xc)+E(xc)   XCENC  =       -70.40136505
  PAW double counting   =       944.69673951     -793.09079783
  entropy T*S    EENTRO =         0.00000000
  eigenvalues    EBANDS =       -67.88843031
  atomic energy  EATOM  =      1542.31022798
  Solvation  Ediel_sol  =         0.00000000
  ---------------------------------------------------
  free energy    TOTEN  =       -43.60559822 eV

  energy without entropy =      -43.60559822  energy(sigma->0) =      -43.60559822


--------------------------------------------------------------------------------------------------------




--------------------------------------- Iteration      1(  12)  ---------------------------------------


    POTLOK:  cpu time    0.0270: real time    0.0302
    SETDIJ:  cpu time    0.0040: real time    0.0044
    EDDIAG:  cpu time    0.1740: real time    0.1741
  RMM-DIIS:  cpu time    0.7749: real time    0.7737
    ORTHCH:  cpu time    0.0180: real time    0.0191
 BZINTS: Fermi energy:  3.303187; 36.000000 electrons
         Band energy: -67.712778;  BLOECHL correction:  0.000000
       DOS:  cpu time    0.0030: real time    0.0027
    CHARGE:  cpu time    0.0640: real time    0.0644
    MIXING:  cpu time    0.0020: real time    0.0011
    --------------------------------------------
      LOOP:  cpu time    1.0668: real time    1.0698

 eigenvalue-minimisations  :  2108
 total energy-change (2. order) :-0.1329054E-03  (-0.4649990E-04)
 number of electron      36.0000007 magnetization 
 augmentation part       -1.0989273 magnetization 

 Broyden mixing:
  rms(total) = 0.15525E-02    rms(broyden)= 0.15525E-02
  rms(prec ) = 0.19004E-02
  weight for this iteration     100.00

 eigenvalues of (default mixing * dielectric matrix)
  average eigenvalue GAMMA=   1.6014
  2.9512  2.3517  1.5947  1.5947  0.8957  0.8957  0.9265

 Free energy of the ion-electron system (eV)
  ---------------------------------------------------
  alpha Z        PSCENC =        90.42577596
  Ewald energy   TEWEN  =     -1146.88905665
  -Hartree energ DENC   =      -542.96799086
  -exchange      EXHF   =         0.00000000
  -V(xc)+E(xc)   XCENC  =       -70.39224736
  PAW double counting   =       944.37107565     -792.75073768
  entropy T*S    EENTRO =         0.00000000
  eigenvalues    EBANDS =       -67.71277817
  atomic energy  EATOM  =      1542.31022798
  Solvation  Ediel_sol  =         0.00000000
  ---------------------------------------------------
  free energy    TOTEN  =       -43.60573112 eV

  energy without entropy =      -43.60573112  energy(sigma->0) =      -43.60573112


--------------------------------------------------------------------------------------------------------




--------------------------------------- Iteration      1(  13)  ---------------------------------------


    POTLOK:  cpu time    0.0270: real time    0.0299
    SETDIJ:  cpu time    0.0050: real time    0.0045
    EDDIAG:  cpu time    0.1710: real time    0.1718
  RMM-DIIS:  cpu time    0.7859: real time    0.7846
    ORTHCH:  cpu time    0.0180: real time    0.0191
 BZINTS: Fermi energy:  3.304711; 36.000000 electrons
         Band energy: -67.714750;  BLOECHL correction:  0.000000
       DOS:  cpu time    0.0030: real time    0.0027
    CHARGE:  cpu time    0.0640: real time    0.0644
    MIXING:  cpu time    0.0020: real time    0.0012
    --------------------------------------------
      LOOP:  cpu time    1.0758: real time    1.0780

 eigenvalue-minimisations  :  2181
 total energy-change (2. order) :-0.1075319E-04  (-0.2301795E-04)
 number of electron      36.0000007 magnetization 
 augmentation part       -1.1015996 magnetization 

 Broyden mixing:
  rms(total) = 0.16424E-02    rms(broyden)= 0.16424E-02
  rms(prec ) = 0.21830E-02
  weight for this iteration     100.00

 eigenvalues of (default mixing * dielectric matrix)
  average eigenvalue GAMMA=   1.7327
  3.2854  2.5889  2.5889  1.6276  1.1255  0.8849  0.8849  0.8758

 Free energy of the ion-electron system (eV)
  ---------------------------------------------------
  alpha Z        PSCENC =        90.42577596
  Ewald energy   TEWEN  =     -1146.88905665
  -Hartree energ DENC   =      -542.96144523
  -exchange      EXHF   =         0.00000000
  -V(xc)+E(xc)   XCENC  =       -70.39482856
  PAW double counting   =       944.53110549     -792.91277087
  entropy T*S    EENTRO =         0.00000000
  eigenvalues    EBANDS =       -67.71475000
  atomic energy  EATOM  =      1542.31022798
  Solvation  Ediel_sol  =         0.00000000
  ---------------------------------------------------
  free energy    TOTEN  =       -43.60574188 eV

  energy without entropy =      -43.60574188  energy(sigma->0) =      -43.60574188


--------------------------------------------------------------------------------------------------------




--------------------------------------- Iteration      1(  14)  ---------------------------------------


    POTLOK:  cpu time    0.0270: real time    0.0297
    SETDIJ:  cpu time    0.0050: real time    0.0044
    EDDIAG:  cpu time    0.1710: real time    0.1716
  RMM-DIIS:  cpu time    0.5869: real time    0.5868
    ORTHCH:  cpu time    0.0190: real time    0.0192
 BZINTS: Fermi energy:  3.303336; 36.000000 electrons
         Band energy: -67.729619;  BLOECHL correction:  0.000000
       DOS:  cpu time    0.0030: real time    0.0027
    --------------------------------------------
      LOOP:  cpu time    0.8119: real time    0.8144

 eigenvalue-minimisations  :  1565
 total energy-change (2. order) : 0.9943147E-05  (-0.4840156E-05)
 number of electron      36.0000007 magnetization 
 augmentation part       -1.1015996 magnetization 

 Free energy of the ion-electron system (eV)
  ---------------------------------------------------
  alpha Z        PSCENC =        90.42577596
  Ewald energy   TEWEN  =     -1146.88905665
  -Hartree energ DENC   =      -542.94853790
  -exchange      EXHF   =         0.00000000
  -V(xc)+E(xc)   XCENC  =       -70.39259167
  PAW double counting   =       944.38100939     -792.76294033
  entropy T*S    EENTRO =         0.00000000
  eigenvalues    EBANDS =       -67.72961871
  atomic energy  EATOM  =      1542.31022798
  Solvation  Ediel_sol  =         0.00000000
  ---------------------------------------------------
  free energy    TOTEN  =       -43.60573193 eV

  energy without entropy =      -43.60573193  energy(sigma->0) =      -43.60573193


--------------------------------------------------------------------------------------------------------




 average (electrostatic) potential at core
  the test charge radii are     1.2296  0.9698
  (the norm of the test charge is              1.0000)
       1 -40.3320       2 -40.3320       3 -88.1709       4 -88.1709       5 -88.1709
       6 -88.1709
 
 
 
 E-fermi :   3.3033     XC(G=0):  -9.3248     alpha+bet : -9.6368


 k-point     1 :       0.0000    0.0000    0.0000
  band No.  band energies     occupation 
      1     -10.9299      2.00000
      2     -10.9109      2.00000
      3      -9.7294      2.00000
      4      -9.6954      2.00000
      5      -2.5233      2.00000
      6      -2.3618      2.00000
      7       0.5199      2.00000
      8       0.5199      2.00000
      9       0.5205      2.00000
     10       0.5205      2.00000
     11       1.1061      2.00000
     12       1.6249      2.00000
     13       1.6250      2.00000
     14       1.6268      2.00000
     15       1.6269      2.00000
     16       1.6746      2.00000
     17       2.9227      2.00000
     18       3.2986      2.00000
     19       5.8749      0.00000
     20       5.9127      0.00000
     21       6.0169      0.00000
     22       6.0849      0.00000

 k-point     2 :       0.0833   -0.0000    0.0000
  band No.  band energies     occupation 
      1     -10.8332      2.00000
      2     -10.8143      2.00000
      3      -9.6826      2.00000
      4      -9.6498      2.00000
      5      -2.4090      2.00000
      6      -2.2482      2.00000
      7       0.2967      2.00000
      8       0.2978      2.00000
      9       0.6263      2.00000
     10       0.6271      2.00000
     11       0.7399      2.00000
     12       1.0121      2.00000
     13       1.4636      2.00000
     14       1.4659      2.00000
     15       1.8497      2.00000
     16       2.1173      2.00000
     17       2.8971      2.00000
     18       3.2110      2.00000
     19       5.7385      0.00000
     20       5.7851      0.00000
     21       5.8089      0.00000
     22       5.9148      0.00000

 k-point     3 :       0.1667   -0.0000    0.0000
  band No.  band energies     occupation 
      1     -10.5570      2.00000
      2     -10.5388      2.00000
      3      -9.5494      2.00000
      4      -9.5199      2.00000
      5      -2.1184      2.00000
      6      -1.9646      2.00000
      7      -0.2228      2.00000
      8      -0.2155      2.00000
      9       0.1577      2.00000
     10       0.3287      2.00000
     11       0.9230      2.00000
     12       0.9247      2.00000
     13       1.0823      2.00000
     14       1.0852      2.00000
     15       1.9243      2.00000
     16       2.1955      2.00000
     17       2.7361      2.00000
     18       2.8958      2.00000
     19       5.2867      0.00000
     20       5.5518      0.00000
     21       5.7058      0.00000
     22       5.7176      0.00000

 k-point     4 :       0.2500   -0.0000    0.0000
  band No.  band energies     occupation 
      1     -10.1458      2.00000
      2     -10.1291      2.00000
      3      -9.3533      2.00000
      4      -9.3290      2.00000
      5      -1.8875      2.00000
      6      -1.7766      2.00000
      7      -0.6913      2.00000
      8      -0.6478      2.00000
      9      -0.4610      2.00000
     10      -0.3595      2.00000
     11       0.6534      2.00000
     12       0.6569      2.00000
     13       1.3400      2.00000
     14       1.3435      2.00000
     15       1.7042      2.00000
     16       1.9131      2.00000
     17       2.3701      2.00000
     18       2.4186      2.00000
     19       5.1190      0.00000
     20       5.4391      0.00000
     21       5.4435      0.00000
     22       5.4560      0.00000

 k-point     5 :       0.3333   -0.0000    0.0000
  band No.  band energies     occupation 
      1      -9.6816      2.00000
      2      -9.6678      2.00000
      3      -9.1369      2.00000
      4      -9.1191      2.00000
      5      -2.0934      2.00000
      6      -2.0463      2.00000
      7      -1.0503      2.00000
      8      -0.9930      2.00000
      9      -0.8124      2.00000
     10      -0.7266      2.00000
     11       0.2916      2.00000
     12       0.2954      2.00000
     13       1.4371      2.00000
     14       1.5784      2.00000
     15       1.7593      2.00000
     16       1.7660      2.00000
     17       2.1300      2.00000
     18       2.1755      2.00000
     19       5.2820      0.00000
     20       5.2938      0.00000
     21       5.3035      0.00000
     22       5.5437      0.00000

 k-point     6 :       0.4167   -0.0000    0.0000
  band No.  band energies     occupation 
      1      -9.2936      2.00000
      2      -9.2840      2.00000
      3      -8.9616      2.00000
      4      -8.9508      2.00000
      5      -2.4560      2.00000
      6      -2.4265      2.00000
      7      -1.4892      2.00000
      8      -1.4562      2.00000
      9      -0.8998      2.00000
     10      -0.8194      2.00000
     11       0.0563      2.00000
     12       0.0604      2.00000
     13       1.2808      2.00000
     14       1.3545      2.00000
     15       2.0528      2.00000
     16       2.0631      2.00000
     17       2.2944      2.00000
     18       2.3402      2.00000
     19       5.2639      0.00000
     20       5.2703      0.00000
     21       5.6070      0.00000
     22       5.7282      0.00000

 k-point     7 :       0.5000   -0.0000    0.0000
  band No.  band energies     occupation 
      1      -9.1373      2.00000
      2      -9.1308      2.00000
      3      -8.8925      2.00000
      4      -8.8860      2.00000
      5      -2.6135      2.00000
      6      -2.5865      2.00000
      7      -1.6526      2.00000
      8      -1.6281      2.00000
      9      -0.9680      2.00000
     10      -0.8921      2.00000
     11      -0.0248      2.00000
     12      -0.0206      2.00000
     13       1.2469      2.00000
     14       1.2664      2.00000
     15       2.1533      2.00000
     16       2.1654      2.00000
     17       2.4775      2.00000
     18       2.4813      2.00000
     19       5.2845      0.00000
     20       5.2883      0.00000
     21       5.7752      0.00000
     22       5.8305      0.00000

 k-point     8 :       0.0833    0.0833    0.0000
  band No.  band energies     occupation 
      1     -10.6466      2.00000
      2     -10.6282      2.00000
      3      -9.5925      2.00000
      4      -9.5618      2.00000
      5      -2.2034      2.00000
      6      -2.0460      2.00000
      7      -0.0659      2.00000
      8      -0.0645      2.00000
      9       0.3546      2.00000
     10       0.5613      2.00000
     11       0.8197      2.00000
     12       0.8208      2.00000
     13       1.0868      2.00000
     14       1.0940      2.00000
     15       2.0281      2.00000
     16       2.2955      2.00000
     17       2.8039      2.00000
     18       3.0080      2.00000
     19       5.4014      0.00000
     20       5.5721      0.00000
     21       5.6656      0.00000
     22       5.7667      0.00000

 k-point     9 :       0.1667    0.0833    0.0000
  band No.  band energies     occupation 
      1     -10.3020      2.00000
      2     -10.2846      2.00000
      3      -9.4268      2.00000
      4      -9.4004      2.00000
      5      -1.9153      2.00000
      6      -1.7788      2.00000
      7      -0.5413      2.00000
      8      -0.5236      2.00000
      9      -0.1444      2.00000
     10      -0.0155      2.00000
     11       0.5411      2.00000
     12       0.5668      2.00000
     13       1.1289      2.00000
     14       1.1310      2.00000
     15       2.0194      2.00000
     16       2.2235      2.00000
     17       2.5290      2.00000
     18       2.6004      2.00000
     19       5.0715      0.00000
     20       5.3583      0.00000
     21       5.5809      0.00000
     22       5.6316      0.00000

 k-point    10 :       0.2500    0.0833    0.0000
  band No.  band energies     occupation 
      1      -9.8608      2.00000
      2      -9.8456      2.00000
      3      -9.2175      2.00000
      4      -9.1969      2.00000
      5      -1.9035      2.00000
      6      -1.8337      2.00000
      7      -0.7612      2.00000
      8      -0.7550      2.00000
      9      -0.7011      2.00000
     10      -0.6846      2.00000
     11       0.1748      2.00000
     12       0.2186      2.00000
     13       1.3796      2.00000
     14       1.3818      2.00000
     15       1.7592      2.00000
     16       1.8897      2.00000
     17       2.2600      2.00000
     18       2.2831      2.00000
     19       5.0284      0.00000
     20       5.2304      0.00000
     21       5.4685      0.00000
     22       5.5869      0.00000

 k-point    11 :       0.3333    0.0833    0.0000
  band No.  band energies     occupation 
      1      -9.4269      2.00000
      2      -9.4154      2.00000
      3      -9.0162      2.00000
      4      -9.0024      2.00000
      5      -2.2225      2.00000
      6      -2.1882      2.00000
      7      -1.3382      2.00000
      8      -1.3088      2.00000
      9      -0.7957      2.00000
     10      -0.7150      2.00000
     11       0.0117      2.00000
     12       0.0452      2.00000
     13       1.4588      2.00000
     14       1.4990      2.00000
     15       1.5114      2.00000
     16       1.5346      2.00000
     17       2.3660      2.00000
     18       2.3860      2.00000
     19       5.1914      0.00000
     20       5.2961      0.00000
     21       5.5513      0.00000
     22       5.6449      0.00000

 k-point    12 :       0.4167    0.0833    0.0000
  band No.  band energies     occupation 
      1      -9.1453      2.00000
      2      -9.1381      2.00000
      3      -8.8886      2.00000
      4      -8.8811      2.00000
      5      -2.4768      2.00000
      6      -2.4499      2.00000
      7      -1.6779      2.00000
      8      -1.6616      2.00000
      9      -0.9110      2.00000
     10      -0.8369      2.00000
     11      -0.0398      2.00000
     12      -0.0208      2.00000
     13       1.2778      2.00000
     14       1.3152      2.00000
     15       1.6258      2.00000
     16       1.6378      2.00000
     17       2.6057      2.00000
     18       2.6236      2.00000
     19       5.2930      0.00000
     20       5.3222      0.00000
     21       5.7654      0.00000
     22       5.8376      0.00000

 k-point    13 :       0.1667    0.1667    0.0000
  band No.  band energies     occupation 
      1      -9.9249      2.00000
      2      -9.9092      2.00000
      3      -9.2456      2.00000
      4      -9.2240      2.00000
      5      -1.8132      2.00000
      6      -1.7283      2.00000
      7      -0.7025      2.00000
      8      -0.6514      2.00000
      9      -0.5290      2.00000
     10      -0.4849      2.00000
     11      -0.0824      2.00000
     12       0.0122      2.00000
     13       1.1633      2.00000
     14       1.1640      2.00000
     15       2.0165      2.00000
     16       2.1324      2.00000
     17       2.3230      2.00000
     18       2.3361      2.00000
     19       4.9103      0.00000
     20       5.1519      0.00000
     21       5.5315      0.00000
     22       5.6493      0.00000

 k-point    14 :       0.2500    0.1667    0.0000
  band No.  band energies     occupation 
      1      -9.5050      2.00000
      2      -9.4924      2.00000
      3      -9.0444      2.00000
      4      -9.0288      2.00000
      5      -1.9745      2.00000
      6      -1.9330      2.00000
      7      -1.2049      2.00000
      8      -1.1908      2.00000
      9      -0.6258      2.00000
     10      -0.5595      2.00000
     11      -0.1884      2.00000
     12      -0.0959      2.00000
     13       0.8961      2.00000
     14       0.9055      2.00000
     15       1.7483      2.00000
     16       1.7957      2.00000
     17       2.3766      2.00000
     18       2.3778      2.00000
     19       5.0525      0.00000
     20       5.3006      0.00000
     21       5.6054      0.00000
     22       5.8723      0.00000

 k-point    15 :       0.3333    0.1667    0.0000
  band No.  band energies     occupation 
      1      -9.1609      2.00000
      2      -9.1527      2.00000
      3      -8.8804      2.00000
      4      -8.8713      2.00000
      5      -2.1578      2.00000
      6      -2.1306      2.00000
      7      -1.7263      2.00000
      8      -1.7202      2.00000
      9      -0.7285      2.00000
     10      -0.6658      2.00000
     11      -0.1004      2.00000
     12      -0.0348      2.00000
     13       0.7643      2.00000
     14       0.7855      2.00000
     15       1.3944      2.00000
     16       1.4253      2.00000
     17       2.6186      2.00000
     18       2.6342      2.00000
     19       5.2326      0.00000
     20       5.3303      0.00000
     21       5.8080      0.00000
     22       5.8881      0.00000

 k-point    16 :       0.4167    0.1667    0.0000
  band No.  band energies     occupation 
      1      -9.0247      2.00000
      2      -9.0195      2.00000
      3      -8.8155      2.00000
      4      -8.8104      2.00000
      5      -2.2248      2.00000
      6      -2.2010      2.00000
      7      -1.9154      2.00000
      8      -1.9134      2.00000
      9      -0.8476      2.00000
     10      -0.7842      2.00000
     11      -0.0250      2.00000
     12       0.0221      2.00000
     13       0.7671      2.00000
     14       0.7862      2.00000
     15       1.2165      2.00000
     16       1.2595      2.00000
     17       2.7901      2.00000
     18       2.8122      2.00000
     19       5.1836      0.00000
     20       5.2075      0.00000
     21       6.0756      0.00000
     22       6.1136      0.00000

 k-point    17 :       0.2500    0.2500    0.0000
  band No.  band energies     occupation 
      1      -9.1686      2.00000
      2      -9.1599      2.00000
      3      -8.8763      2.00000
      4      -8.8664      2.00000
      5      -1.9669      2.00000
      6      -1.9384      2.00000
      7      -1.7533      2.00000
      8      -1.7421      2.00000
      9      -0.4878      2.00000
     10      -0.4634      2.00000
     11      -0.1389      2.00000
     12      -0.0507      2.00000
     13       0.2150      2.00000
     14       0.2376      2.00000
     15       1.4766      2.00000
     16       1.4872      2.00000
     17       2.6010      2.00000
     18       2.6107      2.00000
     19       5.1859      0.00000
     20       5.3139      0.00000
     21       5.9492      0.00000
     22       6.0923      0.00000

 k-point    18 :       0.3333    0.2500    0.0000
  band No.  band energies     occupation 
      1      -8.9596      2.00000
      2      -8.9553      2.00000
      3      -8.7688      2.00000
      4      -8.7643      2.00000
      5      -2.0923      2.00000
      6      -2.0815      2.00000
      7      -1.8312      2.00000
      8      -1.8118      2.00000
      9      -0.6995      2.00000
     10      -0.6634      2.00000
     11      -0.0965      2.00000
     12      -0.0673      2.00000
     13       0.0609      2.00000
     14       0.1219      2.00000
     15       1.1375      2.00000
     16       1.1748      2.00000
     17       2.9018      2.00000
     18       2.9214      2.00000
     19       4.9787      0.00000
     20       4.9997      0.00000
     21       6.1477      0.00000
     22       6.3132      0.00000

 k-point    19 :       0.3333    0.3333    0.0000
  band No.  band energies     occupation 
      1      -8.8835      2.00000
      2      -8.8835      2.00000
      3      -8.7236      2.00000
      4      -8.7236      2.00000
      5      -2.2359      2.00000
      6      -2.2233      2.00000
      7      -1.4212      2.00000
      8      -1.4212      2.00000
      9      -0.9382      2.00000
     10      -0.9155      2.00000
     11      -0.4378      2.00000
     12      -0.4378      2.00000
     13       0.2417      2.00000
     14       0.2417      2.00000
     15       0.9734      2.00000
     16       0.9734      2.00000
     17       3.0887      2.00000
     18       3.1082      2.00000
     19       4.7588      0.00000
     20       4.7588      0.00000
     21       6.0490      0.00000
     22       6.2490      0.00000

 k-point    20 :       0.0000    0.0000    0.3333
  band No.  band energies     occupation 
      1     -10.9252      2.00000
      2     -10.9157      2.00000
      3      -9.7208      2.00000
      4      -9.7039      2.00000
      5      -2.4849      2.00000
      6      -2.4043      2.00000
      7       0.5201      2.00000
      8       0.5201      2.00000
      9       0.5203      2.00000
     10       0.5203      2.00000
     11       1.2303      2.00000
     12       1.5083      2.00000
     13       1.6254      2.00000
     14       1.6254      2.00000
     15       1.6264      2.00000
     16       1.6264      2.00000
     17       3.0432      2.00000
     18       3.2251      2.00000
     19       5.8746      0.00000
     20       5.8843      0.00000
     21       5.9236      0.00000
     22       6.0956      0.00000

 k-point    21 :       0.0833   -0.0000    0.3333
  band No.  band energies     occupation 
      1     -10.8286      2.00000
      2     -10.8191      2.00000
      3      -9.6743      2.00000
      4      -9.6579      2.00000
      5      -2.3709      2.00000
      6      -2.2907      2.00000
      7       0.2969      2.00000
      8       0.2974      2.00000
      9       0.6265      2.00000
     10       0.6269      2.00000
     11       0.8142      2.00000
     12       0.9509      2.00000
     13       1.4641      2.00000
     14       1.4653      2.00000
     15       1.8930      2.00000
     16       2.0194      2.00000
     17       3.0020      2.00000
     18       3.1523      2.00000
     19       5.7403      0.00000
     20       5.8362      0.00000
     21       5.8741      0.00000
     22       5.9740      0.00000

 k-point    22 :       0.1667   -0.0000    0.3333
  band No.  band energies     occupation 
      1     -10.5526      2.00000
      2     -10.5435      2.00000
      3      -9.5420      2.00000
      4      -9.5272      2.00000
      5      -2.0822      2.00000
      6      -2.0055      2.00000
      7      -0.2215      2.00000
      8      -0.2180      2.00000
      9       0.2051      2.00000
     10       0.2903      2.00000
     11       0.9234      2.00000
     12       0.9243      2.00000
     13       1.0831      2.00000
     14       1.0845      2.00000
     15       1.9774      2.00000
     16       2.1087      2.00000
     17       2.7924      2.00000
     18       2.8679      2.00000
     19       5.3352      0.00000
     20       5.4594      0.00000
     21       5.7093      0.00000
     22       5.7217      0.00000

 k-point    23 :       0.2500   -0.0000    0.3333
  band No.  band energies     occupation 
      1     -10.1417      2.00000
      2     -10.1334      2.00000
      3      -9.3472      2.00000
      4      -9.3350      2.00000
      5      -1.8611      2.00000
      6      -1.8058      2.00000
      7      -0.6841      2.00000
      8      -0.6637      2.00000
      9      -0.4288      2.00000
     10      -0.3795      2.00000
     11       0.6543      2.00000
     12       0.6560      2.00000
     13       1.3408      2.00000
     14       1.3426      2.00000
     15       1.7510      2.00000
     16       1.8544      2.00000
     17       2.3869      2.00000
     18       2.4102      2.00000
     19       5.1896      0.00000
     20       5.3437      0.00000
     21       5.4484      0.00000
     22       5.4626      0.00000

 k-point    24 :       0.3333   -0.0000    0.3333
  band No.  band energies     occupation 
      1      -9.6783      2.00000
      2      -9.6713      2.00000
      3      -9.1324      2.00000
      4      -9.1234      2.00000
      5      -2.0819      2.00000
      6      -2.0583      2.00000
      7      -1.0391      2.00000
      8      -1.0115      2.00000
      9      -0.7867      2.00000
     10      -0.7448      2.00000
     11       0.2925      2.00000
     12       0.2945      2.00000
     13       1.4702      2.00000
     14       1.5406      2.00000
     15       1.7610      2.00000
     16       1.7643      2.00000
     17       2.1436      2.00000
     18       2.1660      2.00000
     19       5.2850      0.00000
     20       5.2910      0.00000
     21       5.3569      0.00000
     22       5.4756      0.00000

 k-point    25 :       0.4167   -0.0000    0.3333
  band No.  band energies     occupation 
[...]
      2     -10.2891      2.00000
      3      -9.4201      2.00000
      4      -9.4069      2.00000
      5      -1.8832      2.00000
      6      -1.8151      2.00000
      7      -0.5383      2.00000
      8      -0.5298      2.00000
      9      -0.1069      2.00000
     10      -0.0430      2.00000
     11       0.5471      2.00000
     12       0.5600      2.00000
     13       1.1294      2.00000
     14       1.1305      2.00000
     15       2.0613      2.00000
     16       2.1606      2.00000
     17       2.5561      2.00000
     18       2.5891      2.00000
     19       5.1343      0.00000
     20       5.2727      0.00000
     21       5.5402      0.00000
     22       5.6195      0.00000

 k-point    29 :       0.2500    0.0833    0.3333
  band No.  band energies     occupation 
      1      -9.8571      2.00000
      2      -9.8495      2.00000
      3      -9.2123      2.00000
      4      -9.2020      2.00000
      5      -1.8865      2.00000
      6      -1.8517      2.00000
      7      -0.7634      2.00000
      8      -0.7588      2.00000
      9      -0.6940      2.00000
     10      -0.6854      2.00000
     11       0.1865      2.00000
     12       0.2083      2.00000
     13       1.3801      2.00000
     14       1.3811      2.00000
     15       1.7891      2.00000
     16       1.8540      2.00000
     17       2.2675      2.00000
     18       2.2788      2.00000
     19       5.0804      0.00000
     20       5.1807      0.00000
     21       5.4726      0.00000
     22       5.5262      0.00000

 k-point    30 :       0.3333    0.0833    0.3333
  band No.  band energies     occupation 
      1      -9.4241      2.00000
      2      -9.4183      2.00000
      3      -9.0127      2.00000
      4      -9.0058      2.00000
      5      -2.2141      2.00000
      6      -2.1970      2.00000
      7      -1.3315      2.00000
      8      -1.3169      2.00000
      9      -0.7753      2.00000
     10      -0.7350      2.00000
     11       0.0209      2.00000
     12       0.0376      2.00000
     13       1.4699      2.00000
     14       1.4908      2.00000
     15       1.5150      2.00000
     16       1.5262      2.00000
     17       2.3714      2.00000
     18       2.3814      2.00000
     19       5.2202      0.00000
     20       5.2729      0.00000
     21       5.5670      0.00000
     22       5.6124      0.00000

 k-point    31 :       0.4167    0.0833    0.3333
  band No.  band energies     occupation 
      1      -9.1436      2.00000
      2      -9.1400      2.00000
      3      -8.8866      2.00000
      4      -8.8829      2.00000
      5      -2.4701      2.00000
      6      -2.4567      2.00000
      7      -1.6742      2.00000
      8      -1.6660      2.00000
      9      -0.8924      2.00000
     10      -0.8554      2.00000
     11      -0.0345      2.00000
     12      -0.0250      2.00000
     13       1.2865      2.00000
     14       1.3052      2.00000
     15       1.6291      2.00000
     16       1.6351      2.00000
     17       2.6103      2.00000
     18       2.6193      2.00000
     19       5.3003      0.00000
     20       5.3149      0.00000
     21       5.7828      0.00000
     22       5.8190      0.00000

 k-point    32 :       0.1667    0.1667    0.3333
  band No.  band energies     occupation 
      1      -9.9211      2.00000
      2      -9.9132      2.00000
      3      -9.2401      2.00000
      4      -9.2293      2.00000
      5      -1.7927      2.00000
      6      -1.7502      2.00000
      7      -0.6946      2.00000
      8      -0.6708      2.00000
      9      -0.5117      2.00000
     10      -0.4915      2.00000
     11      -0.0571      2.00000
     12      -0.0098      2.00000
     13       1.1635      2.00000
     14       1.1638      2.00000
     15       2.0424      2.00000
     16       2.0999      2.00000
     17       2.3279      2.00000
     18       2.3341      2.00000
     19       4.9683      0.00000
     20       5.0885      0.00000
     21       5.5221      0.00000
     22       5.6082      0.00000

 k-point    33 :       0.2500    0.1667    0.3333
  band No.  band energies     occupation 
      1      -9.5019      2.00000
      2      -9.4956      2.00000
      3      -9.0405      2.00000
      4      -9.0327      2.00000
      5      -1.9642      2.00000
      6      -1.9435      2.00000
      7      -1.2015      2.00000
      8      -1.1944      2.00000
      9      -0.6120      2.00000
     10      -0.5794      2.00000
     11      -0.1612      2.00000
     12      -0.1156      2.00000
     13       0.8983      2.00000
     14       0.9030      2.00000
     15       1.7592      2.00000
     16       1.7828      2.00000
     17       2.3770      2.00000
     18       2.3776      2.00000
     19       5.1087      0.00000
     20       5.2314      0.00000
     21       5.6039      0.00000
     22       5.9957      0.00000

 k-point    34 :       0.3333    0.1667    0.3333
  band No.  band energies     occupation 
      1      -9.1589      2.00000
      2      -9.1548      2.00000
      3      -8.8781      2.00000
      4      -8.8735      2.00000
      5      -2.1511      2.00000
      6      -2.1375      2.00000
      7      -1.7248      2.00000
      8      -1.7217      2.00000
      9      -0.7141      2.00000
     10      -0.6829      2.00000
     11      -0.0823      2.00000
     12      -0.0496      2.00000
     13       0.7697      2.00000
     14       0.7803      2.00000
     15       1.4014      2.00000
     16       1.4169      2.00000
     17       2.6227      2.00000
     18       2.6304      2.00000
     19       5.2573      0.00000
     20       5.3062      0.00000
     21       5.8297      0.00000
     22       5.8546      0.00000

 k-point    35 :       0.4167    0.1667    0.3333
  band No.  band energies     occupation 
      1      -9.0234      2.00000
      2      -9.0208      2.00000
      3      -8.8142      2.00000
      4      -8.8116      2.00000
      5      -2.2189      2.00000
      6      -2.2070      2.00000
      7      -1.9149      2.00000
      8      -1.9139      2.00000
      9      -0.8325      2.00000
     10      -0.8009      2.00000
     11      -0.0120      2.00000
     12       0.0115      2.00000
     13       0.7721      2.00000
     14       0.7816      2.00000
     15       1.2266      2.00000
     16       1.2481      2.00000
     17       2.7958      2.00000
     18       2.8068      2.00000
     19       5.1897      0.00000
     20       5.2016      0.00000
     21       6.0849      0.00000
     22       6.1249      0.00000

 k-point    36 :       0.2500    0.2500    0.3333
  band No.  band energies     occupation 
      1      -9.1665      2.00000
      2      -9.1622      2.00000
      3      -8.8738      2.00000
      4      -8.8688      2.00000
      5      -1.9599      2.00000
      6      -1.9457      2.00000
      7      -1.7503      2.00000
      8      -1.7448      2.00000
      9      -0.4844      2.00000
     10      -0.4726      2.00000
     11      -0.1135      2.00000
     12      -0.0697      2.00000
     13       0.2208      2.00000
     14       0.2321      2.00000
     15       1.4785      2.00000
     16       1.4838      2.00000
     17       2.6035      2.00000
     18       2.6084      2.00000
     19       5.2177      0.00000
     20       5.2823      0.00000
     21       5.8530      0.00000
     22       6.1367      0.00000

 k-point    37 :       0.3333    0.2500    0.3333
  band No.  band energies     occupation 
      1      -8.9585      2.00000
      2      -8.9564      2.00000
      3      -8.7677      2.00000
      4      -8.7654      2.00000
      5      -2.0897      2.00000
      6      -2.0843      2.00000
      7      -1.8262      2.00000
      8      -1.8165      2.00000
      9      -0.6914      2.00000
     10      -0.6733      2.00000
     11      -0.0917      2.00000
     12      -0.0773      2.00000
     13       0.0806      2.00000
     14       0.1106      2.00000
     15       1.1458      2.00000
     16       1.1645      2.00000
     17       2.9067      2.00000
     18       2.9165      2.00000
     19       4.9841      0.00000
     20       4.9946      0.00000
     21       6.1805      0.00000
     22       6.2616      0.00000

 k-point    38 :       0.3333    0.3333    0.3333
  band No.  band energies     occupation 
      1      -8.8835      2.00000
      2      -8.8835      2.00000
      3      -8.7237      2.00000
      4      -8.7237      2.00000
      5      -2.2328      2.00000
      6      -2.2265      2.00000
      7      -1.4210      2.00000
      8      -1.4210      2.00000
      9      -0.9325      2.00000
     10      -0.9211      2.00000
     11      -0.4398      2.00000
     12      -0.4398      2.00000
     13       0.2453      2.00000
     14       0.2453      2.00000
     15       0.9714      2.00000
     16       0.9714      2.00000
     17       3.0935      2.00000
     18       3.1032      2.00000
     19       4.7588      0.00000
     20       4.7588      0.00000
     21       6.0917      0.00000
     22       6.1841      0.00000


--------------------------------------------------------------------------------------------------------


 soft charge-density along one line, spin component           1
         0         1         2         3         4         5         6         7         8         9
 total charge-density along one line
 
 pseudopotential strength for first ion, spin component:           1
 -8.238  -0.000   0.000   0.000   0.000  -0.074   0.000  -0.000
 -0.000  -8.239   0.000  -0.000  -0.000   0.000  -0.074  -0.000
  0.000   0.000  -8.218  -0.000  -0.000  -0.000  -0.000  -0.075
  0.000  -0.000  -0.000  -8.239  -0.000  -0.000   0.000   0.000
  0.000  -0.000  -0.000  -0.000  -8.238  -0.000   0.000   0.000
 -0.074   0.000  -0.000  -0.000  -0.000   0.112  -0.000   0.000
  0.000  -0.074  -0.000   0.000   0.000  -0.000   0.112   0.000
 -0.000  -0.000  -0.075   0.000   0.000   0.000   0.000   0.112
 -0.000   0.000   0.000  -0.074   0.000   0.000  -0.000  -0.000
 -0.000   0.000   0.000   0.000  -0.074   0.000  -0.000  -0.000
  0.000  -0.000  -0.005   0.000  -0.000  -0.000   0.000   0.000
 -0.000   0.000   0.001  -0.000   0.000   0.000  -0.000  -0.000
 -0.000   0.000  -0.000  -0.000  -0.007   0.000  -0.000   0.000
 -0.000   0.000   0.000  -0.000  -0.000  -0.000  -0.000  -0.000
 -0.007  -0.000   0.000   0.000  -0.000  -0.000  -0.000  -0.000
  0.000  -0.000   0.000   0.000   0.004  -0.000   0.000  -0.000
  0.000  -0.000  -0.000   0.000   0.000  -0.000   0.000   0.000
  0.004   0.000  -0.000  -0.000   0.000   0.000  -0.000   0.000
 total augmentation occupancy for first ion, spin component:           1
  0.965   0.000  -0.000  -0.000  -0.000   0.602  -0.000  -0.000  -0.000  -0.000  -0.000   0.000   0.000   0.000  -0.065  -0.000
 -0.000   0.907   0.000   0.000  -0.000  -0.000   0.839   0.000   0.000  -0.000   0.000   0.000   0.000  -0.000  -0.000  -0.000
 -0.000   0.000   1.029  -0.000   0.000  -0.000   0.000   0.502  -0.000   0.000   0.111  -0.019  -0.000  -0.000   0.000  -0.000
 -0.000   0.000   0.000   0.907   0.000   0.000   0.000   0.000   0.839   0.000  -0.000   0.000   0.000  -0.000  -0.000   0.000
 -0.000  -0.000   0.000   0.000   0.965  -0.000  -0.000   0.000  -0.000   0.602   0.000  -0.000  -0.065   0.000  -0.000   0.007
  0.602  -0.000  -0.000  -0.000  -0.000   0.679   0.000  -0.000   0.000  -0.000   0.000  -0.000   0.000   0.000  -0.136  -0.000
  0.000   0.839   0.000   0.000   0.000  -0.000   1.081  -0.000   0.000   0.000   0.000   0.000   0.000  -0.000  -0.000  -0.000
 -0.000   0.000   0.502   0.000   0.000  -0.000   0.000   0.477   0.000   0.000   0.059  -0.021  -0.000  -0.000   0.000   0.000
  0.000   0.000   0.000   0.839  -0.000  -0.000   0.000   0.000   1.081  -0.000   0.000   0.000  -0.000  -0.000   0.000   0.000
 -0.000  -0.000   0.000  -0.000   0.602  -0.000   0.000   0.000   0.000   0.679   0.000  -0.000  -0.136   0.000  -0.000   0.023
 -0.000   0.000   0.111  -0.000   0.000   0.000   0.000   0.059  -0.000   0.000   1.207  -0.186  -0.000  -0.000  -0.000   0.000
  0.000   0.000  -0.019  -0.000  -0.000  -0.000  -0.000  -0.021   0.000  -0.000  -0.186   0.042  -0.000  -0.000   0.000  -0.000
  0.000   0.000  -0.000  -0.000  -0.065   0.000   0.000  -0.000   0.000  -0.136   0.000   0.000   0.217  -0.000   0.000  -0.032
  0.000  -0.000  -0.000  -0.000   0.000   0.000   0.000  -0.000  -0.000   0.000  -0.000  -0.000  -0.000   0.264   0.000   0.000
 -0.065  -0.000   0.000   0.000  -0.000  -0.136   0.000   0.000  -0.000  -0.000   0.000   0.000   0.000  -0.000   0.217  -0.000
 -0.000   0.000   0.000  -0.000   0.007  -0.000   0.000   0.000   0.000   0.023   0.000  -0.000  -0.032   0.000  -0.000   0.005
  0.000  -0.000  -0.000   0.000  -0.000  -0.000  -0.000   0.000  -0.000   0.000   0.000   0.000   0.000  -0.038  -0.000  -0.000
  0.007  -0.000  -0.000   0.000   0.000   0.023   0.000  -0.000  -0.000   0.000  -0.000   0.000  -0.000   0.000  -0.032   0.000


------------------------ aborting loop because EDIFF is reached ----------------------------------------


    CHARGE:  cpu time    0.0670: real time    0.0673
    FORLOC:  cpu time    0.0030: real time    0.0031
    FORNL :  cpu time    0.2200: real time    0.2194
    STRESS:  cpu time    0.5989: real time    0.5996
    FORCOR:  cpu time    0.0300: real time    0.0299
    FORHAR:  cpu time    0.0070: real time    0.0065
    MIXING:  cpu time    0.0010: real time    0.0012
    OFIELD:  cpu time    0.0000: real time    0.0000

  DFT-D2 method for vdW energy calculation
  -------------------------------------------------------------------

  Parameters of vdW forcefield:
         C6(Jnm^6/mol)     R0(A)
   -----------------------------
   Mo      24.670          1.639
   S        5.570          1.683

  IVDW =   1
  VDW_RADIUS =    50.000 A
  VDW_S6 =     0.750
  VDW_SR =     1.000
  VDW_D =    20.000
  LVDW_EWALD = F

  Number of pair interactions contributing to vdW energy:   84128
  Edisp (eV):   -1.33129
    FORVDW:  cpu time    0.0210: real time    0.0276

  FORCE on cell =-STRESS in cart. coord.  units (eV):
  Direction    XX          YY          ZZ          XY          YZ          ZX
  --------------------------------------------------------------------------------------
  Alpha Z    90.42578    90.42578    90.42578
  Ewald     -12.90873   -12.90785 -1121.07429     0.00038     0.00000     0.00025
  Hartree   466.57998   466.57999  -390.19840     0.00003    -0.00000    -0.00001
  E(xc)    -140.60531  -140.60532  -141.79626    -0.00001    -0.00000    -0.00000
  Local   -1080.53008 -1080.53075   872.53854    -0.00042    -0.00000    -0.00011
  n-local   254.45942   251.46531   263.36729    -0.52475     0.00282     0.00294
  augment   -51.13753   -51.13738   -53.33907     0.00014     0.00000    -0.00001
  Kinetic   472.23793   477.01997   479.58392   -14.96208     0.00465     0.00493
  Fock        0.00000     0.00000     0.00000     0.00000     0.00000     0.00000
  vdW         0.17103     0.17103    -0.86546     0.00000     0.00000    -0.00000
  -------------------------------------------------------------------------------------
  Total      -0.41337    -0.41337    -1.35795     0.00000     0.00000    -0.00000
  in kB      -5.04983    -5.04983   -16.58911     0.00000     0.00000    -0.00000
  external pressure =       -8.90 kB  Pullay stress =        0.00 kB


 VOLUME and BASIS-vectors are now :
 -----------------------------------------------------------------------------
  energy-cutoff  :      450.00
  volume of cell :      131.15
      direct lattice vectors                 reciprocal lattice vectors
     3.190315730  0.000000000  0.000000000     0.313448600  0.180969634  0.000000000
    -1.595157865  2.762894468  0.000000000     0.000000000  0.361939267  0.000000000
     0.000000000  0.000000000 14.879004300     0.000000000  0.000000000  0.067208798

  length of vectors
     3.190315730  3.190315730 14.879004300     0.361939267  0.361939267  0.067208798


 FORCES acting on ions
    electron-ion (+dipol)            ewald-force                    non-local-force                 convergence-correction
 -----------------------------------------------------------------------------------------------
   0.473E-04 -.345E-04 -.990E-05   0.928E-04 -.107E-03 0.288E-09   -.694E-17 0.000E+00 0.169E-20   0.168E-07 -.134E-07 -.866E-09
   0.660E-04 -.309E-04 -.990E-05   -.928E-04 0.107E-03 -.288E-09   0.520E-16 0.000E+00 -.169E-20   -.149E-07 0.124E-07 -.867E-09
   0.525E-03 -.305E-03 -.242E+03   0.865E-04 -.537E-04 0.247E+03   -.195E-16 0.954E-17 -.479E+01   0.131E-07 -.736E-08 0.316E-02
   -.117E-02 0.679E-03 0.242E+03   -.865E-04 0.537E-04 -.247E+03   0.239E-16 -.954E-17 0.479E+01   -.263E-07 0.150E-07 -.316E-02
   0.523E-03 0.689E-03 -.242E+03   -.638E-05 0.537E-04 0.247E+03   0.330E-16 0.156E-16 -.479E+01   0.150E-07 0.158E-07 0.316E-02
   -.121E-02 -.292E-03 0.242E+03   0.638E-05 -.537E-04 -.247E+03   -.737E-17 -.156E-16 0.479E+01   -.310E-07 -.656E-08 -.316E-02
 -----------------------------------------------------------------------------------------------
   -.122E-02 0.706E-03 -.110E-04   -.561E-14 0.109E-13 0.284E-13   0.750E-16 0.000E+00 0.000E+00   -.272E-07 0.157E-07 -.154E-08
 
 
 POSITION                                       TOTAL-FORCE (eV/Angst)
 -----------------------------------------------------------------------------------
     -0.00000      1.84193      3.71975        -0.000000     -0.000000      0.000000
      1.59516      0.92096     11.15925         0.000000     -0.000000      0.000000
     -0.00000      1.84193     12.72414        -0.000000      0.000000     -0.084060
      1.59516      0.92096      2.15487         0.000000     -0.000000      0.084060
      1.59516      0.92096      5.28464         0.000000     -0.000000     -0.084060
      0.00000      1.84193      9.59437        -0.000000      0.000000      0.084060
 -----------------------------------------------------------------------------------
    total drift:                               -0.001223      0.000706     -0.000011


--------------------------------------------------------------------------------------------------------



  FREE ENERGIE OF THE ION-ELECTRON SYSTEM (eV)
  ---------------------------------------------------
  free  energy   TOTEN  =       -44.93701895 eV

  energy  without entropy=      -44.93701895  energy(sigma->0) =      -44.93701895
 


--------------------------------------------------------------------------------------------------------


    POTLOK:  cpu time    0.0330: real time    0.0319


--------------------------------------------------------------------------------------------------------


     LOOP+:  cpu time   15.2167: real time   15.3832
    4ORBIT:  cpu time    0.0000: real time    0.0000
 BZINTS: Fermi energy:  3.303336; 36.000000 electrons
         Band energy: -67.729619;  BLOECHL correction:  0.000000

 total amount of memory used by VASP MPI-rank0    61660. kBytes
=======================================================================

   base      :      30000. kBytes
   nonl-proj :      16052. kBytes
   fftplans  :       2162. kBytes
   grid      :       3449. kBytes
   one-center:         46. kBytes
   wavefun   :       9951. kBytes
 
  
  
 General timing and accounting informations for this job:
 ========================================================
  
                  Total CPU time used (sec):       16.231
                            User time (sec):       16.097
                          System time (sec):        0.134
                         Elapsed time (sec):       16.872
  
                   Maximum memory used (kb):       52440.
                   Average memory used (kb):           0.
  
                          Minor page faults:        13397
                          Major page faults:          137
                 Voluntary context switches:         2535
