perl: warning: Setting locale failed.
perl: warning: Please check that your locale settings:
	LANGUAGE = (unset),
	LC_ALL = (unset),
	LC_CTYPE = "UTF-8",
	LANG = "en_US.iso885915"
    are supported and installed on your system.
perl: warning: Falling back to the standard locale ("C").
Starting job 28533283 ("jobname") on c14-15 at Fri Nov 8 12:18:46 CET 2019
 running on    4 total cores
 distrk:  each k-point on    4 cores,    1 groups
 distr:  one band on    2 cores,    2 groups
 using from now: INCAR     
 vasp.5.4.4.18Apr17-6-g9f103f2a35 (build Jun 30 2017 11:15:00) complex          
  
 POSCAR found type information on POSCAR  Mo S 
 POSCAR found :  2 types and       6 ions
 scaLAPACK will be used
 LDA part: xc-table for Pade appr. of Perdew
 POSCAR, INCAR and KPOINTS ok, starting setup
 FFT: planning ...
 WAVECAR not read
 WARNING: random wavefunctions but no delay for mixing, default for NELMDL
 entering main loop
       N       E                     dE             d eps       ncg     rms          rms(c)
DAV:   1     0.198070283298E+03    0.19807E+03   -0.14696E+04  1672   0.126E+03
DAV:   2    -0.286760689971E+02   -0.22675E+03   -0.21992E+03  2270   0.263E+02
DAV:   3    -0.463158231400E+02   -0.17640E+02   -0.17557E+02  2238   0.744E+01
DAV:   4    -0.468077452847E+02   -0.49192E+00   -0.49109E+00  2324   0.132E+01
DAV:   5    -0.468203654463E+02   -0.12620E-01   -0.12616E-01  2256   0.206E+00    0.973E+00
RMM:   6    -0.444324985883E+02    0.23879E+01   -0.24321E+01  1863   0.195E+01    0.337E+00
RMM:   7    -0.436956836264E+02    0.73681E+00   -0.19630E+00  1862   0.560E+00    0.179E+00
RMM:   8    -0.436302369642E+02    0.65447E-01   -0.87665E-01  1922   0.334E+00    0.816E-01
RMM:   9    -0.436189689281E+02    0.11268E-01   -0.26249E-01  1990   0.215E+00    0.527E-01
RMM:  10    -0.436054619694E+02    0.13507E-01   -0.54260E-02  2010   0.102E+00    0.688E-02
RMM:  11    -0.436055982185E+02   -0.13625E-03   -0.30731E-03  2144   0.216E-01    0.297E-02
RMM:  12    -0.436057311240E+02   -0.13291E-03   -0.46500E-04  2108   0.104E-01    0.155E-02
RMM:  13    -0.436057418772E+02   -0.10753E-04   -0.23018E-04  2181   0.598E-02    0.164E-02
RMM:  14    -0.436057319340E+02    0.99431E-05   -0.48402E-05  1565   0.316E-02
   1 F= -.44937019E+02 E0= -.44937019E+02  d E =0.000000E+00

Currently Loaded Modulefiles:
  1) Anaconda3/5.1.0       3) vesta/3.3.8           5) intel/2016.1
  2) gnuplot/5.0.4         4) imagemagick/6.7.9-0   6) vasp/5.4.1.Feb16

Job script resource usage:
       JobID  MaxVMSize     MaxRSS 
------------ ---------- ---------- 
28533283.ba+    216888K      2357K 

Job step resource usage:
       JobID    JobName  AllocCPUS  MaxVMSize     MaxRSS    Elapsed ExitCode 
------------ ---------- ---------- ---------- ---------- ---------- -------- 
28533283        jobname          4                         00:00:20      0:0 
28533283.0    pmi_proxy          1    279832K       526K   00:00:17      0:0 

Job 28533283 ("jobname") completed on c14-15 at Fri Nov 8 12:19:04 CET 2019
