perl: warning: Setting locale failed.
perl: warning: Please check that your locale settings:
	LANGUAGE = (unset),
	LC_ALL = (unset),
	LC_CTYPE = "UTF-8",
	LANG = "en_US.iso885915"
    are supported and installed on your system.
perl: warning: Falling back to the standard locale ("C").
Starting job 28531730 ("jobname") on c14-15 at Fri Nov 8 10:40:31 CET 2019
 running on    4 total cores
 distrk:  each k-point on    4 cores,    1 groups
 distr:  one band on    2 cores,    2 groups
 using from now: INCAR     
 vasp.5.4.4.18Apr17-6-g9f103f2a35 (build Jun 30 2017 11:15:00) complex          
  
 POSCAR found type information on POSCAR  Mo S 
 POSCAR found :  2 types and       6 ions
 scaLAPACK will be used
 LDA part: xc-table for Pade appr. of Perdew
 POSCAR, INCAR and KPOINTS ok, starting setup
 FFT: planning ...
 WAVECAR not read
 WARNING: random wavefunctions but no delay for mixing, default for NELMDL
 entering main loop
       N       E                     dE             d eps       ncg     rms          rms(c)
DAV:   1     0.245358666665E+03    0.24536E+03   -0.18004E+04  1672   0.169E+03
DAV:   2    -0.233360500323E+02   -0.26869E+03   -0.26172E+03  2198   0.304E+02
DAV:   3    -0.461200595313E+02   -0.22784E+02   -0.22620E+02  2250   0.848E+01
DAV:   4    -0.468062369045E+02   -0.68618E+00   -0.68495E+00  2320   0.157E+01
DAV:   5    -0.468244413922E+02   -0.18204E-01   -0.18200E-01  2308   0.255E+00    0.973E+00
RMM:   6    -0.444287122839E+02    0.23957E+01   -0.24207E+01  1869   0.197E+01    0.334E+00
RMM:   7    -0.437003207948E+02    0.72839E+00   -0.19030E+00  1844   0.561E+00    0.178E+00
RMM:   8    -0.436359436320E+02    0.64377E-01   -0.88790E-01  1918   0.336E+00    0.824E-01
RMM:   9    -0.436265492786E+02    0.93944E-02   -0.29211E-01  1978   0.228E+00    0.572E-01
RMM:  10    -0.436103996064E+02    0.16150E-01   -0.64118E-02  2001   0.111E+00    0.703E-02
RMM:  11    -0.436105722094E+02   -0.17260E-03   -0.34210E-03  2137   0.229E-01    0.298E-02
RMM:  12    -0.436107109544E+02   -0.13875E-03   -0.49682E-04  2111   0.113E-01    0.164E-02
RMM:  13    -0.436107229966E+02   -0.12042E-04   -0.26150E-04  2201   0.637E-02    0.176E-02
RMM:  14    -0.436107113502E+02    0.11646E-04   -0.52589E-05  1592   0.331E-02    0.334E-03
RMM:  15    -0.436107118774E+02   -0.52728E-06   -0.13319E-05  1290   0.162E-02
 Error reading item 'IVDW' from file INCAR
   1 F= -.43610712E+02 E0= -.43610712E+02  d E =-.343110E-08

Currently Loaded Modulefiles:
  1) Anaconda3/5.1.0       3) vesta/3.3.8           5) intel/2016.1
  2) gnuplot/5.0.4         4) imagemagick/6.7.9-0   6) vasp/5.4.1.Feb16

Job script resource usage:
       JobID  MaxVMSize     MaxRSS 
------------ ---------- ---------- 
28531730.ba+    216888K      2357K 

Job step resource usage:
       JobID    JobName  AllocCPUS  MaxVMSize     MaxRSS    Elapsed ExitCode 
------------ ---------- ---------- ---------- ---------- ---------- -------- 
28531730        jobname          4                         00:00:29      0:0 
28531730.0    pmi_proxy          1    279832K       526K   00:00:27      0:0 

Job 28531730 ("jobname") completed on c14-15 at Fri Nov 8 10:40:58 CET 2019
