<?xml version="1.0" encoding="ISO-8859-1"?>
<modeling>
 <generator>
  <i name="program" type="string">vasp </i>
  <i name="version" type="string">5.4.4.18Apr17-6-g9f103f2a35  </i>
  <i name="subversion" type="string">(build Jun 30 2017 11:15:00) complex            parallel </i>
  <i name="platform" type="string">STALLO_VASP_5.4.4 </i>
  <i name="date" type="string">2019 11 08 </i>
  <i name="time" type="string">12:18:47 </i>
 </generator>
 <incar>
  <i type="string" name="PREC">normal    ! low/normal/accurate</i>
  <i type="string" name="ALGO"> Fast      ! Algorithm for electronic re</i>
  <i type="int" name="ISPIN">     1</i>
  <i type="int" name="NELMIN">     4</i>
  <i name="EDIFF">      0.00001000</i>
  <i type="int" name="NSW">     0</i>
  <i name="ENCUT">    450.00000000</i>
  <i type="logical" name="LREAL"> F  </i>
  <i type="int" name="ISMEAR">    -5</i>
  <i name="SIGMA">      0.20000000</i>
  <i type="logical" name="LWAVE"> F  </i>
  <v type="int" name="KPOINT_BSE">    -1     0     0     0</v>
 </incar>
 <structure name="primitive_cell" >
  <crystal>
   <varray name="basis" >
    <v>       3.19031573       0.00000000       0.00000000 </v>
    <v>      -1.59515786       2.76289447       0.00000000 </v>
    <v>       0.00000000       0.00000000      14.87900430 </v>
   </varray>
   <i name="volume">    131.15106795 </i>
   <varray name="rec_basis" >
    <v>       0.31344860       0.18096963       0.00000000 </v>
    <v>       0.00000000       0.36193927       0.00000000 </v>
    <v>       0.00000000       0.00000000       0.06720880 </v>
   </varray>
  </crystal>
  <varray name="positions" >
   <v>       0.33333300      -0.33333300       0.25000000 </v>
   <v>      -0.33333400       0.33333300       0.35517400 </v>
   <v>      -0.33333300       0.33333300       0.14482600 </v>
   <v>       0.33333300      -0.33333300      -0.14482600 </v>
   <v>       0.33333400      -0.33333300      -0.35517400 </v>
   <v>      -0.33333300       0.33333300      -0.25000000 </v>
  </varray>
 </structure>
 <varray name="primitive_index" >
  <v type="int" >        1 </v>
  <v type="int" >        5 </v>
  <v type="int" >        4 </v>
  <v type="int" >        3 </v>
  <v type="int" >        6 </v>
  <v type="int" >        2 </v>
 </varray>
 <kpoints>
  <generation param="Gamma">
   <v type="int" name="divisions">      12       12        3 </v>
   <v name="usershift">      0.00000000       0.00000000       0.00000000 </v>
   <v name="genvec1">      0.08333333       0.00000000       0.00000000 </v>
   <v name="genvec2">      0.00000000       0.08333333       0.00000000 </v>
   <v name="genvec3">      0.00000000       0.00000000       0.33333333 </v>
   <v name="shift">      0.00000000       0.00000000       0.00000000 </v>
  </generation>
  <varray name="kpointlist" >
   <v>       0.00000000       0.00000000       0.00000000 </v>
   <v>       0.08333333      -0.00000000       0.00000000 </v>
   <v>       0.16666667      -0.00000000       0.00000000 </v>
   <v>       0.25000000      -0.00000000       0.00000000 </v>
   <v>       0.33333333      -0.00000000       0.00000000 </v>
   <v>       0.41666667      -0.00000000       0.00000000 </v>
   <v>       0.50000000      -0.00000000       0.00000000 </v>
   <v>       0.08333333       0.08333333       0.00000000 </v>
   <v>       0.16666667       0.08333333       0.00000000 </v>
   <v>       0.25000000       0.08333333       0.00000000 </v>
   <v>       0.33333333       0.08333333       0.00000000 </v>
   <v>       0.41666667       0.08333333       0.00000000 </v>
   <v>       0.16666667       0.16666667       0.00000000 </v>
   <v>       0.25000000       0.16666667       0.00000000 </v>
   <v>       0.33333333       0.16666667       0.00000000 </v>
   <v>       0.41666667       0.16666667       0.00000000 </v>
   <v>       0.25000000       0.25000000       0.00000000 </v>
   <v>       0.33333333       0.25000000       0.00000000 </v>
   <v>       0.33333333       0.33333333       0.00000000 </v>
   <v>       0.00000000       0.00000000       0.33333333 </v>
   <v>       0.08333333      -0.00000000       0.33333333 </v>
   <v>       0.16666667      -0.00000000       0.33333333 </v>
   <v>       0.25000000      -0.00000000       0.33333333 </v>
   <v>       0.33333333      -0.00000000       0.33333333 </v>
   <v>       0.41666667      -0.00000000       0.33333333 </v>
   <v>       0.50000000      -0.00000000       0.33333333 </v>
   <v>       0.08333333       0.08333333       0.33333333 </v>
   <v>       0.16666667       0.08333333       0.33333333 </v>
   <v>       0.25000000       0.08333333       0.33333333 </v>
   <v>       0.33333333       0.08333333       0.33333333 </v>
   <v>       0.41666667       0.08333333       0.33333333 </v>
   <v>       0.16666667       0.16666667       0.33333333 </v>
   <v>       0.25000000       0.16666667       0.33333333 </v>
   <v>       0.33333333       0.16666667       0.33333333 </v>
   <v>       0.41666667       0.16666667       0.33333333 </v>
   <v>       0.25000000       0.25000000       0.33333333 </v>
   <v>       0.33333333       0.25000000       0.33333333 </v>
   <v>       0.33333333       0.33333333       0.33333333 </v>
  </varray>
  <varray name="weights" >
   <v>       0.00231481 </v>
   <v>       0.01388889 </v>
   <v>       0.01388889 </v>
   <v>       0.01388889 </v>
   <v>       0.01388889 </v>
   <v>       0.01388889 </v>
   <v>       0.00694444 </v>
   <v>       0.01388889 </v>
   <v>       0.02777778 </v>
   <v>       0.02777778 </v>
   <v>       0.02777778 </v>
   <v>       0.02777778 </v>
   <v>       0.01388889 </v>
   <v>       0.02777778 </v>
   <v>       0.02777778 </v>
   <v>       0.01388889 </v>
   <v>       0.01388889 </v>
   <v>       0.02777778 </v>
   <v>       0.00462963 </v>
   <v>       0.00462963 </v>
   <v>       0.02777778 </v>
   <v>       0.02777778 </v>
   <v>       0.02777778 </v>
   <v>       0.02777778 </v>
   <v>       0.02777778 </v>
   <v>       0.01388889 </v>
   <v>       0.02777778 </v>
   <v>       0.05555556 </v>
   <v>       0.05555556 </v>
   <v>       0.05555556 </v>
   <v>       0.05555556 </v>
   <v>       0.02777778 </v>
   <v>       0.05555556 </v>
   <v>       0.05555556 </v>
   <v>       0.02777778 </v>
   <v>       0.02777778 </v>
   <v>       0.05555556 </v>
   <v>       0.00925926 </v>
  </varray>
  <varray name="tetrahedronlist"  type="int" >
   <v type="int" >        8        2        2        8       21 </v>
   <v type="int" >        8        1        2        2       21 </v>
   <v type="int" >        4        1        2       20       21 </v>
   <v type="int" >        4        2        8       21       27 </v>
   <v type="int" >        8        2       21       21       27 </v>
   <v type="int" >        8        2       20       21       21 </v>
   <v type="int" >        8        3        8        9       27 </v>
   <v type="int" >        8        2        3        8       27 </v>
   <v type="int" >        4        2        3       21       27 </v>
   <v type="int" >        4        3        9       27       28 </v>
   <v type="int" >        8        3       22       27       28 </v>
   <v type="int" >        8        3       21       22       27 </v>
   <v type="int" >        8        4        9       10       28 </v>
   <v type="int" >        8        3        4        9       28 </v>
   <v type="int" >        4        3        4       22       28 </v>
   <v type="int" >        4        4       10       28       29 </v>
   <v type="int" >        8        4       23       28       29 </v>
   <v type="int" >        8        4       22       23       28 </v>
   <v type="int" >        8        5       10       11       29 </v>
   <v type="int" >        8        4        5       10       29 </v>
   <v type="int" >        4        4        5       23       29 </v>
   <v type="int" >        4        5       11       29       30 </v>
   <v type="int" >        8        5       24       29       30 </v>
   <v type="int" >        8        5       23       24       29 </v>
   <v type="int" >        8        6       11       12       30 </v>
   <v type="int" >        8        5        6       11       30 </v>
   <v type="int" >        4        5        6       24       30 </v>
   <v type="int" >        4        6       12       30       31 </v>
   <v type="int" >        8        6       25       30       31 </v>
   <v type="int" >        8        6       24       25       30 </v>
   <v type="int" >        8        7       12       12       31 </v>
   <v type="int" >        8        6        7       12       31 </v>
   <v type="int" >        4        6        7       25       31 </v>
   <v type="int" >        4        7       12       31       31 </v>
   <v type="int" >        4        7       26       31       31 </v>
   <v type="int" >        8        7       25       26       31 </v>
   <v type="int" >        8        6       11       12       31 </v>
   <v type="int" >        4        6        7       26       31 </v>
   <v type="int" >        4        6       11       30       31 </v>
   <v type="int" >        8        6       25       26       31 </v>
   <v type="int" >        8        5       10       11       30 </v>
   <v type="int" >        4        5        6       25       30 </v>
   <v type="int" >        4        5       10       29       30 </v>
   <v type="int" >        8        5       24       25       30 </v>
   <v type="int" >        8        4        9       10       29 </v>
   <v type="int" >        4        4        5       24       29 </v>
   <v type="int" >        4        4        9       28       29 </v>
   <v type="int" >        8        4       23       24       29 </v>
   <v type="int" >        8        3        8        9       28 </v>
   <v type="int" >        4        3        4       23       28 </v>
   <v type="int" >        4        3        8       27       28 </v>
   <v type="int" >        8        3       22       23       28 </v>
   <v type="int" >        4        2        2        8       27 </v>
   <v type="int" >        4        2        3       22       27 </v>
   <v type="int" >        4        2        2       21       27 </v>
   <v type="int" >        8        2       21       22       27 </v>
   <v type="int" >        4        1        2       21       21 </v>
   <v type="int" >        4        1       20       21       21 </v>
   <v type="int" >        8        3        8        9       22 </v>
   <v type="int" >        8        2        3        8       22 </v>
   <v type="int" >        4        2        8       21       22 </v>
   <v type="int" >        4        8        9       22       28 </v>
   <v type="int" >        8        8       22       27       28 </v>
   <v type="int" >        8        8       21       22       27 </v>
   <v type="int" >        8        9        9       13       28 </v>
   <v type="int" >        8        8        9        9       28 </v>
   <v type="int" >        4        8        9       27       28 </v>
   <v type="int" >        4        9       13       28       32 </v>
   <v type="int" >        8        9       28       28       32 </v>
   <v type="int" >        8        9       27       28       28 </v>
   <v type="int" >        8       10       13       14       32 </v>
   <v type="int" >        8        9       10       13       32 </v>
   <v type="int" >        4        9       10       28       32 </v>
   <v type="int" >        4       10       14       32       33 </v>
   <v type="int" >        8       10       29       32       33 </v>
   <v type="int" >        8       10       28       29       32 </v>
   <v type="int" >        8       11       14       15       33 </v>
   <v type="int" >        8       10       11       14       33 </v>
   <v type="int" >        4       10       11       29       33 </v>
   <v type="int" >        4       11       15       33       34 </v>
   <v type="int" >        8       11       30       33       34 </v>
   <v type="int" >        8       11       29       30       33 </v>
   <v type="int" >        8       12       15       16       34 </v>
   <v type="int" >        8       11       12       15       34 </v>
   <v type="int" >        4       11       12       30       34 </v>
   <v type="int" >        4       12       16       34       35 </v>
   <v type="int" >        8       12       31       34       35 </v>
   <v type="int" >        8       12       30       31       34 </v>
   <v type="int" >        8       12       15       16       35 </v>
   <v type="int" >        4       12       12       16       35 </v>
   <v type="int" >        4       12       12       31       35 </v>
   <v type="int" >        4       12       15       34       35 </v>
   <v type="int" >        8       12       31       31       35 </v>
   <v type="int" >        8       11       14       15       34 </v>
   <v type="int" >        4       11       12       31       34 </v>
   <v type="int" >        4       11       14       33       34 </v>
   <v type="int" >        8       11       30       31       34 </v>
   <v type="int" >        8       10       13       14       33 </v>
   <v type="int" >        4       10       11       30       33 </v>
   <v type="int" >        4       10       13       32       33 </v>
   <v type="int" >        8       10       29       30       33 </v>
   <v type="int" >        4        9        9       13       32 </v>
   <v type="int" >        4        9       10       29       32 </v>
   <v type="int" >        4        9        9       28       32 </v>
   <v type="int" >        8        9       28       29       32 </v>
   <v type="int" >        4        8        9       28       28 </v>
   <v type="int" >        4        3        8       22       28 </v>
   <v type="int" >        4        8       27       28       28 </v>
   <v type="int" >        4        2        8       22       27 </v>
   <v type="int" >        8        4        9       10       23 </v>
   <v type="int" >        8        3        4        9       23 </v>
   <v type="int" >        4        3        9       22       23 </v>
   <v type="int" >        4        9       10       23       29 </v>
   <v type="int" >        8        9       23       28       29 </v>
   <v type="int" >        8        9       22       23       28 </v>
   <v type="int" >        8       10       13       14       29 </v>
   <v type="int" >        8        9       10       13       29 </v>
   <v type="int" >        4        9       13       28       29 </v>
   <v type="int" >        4       13       14       29       33 </v>
   <v type="int" >        8       13       29       32       33 </v>
   <v type="int" >        8       13       28       29       32 </v>
   <v type="int" >        8       14       14       17       33 </v>
   <v type="int" >        8       13       14       14       33 </v>
   <v type="int" >        4       13       14       32       33 </v>
   <v type="int" >        4       14       17       33       36 </v>
   <v type="int" >        8       14       33       33       36 </v>
   <v type="int" >        8       14       32       33       33 </v>
   <v type="int" >        8       15       17       18       36 </v>
   <v type="int" >        8       14       15       17       36 </v>
   <v type="int" >        4       14       15       33       36 </v>
   <v type="int" >        4       15       18       36       37 </v>
   <v type="int" >        8       15       34       36       37 </v>
   <v type="int" >        8       15       33       34       36 </v>
   <v type="int" >        8       16       18       18       37 </v>
   <v type="int" >        8       15       16       18       37 </v>
   <v type="int" >        4       15       16       34       37 </v>
   <v type="int" >        4       16       18       37       37 </v>
   <v type="int" >        4       16       35       37       37 </v>
   <v type="int" >        8       16       34       35       37 </v>
   <v type="int" >        8       15       17       18       37 </v>
   <v type="int" >        4       15       16       35       37 </v>
   <v type="int" >        4       15       17       36       37 </v>
   <v type="int" >        8       15       34       35       37 </v>
   <v type="int" >        4       14       14       17       36 </v>
   <v type="int" >        4       14       15       34       36 </v>
   <v type="int" >        4       14       14       33       36 </v>
   <v type="int" >        8       14       33       34       36 </v>
   <v type="int" >        4       13       14       33       33 </v>
   <v type="int" >        4       10       13       29       33 </v>
   <v type="int" >        4       13       32       33       33 </v>
   <v type="int" >        4        9       13       29       32 </v>
   <v type="int" >        4        4        9       23       29 </v>
   <v type="int" >        4        3        9       23       28 </v>
   <v type="int" >        8        5       10       11       24 </v>
   <v type="int" >        8        4        5       10       24 </v>
   <v type="int" >        4        4       10       23       24 </v>
   <v type="int" >        4       10       11       24       30 </v>
   <v type="int" >        8       10       24       29       30 </v>
   <v type="int" >        8       10       23       24       29 </v>
   <v type="int" >        8       11       14       15       30 </v>
   <v type="int" >        8       10       11       14       30 </v>
   <v type="int" >        4       10       14       29       30 </v>
   <v type="int" >        4       14       15       30       34 </v>
   <v type="int" >        8       14       30       33       34 </v>
   <v type="int" >        8       14       29       30       33 </v>
   <v type="int" >        8       15       17       18       34 </v>
   <v type="int" >        8       14       15       17       34 </v>
   <v type="int" >        4       14       17       33       34 </v>
   <v type="int" >        4       17       18       34       37 </v>
   <v type="int" >        8       17       34       36       37 </v>
   <v type="int" >        8       17       33       34       36 </v>
   <v type="int" >       16       18       18       19       37 </v>
   <v type="int" >        8       17       18       18       37 </v>
   <v type="int" >        4       17       18       36       37 </v>
   <v type="int" >        8       18       19       37       38 </v>
   <v type="int" >       16       18       37       37       38 </v>
   <v type="int" >        8       18       36       37       37 </v>
   <v type="int" >        8       18       18       19       38 </v>
   <v type="int" >        8       18       18       37       38 </v>
   <v type="int" >        4       17       18       37       37 </v>
   <v type="int" >        4       15       17       34       37 </v>
   <v type="int" >        4       17       36       37       37 </v>
   <v type="int" >        4       14       17       34       36 </v>
   <v type="int" >        4       11       14       30       34 </v>
   <v type="int" >        4       10       14       30       33 </v>
   <v type="int" >        4        5       10       24       30 </v>
   <v type="int" >        4        4       10       24       29 </v>
   <v type="int" >        8        6       11       12       25 </v>
   <v type="int" >        8        5        6       11       25 </v>
   <v type="int" >        4        5       11       24       25 </v>
   <v type="int" >        4       11       12       25       31 </v>
   <v type="int" >        8       11       25       30       31 </v>
   <v type="int" >        8       11       24       25       30 </v>
   <v type="int" >        8       12       15       16       31 </v>
   <v type="int" >        8       11       12       15       31 </v>
   <v type="int" >        4       11       15       30       31 </v>
   <v type="int" >        4       15       16       31       35 </v>
   <v type="int" >        8       15       31       34       35 </v>
   <v type="int" >        8       15       30       31       34 </v>
   <v type="int" >        4       16       18       18       35 </v>
   <v type="int" >        8       15       16       18       35 </v>
   <v type="int" >        4       15       18       34       35 </v>
   <v type="int" >        4       18       18       35       37 </v>
   <v type="int" >        8       18       35       37       37 </v>
   <v type="int" >        8       18       34       35       37 </v>
   <v type="int" >        8       18       19       37       37 </v>
   <v type="int" >        8       19       37       37       38 </v>
   <v type="int" >        4       16       18       35       37 </v>
   <v type="int" >        4       15       18       35       37 </v>
   <v type="int" >        4       12       15       31       35 </v>
   <v type="int" >        4       11       15       31       34 </v>
   <v type="int" >        4        6       11       25       31 </v>
   <v type="int" >        4        5       11       25       30 </v>
   <v type="int" >        4        7       12       12       26 </v>
   <v type="int" >        8        6        7       12       26 </v>
   <v type="int" >        4        6       12       25       26 </v>
   <v type="int" >        4       12       12       26       31 </v>
   <v type="int" >        8       12       26       31       31 </v>
   <v type="int" >        8       12       25       26       31 </v>
   <v type="int" >        8       12       12       16       31 </v>
   <v type="int" >        4       12       16       31       31 </v>
   <v type="int" >        4       15       16       31       34 </v>
   <v type="int" >        8       16       31       34       35 </v>
   <v type="int" >        4       16       31       31       35 </v>
   <v type="int" >        8       15       16       18       34 </v>
   <v type="int" >        4       16       18       34       35 </v>
   <v type="int" >        4       17       18       34       36 </v>
   <v type="int" >        8       18       34       36       37 </v>
   <v type="int" >        4       17       18       18       36 </v>
   <v type="int" >        4       18       18       36       37 </v>
   <v type="int" >        4       15       18       34       36 </v>
   <v type="int" >        4       16       18       34       37 </v>
   <v type="int" >        4       12       16       31       34 </v>
   <v type="int" >        4       12       16       31       35 </v>
   <v type="int" >        4        7       12       26       31 </v>
   <v type="int" >        4        6       12       26       31 </v>
   <v type="int" >        8        6        7       12       25 </v>
   <v type="int" >        4        7       12       25       26 </v>
   <v type="int" >        4       11       12       25       30 </v>
   <v type="int" >        8       12       25       30       31 </v>
   <v type="int" >        8       11       12       15       30 </v>
   <v type="int" >        4       12       15       30       31 </v>
   <v type="int" >        4       14       15       30       33 </v>
   <v type="int" >        8       15       30       33       34 </v>
   <v type="int" >        8       14       15       17       33 </v>
   <v type="int" >        4       15       17       33       34 </v>
   <v type="int" >        4       14       17       33       33 </v>
   <v type="int" >        4       17       33       33       36 </v>
   <v type="int" >        4       15       17       33       36 </v>
   <v type="int" >        4       11       15       30       33 </v>
   <v type="int" >        4       12       15       30       34 </v>
   <v type="int" >        4        6       12       25       30 </v>
   <v type="int" >        4        7       12       25       31 </v>
   <v type="int" >        8        5        6       11       24 </v>
   <v type="int" >        4        6       11       24       25 </v>
   <v type="int" >        4       10       11       24       29 </v>
   <v type="int" >        8       11       24       29       30 </v>
   <v type="int" >        8       10       11       14       29 </v>
   <v type="int" >        4       11       14       29       30 </v>
   <v type="int" >        4       13       14       29       32 </v>
   <v type="int" >        8       14       29       32       33 </v>
   <v type="int" >        4       13       14       14       32 </v>
   <v type="int" >        4       14       14       32       33 </v>
   <v type="int" >        4       10       14       29       32 </v>
   <v type="int" >        4       11       14       29       33 </v>
   <v type="int" >        4        5       11       24       29 </v>
   <v type="int" >        4        6       11       24       30 </v>
   <v type="int" >        8        4        5       10       23 </v>
   <v type="int" >        4        5       10       23       24 </v>
   <v type="int" >        4        9       10       23       28 </v>
   <v type="int" >        8       10       23       28       29 </v>
   <v type="int" >        8        9       10       13       28 </v>
   <v type="int" >        4       10       13       28       29 </v>
   <v type="int" >        4        9       13       28       28 </v>
   <v type="int" >        4       13       28       28       32 </v>
   <v type="int" >        4       10       13       28       32 </v>
   <v type="int" >        4        4       10       23       28 </v>
   <v type="int" >        4        5       10       23       29 </v>
   <v type="int" >        8        3        4        9       22 </v>
   <v type="int" >        4        4        9       22       23 </v>
   <v type="int" >        4        8        9       22       27 </v>
   <v type="int" >        8        9       22       27       28 </v>
   <v type="int" >        4        8        9        9       27 </v>
   <v type="int" >        4        9        9       27       28 </v>
   <v type="int" >        4        3        9       22       27 </v>
   <v type="int" >        4        4        9       22       28 </v>
   <v type="int" >        8        2        3        8       21 </v>
   <v type="int" >        4        3        8       21       22 </v>
   <v type="int" >        4        2        8       21       21 </v>
   <v type="int" >        4        8       21       21       27 </v>
   <v type="int" >        4        3        8       21       27 </v>
   <v type="int" >        4        1        2        2       20 </v>
   <v type="int" >        4        2        2       20       21 </v>
   <v type="int" >       12       21       21       21       27 </v>
   <v type="int" >       12       20       21       21       21 </v>
   <v type="int" >        6       20       20       21       21 </v>
   <v type="int" >        6       21       21       27       27 </v>
   <v type="int" >       12       22       27       27       28 </v>
   <v type="int" >       12       21       22       27       27 </v>
   <v type="int" >       12       21       21       22       27 </v>
   <v type="int" >       12       22       27       28       28 </v>
   <v type="int" >       12       22       22       27       28 </v>
   <v type="int" >       12       21       22       22       27 </v>
   <v type="int" >       12       23       28       28       29 </v>
   <v type="int" >       12       22       23       28       28 </v>
   <v type="int" >       12       22       22       23       28 </v>
   <v type="int" >       12       23       28       29       29 </v>
   <v type="int" >       12       23       23       28       29 </v>
   <v type="int" >       12       22       23       23       28 </v>
   <v type="int" >       12       24       29       29       30 </v>
   <v type="int" >       12       23       24       29       29 </v>
   <v type="int" >       12       23       23       24       29 </v>
   <v type="int" >       12       24       29       30       30 </v>
   <v type="int" >       12       24       24       29       30 </v>
   <v type="int" >       12       23       24       24       29 </v>
   <v type="int" >       12       25       30       30       31 </v>
   <v type="int" >       12       24       25       30       30 </v>
   <v type="int" >       12       24       24       25       30 </v>
   <v type="int" >       12       25       30       31       31 </v>
   <v type="int" >       12       25       25       30       31 </v>
   <v type="int" >       12       24       25       25       30 </v>
   <v type="int" >       12       26       31       31       31 </v>
   <v type="int" >       12       25       26       31       31 </v>
   <v type="int" >       12       25       25       26       31 </v>
   <v type="int" >        6       26       26       31       31 </v>
   <v type="int" >       12       25       26       26       31 </v>
   <v type="int" >       12       28       28       28       32 </v>
   <v type="int" >       12       27       28       28       28 </v>
   <v type="int" >        6       27       27       28       28 </v>
   <v type="int" >        6       28       28       32       32 </v>
   <v type="int" >       12       29       32       32       33 </v>
   <v type="int" >       12       28       29       32       32 </v>
   <v type="int" >       12       28       28       29       32 </v>
   <v type="int" >       12       29       32       33       33 </v>
   <v type="int" >       12       29       29       32       33 </v>
   <v type="int" >       12       28       29       29       32 </v>
   <v type="int" >       12       30       33       33       34 </v>
   <v type="int" >       12       29       30       33       33 </v>
   <v type="int" >       12       29       29       30       33 </v>
   <v type="int" >       12       30       33       34       34 </v>
   <v type="int" >       12       30       30       33       34 </v>
   <v type="int" >       12       29       30       30       33 </v>
   <v type="int" >       12       31       34       34       35 </v>
   <v type="int" >       12       30       31       34       34 </v>
   <v type="int" >       12       30       30       31       34 </v>
   <v type="int" >       12       31       34       35       35 </v>
   <v type="int" >       12       31       31       34       35 </v>
   <v type="int" >       12       30       31       31       34 </v>
   <v type="int" >        6       31       31       35       35 </v>
   <v type="int" >       12       31       31       31       35 </v>
   <v type="int" >       12       33       33       33       36 </v>
   <v type="int" >       12       32       33       33       33 </v>
   <v type="int" >        6       32       32       33       33 </v>
   <v type="int" >        6       33       33       36       36 </v>
   <v type="int" >       12       34       36       36       37 </v>
   <v type="int" >       12       33       34       36       36 </v>
   <v type="int" >       12       33       33       34       36 </v>
   <v type="int" >       12       34       36       37       37 </v>
   <v type="int" >       12       34       34       36       37 </v>
   <v type="int" >       12       33       34       34       36 </v>
   <v type="int" >       12       35       37       37       37 </v>
   <v type="int" >       12       34       35       37       37 </v>
   <v type="int" >       12       34       34       35       37 </v>
   <v type="int" >        6       35       35       37       37 </v>
   <v type="int" >       12       34       35       35       37 </v>
   <v type="int" >       24       37       37       37       38 </v>
   <v type="int" >       12       36       37       37       37 </v>
   <v type="int" >        6       36       36       37       37 </v>
   <v type="int" >       12       37       37       38       38 </v>
  </varray>
  <i name="volumeweight">      0.00038580 </i>
 </kpoints>
 <parameters>
  <separator name="general" >
   <i type="string" name="SYSTEM">unknown system</i>
   <i type="logical" name="LCOMPAT"> F  </i>
  </separator>
  <separator name="electronic" >
   <i type="string" name="PREC">normal</i>
   <i name="ENMAX">    450.00000000</i>
   <i name="ENAUG">    345.27800000</i>
   <i name="EDIFF">      0.00001000</i>
   <i type="int" name="IALGO">    68</i>
   <i type="int" name="IWAVPR">    10</i>
   <i type="int" name="NBANDS">    22</i>
   <i name="NELECT">     36.00000000</i>
   <i type="int" name="TURBO">     0</i>
   <i type="int" name="IRESTART">     0</i>
   <i type="int" name="NREBOOT">     0</i>
   <i type="int" name="NMIN">     0</i>
   <i name="EREF">      0.00000000</i>
   <separator name="electronic smearing" >
    <i type="int" name="ISMEAR">    -5</i>
    <i name="SIGMA">      0.20000000</i>
    <i name="KSPACING">      0.50000000</i>
    <i type="logical" name="KGAMMA"> T  </i>
   </separator>
   <separator name="electronic projectors" >
    <i type="logical" name="LREAL"> F  </i>
    <v name="ROPT">      0.00000000      0.00000000</v>
    <i type="int" name="LMAXPAW">  -100</i>
    <i type="int" name="LMAXMIX">     2</i>
    <i type="logical" name="NLSPLINE"> F  </i>
   </separator>
   <separator name="electronic startup" >
    <i type="int" name="ISTART">     0</i>
    <i type="int" name="ICHARG">     2</i>
    <i type="int" name="INIWAV">     1</i>
   </separator>
   <separator name="electronic spin" >
    <i type="int" name="ISPIN">     1</i>
    <i type="logical" name="LNONCOLLINEAR"> F  </i>
    <v name="MAGMOM">      1.00000000      1.00000000      1.00000000      1.00000000      1.00000000      1.00000000</v>
    <i name="NUPDOWN">     -1.00000000</i>
    <i type="logical" name="LSORBIT"> F  </i>
    <v name="SAXIS">      0.00000000      0.00000000      1.00000000</v>
    <i type="logical" name="LSPIRAL"> F  </i>
    <v name="QSPIRAL">      0.00000000      0.00000000      0.00000000</v>
    <i type="logical" name="LZEROZ"> F  </i>
   </separator>
   <separator name="electronic exchange-correlation" >
    <i type="logical" name="LASPH"> F  </i>
    <i type="logical" name="LMETAGGA"> F  </i>
   </separator>
   <separator name="electronic convergence" >
    <i type="int" name="NELM">    60</i>
    <i type="int" name="NELMDL">     0</i>
    <i type="int" name="NELMIN">     4</i>
    <i name="ENINI">    450.00000000</i>
    <separator name="electronic convergence detail" >
     <i type="logical" name="LDIAG"> T  </i>
     <i type="logical" name="LSUBROT"> F  </i>
     <i name="WEIMIN">      0.00000000</i>
     <i name="EBREAK">      0.00000011</i>
     <i name="DEPER">      0.30000000</i>
     <i type="int" name="NRMM">     4</i>
     <i name="TIME">      0.40000000</i>
    </separator>
   </separator>
   <separator name="electronic mixer" >
    <i name="AMIX">      0.40000000</i>
    <i name="BMIX">      1.00000000</i>
    <i name="AMIN">      0.10000000</i>
    <i name="AMIX_MAG">      1.60000000</i>
    <i name="BMIX_MAG">      1.00000000</i>
    <separator name="electronic mixer details" >
     <i type="int" name="IMIX">     4</i>
     <i type="logical" name="MIXFIRST"> F  </i>
     <i type="int" name="MAXMIX">   -45</i>
     <i name="WC">    100.00000000</i>
     <i type="int" name="INIMIX">     1</i>
     <i type="int" name="MIXPRE">     1</i>
     <i type="int" name="MREMOVE">     5</i>
    </separator>
   </separator>
   <separator name="electronic dipolcorrection" >
    <i type="logical" name="LDIPOL"> F  </i>
    <i type="logical" name="LMONO"> F  </i>
    <i type="int" name="IDIPOL">     0</i>
    <i name="EPSILON">      1.00000000</i>
    <v name="DIPOL">   -100.00000000   -100.00000000   -100.00000000</v>
    <i name="EFIELD">      0.00000000</i>
   </separator>
  </separator>
  <separator name="grids" >
   <i type="int" name="NGX">    18</i>
   <i type="int" name="NGY">    18</i>
   <i type="int" name="NGZ">    80</i>
   <i type="int" name="NGXF">    36</i>
   <i type="int" name="NGYF">    36</i>
   <i type="int" name="NGZF">   160</i>
   <i type="logical" name="ADDGRID"> F  </i>
  </separator>
  <separator name="ionic" >
   <i type="int" name="NSW">     0</i>
   <i type="int" name="IBRION">    -1</i>
   <i type="int" name="MDALGO">     0</i>
   <i type="int" name="ISIF">     2</i>
   <i name="PSTRESS">      0.00000000</i>
   <i name="EDIFFG">      0.00010000</i>
   <i type="int" name="NFREE">     0</i>
   <i name="POTIM">      0.50000000</i>
   <i name="SMASS">     -3.00000000</i>
   <i name="SCALEE">      1.00000000</i>
  </separator>
  <separator name="ionic md" >
   <i name="TEBEG">      0.00010000</i>
   <i name="TEEND">      0.00010000</i>
   <i type="int" name="NBLOCK">     1</i>
   <i type="int" name="KBLOCK">     1</i>
   <i type="int" name="NPACO">   256</i>
   <i name="APACO">     16.00000000</i>
  </separator>
  <separator name="symmetry" >
   <i type="int" name="ISYM">     2</i>
   <i name="SYMPREC">      0.00001000</i>
  </separator>
  <separator name="dos" >
   <i type="int" name="LORBIT">     0</i>
   <v name="RWIGS">     -1.00000000     -1.00000000</v>
   <i type="int" name="NEDOS">   301</i>
   <i name="EMIN">     10.00000000</i>
   <i name="EMAX">    -10.00000000</i>
   <i name="EFERMI">      0.00000000</i>
  </separator>
  <separator name="writing" >
   <i type="int" name="NWRITE">     2</i>
   <i type="logical" name="LWAVE"> F  </i>
   <i type="logical" name="LDOWNSAMPLE"> F  </i>
   <i type="logical" name="LCHARG"> T  </i>
   <i type="logical" name="LPARD"> F  </i>
   <i type="logical" name="LVTOT"> F  </i>
   <i type="logical" name="LVHAR"> F  </i>
   <i type="logical" name="LELF"> F  </i>
   <i type="logical" name="LOPTICS"> F  </i>
   <v name="STM">      0.00000000      0.00000000      0.00000000      0.00000000      0.00000000      0.00000000      0.00000000</v>
  </separator>
  <separator name="performance" >
   <i type="int" name="NPAR">     2</i>
   <i type="int" name="NSIM">     4</i>
   <i type="int" name="NBLK">    -1</i>
   <i type="logical" name="LPLANE"> T  </i>
   <i type="logical" name="LSCALAPACK"> T  </i>
   <i type="logical" name="LSCAAWARE"> F  </i>
   <i type="logical" name="LSCALU"> F  </i>
   <i type="logical" name="LASYNC"> F  </i>
   <i type="logical" name="LORBITALREAL"> F  </i>
  </separator>
  <separator name="miscellaneous" >
   <i type="int" name="IDIOT">     3</i>
   <i type="int" name="ISPECIAL">     0</i>
   <i type="logical" name="LMUSIC"> F  </i>
   <v name="POMASS">     95.94000000     32.06600000</v>
   <v name="DARWINR">      0.00000000      0.00000000</v>
   <v name="DARWINV">      1.00000000      1.00000000</v>
   <i type="logical" name="LCORR"> T  </i>
  </separator>
  <i type="logical" name="GGA_COMPAT"> T  </i>
  <i type="logical" name="LBERRY"> F  </i>
  <i type="int" name="ICORELEVEL">     0</i>
  <i type="logical" name="LDAU"> F  </i>
  <i type="int" name="I_CONSTRAINED_M">     0</i>
  <separator name="electronic exchange-correlation" >
   <i type="string" name="GGA">--</i>
   <i type="int" name="VOSKOWN">     0</i>
   <i type="logical" name="LHFCALC"> F  </i>
   <i type="string" name="PRECFOCK"></i>
   <i type="logical" name="LSYMGRAD"> F  </i>
   <i type="logical" name="LHFONE"> F  </i>
   <i type="logical" name="LRHFCALC"> F  </i>
   <i type="logical" name="LTHOMAS"> F  </i>
   <i type="logical" name="LMODELHF"> F  </i>
   <i name="ENCUT4O">     -1.00000000</i>
   <i type="int" name="EXXOEP">     0</i>
   <i type="int" name="FOURORBIT">     0</i>
   <i name="AEXX">      0.00000000</i>
   <i name="HFALPHA">      0.00000000</i>
   <i name="MCALPHA">      0.00000000</i>
   <i name="ALDAX">      1.00000000</i>
   <i name="AGGAX">      1.00000000</i>
   <i name="ALDAC">      1.00000000</i>
   <i name="AGGAC">      1.00000000</i>
   <i type="int" name="NKREDX">     1</i>
   <i type="int" name="NKREDY">     1</i>
   <i type="int" name="NKREDZ">     1</i>
   <i type="logical" name="SHIFTRED"> F  </i>
   <i type="logical" name="ODDONLY"> F  </i>
   <i type="logical" name="EVENONLY"> F  </i>
   <i type="int" name="LMAXFOCK">     0</i>
   <i type="int" name="NMAXFOCKAE">     0</i>
   <i type="logical" name="LFOCKAEDFT"> F  </i>
   <i name="HFSCREEN">      0.00000000</i>
   <i name="HFSCREENC">      0.00000000</i>
   <i type="int" name="NBANDSGWLOW">     0</i>
  </separator>
  <separator name="vdW DFT" >
   <i type="logical" name="LUSE_VDW"> F  </i>
   <i name="Zab_VDW">     -0.84910000</i>
   <i name="PARAM1">      0.12340000</i>
   <i name="PARAM2">      1.00000000</i>
   <i name="PARAM3">      0.00000000</i>
  </separator>
  <separator name="model GW" >
   <i type="int" name="MODEL_GW">     0</i>
   <i name="MODEL_EPS0">     13.11510680</i>
   <i name="MODEL_ALPHA">      1.00000000</i>
  </separator>
  <separator name="linear response parameters" >
   <i type="logical" name="LEPSILON"> F  </i>
   <i type="logical" name="LRPA"> F  </i>
   <i type="logical" name="LNABLA"> F  </i>
   <i type="logical" name="LVEL"> F  </i>
   <i type="int" name="KINTER">     0</i>
   <i name="CSHIFT">      0.10000000</i>
   <i name="OMEGAMAX">     -1.00000000</i>
   <i name="DEG_THRESHOLD">      0.00200000</i>
   <i name="RTIME">     -0.10000000</i>
   <i name="WPLASMAI">      0.00000000</i>
   <v name="DFIELD">      0.00000000      0.00000000      0.00000000</v>
   <v name="WPLASMA">      0.00000000      0.00000000      0.00000000      0.00000000      0.00000000      0.00000000      0.00000000      0.00000000      0.00000000</v>
  </separator>
  <separator name="orbital magnetization" >
   <i type="logical" name="NUCIND"> F  </i>
   <v name="MAGPOS">      0.00000000      0.00000000      0.00000000</v>
   <i type="logical" name="LNICSALL"> T  </i>
   <i type="logical" name="ORBITALMAG"> F  </i>
   <i type="logical" name="LMAGBLOCH"> F  </i>
   <i type="logical" name="LCHIMAG"> F  </i>
   <i type="logical" name="LGAUGE"> T  </i>
   <i type="int" name="MAGATOM">     0</i>
   <v name="MAGDIPOL">      0.00000000      0.00000000      0.00000000</v>
   <v name="AVECCONST">      0.00000000      0.00000000      0.00000000</v>
  </separator>
  <separator name="response functions" >
   <i type="logical" name="LADDER"> F  </i>
   <i type="logical" name="LRPAFORCE"> F  </i>
   <i type="logical" name="LFXC"> F  </i>
   <i type="logical" name="LHARTREE"> T  </i>
   <i type="int" name="IBSE">     0</i>
   <v type="int" name="KPOINT">    -1     0     0     0</v>
   <i type="logical" name="LTCTE"> F  </i>
   <i type="logical" name="LTETE"> F  </i>
   <i type="logical" name="LTRIPLET"> F  </i>
   <i type="logical" name="LFXCEPS"> F  </i>
   <i type="logical" name="LFXHEG"> F  </i>
   <i type="int" name="NATURALO">     2</i>
   <i type="logical" name="L2ORDER"> F  </i>
   <i type="logical" name="LMP2LT"> F  </i>
   <i type="logical" name="LUSEW"> F  </i>
   <i name="ENCUTGW">     -2.00000000</i>
   <i name="ENCUTGWSOFT">     -2.00000000</i>
   <i name="ENCUTLF">     -1.00000000</i>
   <i type="int" name="LMAXMP2">    -1</i>
   <i name="SCISSOR">      0.00000000</i>
   <i type="int" name="NOMEGA">     0</i>
   <i type="int" name="NOMEGAR">     0</i>
   <i type="int" name="NBANDSGW">    -1</i>
   <i type="int" name="NBANDSO">    -1</i>
   <i type="int" name="NBANDSV">    -1</i>
   <i type="int" name="NELM">     1</i>
   <i type="int" name="NELMHF">     1</i>
   <i type="int" name="DIM">     3</i>
   <i type="int" name="ANTIRES">     0</i>
   <i name="OMEGAMAX">    -30.00000000</i>
   <i name="OMEGAMIN">    -30.00000000</i>
   <i name="OMEGATL">   -200.00000000</i>
   <i type="int" name="OMEGAGRID">   140</i>
   <i name="CSHIFT">     -0.10000000</i>
   <i type="logical" name="SELFENERGY"> F  </i>
   <i type="logical" name="LSPECTRAL"> F  </i>
   <i type="logical" name="LSPECTRALGW"> F  </i>
   <i type="logical" name="LSINGLES"> F  </i>
   <i type="logical" name="LFERMIGW"> F  </i>
   <i type="logical" name="ODDONLYGW"> F  </i>
   <i type="logical" name="EVENONLYGW"> F  </i>
   <i type="int" name="NKREDLFX">     1</i>
   <i type="int" name="NKREDLFY">     1</i>
   <i type="int" name="NKREDLFZ">     1</i>
   <i type="int" name="MAXMEM">  2800</i>
   <i type="int" name="TELESCOPE">     0</i>
   <i type="int" name="TAUPAR">     1</i>
   <i type="int" name="OMEGAPAR">    -1</i>
   <i name="LAMBDA">      1.00000000</i>
  </separator>
  <separator name="External order field" >
   <i name="OFIELD_KAPPA">      0.00000000</i>
   <v name="OFIELD_K">      0.00000000      0.00000000      0.00000000</v>
   <i name="OFIELD_Q6_NEAR">      0.00000000</i>
   <i name="OFIELD_Q6_FAR">      0.00000000</i>
   <i name="OFIELD_A">      0.00000000</i>
  </separator>
 </parameters>
 <atominfo>
  <atoms>       6 </atoms>
  <types>       2 </types>
  <array name="atoms" >
   <dimension dim="1">ion</dimension>
   <field type="string">element</field>
   <field type="int">atomtype</field>
   <set>
    <rc><c>Mo</c><c>   1</c></rc>
    <rc><c>Mo</c><c>   1</c></rc>
    <rc><c>S </c><c>   2</c></rc>
    <rc><c>S </c><c>   2</c></rc>
    <rc><c>S </c><c>   2</c></rc>
    <rc><c>S </c><c>   2</c></rc>
   </set>
  </array>
  <array name="atomtypes" >
   <dimension dim="1">type</dimension>
   <field type="int">atomspertype</field>
   <field type="string">element</field>
   <field>mass</field>
   <field>valence</field>
   <field type="string">pseudopotential</field>
   <set>
    <rc><c>   2</c><c>Mo</c><c>     95.94000000</c><c>      6.00000000</c><c> PAW_PBE Mo 08Apr2002                   </c></rc>
    <rc><c>   4</c><c>S </c><c>     32.06600000</c><c>      6.00000000</c><c>  PAW_PBE S 17Jan2003                   </c></rc>
   </set>
  </array>
 </atominfo>
 <structure name="initialpos" >
  <crystal>
   <varray name="basis" >
    <v>       3.19031573       0.00000000       0.00000000 </v>
    <v>      -1.59515786       2.76289447       0.00000000 </v>
    <v>       0.00000000       0.00000000      14.87900430 </v>
   </varray>
   <i name="volume">    131.15106795 </i>
   <varray name="rec_basis" >
    <v>       0.31344860       0.18096963       0.00000000 </v>
    <v>       0.00000000       0.36193927       0.00000000 </v>
    <v>       0.00000000       0.00000000       0.06720880 </v>
   </varray>
  </crystal>
  <varray name="positions" >
   <v>       0.33333300       0.66666700       0.25000000 </v>
   <v>       0.66666700       0.33333300       0.75000000 </v>
   <v>       0.33333300       0.66666700       0.85517400 </v>
   <v>       0.66666700       0.33333300       0.14482600 </v>
   <v>       0.66666600       0.33333300       0.35517400 </v>
   <v>       0.33333400       0.66666700       0.64482600 </v>
  </varray>
 </structure>
 <calculation>
  <scstep>
   <time name="dav">    0.81    0.82</time>
   <time name="total">    0.86    0.92</time>
   <energy>
    <i name="alphaZ">     90.42577596 </i>
    <i name="ewald">  -1146.88905665 </i>
    <i name="hartreedc">   -535.10238363 </i>
    <i name="XCdc">    -72.59368150 </i>
    <i name="pawpsdc">    813.77302396 </i>
    <i name="pawaedc">   -658.68146406 </i>
    <i name="eentropy">      0.00000000 </i>
    <i name="bandstr">    164.82784122 </i>
    <i name="atom">   1542.31022798 </i>
    <i name="e_fr_energy">    198.07028330 </i>
    <i name="e_wo_entrp">    198.07028330 </i>
    <i name="e_0_energy">    198.07028330 </i>
   </energy>
  </scstep>
  <scstep>
   <time name="dav">    1.03    1.03</time>
   <time name="total">    1.03    1.04</time>
   <energy>
    <i name="e_fr_energy">    -28.67606900 </i>
    <i name="e_wo_entrp">    -28.67606900 </i>
    <i name="e_0_energy">    -28.67606900 </i>
   </energy>
  </scstep>
  <scstep>
   <time name="dav">    1.01    1.02</time>
   <time name="total">    1.02    1.02</time>
   <energy>
    <i name="e_fr_energy">    -46.31582314 </i>
    <i name="e_wo_entrp">    -46.31582314 </i>
    <i name="e_0_energy">    -46.31582314 </i>
   </energy>
  </scstep>
  <scstep>
   <time name="dav">    1.04    1.04</time>
   <time name="total">    1.04    1.05</time>
   <energy>
    <i name="e_fr_energy">    -46.80774528 </i>
    <i name="e_wo_entrp">    -46.80774528 </i>
    <i name="e_0_energy">    -46.80774528 </i>
   </energy>
  </scstep>
  <scstep>
   <time name="dav">    1.02    1.02</time>
   <time name="total">    1.08    1.09</time>
   <energy>
    <i name="e_fr_energy">    -46.82036545 </i>
    <i name="e_wo_entrp">    -46.82036545 </i>
    <i name="e_0_energy">    -46.82036545 </i>
   </energy>
  </scstep>
  <scstep>
   <time name="diag">    0.17    0.17</time>
   <time name="diis">    0.67    0.67</time>
   <time name="orth">    0.02    0.02</time>
   <time name="total">    0.96    0.96</time>
   <energy>
    <i name="e_fr_energy">    -44.43249859 </i>
    <i name="e_wo_entrp">    -44.43249859 </i>
    <i name="e_0_energy">    -44.43249859 </i>
   </energy>
  </scstep>
  <scstep>
   <time name="diag">    0.17    0.17</time>
   <time name="diis">    0.68    0.68</time>
   <time name="orth">    0.02    0.02</time>
   <time name="total">    0.97    0.97</time>
   <energy>
    <i name="e_fr_energy">    -43.69568363 </i>
    <i name="e_wo_entrp">    -43.69568363 </i>
    <i name="e_0_energy">    -43.69568363 </i>
   </energy>
  </scstep>
  <scstep>
   <time name="diag">    0.17    0.17</time>
   <time name="diis">    0.69    0.70</time>
   <time name="orth">    0.02    0.02</time>
   <time name="total">    0.98    0.99</time>
   <energy>
    <i name="e_fr_energy">    -43.63023696 </i>
    <i name="e_wo_entrp">    -43.63023696 </i>
    <i name="e_0_energy">    -43.63023696 </i>
   </energy>
  </scstep>
  <scstep>
   <time name="diag">    0.17    0.17</time>
   <time name="diis">    0.72    0.72</time>
   <time name="orth">    0.02    0.02</time>
   <time name="total">    1.01    1.01</time>
   <energy>
    <i name="e_fr_energy">    -43.61896893 </i>
    <i name="e_wo_entrp">    -43.61896893 </i>
    <i name="e_0_energy">    -43.61896893 </i>
   </energy>
  </scstep>
  <scstep>
   <time name="diag">    0.17    0.17</time>
   <time name="diis">    0.74    0.74</time>
   <time name="orth">    0.02    0.02</time>
   <time name="total">    1.03    1.03</time>
   <energy>
    <i name="e_fr_energy">    -43.60546197 </i>
    <i name="e_wo_entrp">    -43.60546197 </i>
    <i name="e_0_energy">    -43.60546197 </i>
   </energy>
  </scstep>
  <scstep>
   <time name="diag">    0.17    0.17</time>
   <time name="diis">    0.78    0.78</time>
   <time name="orth">    0.02    0.02</time>
   <time name="total">    1.07    1.07</time>
   <energy>
    <i name="e_fr_energy">    -43.60559822 </i>
    <i name="e_wo_entrp">    -43.60559822 </i>
    <i name="e_0_energy">    -43.60559822 </i>
   </energy>
  </scstep>
  <scstep>
   <time name="diag">    0.17    0.17</time>
   <time name="diis">    0.77    0.77</time>
   <time name="orth">    0.02    0.02</time>
   <time name="total">    1.07    1.07</time>
   <energy>
    <i name="e_fr_energy">    -43.60573112 </i>
    <i name="e_wo_entrp">    -43.60573112 </i>
    <i name="e_0_energy">    -43.60573112 </i>
   </energy>
  </scstep>
  <scstep>
   <time name="diag">    0.17    0.17</time>
   <time name="diis">    0.79    0.78</time>
   <time name="orth">    0.02    0.02</time>
   <time name="total">    1.08    1.08</time>
   <energy>
    <i name="e_fr_energy">    -43.60574188 </i>
    <i name="e_wo_entrp">    -43.60574188 </i>
    <i name="e_0_energy">    -43.60574188 </i>
   </energy>
  </scstep>
  <scstep>
   <time name="diag">    0.17    0.17</time>
   <time name="diis">    0.59    0.59</time>
   <time name="orth">    0.02    0.02</time>
   <time name="total">    0.81    0.81</time>
   <energy>
    <i name="alphaZ">     90.42577596 </i>
    <i name="ewald">  -1146.88905665 </i>
    <i name="hartreedc">   -542.94853790 </i>
    <i name="XCdc">    -70.39259167 </i>
    <i name="pawpsdc">    944.38100939 </i>
    <i name="pawaedc">   -792.76294033 </i>
    <i name="eentropy">      0.00000000 </i>
    <i name="bandstr">    -67.72961871 </i>
    <i name="atom">   1542.31022798 </i>
    <i name="e_fr_energy">    -43.60573193 </i>
    <i name="e_wo_entrp">    -43.60573193 </i>
    <i name="e_0_energy">    -43.60573193 </i>
   </energy>
  </scstep>
  <structure>
   <crystal>
    <varray name="basis" >
     <v>       3.19031573       0.00000000       0.00000000 </v>
     <v>      -1.59515786       2.76289447       0.00000000 </v>
     <v>       0.00000000       0.00000000      14.87900430 </v>
    </varray>
    <i name="volume">    131.15106795 </i>
    <varray name="rec_basis" >
     <v>       0.31344860       0.18096963       0.00000000 </v>
     <v>       0.00000000       0.36193927       0.00000000 </v>
     <v>       0.00000000       0.00000000       0.06720880 </v>
    </varray>
   </crystal>
   <varray name="positions" >
    <v>       0.33333300       0.66666700       0.25000000 </v>
    <v>       0.66666700       0.33333300       0.75000000 </v>
    <v>       0.33333300       0.66666700       0.85517400 </v>
    <v>       0.66666700       0.33333300       0.14482600 </v>
    <v>       0.66666600       0.33333300       0.35517400 </v>
    <v>       0.33333400       0.66666700       0.64482600 </v>
   </varray>
  </structure>
  <varray name="forces" >
   <v>      -0.00000000      -0.00000000       0.00000000 </v>
   <v>       0.00000000      -0.00000000       0.00000000 </v>
   <v>      -0.00000000       0.00000000      -0.08405994 </v>
   <v>       0.00000000      -0.00000000       0.08405994 </v>
   <v>       0.00000000      -0.00000000      -0.08405994 </v>
   <v>      -0.00000000       0.00000000       0.08405994 </v>
  </varray>
  <varray name="stress" >
   <v>      -5.04982725       0.00000000      -0.00000000 </v>
   <v>       0.00000000      -5.04982725       0.00000000 </v>
   <v>       0.00000000       0.00000000     -16.58910831 </v>
  </varray>
  <energy>
   <i name="e_fr_energy">    -44.93701895 </i>
   <i name="e_wo_entrp">    -44.93701895 </i>
   <i name="e_0_energy">      0.00000000 </i>
  </energy>
  <time name="totalsc">   15.22   15.38</time>
  <eigenvalues>
   <array>
    <dimension dim="1">band</dimension>
    <dimension dim="2">kpoint</dimension>
    <dimension dim="3">spin</dimension>
    <field>eigene</field>
    <field>occ</field>
    <set>
     <set comment="spin 1">
      <set comment="kpoint 1">
       <r>  -10.9299    1.0000 </r>
       <r>  -10.9109    1.0000 </r>
       <r>   -9.7294    1.0000 </r>
       <r>   -9.6954    1.0000 </r>
       <r>   -2.5233    1.0000 </r>
       <r>   -2.3618    1.0000 </r>
       <r>    0.5199    1.0000 </r>
       <r>    0.5199    1.0000 </r>
       <r>    0.5205    1.0000 </r>
       <r>    0.5205    1.0000 </r>
       <r>    1.1061    1.0000 </r>
       <r>    1.6249    1.0000 </r>
       <r>    1.6250    1.0000 </r>
       <r>    1.6268    1.0000 </r>
       <r>    1.6269    1.0000 </r>
       <r>    1.6746    1.0000 </r>
       <r>    2.9227    1.0000 </r>
       <r>    3.2986    1.0000 </r>
       <r>    5.8749    0.0000 </r>
       <r>    5.9127    0.0000 </r>
       <r>    6.0169    0.0000 </r>
       <r>    6.0849    0.0000 </r>
      </set>
      <set comment="kpoint 2">
       <r>  -10.8332    1.0000 </r>
       <r>  -10.8143    1.0000 </r>
       <r>   -9.6826    1.0000 </r>
       <r>   -9.6498    1.0000 </r>
       <r>   -2.4090    1.0000 </r>
       <r>   -2.2482    1.0000 </r>
       <r>    0.2967    1.0000 </r>
       <r>    0.2978    1.0000 </r>
       <r>    0.6263    1.0000 </r>
       <r>    0.6271    1.0000 </r>
       <r>    0.7399    1.0000 </r>
       <r>    1.0121    1.0000 </r>
       <r>    1.4636    1.0000 </r>
       <r>    1.4659    1.0000 </r>
       <r>    1.8497    1.0000 </r>
       <r>    2.1173    1.0000 </r>
       <r>    2.8971    1.0000 </r>
       <r>    3.2110    1.0000 </r>
       <r>    5.7385    0.0000 </r>
       <r>    5.7851    0.0000 </r>
       <r>    5.8089    0.0000 </r>
       <r>    5.9148    0.0000 </r>
      </set>
      <set comment="kpoint 3">
       <r>  -10.5570    1.0000 </r>
       <r>  -10.5388    1.0000 </r>
       <r>   -9.5494    1.0000 </r>
       <r>   -9.5199    1.0000 </r>
       <r>   -2.1184    1.0000 </r>
       <r>   -1.9646    1.0000 </r>
       <r>   -0.2228    1.0000 </r>
       <r>   -0.2155    1.0000 </r>
       <r>    0.1577    1.0000 </r>
       <r>    0.3287    1.0000 </r>
       <r>    0.9230    1.0000 </r>
       <r>    0.9247    1.0000 </r>
       <r>    1.0823    1.0000 </r>
       <r>    1.0852    1.0000 </r>
       <r>    1.9243    1.0000 </r>
       <r>    2.1955    1.0000 </r>
       <r>    2.7361    1.0000 </r>
       <r>    2.8958    1.0000 </r>
       <r>    5.2867    0.0000 </r>
       <r>    5.5518    0.0000 </r>
       <r>    5.7058    0.0000 </r>
       <r>    5.7176    0.0000 </r>
      </set>
      <set comment="kpoint 4">
       <r>  -10.1458    1.0000 </r>
       <r>  -10.1291    1.0000 </r>
       <r>   -9.3533    1.0000 </r>
       <r>   -9.3290    1.0000 </r>
       <r>   -1.8875    1.0000 </r>
       <r>   -1.7766    1.0000 </r>
       <r>   -0.6913    1.0000 </r>
       <r>   -0.6478    1.0000 </r>
       <r>   -0.4610    1.0000 </r>
       <r>   -0.3595    1.0000 </r>
       <r>    0.6534    1.0000 </r>
       <r>    0.6569    1.0000 </r>
       <r>    1.3400    1.0000 </r>
       <r>    1.3435    1.0000 </r>
       <r>    1.7042    1.0000 </r>
       <r>    1.9131    1.0000 </r>
       <r>    2.3701    1.0000 </r>
       <r>    2.4186    1.0000 </r>
       <r>    5.1190    0.0000 </r>
       <r>    5.4391    0.0000 </r>
       <r>    5.4435    0.0000 </r>
       <r>    5.4560    0.0000 </r>
      </set>
      <set comment="kpoint 5">
       <r>   -9.6816    1.0000 </r>
       <r>   -9.6678    1.0000 </r>
       <r>   -9.1369    1.0000 </r>
       <r>   -9.1191    1.0000 </r>
       <r>   -2.0934    1.0000 </r>
       <r>   -2.0463    1.0000 </r>
       <r>   -1.0503    1.0000 </r>
       <r>   -0.9930    1.0000 </r>
       <r>   -0.8124    1.0000 </r>
       <r>   -0.7266    1.0000 </r>
       <r>    0.2916    1.0000 </r>
       <r>    0.2954    1.0000 </r>
       <r>    1.4371    1.0000 </r>
       <r>    1.5784    1.0000 </r>
       <r>    1.7593    1.0000 </r>
       <r>    1.7660    1.0000 </r>
       <r>    2.1300    1.0000 </r>
       <r>    2.1755    1.0000 </r>
       <r>    5.2820    0.0000 </r>
       <r>    5.2938    0.0000 </r>
       <r>    5.3035    0.0000 </r>
       <r>    5.5437    0.0000 </r>
      </set>
      <set comment="kpoint 6">
       <r>   -9.2936    1.0000 </r>
       <r>   -9.2840    1.0000 </r>
       <r>   -8.9616    1.0000 </r>
       <r>   -8.9508    1.0000 </r>
       <r>   -2.4560    1.0000 </r>
       <r>   -2.4265    1.0000 </r>
       <r>   -1.4892    1.0000 </r>
       <r>   -1.4562    1.0000 </r>
       <r>   -0.8998    1.0000 </r>
       <r>   -0.8194    1.0000 </r>
       <r>    0.0563    1.0000 </r>
       <r>    0.0604    1.0000 </r>
       <r>    1.2808    1.0000 </r>
       <r>    1.3545    1.0000 </r>
       <r>    2.0528    1.0000 </r>
       <r>    2.0631    1.0000 </r>
       <r>    2.2944    1.0000 </r>
       <r>    2.3402    1.0000 </r>
       <r>    5.2639    0.0000 </r>
       <r>    5.2703    0.0000 </r>
       <r>    5.6070    0.0000 </r>
       <r>    5.7282    0.0000 </r>
      </set>
      <set comment="kpoint 7">
       <r>   -9.1373    1.0000 </r>
       <r>   -9.1308    1.0000 </r>
       <r>   -8.8925    1.0000 </r>
       <r>   -8.8860    1.0000 </r>
       <r>   -2.6135    1.0000 </r>
       <r>   -2.5865    1.0000 </r>
       <r>   -1.6526    1.0000 </r>
       <r>   -1.6281    1.0000 </r>
       <r>   -0.9680    1.0000 </r>
       <r>   -0.8921    1.0000 </r>
       <r>   -0.0248    1.0000 </r>
       <r>   -0.0206    1.0000 </r>
       <r>    1.2469    1.0000 </r>
       <r>    1.2664    1.0000 </r>
       <r>    2.1533    1.0000 </r>
       <r>    2.1654    1.0000 </r>
       <r>    2.4775    1.0000 </r>
       <r>    2.4813    1.0000 </r>
       <r>    5.2845    0.0000 </r>
       <r>    5.2883    0.0000 </r>
       <r>    5.7752    0.0000 </r>
       <r>    5.8305    0.0000 </r>
      </set>
      <set comment="kpoint 8">
       <r>  -10.6466    1.0000 </r>
       <r>  -10.6282    1.0000 </r>
       <r>   -9.5925    1.0000 </r>
       <r>   -9.5618    1.0000 </r>
       <r>   -2.2034    1.0000 </r>
       <r>   -2.0460    1.0000 </r>
       <r>   -0.0659    1.0000 </r>
       <r>   -0.0645    1.0000 </r>
       <r>    0.3546    1.0000 </r>
       <r>    0.5613    1.0000 </r>
       <r>    0.8197    1.0000 </r>
       <r>    0.8208    1.0000 </r>
       <r>    1.0868    1.0000 </r>
       <r>    1.0940    1.0000 </r>
       <r>    2.0281    1.0000 </r>
       <r>    2.2955    1.0000 </r>
       <r>    2.8039    1.0000 </r>
       <r>    3.0080    1.0000 </r>
       <r>    5.4014    0.0000 </r>
       <r>    5.5721    0.0000 </r>
       <r>    5.6656    0.0000 </r>
       <r>    5.7667    0.0000 </r>
      </set>
      <set comment="kpoint 9">
       <r>  -10.3020    1.0000 </r>
       <r>  -10.2846    1.0000 </r>
       <r>   -9.4268    1.0000 </r>
       <r>   -9.4004    1.0000 </r>
       <r>   -1.9153    1.0000 </r>
       <r>   -1.7788    1.0000 </r>
       <r>   -0.5413    1.0000 </r>
       <r>   -0.5236    1.0000 </r>
       <r>   -0.1444    1.0000 </r>
       <r>   -0.0155    1.0000 </r>
       <r>    0.5411    1.0000 </r>
       <r>    0.5668    1.0000 </r>
       <r>    1.1289    1.0000 </r>
       <r>    1.1310    1.0000 </r>
       <r>    2.0194    1.0000 </r>
       <r>    2.2235    1.0000 </r>
       <r>    2.5290    1.0000 </r>
       <r>    2.6004    1.0000 </r>
       <r>    5.0715    0.0000 </r>
       <r>    5.3583    0.0000 </r>
       <r>    5.5809    0.0000 </r>
       <r>    5.6316    0.0000 </r>
      </set>
      <set comment="kpoint 10">
       <r>   -9.8608    1.0000 </r>
       <r>   -9.8456    1.0000 </r>
       <r>   -9.2175    1.0000 </r>
       <r>   -9.1969    1.0000 </r>
       <r>   -1.9035    1.0000 </r>
       <r>   -1.8337    1.0000 </r>
       <r>   -0.7612    1.0000 </r>
       <r>   -0.7550    1.0000 </r>
       <r>   -0.7011    1.0000 </r>
       <r>   -0.6846    1.0000 </r>
       <r>    0.1748    1.0000 </r>
       <r>    0.2186    1.0000 </r>
       <r>    1.3796    1.0000 </r>
       <r>    1.3818    1.0000 </r>
       <r>    1.7592    1.0000 </r>
       <r>    1.8897    1.0000 </r>
       <r>    2.2600    1.0000 </r>
       <r>    2.2831    1.0000 </r>
       <r>    5.0284    0.0000 </r>
       <r>    5.2304    0.0000 </r>
       <r>    5.4685    0.0000 </r>
       <r>    5.5869    0.0000 </r>
      </set>
      <set comment="kpoint 11">
       <r>   -9.4269    1.0000 </r>
       <r>   -9.4154    1.0000 </r>
       <r>   -9.0162    1.0000 </r>
       <r>   -9.0024    1.0000 </r>
       <r>   -2.2225    1.0000 </r>
       <r>   -2.1882    1.0000 </r>
       <r>   -1.3382    1.0000 </r>
       <r>   -1.3088    1.0000 </r>
       <r>   -0.7957    1.0000 </r>
       <r>   -0.7150    1.0000 </r>
       <r>    0.0117    1.0000 </r>
       <r>    0.0452    1.0000 </r>
       <r>    1.4588    1.0000 </r>
       <r>    1.4990    1.0000 </r>
       <r>    1.5114    1.0000 </r>
       <r>    1.5346    1.0000 </r>
       <r>    2.3660    1.0000 </r>
       <r>    2.3860    1.0000 </r>
       <r>    5.1914    0.0000 </r>
       <r>    5.2961    0.0000 </r>
       <r>    5.5513    0.0000 </r>
       <r>    5.6449    0.0000 </r>
      </set>
      <set comment="kpoint 12">
       <r>   -9.1453    1.0000 </r>
       <r>   -9.1381    1.0000 </r>
       <r>   -8.8886    1.0000 </r>
       <r>   -8.8811    1.0000 </r>
       <r>   -2.4768    1.0000 </r>
       <r>   -2.4499    1.0000 </r>
       <r>   -1.6779    1.0000 </r>
       <r>   -1.6616    1.0000 </r>
       <r>   -0.9110    1.0000 </r>
       <r>   -0.8369    1.0000 </r>
       <r>   -0.0398    1.0000 </r>
       <r>   -0.0208    1.0000 </r>
       <r>    1.2778    1.0000 </r>
       <r>    1.3152    1.0000 </r>
       <r>    1.6258    1.0000 </r>
       <r>    1.6378    1.0000 </r>
       <r>    2.6057    1.0000 </r>
       <r>    2.6236    1.0000 </r>
       <r>    5.2930    0.0000 </r>
       <r>    5.3222    0.0000 </r>
       <r>    5.7654    0.0000 </r>
       <r>    5.8376    0.0000 </r>
      </set>
      <set comment="kpoint 13">
       <r>   -9.9249    1.0000 </r>
       <r>   -9.9092    1.0000 </r>
       <r>   -9.2456    1.0000 </r>
       <r>   -9.2240    1.0000 </r>
       <r>   -1.8132    1.0000 </r>
       <r>   -1.7283    1.0000 </r>
       <r>   -0.7025    1.0000 </r>
       <r>   -0.6514    1.0000 </r>
       <r>   -0.5290    1.0000 </r>
       <r>   -0.4849    1.0000 </r>
       <r>   -0.0824    1.0000 </r>
       <r>    0.0122    1.0000 </r>
       <r>    1.1633    1.0000 </r>
       <r>    1.1640    1.0000 </r>
       <r>    2.0165    1.0000 </r>
       <r>    2.1324    1.0000 </r>
       <r>    2.3230    1.0000 </r>
       <r>    2.3361    1.0000 </r>
       <r>    4.9103    0.0000 </r>
       <r>    5.1519    0.0000 </r>
       <r>    5.5315    0.0000 </r>
       <r>    5.6493    0.0000 </r>
      </set>
      <set comment="kpoint 14">
       <r>   -9.5050    1.0000 </r>
       <r>   -9.4924    1.0000 </r>
       <r>   -9.0444    1.0000 </r>
       <r>   -9.0288    1.0000 </r>
       <r>   -1.9745    1.0000 </r>
       <r>   -1.9330    1.0000 </r>
       <r>   -1.2049    1.0000 </r>
       <r>   -1.1908    1.0000 </r>
       <r>   -0.6258    1.0000 </r>
       <r>   -0.5595    1.0000 </r>
       <r>   -0.1884    1.0000 </r>
       <r>   -0.0959    1.0000 </r>
       <r>    0.8961    1.0000 </r>
       <r>    0.9055    1.0000 </r>
       <r>    1.7483    1.0000 </r>
       <r>    1.7957    1.0000 </r>
       <r>    2.3766    1.0000 </r>
       <r>    2.3778    1.0000 </r>
       <r>    5.0525    0.0000 </r>
       <r>    5.3006    0.0000 </r>
       <r>    5.6054    0.0000 </r>
       <r>    5.8723    0.0000 </r>
      </set>
      <set comment="kpoint 15">
       <r>   -9.1609    1.0000 </r>
       <r>   -9.1527    1.0000 </r>
       <r>   -8.8804    1.0000 </r>
       <r>   -8.8713    1.0000 </r>
       <r>   -2.1578    1.0000 </r>
       <r>   -2.1306    1.0000 </r>
       <r>   -1.7263    1.0000 </r>
       <r>   -1.7202    1.0000 </r>
       <r>   -0.7285    1.0000 </r>
       <r>   -0.6658    1.0000 </r>
       <r>   -0.1004    1.0000 </r>
       <r>   -0.0348    1.0000 </r>
       <r>    0.7643    1.0000 </r>
       <r>    0.7855    1.0000 </r>
       <r>    1.3944    1.0000 </r>
       <r>    1.4253    1.0000 </r>
       <r>    2.6186    1.0000 </r>
       <r>    2.6342    1.0000 </r>
       <r>    5.2326    0.0000 </r>
       <r>    5.3303    0.0000 </r>
       <r>    5.8080    0.0000 </r>
       <r>    5.8881    0.0000 </r>
      </set>
      <set comment="kpoint 16">
       <r>   -9.0247    1.0000 </r>
       <r>   -9.0195    1.0000 </r>
       <r>   -8.8155    1.0000 </r>
       <r>   -8.8104    1.0000 </r>
       <r>   -2.2248    1.0000 </r>
       <r>   -2.2010    1.0000 </r>
       <r>   -1.9154    1.0000 </r>
       <r>   -1.9134    1.0000 </r>
       <r>   -0.8476    1.0000 </r>
       <r>   -0.7842    1.0000 </r>
       <r>   -0.0250    1.0000 </r>
       <r>    0.0221    1.0000 </r>
       <r>    0.7671    1.0000 </r>
       <r>    0.7862    1.0000 </r>
       <r>    1.2165    1.0000 </r>
       <r>    1.2595    1.0000 </r>
       <r>    2.7901    1.0000 </r>
       <r>    2.8122    1.0000 </r>
       <r>    5.1836    0.0000 </r>
       <r>    5.2075    0.0000 </r>
       <r>    6.0756    0.0000 </r>
       <r>    6.1136    0.0000 </r>
      </set>
      <set comment="kpoint 17">
       <r>   -9.1686    1.0000 </r>
       <r>   -9.1599    1.0000 </r>
       <r>   -8.8763    1.0000 </r>
       <r>   -8.8664    1.0000 </r>
       <r>   -1.9669    1.0000 </r>
       <r>   -1.9384    1.0000 </r>
       <r>   -1.7533    1.0000 </r>
       <r>   -1.7421    1.0000 </r>
       <r>   -0.4878    1.0000 </r>
       <r>   -0.4634    1.0000 </r>
       <r>   -0.1389    1.0000 </r>
       <r>   -0.0507    1.0000 </r>
       <r>    0.2150    1.0000 </r>
       <r>    0.2376    1.0000 </r>
       <r>    1.4766    1.0000 </r>
       <r>    1.4872    1.0000 </r>
       <r>    2.6010    1.0000 </r>
       <r>    2.6107    1.0000 </r>
       <r>    5.1859    0.0000 </r>
       <r>    5.3139    0.0000 </r>
       <r>    5.9492    0.0000 </r>
       <r>    6.0923    0.0000 </r>
      </set>
      <set comment="kpoint 18">
       <r>   -8.9596    1.0000 </r>
       <r>   -8.9553    1.0000 </r>
       <r>   -8.7688    1.0000 </r>
       <r>   -8.7643    1.0000 </r>
       <r>   -2.0923    1.0000 </r>
       <r>   -2.0815    1.0000 </r>
       <r>   -1.8312    1.0000 </r>
       <r>   -1.8118    1.0000 </r>
       <r>   -0.6995    1.0000 </r>
       <r>   -0.6634    1.0000 </r>
       <r>   -0.0965    1.0000 </r>
       <r>   -0.0673    1.0000 </r>
       <r>    0.0609    1.0000 </r>
       <r>    0.1219    1.0000 </r>
       <r>    1.1375    1.0000 </r>
       <r>    1.1748    1.0000 </r>
       <r>    2.9018    1.0000 </r>
       <r>    2.9214    1.0000 </r>
       <r>    4.9787    0.0000 </r>
       <r>    4.9997    0.0000 </r>
       <r>    6.1477    0.0000 </r>
       <r>    6.3132    0.0000 </r>
      </set>
      <set comment="kpoint 19">
       <r>   -8.8835    1.0000 </r>
       <r>   -8.8835    1.0000 </r>
       <r>   -8.7236    1.0000 </r>
       <r>   -8.7236    1.0000 </r>
       <r>   -2.2359    1.0000 </r>
       <r>   -2.2233    1.0000 </r>
       <r>   -1.4212    1.0000 </r>
       <r>   -1.4212    1.0000 </r>
       <r>   -0.9382    1.0000 </r>
       <r>   -0.9155    1.0000 </r>
       <r>   -0.4378    1.0000 </r>
       <r>   -0.4378    1.0000 </r>
       <r>    0.2417    1.0000 </r>
       <r>    0.2417    1.0000 </r>
       <r>    0.9734    1.0000 </r>
       <r>    0.9734    1.0000 </r>
       <r>    3.0887    1.0000 </r>
       <r>    3.1082    1.0000 </r>
       <r>    4.7588    0.0000 </r>
       <r>    4.7588    0.0000 </r>
       <r>    6.0490    0.0000 </r>
       <r>    6.2490    0.0000 </r>
      </set>
      <set comment="kpoint 20">
       <r>  -10.9252    1.0000 </r>
       <r>  -10.9157    1.0000 </r>
       <r>   -9.7208    1.0000 </r>
       <r>   -9.7039    1.0000 </r>
       <r>   -2.4849    1.0000 </r>
       <r>   -2.4043    1.0000 </r>
       <r>    0.5201    1.0000 </r>
       <r>    0.5201    1.0000 </r>
       <r>    0.5203    1.0000 </r>
       <r>    0.5203    1.0000 </r>
       <r>    1.2303    1.0000 </r>
       <r>    1.5083    1.0000 </r>
       <r>    1.6254    1.0000 </r>
       <r>    1.6254    1.0000 </r>
       <r>    1.6264    1.0000 </r>
       <r>    1.6264    1.0000 </r>
       <r>    3.0432    1.0000 </r>
       <r>    3.2251    1.0000 </r>
       <r>    5.8746    0.0000 </r>
       <r>    5.8843    0.0000 </r>
       <r>    5.9236    0.0000 </r>
       <r>    6.0956    0.0000 </r>
      </set>
      <set comment="kpoint 21">
       <r>  -10.8286    1.0000 </r>
       <r>  -10.8191    1.0000 </r>
       <r>   -9.6743    1.0000 </r>
       <r>   -9.6579    1.0000 </r>
       <r>   -2.3709    1.0000 </r>
       <r>   -2.2907    1.0000 </r>
       <r>    0.2969    1.0000 </r>
       <r>    0.2974    1.0000 </r>
       <r>    0.6265    1.0000 </r>
       <r>    0.6269    1.0000 </r>
       <r>    0.8142    1.0000 </r>
       <r>    0.9509    1.0000 </r>
       <r>    1.4641    1.0000 </r>
       <r>    1.4653    1.0000 </r>
       <r>    1.8930    1.0000 </r>
       <r>    2.0194    1.0000 </r>
       <r>    3.0020    1.0000 </r>
       <r>    3.1523    1.0000 </r>
       <r>    5.7403    0.0000 </r>
       <r>    5.8362    0.0000 </r>
       <r>    5.8741    0.0000 </r>
       <r>    5.9740    0.0000 </r>
      </set>
      <set comment="kpoint 22">
       <r>  -10.5526    1.0000 </r>
       <r>  -10.5435    1.0000 </r>
       <r>   -9.5420    1.0000 </r>
       <r>   -9.5272    1.0000 </r>
       <r>   -2.0822    1.0000 </r>
       <r>   -2.0055    1.0000 </r>
       <r>   -0.2215    1.0000 </r>
       <r>   -0.2180    1.0000 </r>
       <r>    0.2051    1.0000 </r>
       <r>    0.2903    1.0000 </r>
       <r>    0.9234    1.0000 </r>
       <r>    0.9243    1.0000 </r>
       <r>    1.0831    1.0000 </r>
       <r>    1.0845    1.0000 </r>
       <r>    1.9774    1.0000 </r>
       <r>    2.1087    1.0000 </r>
       <r>    2.7924    1.0000 </r>
       <r>    2.8679    1.0000 </r>
       <r>    5.3352    0.0000 </r>
       <r>    5.4594    0.0000 </r>
       <r>    5.7093    0.0000 </r>
       <r>    5.7217    0.0000 </r>
      </set>
      <set comment="kpoint 23">
       <r>  -10.1417    1.0000 </r>
       <r>  -10.1334    1.0000 </r>
       <r>   -9.3472    1.0000 </r>
       <r>   -9.3350    1.0000 </r>
       <r>   -1.8611    1.0000 </r>
       <r>   -1.8058    1.0000 </r>
       <r>   -0.6841    1.0000 </r>
       <r>   -0.6637    1.0000 </r>
       <r>   -0.4288    1.0000 </r>
       <r>   -0.3795    1.0000 </r>
       <r>    0.6543    1.0000 </r>
       <r>    0.6560    1.0000 </r>
       <r>    1.3408    1.0000 </r>
       <r>    1.3426    1.0000 </r>
       <r>    1.7510    1.0000 </r>
       <r>    1.8544    1.0000 </r>
       <r>    2.3869    1.0000 </r>
       <r>    2.4102    1.0000 </r>
       <r>    5.1896    0.0000 </r>
       <r>    5.3437    0.0000 </r>
       <r>    5.4484    0.0000 </r>
       <r>    5.4626    0.0000 </r>
      </set>
      <set comment="kpoint 24">
       <r>   -9.6783    1.0000 </r>
       <r>   -9.6713    1.0000 </r>
       <r>   -9.1324    1.0000 </r>
       <r>   -9.1234    1.0000 </r>
       <r>   -2.0819    1.0000 </r>
       <r>   -2.0583    1.0000 </r>
       <r>   -1.0391    1.0000 </r>
       <r>   -1.0115    1.0000 </r>
       <r>   -0.7867    1.0000 </r>
       <r>   -0.7448    1.0000 </r>
       <r>    0.2925    1.0000 </r>
       <r>    0.2945    1.0000 </r>
       <r>    1.4702    1.0000 </r>
       <r>    1.5406    1.0000 </r>
       <r>    1.7610    1.0000 </r>
       <r>    1.7643    1.0000 </r>
       <r>    2.1436    1.0000 </r>
       <r>    2.1660    1.0000 </r>
       <r>    5.2850    0.0000 </r>
       <r>    5.2910    0.0000 </r>
       <r>    5.3569    0.0000 </r>
       <r>    5.4756    0.0000 </r>
      </set>
      <set comment="kpoint 25">
       <r>   -9.2913    1.0000 </r>
       <r>   -9.2865    1.0000 </r>
       <r>   -8.9588    1.0000 </r>
       <r>   -8.9534    1.0000 </r>
       <r>   -2.4487    1.0000 </r>
       <r>   -2.4340    1.0000 </r>
       <r>   -1.4818    1.0000 </r>
       <r>   -1.4654    1.0000 </r>
       <r>   -0.8787    1.0000 </r>
       <r>   -0.8385    1.0000 </r>
       <r>    0.0573    1.0000 </r>
       <r>    0.0594    1.0000 </r>
       <r>    1.2984    1.0000 </r>
       <r>    1.3352    1.0000 </r>
       <r>    2.0553    1.0000 </r>
       <r>    2.0605    1.0000 </r>
       <r>    2.3067    1.0000 </r>
       <r>    2.3296    1.0000 </r>
       <r>    5.2655    0.0000 </r>
       <r>    5.2687    0.0000 </r>
       <r>    5.6349    0.0000 </r>
       <r>    5.6940    0.0000 </r>
      </set>
      <set comment="kpoint 26">
       <r>   -9.1357    1.0000 </r>
       <r>   -9.1325    1.0000 </r>
       <r>   -8.8909    1.0000 </r>
       <r>   -8.8876    1.0000 </r>
       <r>   -2.6068    1.0000 </r>
       <r>   -2.5933    1.0000 </r>
       <r>   -1.6471    1.0000 </r>
       <r>   -1.6349    1.0000 </r>
       <r>   -0.9483    1.0000 </r>
       <r>   -0.9104    1.0000 </r>
       <r>   -0.0237    1.0000 </r>
       <r>   -0.0217    1.0000 </r>
       <r>    1.2516    1.0000 </r>
       <r>    1.2613    1.0000 </r>
       <r>    2.1563    1.0000 </r>
       <r>    2.1624    1.0000 </r>
       <r>    2.4785    1.0000 </r>
       <r>    2.4804    1.0000 </r>
       <r>    5.2855    0.0000 </r>
       <r>    5.2873    0.0000 </r>
       <r>    5.7886    0.0000 </r>
       <r>    5.8161    0.0000 </r>
      </set>
      <set comment="kpoint 27">
       <r>  -10.6421    1.0000 </r>
       <r>  -10.6329    1.0000 </r>
       <r>   -9.5847    1.0000 </r>
       <r>   -9.5694    1.0000 </r>
       <r>   -2.1663    1.0000 </r>
       <r>   -2.0878    1.0000 </r>
       <r>   -0.0658    1.0000 </r>
       <r>   -0.0652    1.0000 </r>
       <r>    0.4109    1.0000 </r>
       <r>    0.5141    1.0000 </r>
       <r>    0.8200    1.0000 </r>
       <r>    0.8205    1.0000 </r>
       <r>    1.0885    1.0000 </r>
       <r>    1.0921    1.0000 </r>
       <r>    2.0769    1.0000 </r>
       <r>    2.2043    1.0000 </r>
       <r>    2.8767    1.0000 </r>
       <r>    2.9726    1.0000 </r>
       <r>    5.4436    0.0000 </r>
       <r>    5.5235    0.0000 </r>
       <r>    5.6401    0.0000 </r>
       <r>    5.7639    0.0000 </r>
      </set>
      <set comment="kpoint 28">
       <r>  -10.2977    1.0000 </r>
       <r>  -10.2891    1.0000 </r>
       <r>   -9.4201    1.0000 </r>
       <r>   -9.4069    1.0000 </r>
       <r>   -1.8832    1.0000 </r>
       <r>   -1.8151    1.0000 </r>
       <r>   -0.5383    1.0000 </r>
       <r>   -0.5298    1.0000 </r>
       <r>   -0.1069    1.0000 </r>
       <r>   -0.0430    1.0000 </r>
       <r>    0.5471    1.0000 </r>
       <r>    0.5600    1.0000 </r>
       <r>    1.1294    1.0000 </r>
       <r>    1.1305    1.0000 </r>
       <r>    2.0613    1.0000 </r>
       <r>    2.1606    1.0000 </r>
       <r>    2.5561    1.0000 </r>
       <r>    2.5891    1.0000 </r>
       <r>    5.1343    0.0000 </r>
       <r>    5.2727    0.0000 </r>
       <r>    5.5402    0.0000 </r>
       <r>    5.6195    0.0000 </r>
      </set>
      <set comment="kpoint 29">
       <r>   -9.8571    1.0000 </r>
       <r>   -9.8495    1.0000 </r>
       <r>   -9.2123    1.0000 </r>
       <r>   -9.2020    1.0000 </r>
       <r>   -1.8865    1.0000 </r>
       <r>   -1.8517    1.0000 </r>
       <r>   -0.7634    1.0000 </r>
       <r>   -0.7588    1.0000 </r>
       <r>   -0.6940    1.0000 </r>
       <r>   -0.6854    1.0000 </r>
       <r>    0.1865    1.0000 </r>
       <r>    0.2083    1.0000 </r>
       <r>    1.3801    1.0000 </r>
       <r>    1.3811    1.0000 </r>
       <r>    1.7891    1.0000 </r>
       <r>    1.8540    1.0000 </r>
       <r>    2.2675    1.0000 </r>
       <r>    2.2788    1.0000 </r>
       <r>    5.0804    0.0000 </r>
       <r>    5.1807    0.0000 </r>
       <r>    5.4726    0.0000 </r>
       <r>    5.5262    0.0000 </r>
      </set>
      <set comment="kpoint 30">
       <r>   -9.4241    1.0000 </r>
       <r>   -9.4183    1.0000 </r>
       <r>   -9.0127    1.0000 </r>
       <r>   -9.0058    1.0000 </r>
       <r>   -2.2141    1.0000 </r>
       <r>   -2.1970    1.0000 </r>
       <r>   -1.3315    1.0000 </r>
       <r>   -1.3169    1.0000 </r>
       <r>   -0.7753    1.0000 </r>
       <r>   -0.7350    1.0000 </r>
       <r>    0.0209    1.0000 </r>
       <r>    0.0376    1.0000 </r>
       <r>    1.4699    1.0000 </r>
       <r>    1.4908    1.0000 </r>
       <r>    1.5150    1.0000 </r>
       <r>    1.5262    1.0000 </r>
       <r>    2.3714    1.0000 </r>
       <r>    2.3814    1.0000 </r>
       <r>    5.2202    0.0000 </r>
       <r>    5.2729    0.0000 </r>
       <r>    5.5670    0.0000 </r>
       <r>    5.6124    0.0000 </r>
      </set>
      <set comment="kpoint 31">
       <r>   -9.1436    1.0000 </r>
       <r>   -9.1400    1.0000 </r>
       <r>   -8.8866    1.0000 </r>
       <r>   -8.8829    1.0000 </r>
       <r>   -2.4701    1.0000 </r>
       <r>   -2.4567    1.0000 </r>
       <r>   -1.6742    1.0000 </r>
       <r>   -1.6660    1.0000 </r>
       <r>   -0.8924    1.0000 </r>
       <r>   -0.8554    1.0000 </r>
       <r>   -0.0345    1.0000 </r>
       <r>   -0.0250    1.0000 </r>
       <r>    1.2865    1.0000 </r>
       <r>    1.3052    1.0000 </r>
       <r>    1.6291    1.0000 </r>
       <r>    1.6351    1.0000 </r>
       <r>    2.6103    1.0000 </r>
[...]
       <r>    0.7803    1.0000 </r>
       <r>    1.4014    1.0000 </r>
       <r>    1.4169    1.0000 </r>
       <r>    2.6227    1.0000 </r>
       <r>    2.6304    1.0000 </r>
       <r>    5.2573    0.0000 </r>
       <r>    5.3062    0.0000 </r>
       <r>    5.8297    0.0000 </r>
       <r>    5.8546    0.0000 </r>
      </set>
      <set comment="kpoint 35">
       <r>   -9.0234    1.0000 </r>
       <r>   -9.0208    1.0000 </r>
       <r>   -8.8142    1.0000 </r>
       <r>   -8.8116    1.0000 </r>
       <r>   -2.2189    1.0000 </r>
       <r>   -2.2070    1.0000 </r>
       <r>   -1.9149    1.0000 </r>
       <r>   -1.9139    1.0000 </r>
       <r>   -0.8325    1.0000 </r>
       <r>   -0.8009    1.0000 </r>
       <r>   -0.0120    1.0000 </r>
       <r>    0.0115    1.0000 </r>
       <r>    0.7721    1.0000 </r>
       <r>    0.7816    1.0000 </r>
       <r>    1.2266    1.0000 </r>
       <r>    1.2481    1.0000 </r>
       <r>    2.7958    1.0000 </r>
       <r>    2.8068    1.0000 </r>
       <r>    5.1897    0.0000 </r>
       <r>    5.2016    0.0000 </r>
       <r>    6.0849    0.0000 </r>
       <r>    6.1249    0.0000 </r>
      </set>
      <set comment="kpoint 36">
       <r>   -9.1665    1.0000 </r>
       <r>   -9.1622    1.0000 </r>
       <r>   -8.8738    1.0000 </r>
       <r>   -8.8688    1.0000 </r>
       <r>   -1.9599    1.0000 </r>
       <r>   -1.9457    1.0000 </r>
       <r>   -1.7503    1.0000 </r>
       <r>   -1.7448    1.0000 </r>
       <r>   -0.4844    1.0000 </r>
       <r>   -0.4726    1.0000 </r>
       <r>   -0.1135    1.0000 </r>
       <r>   -0.0697    1.0000 </r>
       <r>    0.2208    1.0000 </r>
       <r>    0.2321    1.0000 </r>
       <r>    1.4785    1.0000 </r>
       <r>    1.4838    1.0000 </r>
       <r>    2.6035    1.0000 </r>
       <r>    2.6084    1.0000 </r>
       <r>    5.2177    0.0000 </r>
       <r>    5.2823    0.0000 </r>
       <r>    5.8530    0.0000 </r>
       <r>    6.1367    0.0000 </r>
      </set>
      <set comment="kpoint 37">
       <r>   -8.9585    1.0000 </r>
       <r>   -8.9564    1.0000 </r>
       <r>   -8.7677    1.0000 </r>
       <r>   -8.7654    1.0000 </r>
       <r>   -2.0897    1.0000 </r>
       <r>   -2.0843    1.0000 </r>
       <r>   -1.8262    1.0000 </r>
       <r>   -1.8165    1.0000 </r>
       <r>   -0.6914    1.0000 </r>
       <r>   -0.6733    1.0000 </r>
       <r>   -0.0917    1.0000 </r>
       <r>   -0.0773    1.0000 </r>
       <r>    0.0806    1.0000 </r>
       <r>    0.1106    1.0000 </r>
       <r>    1.1458    1.0000 </r>
       <r>    1.1645    1.0000 </r>
       <r>    2.9067    1.0000 </r>
       <r>    2.9165    1.0000 </r>
       <r>    4.9841    0.0000 </r>
       <r>    4.9946    0.0000 </r>
       <r>    6.1805    0.0000 </r>
       <r>    6.2616    0.0000 </r>
      </set>
      <set comment="kpoint 38">
       <r>   -8.8835    1.0000 </r>
       <r>   -8.8835    1.0000 </r>
       <r>   -8.7237    1.0000 </r>
       <r>   -8.7237    1.0000 </r>
       <r>   -2.2328    1.0000 </r>
       <r>   -2.2265    1.0000 </r>
       <r>   -1.4210    1.0000 </r>
       <r>   -1.4210    1.0000 </r>
       <r>   -0.9325    1.0000 </r>
       <r>   -0.9211    1.0000 </r>
       <r>   -0.4398    1.0000 </r>
       <r>   -0.4398    1.0000 </r>
       <r>    0.2453    1.0000 </r>
       <r>    0.2453    1.0000 </r>
       <r>    0.9714    1.0000 </r>
       <r>    0.9714    1.0000 </r>
       <r>    3.0935    1.0000 </r>
       <r>    3.1032    1.0000 </r>
       <r>    4.7588    0.0000 </r>
       <r>    4.7588    0.0000 </r>
       <r>    6.0917    0.0000 </r>
       <r>    6.1841    0.0000 </r>
      </set>
     </set>
    </set>
   </array>
  </eigenvalues>
  <separator name="orbital magnetization" >
   <v name="MAGDIPOLOUT">      0.00000000      0.00000000      0.00000000</v>
  </separator>
  <dos>
   <i name="efermi">      3.30333629 </i>
   <total>
    <array>
     <dimension dim="1">gridpoints</dimension>
     <dimension dim="2">spin</dimension>
     <field>energy</field>
     <field>total</field>
     <field>integrated</field>
     <set>
      <set comment="spin 1">
       <r>   -12.9299     0.0000     0.0000 </r>
       <r>   -12.8591     0.0000     0.0000 </r>
       <r>   -12.7883     0.0000     0.0000 </r>
       <r>   -12.7175     0.0000     0.0000 </r>
       <r>   -12.6467     0.0000     0.0000 </r>
       <r>   -12.5758     0.0000     0.0000 </r>
       <r>   -12.5050     0.0000     0.0000 </r>
       <r>   -12.4342     0.0000     0.0000 </r>
       <r>   -12.3634     0.0000     0.0000 </r>
       <r>   -12.2926     0.0000     0.0000 </r>
       <r>   -12.2218     0.0000     0.0000 </r>
       <r>   -12.1510     0.0000     0.0000 </r>
       <r>   -12.0802     0.0000     0.0000 </r>
       <r>   -12.0094     0.0000     0.0000 </r>
       <r>   -11.9386     0.0000     0.0000 </r>
       <r>   -11.8677     0.0000     0.0000 </r>
       <r>   -11.7969     0.0000     0.0000 </r>
       <r>   -11.7261     0.0000     0.0000 </r>
       <r>   -11.6553     0.0000     0.0000 </r>
       <r>   -11.5845     0.0000     0.0000 </r>
       <r>   -11.5137     0.0000     0.0000 </r>
       <r>   -11.4429     0.0000     0.0000 </r>
       <r>   -11.3721     0.0000     0.0000 </r>
       <r>   -11.3013     0.0000     0.0000 </r>
       <r>   -11.2304     0.0000     0.0000 </r>
       <r>   -11.1596     0.0000     0.0000 </r>
       <r>   -11.0888     0.0000     0.0000 </r>
       <r>   -11.0180     0.0000     0.0000 </r>
       <r>   -10.9472     0.0000     0.0000 </r>
       <r>   -10.8764     0.7862     0.0177 </r>
       <r>   -10.8056     0.9251     0.1000 </r>
       <r>   -10.7348     1.0445     0.1697 </r>
       <r>   -10.6640     1.1638     0.2479 </r>
       <r>   -10.5932     1.1521     0.3315 </r>
       <r>   -10.5223     1.1149     0.4107 </r>
       <r>   -10.4515     1.1711     0.4916 </r>
       <r>   -10.3807     1.2272     0.5765 </r>
       <r>   -10.3099     1.2833     0.6654 </r>
       <r>   -10.2391     1.2814     0.7555 </r>
       <r>   -10.1683     1.3157     0.8475 </r>
       <r>   -10.0975     1.3589     0.9420 </r>
       <r>   -10.0267     1.4088     1.0400 </r>
       <r>    -9.9559     1.4587     1.1416 </r>
       <r>    -9.8851     1.5321     1.2470 </r>
       <r>    -9.8142     1.6234     1.3589 </r>
       <r>    -9.7434     1.7060     1.4768 </r>
       <r>    -9.6726     3.8580     1.6625 </r>
       <r>    -9.6018     4.2264     1.9496 </r>
       <r>    -9.5310     4.3099     2.2568 </r>
       <r>    -9.4602     4.8478     2.5784 </r>
       <r>    -9.3894     5.3090     2.9395 </r>
       <r>    -9.3186     5.8345     3.3335 </r>
       <r>    -9.2478     6.5795     3.7706 </r>
       <r>    -9.1770     7.5936     4.2716 </r>
       <r>    -9.1061     8.7333     4.9844 </r>
       <r>    -9.0353     7.6145     5.5592 </r>
       <r>    -8.9645     9.6228     6.1569 </r>
       <r>    -8.8937     9.8434     6.8891 </r>
       <r>    -8.8229     6.0059     7.5338 </r>
       <r>    -8.7521     5.1695     7.9265 </r>
       <r>    -8.6813     0.0000     8.0000 </r>
       <r>    -8.6105     0.0000     8.0000 </r>
       <r>    -8.5397     0.0000     8.0000 </r>
       <r>    -8.4689     0.0000     8.0000 </r>
       <r>    -8.3980     0.0000     8.0000 </r>
       <r>    -8.3272     0.0000     8.0000 </r>
       <r>    -8.2564     0.0000     8.0000 </r>
       <r>    -8.1856     0.0000     8.0000 </r>
       <r>    -8.1148     0.0000     8.0000 </r>
       <r>    -8.0440     0.0000     8.0000 </r>
       <r>    -7.9732     0.0000     8.0000 </r>
       <r>    -7.9024     0.0000     8.0000 </r>
       <r>    -7.8316     0.0000     8.0000 </r>
       <r>    -7.7608     0.0000     8.0000 </r>
       <r>    -7.6899     0.0000     8.0000 </r>
       <r>    -7.6191     0.0000     8.0000 </r>
       <r>    -7.5483     0.0000     8.0000 </r>
       <r>    -7.4775     0.0000     8.0000 </r>
       <r>    -7.4067     0.0000     8.0000 </r>
       <r>    -7.3359     0.0000     8.0000 </r>
       <r>    -7.2651     0.0000     8.0000 </r>
       <r>    -7.1943     0.0000     8.0000 </r>
       <r>    -7.1235     0.0000     8.0000 </r>
       <r>    -7.0526     0.0000     8.0000 </r>
       <r>    -6.9818     0.0000     8.0000 </r>
       <r>    -6.9110     0.0000     8.0000 </r>
       <r>    -6.8402     0.0000     8.0000 </r>
       <r>    -6.7694     0.0000     8.0000 </r>
       <r>    -6.6986     0.0000     8.0000 </r>
       <r>    -6.6278     0.0000     8.0000 </r>
       <r>    -6.5570     0.0000     8.0000 </r>
       <r>    -6.4862     0.0000     8.0000 </r>
       <r>    -6.4154     0.0000     8.0000 </r>
       <r>    -6.3445     0.0000     8.0000 </r>
       <r>    -6.2737     0.0000     8.0000 </r>
       <r>    -6.2029     0.0000     8.0000 </r>
       <r>    -6.1321     0.0000     8.0000 </r>
       <r>    -6.0613     0.0000     8.0000 </r>
       <r>    -5.9905     0.0000     8.0000 </r>
       <r>    -5.9197     0.0000     8.0000 </r>
       <r>    -5.8489     0.0000     8.0000 </r>
       <r>    -5.7781     0.0000     8.0000 </r>
       <r>    -5.7073     0.0000     8.0000 </r>
       <r>    -5.6364     0.0000     8.0000 </r>
       <r>    -5.5656     0.0000     8.0000 </r>
       <r>    -5.4948     0.0000     8.0000 </r>
       <r>    -5.4240     0.0000     8.0000 </r>
       <r>    -5.3532     0.0000     8.0000 </r>
       <r>    -5.2824     0.0000     8.0000 </r>
       <r>    -5.2116     0.0000     8.0000 </r>
       <r>    -5.1408     0.0000     8.0000 </r>
       <r>    -5.0700     0.0000     8.0000 </r>
       <r>    -4.9992     0.0000     8.0000 </r>
       <r>    -4.9283     0.0000     8.0000 </r>
       <r>    -4.8575     0.0000     8.0000 </r>
       <r>    -4.7867     0.0000     8.0000 </r>
       <r>    -4.7159     0.0000     8.0000 </r>
       <r>    -4.6451     0.0000     8.0000 </r>
       <r>    -4.5743     0.0000     8.0000 </r>
       <r>    -4.5035     0.0000     8.0000 </r>
       <r>    -4.4327     0.0000     8.0000 </r>
       <r>    -4.3619     0.0000     8.0000 </r>
       <r>    -4.2911     0.0000     8.0000 </r>
       <r>    -4.2202     0.0000     8.0000 </r>
       <r>    -4.1494     0.0000     8.0000 </r>
       <r>    -4.0786     0.0000     8.0000 </r>
       <r>    -4.0078     0.0000     8.0000 </r>
       <r>    -3.9370     0.0000     8.0000 </r>
       <r>    -3.8662     0.0000     8.0000 </r>
       <r>    -3.7954     0.0000     8.0000 </r>
       <r>    -3.7246     0.0000     8.0000 </r>
       <r>    -3.6538     0.0000     8.0000 </r>
       <r>    -3.5830     0.0000     8.0000 </r>
       <r>    -3.5121     0.0000     8.0000 </r>
       <r>    -3.4413     0.0000     8.0000 </r>
       <r>    -3.3705     0.0000     8.0000 </r>
       <r>    -3.2997     0.0000     8.0000 </r>
       <r>    -3.2289     0.0000     8.0000 </r>
       <r>    -3.1581     0.0000     8.0000 </r>
       <r>    -3.0873     0.0000     8.0000 </r>
       <r>    -3.0165     0.0000     8.0000 </r>
       <r>    -2.9457     0.0000     8.0000 </r>
       <r>    -2.8748     0.0000     8.0000 </r>
       <r>    -2.8040     0.0000     8.0000 </r>
       <r>    -2.7332     0.0000     8.0000 </r>
       <r>    -2.6624     0.0000     8.0000 </r>
       <r>    -2.5916     0.2207     8.0019 </r>
       <r>    -2.5208     1.9262     8.0774 </r>
       <r>    -2.4500     2.6753     8.2675 </r>
       <r>    -2.3792     2.9551     8.4609 </r>
       <r>    -2.3084     3.5950     8.6885 </r>
       <r>    -2.2376     3.8459     8.9537 </r>
       <r>    -2.1667     7.0245     9.3133 </r>
       <r>    -2.0959     9.3948     9.9160 </r>
       <r>    -2.0251     6.4496    10.4211 </r>
       <r>    -1.9543     5.4468    10.8911 </r>
       <r>    -1.8835    12.1670    11.3950 </r>
       <r>    -1.8127    12.1902    12.0747 </r>
       <r>    -1.7419     5.7050    12.6785 </r>
       <r>    -1.6711     5.1542    12.9249 </r>
       <r>    -1.6003     3.4055    13.2295 </r>
       <r>    -1.5295     2.7865    13.4487 </r>
       <r>    -1.4586     2.2260    13.6248 </r>
       <r>    -1.3878     1.9415    13.7711 </r>
       <r>    -1.3170     1.7466    13.9013 </r>
       <r>    -1.2462     1.6417    14.0212 </r>
       <r>    -1.1754     1.5688    14.1344 </r>
       <r>    -1.1046     1.4974    14.2430 </r>
       <r>    -1.0338     1.4344    14.3465 </r>
       <r>    -0.9630     1.4973    14.4488 </r>
       <r>    -0.8922     5.9010    14.6955 </r>
       <r>    -0.8214     8.4047    15.2350 </r>
       <r>    -0.7505    10.6932    15.9025 </r>
       <r>    -0.6797    11.2836    16.7631 </r>
       <r>    -0.6089     9.7221    17.4446 </r>
       <r>    -0.5381     6.5013    18.0490 </r>
       <r>    -0.4673     2.2057    18.3173 </r>
       <r>    -0.3965     2.1534    18.4692 </r>
       <r>    -0.3257     2.2338    18.6242 </r>
       <r>    -0.2549     2.3288    18.7858 </r>
       <r>    -0.1841     2.6793    18.9544 </r>
       <r>    -0.1133     8.1984    19.3092 </r>
       <r>    -0.0424    12.8476    20.2633 </r>
       <r>     0.0284     8.3014    21.3040 </r>
       <r>     0.0992     5.7853    21.7239 </r>
       <r>     0.1700     6.1704    22.1953 </r>
       <r>     0.2408     4.1140    22.5597 </r>
       <r>     0.3116     3.7680    22.8276 </r>
       <r>     0.3824     3.5503    23.0866 </r>
       <r>     0.4532     3.3314    23.3303 </r>
       <r>     0.5240     3.1876    23.5586 </r>
       <r>     0.5948     4.8390    23.8424 </r>
       <r>     0.6657     2.7112    24.1131 </r>
       <r>     0.7365     2.5990    24.3011 </r>
       <r>     0.8073     3.6196    24.5189 </r>
       <r>     0.8781     3.5217    24.8044 </r>
       <r>     0.9489     2.7973    25.0422 </r>
       <r>     1.0197     2.5911    25.2164 </r>
       <r>     1.0905    10.3856    25.4553 </r>
       <r>     1.1613     7.8511    26.1746 </r>
       <r>     1.2321     6.9436    26.7024 </r>
       <r>     1.3029    10.4615    27.3732 </r>
       <r>     1.3738     7.6295    27.9386 </r>
       <r>     1.4446     8.1250    28.4930 </r>
       <r>     1.5154     5.8426    28.9702 </r>
       <r>     1.5862     4.0384    29.3056 </r>
       <r>     1.6570     3.7049    29.5702 </r>
       <r>     1.7278     4.6452    29.8557 </r>
       <r>     1.7986     4.8170    30.2659 </r>
       <r>     1.8694     4.7183    30.6198 </r>
       <r>     1.9402     4.7663    30.9495 </r>
       <r>     2.0111     4.6492    31.2865 </r>
       <r>     2.0819     2.3327    31.6286 </r>
       <r>     2.1527     3.1676    31.8113 </r>
       <r>     2.2235     3.3584    32.0566 </r>
       <r>     2.2943     6.0271    32.3448 </r>
       <r>     2.3651    10.2721    32.9680 </r>
       <r>     2.4359     5.8806    33.4369 </r>
       <r>     2.5067     5.8175    33.8547 </r>
       <r>     2.5775     5.4292    34.2525 </r>
       <r>     2.6483     4.7421    34.6131 </r>
       <r>     2.7192     3.9585    34.9212 </r>
       <r>     2.7900     3.2587    35.1752 </r>
       <r>     2.8608     3.3256    35.4061 </r>
       <r>     2.9316     2.9641    35.6387 </r>
       <r>     3.0024     2.3849    35.8127 </r>
       <r>     3.0732     0.7488    35.9083 </r>
       <r>     3.1440     0.4608    35.9459 </r>
       <r>     3.2148     0.4412    35.9892 </r>
       <r>     3.2856     0.0090    36.0000 </r>
       <r>     3.3564     0.0000    36.0000 </r>
       <r>     3.4273     0.0000    36.0000 </r>
       <r>     3.4981     0.0000    36.0000 </r>
       <r>     3.5689     0.0000    36.0000 </r>
       <r>     3.6397     0.0000    36.0000 </r>
       <r>     3.7105     0.0000    36.0000 </r>
       <r>     3.7813     0.0000    36.0000 </r>
       <r>     3.8521     0.0000    36.0000 </r>
       <r>     3.9229     0.0000    36.0000 </r>
       <r>     3.9937     0.0000    36.0000 </r>
       <r>     4.0645     0.0000    36.0000 </r>
       <r>     4.1354     0.0000    36.0000 </r>
       <r>     4.2062     0.0000    36.0000 </r>
       <r>     4.2770     0.0000    36.0000 </r>
       <r>     4.3478     0.0000    36.0000 </r>
       <r>     4.4186     0.0000    36.0000 </r>
       <r>     4.4894     0.0000    36.0000 </r>
       <r>     4.5602     0.0000    36.0000 </r>
       <r>     4.6310     0.0000    36.0000 </r>
       <r>     4.7018     0.0000    36.0000 </r>
       <r>     4.7726     0.0872    36.0006 </r>
       <r>     4.8435     0.5328    36.0226 </r>
       <r>     4.9143     0.9807    36.0761 </r>
       <r>     4.9851     2.4043    36.1832 </r>
       <r>     5.0559     4.5677    36.4295 </r>
       <r>     5.1267     6.9147    36.8342 </r>
       <r>     5.1975     9.5378    37.4049 </r>
       <r>     5.2683    17.6468    38.3526 </r>
       <r>     5.3391     2.3332    39.4448 </r>
       <r>     5.4099     3.0274    39.6280 </r>
       <r>     5.4807     6.3850    39.9062 </r>
       <r>     5.5516     8.9974    40.5136 </r>
       <r>     5.6224     8.9249    41.1436 </r>
       <r>     5.6932     7.1052    41.6696 </r>
       <r>     5.7640     7.1422    42.1792 </r>
       <r>     5.8348     6.0562    42.7093 </r>
       <r>     5.9056     3.7919    43.0344 </r>
       <r>     5.9764     3.2096    43.2734 </r>
       <r>     6.0472     2.4752    43.4785 </r>
       <r>     6.1180     2.6715    43.6432 </r>
       <r>     6.1889     0.9725    43.8283 </r>
       <r>     6.2597     2.6824    43.9473 </r>
       <r>     6.3305     0.0000    44.0000 </r>
       <r>     6.4013     0.0000    44.0000 </r>
       <r>     6.4721     0.0000    44.0000 </r>
       <r>     6.5429     0.0000    44.0000 </r>
       <r>     6.6137     0.0000    44.0000 </r>
       <r>     6.6845     0.0000    44.0000 </r>
       <r>     6.7553     0.0000    44.0000 </r>
       <r>     6.8261     0.0000    44.0000 </r>
       <r>     6.8970     0.0000    44.0000 </r>
       <r>     6.9678     0.0000    44.0000 </r>
       <r>     7.0386     0.0000    44.0000 </r>
       <r>     7.1094     0.0000    44.0000 </r>
       <r>     7.1802     0.0000    44.0000 </r>
       <r>     7.2510     0.0000    44.0000 </r>
       <r>     7.3218     0.0000    44.0000 </r>
       <r>     7.3926     0.0000    44.0000 </r>
       <r>     7.4634     0.0000    44.0000 </r>
       <r>     7.5342     0.0000    44.0000 </r>
       <r>     7.6051     0.0000    44.0000 </r>
       <r>     7.6759     0.0000    44.0000 </r>
       <r>     7.7467     0.0000    44.0000 </r>
       <r>     7.8175     0.0000    44.0000 </r>
       <r>     7.8883     0.0000    44.0000 </r>
       <r>     7.9591     0.0000    44.0000 </r>
       <r>     8.0299     0.0000    44.0000 </r>
       <r>     8.1007     0.0000    44.0000 </r>
       <r>     8.1715     0.0000    44.0000 </r>
       <r>     8.2423     0.0000    44.0000 </r>
       <r>     8.3132     0.0000    44.0000 </r>
      </set>
     </set>
    </array>
   </total>
  </dos>
 </calculation>
 <structure name="finalpos" >
  <crystal>
   <varray name="basis" >
    <v>       3.19031573       0.00000000       0.00000000 </v>
    <v>      -1.59515786       2.76289447       0.00000000 </v>
    <v>       0.00000000       0.00000000      14.87900430 </v>
   </varray>
   <i name="volume">    131.15106795 </i>
   <varray name="rec_basis" >
    <v>       0.31344860       0.18096963       0.00000000 </v>
    <v>       0.00000000       0.36193927       0.00000000 </v>
    <v>       0.00000000       0.00000000       0.06720880 </v>
   </varray>
  </crystal>
  <varray name="positions" >
   <v>       0.33333300       0.66666700       0.25000000 </v>
   <v>       0.66666700       0.33333300       0.75000000 </v>
   <v>       0.33333300       0.66666700       0.85517400 </v>
   <v>       0.66666700       0.33333300       0.14482600 </v>
   <v>       0.66666600       0.33333300       0.35517400 </v>
   <v>       0.33333400       0.66666700       0.64482600 </v>
  </varray>
 </structure>
</modeling>
