    3    3   50    1
  0.9072772E+02  0.3190316E-09  0.3190316E-09  0.3087900E-08  0.5000000E-15
  1.000000000000000E-004
  CAR 
 unknown system                          
     18     14     14
 
  0.0000000E+00  0.0000000E+00  0.0000000E+00  0.1000000E-01
    1      -17.806638   1.000000
    2      -16.578145   1.000000
    3       -9.324434   1.000000
    4       -6.379635   1.000000
    5       -6.379630   1.000000
    6       -5.468356   1.000000
    7       -5.264209   1.000000
    8       -5.264176   1.000000
    9       -3.742784   1.000000
   10       -0.986076   0.000000
   11       -0.986045   0.000000
   12       -0.747985   0.000000
   13       -0.747971   0.000000
   14        1.670051   0.000000
 
  0.1000000E+00 -0.6938894E-17  0.0000000E+00  0.6000000E-01
    1      -17.667980   1.000000
    2      -16.512640   1.000000
    3       -9.163571   1.000000
    4       -6.690031   1.000000
    5       -6.226789   1.000000
    6       -6.107867   1.000000
    7       -5.490079   1.000000
    8       -4.852322   1.000000
    9       -3.825921   1.000000
   10       -1.160981   0.000000
   11       -1.112586   0.000000
   12       -0.908550   0.000000
   13       -0.743703   0.000000
   14        1.922729   0.000000
 
  0.2000000E+00  0.0000000E+00  0.0000000E+00  0.6000000E-01
    1      -17.281729   1.000000
    2      -16.331347   1.000000
    3       -8.808579   1.000000
    4       -7.323735   1.000000
    5       -6.890706   1.000000
    6       -5.980808   1.000000
    7       -5.814727   1.000000
    8       -4.876132   1.000000
    9       -4.197298   1.000000
   10       -1.539859   0.000000
   11       -1.249541   0.000000
   12       -1.100735   0.000000
   13       -0.241301   0.000000
   14        2.487621   0.000000
 
  0.3000000E+00  0.0000000E+00  0.0000000E+00  0.6000000E-01
    1      -16.744037   1.000000
    2      -16.083680   1.000000
    3       -8.819806   1.000000
    4       -7.663217   1.000000
    5       -7.632001   1.000000
    6       -6.466060   1.000000
    7       -5.289512   1.000000
    8       -5.232134   1.000000
    9       -4.664238   1.000000
   10       -1.523752   0.000000
   11       -1.508018   0.000000
   12       -0.564626   0.000000
   13        0.196109   0.000000
   14        3.242164   0.000000
 
  0.4000000E+00  0.0000000E+00  0.0000000E+00  0.6000000E-01
    1      -16.237630   1.000000
    2      -15.858619   1.000000
    3       -9.263346   1.000000
    4       -8.274259   1.000000
    5       -7.713804   1.000000
    6       -6.798280   1.000000
    7       -5.504113   1.000000
    8       -4.872529   1.000000
    9       -4.599275   1.000000
   10       -1.600463   0.000000
   11       -1.235445   0.000000
   12       -0.033212   0.000000
   13        0.443100   0.000000
   14        3.104470   0.000000
 
  0.5000000E+00 -0.2775558E-16  0.0000000E+00  0.3000000E-01
    1      -16.019809   1.000000
    2      -15.765254   1.000000
    3       -9.482155   1.000000
    4       -8.511352   1.000000
    5       -7.810299   1.000000
    6       -6.914734   1.000000
    7       -5.592153   1.000000
    8       -4.723307   1.000000
    9       -4.384035   1.000000
   10       -1.581494   0.000000
   11       -1.058333   0.000000
   12        0.158978   0.000000
   13        0.517301   0.000000
   14        2.427348   0.000000
 
  0.1000000E+00  0.1000000E+00  0.0000000E+00  0.6000000E-01
    1      -17.405161   1.000000
    2      -16.388857   1.000000
    3       -8.894693   1.000000
    4       -7.147988   1.000000
    5       -6.599463   1.000000
    6       -6.028215   1.000000
    7       -5.964932   1.000000
    8       -4.671479   1.000000
    9       -4.058050   1.000000
   10       -1.483380   0.000000
   11       -1.296437   0.000000
   12       -1.167071   0.000000
   13       -0.305511   0.000000
   14        2.323246   0.000000
 
  0.2000000E+00  0.1000000E+00  0.0000000E+00  0.1200000E+00
    1      -16.940209   1.000000
    2      -16.171471   1.000000
    3       -8.674978   1.000000
    4       -7.561932   1.000000
    5       -7.274415   1.000000
    6       -6.634999   1.000000
    7       -5.637623   1.000000
    8       -4.824430   1.000000
    9       -4.490927   1.000000
   10       -1.736052   0.000000
   11       -1.335595   0.000000
   12       -1.066047   0.000000
   13        0.215317   0.000000
   14        3.011314   0.000000
 
  0.3000000E+00  0.1000000E+00  0.0000000E+00  0.1200000E+00
    1      -16.408020   1.000000
    2      -15.927316   1.000000
    3       -8.969320   1.000000
    4       -8.062337   1.000000
    5       -7.586273   1.000000
    6       -6.869309   1.000000
    7       -5.529961   1.000000
    8       -5.231202   1.000000
    9       -4.534531   1.000000
   10       -1.649908   0.000000
   11       -1.293541   0.000000
   12       -0.510325   0.000000
   13        0.495301   0.000000
   14        3.686694   0.000000
 
  0.4000000E+00  0.1000000E+00  0.0000000E+00  0.1200000E+00
    1      -16.030259   1.000000
    2      -15.758875   1.000000
    3       -9.290583   1.000000
    4       -8.557586   1.000000
    5       -7.728622   1.000000
    6       -6.918383   1.000000
    7       -5.535861   1.000000
    8       -5.408477   1.000000
    9       -4.245566   1.000000
   10       -1.554338   0.000000
   11       -1.054754   0.000000
   12       -0.005169   0.000000
   13        0.443796   0.000000
   14        2.781317   0.000000
 
  0.2000000E+00  0.2000000E+00  0.0000000E+00  0.6000000E-01
    1      -16.473092   1.000000
    2      -15.951085   1.000000
    3       -8.774241   1.000000
    4       -7.929089   1.000000
    5       -7.459693   1.000000
    6       -7.042134   1.000000
    7       -5.985470   1.000000
    8       -4.974302   1.000000
    9       -4.528975   1.000000
   10       -1.729854   0.000000
   11       -1.262962   0.000000
   12       -0.891946   0.000000
   13        0.607619   0.000000
   14        3.778093   0.000000
 
  0.3000000E+00  0.2000000E+00  0.0000000E+00  0.1200000E+00
    1      -16.046886   1.000000
    2      -15.748483   1.000000
    3       -8.914067   1.000000
    4       -8.624775   1.000000
    5       -7.466341   1.000000
    6       -6.953736   1.000000
    7       -6.410844   1.000000
    8       -5.399812   1.000000
    9       -4.260746   1.000000
   10       -1.592432   0.000000
   11       -1.006040   0.000000
   12       -0.575469   0.000000
   13        0.756992   0.000000
   14        3.559754   0.000000
 
  0.4000000E+00  0.2000000E+00  0.0000000E+00  0.6000000E-01
    1      -15.869294   1.000000
    2      -15.663720   1.000000
    3       -8.934520   1.000000
    4       -8.893250   1.000000
    5       -7.663700   1.000000
    6       -6.827523   1.000000
    7       -6.466935   1.000000
    8       -5.658879   1.000000
    9       -4.010281   1.000000
   10       -1.774059   0.000000
   11       -0.634619   0.000000
   12       -0.432546   0.000000
   13        0.779798   0.000000
   14        2.971132   0.000000
 
  0.3000000E+00  0.3000000E+00  0.0000000E+00  0.6000000E-01
    1      -15.810395   1.000000
    2      -15.623343   1.000000
    3       -9.043792   1.000000
    4       -8.543245   1.000000
    5       -7.549697   1.000000
    6       -7.227760   1.000000
    7       -6.713571   1.000000
    8       -5.767625   1.000000
    9       -3.887534   1.000000
   10       -1.985198   0.000000
   11       -0.667967   0.000000
   12       -0.402194   0.000000
   13        1.013361   0.000000
   14        3.439523   0.000000
