       N       E                     dE             d eps       ncg     rms          rms(c)
DAV:   1     0.138615063226E+03    0.13862E+03   -0.54094E+03   392   0.808E+02
DAV:   2    -0.607441335149E+01   -0.14469E+03   -0.13711E+03   694   0.163E+02
DAV:   3    -0.230668045705E+02   -0.16992E+02   -0.16825E+02   536   0.732E+01
DAV:   4    -0.233990894320E+02   -0.33228E+00   -0.33097E+00   502   0.130E+01
DAV:   5    -0.234076326017E+02   -0.85432E-02   -0.85373E-02   522   0.202E+00    0.689E+00
DAV:   6    -0.222308191747E+02    0.11768E+01   -0.52667E+00   478   0.183E+01    0.283E+00
DAV:   7    -0.218753124048E+02    0.35551E+00   -0.14616E+00   470   0.117E+01    0.170E+00
DAV:   8    -0.218006982151E+02    0.74614E-01   -0.21138E-01   518   0.359E+00    0.313E-01
DAV:   9    -0.217983102653E+02    0.23879E-02   -0.15649E-02   548   0.105E+00    0.164E-01
DAV:  10    -0.217965895577E+02    0.17207E-02   -0.31240E-03   500   0.349E-01    0.479E-02
DAV:  11    -0.217964766846E+02    0.11287E-03   -0.48981E-04   536   0.171E-01    0.280E-02
DAV:  12    -0.217962015483E+02    0.27514E-03   -0.60157E-04   482   0.126E-01    0.278E-02
DAV:  13    -0.217964067076E+02   -0.20516E-03   -0.22066E-04   436   0.120E-01    0.245E-02
DAV:  14    -0.217966001766E+02   -0.19347E-03   -0.53224E-05   422   0.650E-02    0.716E-03
DAV:  15    -0.217966769293E+02   -0.76753E-04   -0.85208E-06   500   0.188E-02    0.296E-03
DAV:  16    -0.217967665625E+02   -0.89633E-04   -0.52722E-06   404   0.122E-02    0.241E-03
DAV:  17    -0.217967979003E+02   -0.31338E-04   -0.11155E-06   398   0.673E-03    0.803E-04
DAV:  18    -0.217968076747E+02   -0.97745E-05   -0.66715E-07   372   0.337E-03    0.986E-04
DAV:  19    -0.217968135589E+02   -0.58842E-05   -0.28054E-07   372   0.299E-03    0.409E-04
DAV:  20    -0.217968178875E+02   -0.43285E-05   -0.25080E-07   362   0.213E-03    0.290E-04
DAV:  21    -0.217968194838E+02   -0.15963E-05   -0.76101E-08   340   0.108E-03    0.197E-04
DAV:  22    -0.217968197739E+02   -0.29017E-06   -0.11732E-08   376   0.445E-04
   1 F= -.22387618E+02 E0= -.22387618E+02  d E =-.223876E+02
       N       E                     dE             d eps       ncg     rms          rms(c)
DAV:   1    -0.218004067224E+02   -0.35872E-02   -0.23393E-01   482   0.335E+00    0.338E-01
DAV:   2    -0.217951330456E+02    0.52737E-02   -0.26420E-02   446   0.930E-01    0.200E-01
DAV:   3    -0.217940099997E+02    0.11230E-02   -0.49725E-03   440   0.549E-01    0.375E-02
DAV:   4    -0.217940705842E+02   -0.60584E-04   -0.91684E-04   488   0.202E-01    0.246E-02
DAV:   5    -0.217941276884E+02   -0.57104E-04   -0.83584E-05   496   0.655E-02    0.515E-03
DAV:   6    -0.217941467725E+02   -0.19084E-04   -0.68021E-06   554   0.216E-02    0.396E-03
DAV:   7    -0.217941657188E+02   -0.18946E-04   -0.58382E-06   410   0.153E-02    0.179E-03
DAV:   8    -0.217941695384E+02   -0.38196E-05   -0.71533E-07   396   0.585E-03    0.163E-03
DAV:   9    -0.217941710082E+02   -0.14697E-05   -0.16685E-07   340   0.324E-03    0.448E-04
DAV:  10    -0.217941723302E+02   -0.13220E-05   -0.14431E-07   304   0.233E-03    0.217E-04
DAV:  11    -0.217941728872E+02   -0.55704E-06   -0.36077E-08   328   0.131E-03
   2 F= -.22385601E+02 E0= -.22385601E+02  d E =0.201680E-02
       N       E                     dE             d eps       ncg     rms          rms(c)
DAV:   1    -0.218007310196E+02   -0.65587E-02   -0.13395E-01   476   0.252E+00    0.269E-01
DAV:   2    -0.217970163376E+02    0.37147E-02   -0.16403E-02   482   0.737E-01    0.250E-02
DAV:   3    -0.217970292097E+02   -0.12872E-04   -0.41119E-04   440   0.146E-01    0.190E-02
DAV:   4    -0.217970304160E+02   -0.12063E-05   -0.33566E-05   404   0.492E-02    0.573E-03
DAV:   5    -0.217969494507E+02    0.80965E-04   -0.11228E-04   446   0.735E-02    0.381E-02
DAV:   6    -0.217970335065E+02   -0.84056E-04   -0.14787E-04   440   0.866E-02    0.126E-03
DAV:   7    -0.217970353856E+02   -0.18791E-05   -0.11976E-05   494   0.245E-02    0.228E-03
DAV:   8    -0.217970354561E+02   -0.70489E-07   -0.16861E-07   304   0.354E-03
   3 F= -.22388354E+02 E0= -.22388354E+02  d E =-.275280E-02
       N       E                     dE             d eps       ncg     rms          rms(c)
DAV:   1    -0.217972091786E+02   -0.17379E-03   -0.20960E-03   470   0.312E-01    0.374E-02
DAV:   2    -0.217971392407E+02    0.69938E-04   -0.25645E-04   458   0.910E-02    0.751E-03
DAV:   3    -0.217971391186E+02    0.12216E-06   -0.29607E-06   402   0.130E-02    0.410E-03
DAV:   4    -0.217971393442E+02   -0.22563E-06   -0.14211E-06   316   0.770E-03
   4 F= -.22388414E+02 E0= -.22388414E+02  d E =-.597749E-04
