 vasp.5.4.4.18Apr17-6-g9f103f2a35 (build Jun 30 2017 11:15:00) complex          
  
 executed on    STALLO_VASP_5.4.4 date 2019.11.08  14:33:12
 running on    4 total cores
 distrk:  each k-point on    4 cores,    1 groups
 distr:  one band on NCORES_PER_BAND=   2 cores,    2 groups


--------------------------------------------------------------------------------------------------------


 INCAR:
 POTCAR:   PAW_PBE Mo 08Apr2002                   
 POTCAR:    PAW_PBE S 17Jan2003                   
 POTCAR:   PAW_PBE Mo 08Apr2002                   
   VRHFIN =Mo: 4p5s4d                                                           
   LEXCH  = PE                                                                  
   EATOM  =   217.5180 eV,   15.9871 Ry                                         
                                                                                
   TITEL  = PAW_PBE Mo 08Apr2002                                                
   LULTRA =        F    use ultrasoft PP ?                                      
   IUNSCR =        1    unscreen: 0-lin 1-nonlin 2-no                           
   RPACOR =    2.200    partial core radius                                     
   POMASS =   95.940; ZVAL   =    6.000    mass and valenz                      
   RCORE  =    2.750    outmost cutoff radius                                   
   RWIGS  =    2.750; RWIGS  =    1.455    wigner-seitz radius (au A)           
   ENMAX  =  224.584; ENMIN  =  168.438 eV                                      
   RCLOC  =    2.111    cutoff for local pot                                    
   LCOR   =        T    correct aug charges                                     
   LPAW   =        T    paw PP                                                  
   EAUG   =  345.278                                                            
   DEXC   =    -.088                                                            
   RMAX   =    3.077    core radius for proj-oper                               
   RAUG   =    1.300    factor for augmentation sphere                          
   RDEP   =    2.815    radius for radial grids                                 
   QCUT   =   -4.063; QGAM   =    8.126    optimization parameters              
                                                                                
   Description                                                                  
     l     E      TYP  RCUT    TYP  RCUT                                        
     2   .000     23  2.500                                                     
     2   .000     23  2.500                                                     
     0   .000     23  2.600                                                     
     0  1.000     23  2.600                                                     
     1   .400     23  2.750                                                     
     1  2.000     23  2.750                                                     
     3   .000      7   .000                                                     
  local pseudopotential read in
  partial core-charges read in
  atomic valenz-charges read in
  non local Contribution for L=           2  read in
    real space projection operators read in
  non local Contribution for L=           2  read in
    real space projection operators read in
  non local Contribution for L=           0  read in
    real space projection operators read in
  non local Contribution for L=           0  read in
    real space projection operators read in
  non local Contribution for L=           1  read in
    real space projection operators read in
  non local Contribution for L=           1  read in
    real space projection operators read in
    PAW grid and wavefunctions read in
 
   number of l-projection  operators is LMAX  =           6
   number of lm-projection operators is LMMAX =          18
 
 POTCAR:    PAW_PBE S 17Jan2003                   
   VRHFIN =S : s2p4                                                             
   LEXCH  = PE                                                                  
   EATOM  =   276.8230 eV,   20.3459 Ry                                         
                                                                                
   TITEL  = PAW_PBE S 17Jan2003                                                 
   LULTRA =        F    use ultrasoft PP ?                                      
   IUNSCR =        1    unscreen: 0-lin 1-nonlin 2-no                           
   RPACOR =    1.500    partial core radius                                     
   POMASS =   32.066; ZVAL   =    6.000    mass and valenz                      
   RCORE  =    1.900    outmost cutoff radius                                   
   RWIGS  =    2.200; RWIGS  =    1.164    wigner-seitz radius (au A)           
   ENMAX  =  280.000; ENMIN  =  194.016 eV                                      
   ICORE  =        2    local potential                                         
   LCOR   =        T    correct aug charges                                     
   LPAW   =        T    paw PP                                                  
   EAUG   =  335.092                                                            
   DEXC   =     .000                                                            
   RMAX   =    2.867    core radius for proj-oper                               
   RAUG   =    1.300    factor for augmentation sphere                          
   RDEP   =    1.954    radius for radial grids                                 
   QCUT   =   -4.360; QGAM   =    8.721    optimization parameters              
                                                                                
   Description                                                                  
     l     E      TYP  RCUT    TYP  RCUT                                        
     0   .000     23  1.900                                                     
     0   .000     23  1.900                                                     
     1   .000     23  1.900                                                     
     1   .000     23  1.900                                                     
     2   .000     23  1.900                                                     
  local pseudopotential read in
  partial core-charges read in
  atomic valenz-charges read in
  non local Contribution for L=           0  read in
    real space projection operators read in
  non local Contribution for L=           0  read in
    real space projection operators read in
  non local Contribution for L=           1  read in
    real space projection operators read in
  non local Contribution for L=           1  read in
    real space projection operators read in
    PAW grid and wavefunctions read in
 
   number of l-projection  operators is LMAX  =           4
   number of lm-projection operators is LMMAX =           8
 
 PAW_PBE Mo 08Apr2002                   :
 energy of atom  1       EATOM= -217.5180
 kinetic energy error for atom=    0.0023 (will be added to EATOM!!)
  PAW_PBE S 17Jan2003                   :
 energy of atom  2       EATOM= -276.8230
 kinetic energy error for atom=    0.0033 (will be added to EATOM!!)
 
 
 POSCAR: MoS2_mp-2815_computed                   
  positions in cartesian coordinates
  velocities in cartesian coordinates
  No initial velocities read in
 exchange correlation table for  LEXCH =        8
   RHO(1)=    0.500       N(1)  =     2000
   RHO(2)=  100.500       N(2)  =     4000
 


--------------------------------------------------------------------------------------------------------


 ion  position               nearest neighbor table
   1  0.333  0.667  0.120-   3 2.42   2 2.42   2 2.42   3 2.42   3 2.42   2 2.42
   2  0.667  0.333  0.070-   1 2.42   1 2.42   1 2.42
   3  0.667  0.333  0.171-   1 2.42   1 2.42   1 2.42
 
  LATTYP: Found a hexagonal cell.
 ALAT       =     3.1903157300
 C/A-ratio  =     9.6789806757
  
  Lattice vectors:
  
 A1 = (   3.1903157300,   0.0000000000,   0.0000000000)
 A2 = (  -1.5951578650,   2.7628944683,   0.0000000000)
 A3 = (   0.0000000000,   0.0000000000,  30.8790043000)


Analysis of symmetry for initial positions (statically):
=====================================================================
 Subroutine PRICEL returns:
 Original cell was already a primitive cell.
 

 Routine SETGRP: Setting up the symmetry group for a 
 hexagonal supercell.


 Subroutine GETGRP returns: Found 12 space group operations
 (whereof  6 operations were pure point group operations)
 out of a pool of 24 trial point group operations.


The static configuration has the point symmetry C_3v.
 The point group associated with its full space group is D_3h.


Analysis of symmetry for dynamics (positions and initial velocities):
=====================================================================
 Subroutine PRICEL returns:
 Original cell was already a primitive cell.
 

 Routine SETGRP: Setting up the symmetry group for a 
 hexagonal supercell.


 Subroutine GETGRP returns: Found 12 space group operations
 (whereof  6 operations were pure point group operations)
 out of a pool of 24 trial point group operations.


The dynamic configuration has the point symmetry C_3v.
 The point group associated with its full space group is D_3h.


 Subroutine INISYM returns: Found 12 space group operations
 (whereof  6 operations are pure point group operations),
 and found     1 'primitive' translations

 
 
 KPOINTS: k-density: 5.0                          

Automatic generation of k-mesh.
Space group operators:
 irot       det(A)        alpha          n_x          n_y          n_z        tau_x        tau_y        tau_z
    1     1.000000     0.000000     1.000000     0.000000     0.000000     0.000000     0.000000     0.000000
    2     1.000000   120.000000     0.000000     0.000000    -1.000000     0.000000     0.000000     0.000000
    3     1.000000   120.000000     0.000000     0.000000     1.000000     0.000000     0.000000     0.000000
    4    -1.000000   180.000000     1.000000    -0.000000     0.000000     0.000000     0.000000     0.000000
    5    -1.000000   180.000000     0.500000    -0.866025     0.000000     0.000000     0.000000     0.000000
    6    -1.000000   180.000000    -0.500000    -0.866025     0.000000     0.000000     0.000000     0.000000
    7    -1.000000    60.000000     0.000000     0.000000    -1.000000     0.000000     0.000000     0.240924
    8    -1.000000   179.999999     0.000000     0.000000     1.000000     0.000000     0.000000     0.240924
    9    -1.000000    60.000000     0.000000     0.000000     1.000000     0.000000     0.000001     0.240924
   10     1.000000   180.000000     0.866025    -0.500000     0.000000     0.000000     0.000000     0.240924
   11     1.000000   180.000000     0.000000     1.000000     0.000000     0.000000     0.000000     0.240924
   12     1.000000   180.000000     0.866025     0.500000     0.000000    -0.000000     0.000001     0.240924
 
 Subroutine IBZKPT returns following result:
 ===========================================
 
 Found     14 irreducible k-points:
 
 Following reciprocal coordinates:
            Coordinates               Weight
  0.000000  0.000000  0.000000      1.000000
  0.100000 -0.000000  0.000000      6.000000
  0.200000  0.000000  0.000000      6.000000
  0.300000  0.000000  0.000000      6.000000
  0.400000  0.000000  0.000000      6.000000
  0.500000 -0.000000  0.000000      3.000000
  0.100000  0.100000  0.000000      6.000000
  0.200000  0.100000  0.000000     12.000000
  0.300000  0.100000  0.000000     12.000000
  0.400000  0.100000  0.000000     12.000000
  0.200000  0.200000  0.000000      6.000000
  0.300000  0.200000  0.000000     12.000000
  0.400000  0.200000  0.000000      6.000000
  0.300000  0.300000  0.000000      6.000000
 
 Following cartesian coordinates:
            Coordinates               Weight
  0.000000  0.000000  0.000000      1.000000
  0.031345  0.018097  0.000000      6.000000
  0.062690  0.036194  0.000000      6.000000
  0.094035  0.054291  0.000000      6.000000
  0.125379  0.072388  0.000000      6.000000
  0.156724  0.090485  0.000000      3.000000
  0.031345  0.054291  0.000000      6.000000
  0.062690  0.072388  0.000000     12.000000
  0.094035  0.090485  0.000000     12.000000
  0.125379  0.108582  0.000000     12.000000
  0.062690  0.108582  0.000000      6.000000
  0.094035  0.126679  0.000000     12.000000
  0.125379  0.144776  0.000000      6.000000
  0.094035  0.162873  0.000000      6.000000
 


--------------------------------------------------------------------------------------------------------




 Dimension of arrays:
   k-points           NKPTS =     14   k-points in BZ     NKDIM =     14   number of bands    NBANDS=     14
   number of dos      NEDOS =    301   number of ions     NIONS =      3
   non local maximal  LDIM  =      6   non local SUM 2l+1 LMDIM =     18
   total plane-waves  NPLWV = 124416
   max r-space proj   IRMAX =      1   max aug-charges    IRDMAX=  29544
   dimension x,y,z NGX =    24 NGY =   24 NGZ =  216
   dimension x,y,z NGXF=    48 NGYF=   48 NGZF=  432
   support grid    NGXF=    48 NGYF=   48 NGZF=  432
   ions per type =               1   2
   NGX,Y,Z   is equivalent  to a cutoff of  12.51, 12.51, 11.63 a.u.
   NGXF,Y,Z  is equivalent  to a cutoff of  25.01, 25.01, 23.26 a.u.

 SYSTEM =  unknown system                          
 POSCAR =  MoS2_mp-2815_computed                   

 Startparameter for this run:
   NWRITE =      2    write-flag & timer
   PREC   = accura    normal or accurate (medium, high low for compatibility)
   ISTART =      0    job   : 0-new  1-cont  2-samecut
   ICHARG =      2    charge: 1-file 2-atom 10-const
   ISPIN  =      1    spin polarized calculation?
   LNONCOLLINEAR =      F non collinear calculations
   LSORBIT =      F    spin-orbit coupling
   INIWAV =      1    electr: 0-lowe 1-rand  2-diag
   LASPH  =      F    aspherical Exc in radial PAW
   METAGGA=      F    non-selfconsistent MetaGGA calc.

 Electronic Relaxation 1
   ENCUT  =  450.0 eV  33.07 Ry    5.75 a.u.   5.52  5.52 53.41*2*pi/ulx,y,z
   ENINI  =  450.0     initial cutoff
   ENAUG  =  345.3 eV  augmentation charge cutoff
   NELM   =    200;   NELMIN=  4; NELMDL=  0     # of ELM steps 
   EDIFF  = 0.1E-05   stopping-criterion for ELM
   LREAL  =      F    real-space projection
   NLSPLINE    = F    spline interpolate recip. space projectors
   LCOMPAT=      F    compatible to vasp.4.4
   GGA_COMPAT  = T    GGA compatible to vasp.4.4-vasp.4.6
   LMAXPAW     = -100 max onsite density
   LMAXMIX     =    2 max onsite mixed and CHGCAR
   VOSKOWN=      0    Vosko Wilk Nusair interpolation
   ROPT   =    0.00000   0.00000
 Ionic relaxation
   EDIFFG = -.1E-01   stopping-criterion for IOM
   NSW    =     50    number of steps for IOM
   NBLOCK =      1;   KBLOCK =     50    inner block; outer block 
   IBRION =      1    ionic relax: 0-MD 1-quasi-New 2-CG
   NFREE  =      0    steps in history (QN), initial steepest desc. (CG)
   ISIF   =      3    stress and relaxation
   IWAVPR =     11    prediction:  0-non 1-charg 2-wave 3-comb
   ISYM   =      2    0-nonsym 1-usesym 2-fastsym
   LCORR  =      T    Harris-Foulkes like correction to forces

   POTIM  = 0.5000    time-step for ionic-motion
   TEIN   =    0.0    initial temperature
   TEBEG  =    0.0;   TEEND  =   0.0 temperature during run
   SMASS  =  -3.00    Nose mass-parameter (am)
   estimated Nose-frequenzy (Omega)   =  0.10E-29 period in steps =****** mass=  -0.233E-27a.u.
   SCALEE = 1.0000    scale energy and forces
   NPACO  =    256;   APACO  = 16.0  distance and # of slots for P.C.
   PSTRESS=    0.0 pullay stress

  Mass of Ions in am
   POMASS =  95.94 32.07
  Ionic Valenz
   ZVAL   =   6.00  6.00
  Atomic Wigner-Seitz radii
   RWIGS  =  -1.00 -1.00
  virtual crystal weights 
   VCA    =   1.00  1.00
   NELECT =      18.0000    total number of electrons
   NUPDOWN=      -1.0000    fix difference up-down

 DOS related values:
   EMIN   =  10.00;   EMAX   =-10.00  energy-range for DOS
   EFERMI =   0.00
   ISMEAR =     0;   SIGMA  =   0.20  broadening in eV -4-tet -1-fermi 0-gaus

 Electronic relaxation 2 (details)
   IALGO  =     38    algorithm
   LDIAG  =      T    sub-space diagonalisation (order eigenvalues)
   LSUBROT=      F    optimize rotation matrix (better conditioning)
   TURBO    =      0    0=normal 1=particle mesh
   IRESTART =      0    0=no restart 2=restart with 2 vectors
   NREBOOT  =      0    no. of reboots
   NMIN     =      0    reboot dimension
   EREF     =   0.00    reference energy to select bands
   IMIX   =      4    mixing-type and parameters
     AMIX     =   0.40;   BMIX     =  1.00
     AMIX_MAG =   1.60;   BMIX_MAG =  1.00
     AMIN     =   0.10
     WC   =   100.;   INIMIX=   1;  MIXPRE=   1;  MAXMIX=  80

 Intra band minimization:
   WEIMIN = 0.0010     energy-eigenvalue tresh-hold
   EBREAK =  0.18E-07  absolut break condition
   DEPER  =   0.30     relativ break condition  

   TIME   =   0.40     timestep for ELM

  volume/ion in A,a.u.               =      90.73       612.26
  Fermi-wavevector in a.u.,A,eV,Ry     =   0.662031  1.251058  5.963237  0.438286
  Thomas-Fermi vector in A             =   1.734975
 
 Write flags
   LWAVE        =      F    write WAVECAR
   LDOWNSAMPLE  =      F    k-point downsampling of WAVECAR
   LCHARG       =      T    write CHGCAR
   LVTOT        =      F    write LOCPOT, total local potential
   LVHAR        =      F    write LOCPOT, Hartree potential only
   LELF         =      F    write electronic localiz. function (ELF)
   LORBIT       =      0    0 simple, 1 ext, 2 COOP (PROOUT), +10 PAW based schemes


 Dipole corrections
   LMONO  =      F    monopole corrections only (constant potential shift)
   LDIPOL =      F    correct potential (dipole corrections)
   IDIPOL =      0    1-x, 2-y, 3-z, 4-all directions 
   EPSILON=  1.0000000 bulk dielectric constant

 Exchange correlation treatment:
   GGA     =    --    GGA type
   LEXCH   =     8    internal setting for exchange type
   VOSKOWN=      0    Vosko Wilk Nusair interpolation
   LHFCALC =     F    Hartree Fock is set to
   LHFONE  =     F    Hartree Fock one center treatment
   AEXX    =    0.0000 exact exchange contribution

 Linear response parameters
   LEPSILON=     F    determine dielectric tensor
   LRPA    =     F    only Hartree local field effects (RPA)
   LNABLA  =     F    use nabla operator in PAW spheres
   LVEL    =     F    velocity operator in full k-point grid
   LINTERFAST=   F  fast interpolation
   KINTER  =     0    interpolate to denser k-point grid
   CSHIFT  =0.1000    complex shift for real part using Kramers Kronig
   OMEGAMAX=  -1.0    maximum frequency
   DEG_THRESHOLD= 0.2000000E-02 threshold for treating states as degnerate
   RTIME   =   -0.100 relaxation time in fs
  (WPLASMAI=    0.000 imaginary part of plasma frequency in eV, 0.658/RTIME)
   DFIELD  = 0.0000000 0.0000000 0.0000000 field for delta impulse in time
 
 Orbital magnetization related:
   ORBITALMAG=     F  switch on orbital magnetization
   LCHIMAG   =     F  perturbation theory with respect to B field
   DQ        =  0.001000  dq finite difference perturbation B field
   LLRAUG    =     F  two centre corrections for induced B field



--------------------------------------------------------------------------------------------------------


 quasi-Newton-method for relaxation of ions
 charge density and potential will be updated during run
 non-spin polarized calculation
 Variant of blocked Davidson
 Davidson routine will perform the subspace rotation
 perform sub-space diagonalisation
    after iterative eigenvector-optimisation
 modified Broyden-mixing scheme, WC =      100.0
 initial mixing is a Kerker type mixing with AMIX =  0.4000 and BMIX =      1.0000
 Hartree-type preconditioning will be used
 using additional bands            5
 reciprocal scheme for non local part
 use partial core corrections
 calculate Harris-corrections to forces 
   (improved forces if not selfconsistent)
 use gradient corrections 
 use of overlap-Matrix (Vanderbilt PP)
 Gauss-broadening in eV      SIGMA  =   0.20


--------------------------------------------------------------------------------------------------------


  energy-cutoff  :      450.00
  volume of cell :      272.18
      direct lattice vectors                 reciprocal lattice vectors
     3.190315730  0.000000000  0.000000000     0.313448600  0.180969634  0.000000000
    -1.595157865  2.762894468  0.000000000     0.000000000  0.361939267  0.000000000
     0.000000000  0.000000000 30.879004300     0.000000000  0.000000000  0.032384464

  length of vectors
     3.190315730  3.190315730 30.879004300     0.361939267  0.361939267  0.032384464


 
 k-points in units of 2pi/SCALE and weight: k-density: 5.0                          
   0.00000000  0.00000000  0.00000000       0.010
   0.03134486  0.01809696  0.00000000       0.060
   0.06268972  0.03619393  0.00000000       0.060
   0.09403458  0.05429089  0.00000000       0.060
   0.12537944  0.07238785  0.00000000       0.060
   0.15672430  0.09048482  0.00000000       0.030
   0.03134486  0.05429089  0.00000000       0.060
   0.06268972  0.07238785  0.00000000       0.120
   0.09403458  0.09048482  0.00000000       0.120
   0.12537944  0.10858178  0.00000000       0.120
   0.06268972  0.10858178  0.00000000       0.060
   0.09403458  0.12667874  0.00000000       0.120
   0.12537944  0.14477571  0.00000000       0.060
   0.09403458  0.16287267  0.00000000       0.060
 
 k-points in reciprocal lattice and weights: k-density: 5.0                          
   0.00000000  0.00000000  0.00000000       0.010
   0.10000000 -0.00000000  0.00000000       0.060
   0.20000000  0.00000000  0.00000000       0.060
   0.30000000  0.00000000  0.00000000       0.060
   0.40000000  0.00000000  0.00000000       0.060
   0.50000000 -0.00000000  0.00000000       0.030
   0.10000000  0.10000000  0.00000000       0.060
   0.20000000  0.10000000  0.00000000       0.120
   0.30000000  0.10000000  0.00000000       0.120
   0.40000000  0.10000000  0.00000000       0.120
   0.20000000  0.20000000  0.00000000       0.060
   0.30000000  0.20000000  0.00000000       0.120
   0.40000000  0.20000000  0.00000000       0.060
   0.30000000  0.30000000  0.00000000       0.060
 
 position of ions in fractional coordinates (direct lattice) 
   0.33333300  0.66666700  0.12046214
   0.66666700  0.33333300  0.06978420
   0.66666600  0.33333300  0.17114009
 
 position of ions in cartesian coordinates  (Angst):
  -0.00000160  1.84193057  3.71975108
   1.59515946  0.92096390  2.15486668
   1.59515627  0.92096390  5.28463547
 


--------------------------------------------------------------------------------------------------------


 k-point  1 :   0.0000 0.0000 0.0000  plane waves:    6011
 k-point  2 :   0.1000-0.0000 0.0000  plane waves:    5995
 k-point  3 :   0.2000 0.0000 0.0000  plane waves:    5925
 k-point  4 :   0.3000 0.0000 0.0000  plane waves:    5898
 k-point  5 :   0.4000 0.0000 0.0000  plane waves:    5878
 k-point  6 :   0.5000-0.0000 0.0000  plane waves:    5816
 k-point  7 :   0.1000 0.1000 0.0000  plane waves:    5967
 k-point  8 :   0.2000 0.1000 0.0000  plane waves:    5915
 k-point  9 :   0.3000 0.1000 0.0000  plane waves:    5903
 k-point 10 :   0.4000 0.1000 0.0000  plane waves:    5860
 k-point 11 :   0.2000 0.2000 0.0000  plane waves:    5903
 k-point 12 :   0.3000 0.2000 0.0000  plane waves:    5872
 k-point 13 :   0.4000 0.2000 0.0000  plane waves:    5866
 k-point 14 :   0.3000 0.3000 0.0000  plane waves:    5886

 maximum and minimum number of plane-waves per node :      3014     2899

 maximum number of plane-waves:      6011
 maximum index in each direction: 
   IXMAX=    5   IYMAX=    5   IZMAX=   53
   IXMIN=   -6   IYMIN=   -5   IZMIN=  -53


 parallel 3D FFT for wavefunctions:
    minimum data exchange during FFTs selected (reduces bandwidth)
 parallel 3D FFT for charge:
    minimum data exchange during FFTs selected (reduces bandwidth)


 total amount of memory used by VASP MPI-rank0    73775. kBytes
=======================================================================

   base      :      30000. kBytes
   nonl-proj :      12297. kBytes
   fftplans  :      10208. kBytes
   grid      :      16473. kBytes
   one-center:         31. kBytes
   wavefun   :       4766. kBytes
 
     INWAV:  cpu time    0.0000: real time    0.0002
 Broyden mixing: mesh for mixing (old mesh)
   NGX = 11   NGY = 11   NGZ =107
  (NGX  = 48   NGY  = 48   NGZ  =432)
  gives a total of  12947 points

 initial charge density was supplied:
 charge density of overlapping atoms calculated
 number of electron      18.0000000 magnetization 
 keeping initial charge density in first step


--------------------------------------------------------------------------------------------------------


 Maximum index for augmentation-charges         7135 (set IRDMAX)


--------------------------------------------------------------------------------------------------------


 First call to EWALD:  gamma=   0.273
 Maximum number of real-space cells 6x 6x 1
 Maximum number of reciprocal cells 2x 2x11

    FEWALD:  cpu time    0.0020: real time    0.0015


--------------------------------------- Iteration      1(   1)  ---------------------------------------


    POTLOK:  cpu time    0.1630: real time    0.1837
    SETDIJ:  cpu time    0.0060: real time    0.0052
     EDDAV:  cpu time    0.8809: real time    0.8812
       DOS:  cpu time    0.0000: real time    0.0005
    --------------------------------------------
      LOOP:  cpu time    1.0498: real time    1.0705

 eigenvalue-minimisations  :   392
 total energy-change (2. order) : 0.1386151E+03  (-0.5409387E+03)
 number of electron      18.0000000 magnetization 
 augmentation part       18.0000000 magnetization 

 Free energy of the ion-electron system (eV)
  ---------------------------------------------------
  alpha Z        PSCENC =        10.89288288
  Ewald energy   TEWEN  =      5368.65661653
  -Hartree energ DENC   =     -6042.21104469
  -exchange      EXHF   =         0.00000000
  -V(xc)+E(xc)   XCENC  =       -36.31053628
  PAW double counting   =       406.88651198     -329.34073203
  entropy T*S    EENTRO =        -0.04690563
  eigenvalues    EBANDS =       -11.06684353
  atomic energy  EATOM  =       771.15511399
  Solvation  Ediel_sol  =         0.00000000
  ---------------------------------------------------
  free energy    TOTEN  =       138.61506323 eV

  energy without entropy =      138.66196885  energy(sigma->0) =      138.63851604


--------------------------------------------------------------------------------------------------------




--------------------------------------- Iteration      1(   2)  ---------------------------------------


     EDDAV:  cpu time    1.3208: real time    1.3232
       DOS:  cpu time    0.0010: real time    0.0004
    --------------------------------------------
      LOOP:  cpu time    1.3218: real time    1.3236

 eigenvalue-minimisations  :   694
 total energy-change (2. order) :-0.1446895E+03  (-0.1371084E+03)
 number of electron      18.0000000 magnetization 
 augmentation part       18.0000000 magnetization 

 Free energy of the ion-electron system (eV)
  ---------------------------------------------------
  alpha Z        PSCENC =        10.89288288
  Ewald energy   TEWEN  =      5368.65661653
  -Hartree energ DENC   =     -6042.21104469
  -exchange      EXHF   =         0.00000000
  -V(xc)+E(xc)   XCENC  =       -36.31053628
  PAW double counting   =       406.88651198     -329.34073203
  entropy T*S    EENTRO =        -0.00000006
  eigenvalues    EBANDS =      -155.80322567
  atomic energy  EATOM  =       771.15511399
  Solvation  Ediel_sol  =         0.00000000
  ---------------------------------------------------
  free energy    TOTEN  =        -6.07441335 eV

  energy without entropy =       -6.07441329  energy(sigma->0) =       -6.07441332


--------------------------------------------------------------------------------------------------------




--------------------------------------- Iteration      1(   3)  ---------------------------------------


     EDDAV:  cpu time    1.1008: real time    1.1029
       DOS:  cpu time    0.0010: real time    0.0004
    --------------------------------------------
      LOOP:  cpu time    1.1018: real time    1.1033

 eigenvalue-minimisations  :   536
 total energy-change (2. order) :-0.1699239E+02  (-0.1682532E+02)
 number of electron      18.0000000 magnetization 
 augmentation part       18.0000000 magnetization 

 Free energy of the ion-electron system (eV)
  ---------------------------------------------------
  alpha Z        PSCENC =        10.89288288
  Ewald energy   TEWEN  =      5368.65661653
  -Hartree energ DENC   =     -6042.21104469
  -exchange      EXHF   =         0.00000000
  -V(xc)+E(xc)   XCENC  =       -36.31053628
  PAW double counting   =       406.88651198     -329.34073203
  entropy T*S    EENTRO =        -0.00000000
  eigenvalues    EBANDS =      -172.79561695
  atomic energy  EATOM  =       771.15511399
  Solvation  Ediel_sol  =         0.00000000
  ---------------------------------------------------
  free energy    TOTEN  =       -23.06680457 eV

  energy without entropy =      -23.06680457  energy(sigma->0) =      -23.06680457


--------------------------------------------------------------------------------------------------------




--------------------------------------- Iteration      1(   4)  ---------------------------------------


     EDDAV:  cpu time    1.0188: real time    1.0219
       DOS:  cpu time    0.0000: real time    0.0004
    --------------------------------------------
      LOOP:  cpu time    1.0188: real time    1.0223

 eigenvalue-minimisations  :   502
 total energy-change (2. order) :-0.3322849E+00  (-0.3309672E+00)
 number of electron      18.0000000 magnetization 
 augmentation part       18.0000000 magnetization 

 Free energy of the ion-electron system (eV)
  ---------------------------------------------------
  alpha Z        PSCENC =        10.89288288
  Ewald energy   TEWEN  =      5368.65661653
  -Hartree energ DENC   =     -6042.21104469
  -exchange      EXHF   =         0.00000000
  -V(xc)+E(xc)   XCENC  =       -36.31053628
  PAW double counting   =       406.88651198     -329.34073203
  entropy T*S    EENTRO =        -0.00000000
  eigenvalues    EBANDS =      -173.12790181
  atomic energy  EATOM  =       771.15511399
  Solvation  Ediel_sol  =         0.00000000
  ---------------------------------------------------
  free energy    TOTEN  =       -23.39908943 eV

  energy without entropy =      -23.39908943  energy(sigma->0) =      -23.39908943


--------------------------------------------------------------------------------------------------------




--------------------------------------- Iteration      1(   5)  ---------------------------------------


     EDDAV:  cpu time    1.0748: real time    1.0768
       DOS:  cpu time    0.0000: real time    0.0004
    CHARGE:  cpu time    0.0840: real time    0.0838
    MIXING:  cpu time    0.0050: real time    0.0050
    --------------------------------------------
      LOOP:  cpu time    1.1638: real time    1.1660

 eigenvalue-minimisations  :   522
 total energy-change (2. order) :-0.8543170E-02  (-0.8537281E-02)
 number of electron      18.0000005 magnetization 
 augmentation part       -0.9454126 magnetization 

 Broyden mixing:
  rms(total) = 0.68865E+00    rms(broyden)= 0.68864E+00
  rms(prec ) = 0.73246E+00
  weight for this iteration     100.00

 Free energy of the ion-electron system (eV)
  ---------------------------------------------------
  alpha Z        PSCENC =        10.89288288
  Ewald energy   TEWEN  =      5368.65661653
  -Hartree energ DENC   =     -6042.21104469
  -exchange      EXHF   =         0.00000000
  -V(xc)+E(xc)   XCENC  =       -36.31053628
  PAW double counting   =       406.88651198     -329.34073203
  entropy T*S    EENTRO =        -0.00000000
  eigenvalues    EBANDS =      -173.13644498
  atomic energy  EATOM  =       771.15511399
  Solvation  Ediel_sol  =         0.00000000
  ---------------------------------------------------
  free energy    TOTEN  =       -23.40763260 eV

  energy without entropy =      -23.40763260  energy(sigma->0) =      -23.40763260


--------------------------------------------------------------------------------------------------------




--------------------------------------- Iteration      1(   6)  ---------------------------------------


    POTLOK:  cpu time    0.1630: real time    0.1652
    SETDIJ:  cpu time    0.0070: real time    0.0060
     EDDAV:  cpu time    0.9988: real time    0.9991
       DOS:  cpu time    0.0000: real time    0.0004
    CHARGE:  cpu time    0.0830: real time    0.0830
    MIXING:  cpu time    0.0050: real time    0.0050
    --------------------------------------------
      LOOP:  cpu time    1.2568: real time    1.2586

 eigenvalue-minimisations  :   478
 total energy-change (2. order) : 0.1176813E+01  (-0.5266711E+00)
 number of electron      18.0000005 magnetization 
 augmentation part       -0.3635014 magnetization 

 Broyden mixing:
  rms(total) = 0.28254E+00    rms(broyden)= 0.28253E+00
  rms(prec ) = 0.32248E+00
  weight for this iteration     100.00

 eigenvalues of (default mixing * dielectric matrix)
  average eigenvalue GAMMA=   0.7937
  0.7937

 Free energy of the ion-electron system (eV)
  ---------------------------------------------------
  alpha Z        PSCENC =        10.89288288
  Ewald energy   TEWEN  =      5368.65661653
  -Hartree energ DENC   =     -6040.51658694
  -exchange      EXHF   =         0.00000000
  -V(xc)+E(xc)   XCENC  =       -35.42374885
  PAW double counting   =       423.98104036     -347.32534509
  entropy T*S    EENTRO =        -0.00000004
  eigenvalues    EBANDS =      -173.65079202
  atomic energy  EATOM  =       771.15511399
  Solvation  Ediel_sol  =         0.00000000
  ---------------------------------------------------
  free energy    TOTEN  =       -22.23081917 eV

  energy without entropy =      -22.23081913  energy(sigma->0) =      -22.23081915


--------------------------------------------------------------------------------------------------------




--------------------------------------- Iteration      1(   7)  ---------------------------------------


    POTLOK:  cpu time    0.1670: real time    0.1691
    SETDIJ:  cpu time    0.0060: real time    0.0057
     EDDAV:  cpu time    0.9659: real time    0.9662
       DOS:  cpu time    0.0000: real time    0.0004
    CHARGE:  cpu time    0.0840: real time    0.0836
    MIXING:  cpu time    0.0050: real time    0.0046
    --------------------------------------------
      LOOP:  cpu time    1.2278: real time    1.2297

 eigenvalue-minimisations  :   470
 total energy-change (2. order) : 0.3555068E+00  (-0.1461585E+00)
 number of electron      18.0000005 magnetization 
 augmentation part       -0.6117818 magnetization 

 Broyden mixing:
  rms(total) = 0.17008E+00    rms(broyden)= 0.17008E+00
  rms(prec ) = 0.17765E+00
  weight for this iteration     100.00

 eigenvalues of (default mixing * dielectric matrix)
  average eigenvalue GAMMA=   1.3734
  2.1265  0.6203

 Free energy of the ion-electron system (eV)
  ---------------------------------------------------
  alpha Z        PSCENC =        10.89288288
  Ewald energy   TEWEN  =      5368.65661653
  -Hartree energ DENC   =     -6046.40282277
  -exchange      EXHF   =         0.00000000
  -V(xc)+E(xc)   XCENC  =       -35.60330589
  PAW double counting   =       441.43074919     -364.99621568
  entropy T*S    EENTRO =        -0.00000000
  eigenvalues    EBANDS =      -167.00833067
  atomic energy  EATOM  =       771.15511399
  Solvation  Ediel_sol  =         0.00000000
  ---------------------------------------------------
  free energy    TOTEN  =       -21.87531240 eV

  energy without entropy =      -21.87531240  energy(sigma->0) =      -21.87531240


--------------------------------------------------------------------------------------------------------




--------------------------------------- Iteration      1(   8)  ---------------------------------------


    POTLOK:  cpu time    0.1650: real time    0.1675
    SETDIJ:  cpu time    0.0070: real time    0.0060
     EDDAV:  cpu time    1.0698: real time    1.0698
       DOS:  cpu time    0.0000: real time    0.0004
    CHARGE:  cpu time    0.0760: real time    0.0756
    MIXING:  cpu time    0.0040: real time    0.0042
    --------------------------------------------
      LOOP:  cpu time    1.3218: real time    1.3235

 eigenvalue-minimisations  :   518
 total energy-change (2. order) : 0.7461419E-01  (-0.2113847E-01)
 number of electron      18.0000005 magnetization 
 augmentation part       -0.5480444 magnetization 

 Broyden mixing:
  rms(total) = 0.31258E-01    rms(broyden)= 0.31257E-01
  rms(prec ) = 0.33143E-01
  weight for this iteration     100.00

 eigenvalues of (default mixing * dielectric matrix)
  average eigenvalue GAMMA=   1.3393
  0.6135  1.2653  2.1392

 Free energy of the ion-electron system (eV)
  ---------------------------------------------------
  alpha Z        PSCENC =        10.89288288
  Ewald energy   TEWEN  =      5368.65661653
  -Hartree energ DENC   =     -6049.34472493
  -exchange      EXHF   =         0.00000000
  -V(xc)+E(xc)   XCENC  =       -35.30866447
  PAW double counting   =       464.66850373     -388.76251462
  entropy T*S    EENTRO =        -0.00000000
  eigenvalues    EBANDS =      -163.75791132
  atomic energy  EATOM  =       771.15511399
  Solvation  Ediel_sol  =         0.00000000
  ---------------------------------------------------
  free energy    TOTEN  =       -21.80069822 eV

  energy without entropy =      -21.80069822  energy(sigma->0) =      -21.80069822


--------------------------------------------------------------------------------------------------------




--------------------------------------- Iteration      1(   9)  ---------------------------------------


    POTLOK:  cpu time    0.1620: real time    0.1654
    SETDIJ:  cpu time    0.0070: real time    0.0058
     EDDAV:  cpu time    1.1208: real time    1.1217
       DOS:  cpu time    0.0000: real time    0.0004
    CHARGE:  cpu time    0.0760: real time    0.0760
    MIXING:  cpu time    0.0050: real time    0.0043
    --------------------------------------------
      LOOP:  cpu time    1.3708: real time    1.3736

 eigenvalue-minimisations  :   548
 total energy-change (2. order) : 0.2387950E-02  (-0.1564943E-02)
 number of electron      18.0000005 magnetization 
 augmentation part       -0.5477831 magnetization 

 Broyden mixing:
  rms(total) = 0.16354E-01    rms(broyden)= 0.16354E-01
  rms(prec ) = 0.17887E-01
  weight for this iteration     100.00

 eigenvalues of (default mixing * dielectric matrix)
  average eigenvalue GAMMA=   1.5048
  2.5491  1.9181  0.6139  0.9383

 Free energy of the ion-electron system (eV)
  ---------------------------------------------------
  alpha Z        PSCENC =        10.89288288
  Ewald energy   TEWEN  =      5368.65661653
  -Hartree energ DENC   =     -6050.77249624
  -exchange      EXHF   =         0.00000000
  -V(xc)+E(xc)   XCENC  =       -35.25917140
  PAW double counting   =       469.76464617     -393.93611248
  entropy T*S    EENTRO =        -0.00000000
  eigenvalues    EBANDS =      -162.29978972
  atomic energy  EATOM  =       771.15511399
  Solvation  Ediel_sol  =         0.00000000
  ---------------------------------------------------
  free energy    TOTEN  =       -21.79831027 eV

  energy without entropy =      -21.79831027  energy(sigma->0) =      -21.79831027


--------------------------------------------------------------------------------------------------------




--------------------------------------- Iteration      1(  10)  ---------------------------------------


    POTLOK:  cpu time    0.1440: real time    0.1442
    SETDIJ:  cpu time    0.0050: real time    0.0053
     EDDAV:  cpu time    0.9329: real time    0.9329
       DOS:  cpu time    0.0000: real time    0.0004
    CHARGE:  cpu time    0.0770: real time    0.0764
    MIXING:  cpu time    0.0040: real time    0.0043
    --------------------------------------------
      LOOP:  cpu time    1.1628: real time    1.1634

 eigenvalue-minimisations  :   500
 total energy-change (2. order) : 0.1720708E-02  (-0.3124013E-03)
 number of electron      18.0000005 magnetization 
 augmentation part       -0.5520962 magnetization 

 Broyden mixing:
  rms(total) = 0.47871E-02    rms(broyden)= 0.47868E-02
  rms(prec ) = 0.62198E-02
  weight for this iteration     100.00

 eigenvalues of (default mixing * dielectric matrix)
  average eigenvalue GAMMA=   1.3787
  2.4071  0.6151  1.6346  1.0133  1.2234

 Free energy of the ion-electron system (eV)
  ---------------------------------------------------
  alpha Z        PSCENC =        10.89288288
  Ewald energy   TEWEN  =      5368.65661653
  -Hartree energ DENC   =     -6052.38675627
  -exchange      EXHF   =         0.00000000
  -V(xc)+E(xc)   XCENC  =       -35.22487218
  PAW double counting   =       473.09909861     -397.30592511
  entropy T*S    EENTRO =        -0.00000000
  eigenvalues    EBANDS =      -160.68274800
  atomic energy  EATOM  =       771.15511399
  Solvation  Ediel_sol  =         0.00000000
  ---------------------------------------------------
  free energy    TOTEN  =       -21.79658956 eV

  energy without entropy =      -21.79658956  energy(sigma->0) =      -21.79658956


--------------------------------------------------------------------------------------------------------




--------------------------------------- Iteration      1(  11)  ---------------------------------------


    POTLOK:  cpu time    0.1700: real time    0.1698
    SETDIJ:  cpu time    0.0060: real time    0.0059
     EDDAV:  cpu time    1.1008: real time    1.1010
       DOS:  cpu time    0.0000: real time    0.0004
    CHARGE:  cpu time    0.0830: real time    0.0831
    MIXING:  cpu time    0.0060: real time    0.0053
    --------------------------------------------
      LOOP:  cpu time    1.3658: real time    1.3656

 eigenvalue-minimisations  :   536
 total energy-change (2. order) : 0.1128731E-03  (-0.4898138E-04)
 number of electron      18.0000005 magnetization 
 augmentation part       -0.5498264 magnetization 

 Broyden mixing:
  rms(total) = 0.28010E-02    rms(broyden)= 0.28010E-02
  rms(prec ) = 0.43829E-02
  weight for this iteration     100.00

 eigenvalues of (default mixing * dielectric matrix)
  average eigenvalue GAMMA=   1.6526
  2.8169  2.8169  0.6149  0.9189  1.3739  1.3739

 Free energy of the ion-electron system (eV)
  ---------------------------------------------------
  alpha Z        PSCENC =        10.89288288
  Ewald energy   TEWEN  =      5368.65661653
  -Hartree energ DENC   =     -6052.77839932
  -exchange      EXHF   =         0.00000000
  -V(xc)+E(xc)   XCENC  =       -35.22105046
  PAW double counting   =       472.60113129     -396.80041685
  entropy T*S    EENTRO =        -0.00000000
  eigenvalues    EBANDS =      -160.30235475
  atomic energy  EATOM  =       771.15511399
  Solvation  Ediel_sol  =         0.00000000
  ---------------------------------------------------
  free energy    TOTEN  =       -21.79647668 eV

  energy without entropy =      -21.79647668  energy(sigma->0) =      -21.79647668


--------------------------------------------------------------------------------------------------------




--------------------------------------- Iteration      1(  12)  ---------------------------------------


    POTLOK:  cpu time    0.1570: real time    0.1599
    SETDIJ:  cpu time    0.0060: real time    0.0053
     EDDAV:  cpu time    1.0038: real time    1.0034
       DOS:  cpu time    0.0000: real time    0.0004
    CHARGE:  cpu time    0.0820: real time    0.0827
    MIXING:  cpu time    0.0060: real time    0.0051
    --------------------------------------------
      LOOP:  cpu time    1.2548: real time    1.2570

 eigenvalue-minimisations  :   482
 total energy-change (2. order) : 0.2751363E-03  (-0.6015737E-04)
 number of electron      18.0000005 magnetization 
 augmentation part       -0.5513391 magnetization 

 Broyden mixing:
  rms(total) = 0.27839E-02    rms(broyden)= 0.27839E-02
  rms(prec ) = 0.32056E-02
  weight for this iteration     100.00

 eigenvalues of (default mixing * dielectric matrix)
  average eigenvalue GAMMA=   1.5898
  3.0445  2.3826  1.5789  1.5789  0.6151  0.9642  0.9642

 Free energy of the ion-electron system (eV)
  ---------------------------------------------------
  alpha Z        PSCENC =        10.89288288
  Ewald energy   TEWEN  =      5368.65661653
  -Hartree energ DENC   =     -6054.44865371
  -exchange      EXHF   =         0.00000000
  -V(xc)+E(xc)   XCENC  =       -35.20728344
  PAW double counting   =       472.33594066     -396.52312114
  entropy T*S    EENTRO =        -0.00000000
  eigenvalues    EBANDS =      -158.65769732
  atomic energy  EATOM  =       771.15511399
  Solvation  Ediel_sol  =         0.00000000
  ---------------------------------------------------
  free energy    TOTEN  =       -21.79620155 eV

  energy without entropy =      -21.79620155  energy(sigma->0) =      -21.79620155


--------------------------------------------------------------------------------------------------------




--------------------------------------- Iteration      1(  13)  ---------------------------------------


    POTLOK:  cpu time    0.1720: real time    0.1737
    SETDIJ:  cpu time    0.0050: real time    0.0047
     EDDAV:  cpu time    0.9139: real time    0.9134
       DOS:  cpu time    0.0000: real time    0.0004
    CHARGE:  cpu time    0.0830: real time    0.0833
    MIXING:  cpu time    0.0060: real time    0.0055
    --------------------------------------------
      LOOP:  cpu time    1.1798: real time    1.1811

 eigenvalue-minimisations  :   436
 total energy-change (2. order) :-0.2051593E-03  (-0.2206573E-04)
 number of electron      18.0000005 magnetization 
 augmentation part       -0.5484898 magnetization 

 Broyden mixing:
  rms(total) = 0.24507E-02    rms(broyden)= 0.24506E-02
  rms(prec ) = 0.27827E-02
  weight for this iteration     100.00

 eigenvalues of (default mixing * dielectric matrix)
  average eigenvalue GAMMA=   1.9561
  5.0372  2.9062  2.4468  0.6152  1.3892  1.3892  0.9758  0.8895

 Free energy of the ion-electron system (eV)
  ---------------------------------------------------
  alpha Z        PSCENC =        10.89288288
  Ewald energy   TEWEN  =      5368.65661653
  -Hartree energ DENC   =     -6054.80908075
  -exchange      EXHF   =         0.00000000
  -V(xc)+E(xc)   XCENC  =       -35.20076617
  PAW double counting   =       472.37620025     -396.57080966
  entropy T*S    EENTRO =        -0.00000000
  eigenvalues    EBANDS =      -158.29656378
  atomic energy  EATOM  =       771.15511399
  Solvation  Ediel_sol  =         0.00000000
  ---------------------------------------------------
  free energy    TOTEN  =       -21.79640671 eV

  energy without entropy =      -21.79640671  energy(sigma->0) =      -21.79640671


--------------------------------------------------------------------------------------------------------




--------------------------------------- Iteration      1(  14)  ---------------------------------------


    POTLOK:  cpu time    0.1710: real time    0.1736
    SETDIJ:  cpu time    0.0060: real time    0.0049
     EDDAV:  cpu time    0.9199: real time    0.9201
       DOS:  cpu time    0.0010: real time    0.0004
    CHARGE:  cpu time    0.0820: real time    0.0827
    MIXING:  cpu time    0.0050: real time    0.0049
    --------------------------------------------
      LOOP:  cpu time    1.1848: real time    1.1866

 eigenvalue-minimisations  :   422
 total energy-change (2. order) :-0.1934690E-03  (-0.5322353E-05)
 number of electron      18.0000005 magnetization 
 augmentation part       -0.5498734 magnetization 

 Broyden mixing:
  rms(total) = 0.71582E-03    rms(broyden)= 0.71580E-03
  rms(prec ) = 0.82417E-03
  weight for this iteration     100.00

 eigenvalues of (default mixing * dielectric matrix)
  average eigenvalue GAMMA=   1.9005
  5.1084  2.7139  2.1400  1.7695  1.7695  0.6152  0.9056  1.0410  1.0410

 Free energy of the ion-electron system (eV)
  ---------------------------------------------------
  alpha Z        PSCENC =        10.89288288
  Ewald energy   TEWEN  =      5368.65661653
  -Hartree energ DENC   =     -6055.32040017
  -exchange      EXHF   =         0.00000000
  -V(xc)+E(xc)   XCENC  =       -35.20145098
  PAW double counting   =       472.10516850     -396.29610753
  entropy T*S    EENTRO =        -0.00000000
  eigenvalues    EBANDS =      -157.78842339
  atomic energy  EATOM  =       771.15511399
  Solvation  Ediel_sol  =         0.00000000
  ---------------------------------------------------
  free energy    TOTEN  =       -21.79660018 eV

  energy without entropy =      -21.79660018  energy(sigma->0) =      -21.79660018


--------------------------------------------------------------------------------------------------------




--------------------------------------- Iteration      1(  15)  ---------------------------------------


    POTLOK:  cpu time    0.1540: real time    0.1568
    SETDIJ:  cpu time    0.0050: real time    0.0043
     EDDAV:  cpu time    1.0408: real time    1.0418
       DOS:  cpu time    0.0000: real time    0.0004
    CHARGE:  cpu time    0.0840: real time    0.0835
    MIXING:  cpu time    0.0060: real time    0.0057
    --------------------------------------------
      LOOP:  cpu time    1.2898: real time    1.2925

 eigenvalue-minimisations  :   500
 total energy-change (2. order) :-0.7675265E-04  (-0.8520826E-06)
 number of electron      18.0000005 magnetization 
 augmentation part       -0.5498579 magnetization 

 Broyden mixing:
  rms(total) = 0.29605E-03    rms(broyden)= 0.29605E-03
  rms(prec ) = 0.40015E-03
  weight for this iteration     100.00

 eigenvalues of (default mixing * dielectric matrix)
  average eigenvalue GAMMA=   2.1294
  6.6586  3.5357  2.4987  2.3051  1.5294  0.6152  1.2757  0.9180  0.9786  0.9786

 Free energy of the ion-electron system (eV)
  ---------------------------------------------------
  alpha Z        PSCENC =        10.89288288
  Ewald energy   TEWEN  =      5368.65661653
  -Hartree energ DENC   =     -6055.45622224
  -exchange      EXHF   =         0.00000000
  -V(xc)+E(xc)   XCENC  =       -35.20070407
  PAW double counting   =       472.17284959     -396.36353549
  entropy T*S    EENTRO =        -0.00000000
  eigenvalues    EBANDS =      -157.65367812
  atomic energy  EATOM  =       771.15511399
  Solvation  Ediel_sol  =         0.00000000
  ---------------------------------------------------
  free energy    TOTEN  =       -21.79667693 eV

  energy without entropy =      -21.79667693  energy(sigma->0) =      -21.79667693


--------------------------------------------------------------------------------------------------------




--------------------------------------- Iteration      1(  16)  ---------------------------------------


    POTLOK:  cpu time    0.1730: real time    0.1757
    SETDIJ:  cpu time    0.0060: real time    0.0047
     EDDAV:  cpu time    0.8689: real time    0.8691
       DOS:  cpu time    0.0010: real time    0.0004
    CHARGE:  cpu time    0.0830: real time    0.0838
    MIXING:  cpu time    0.0060: real time    0.0059
    --------------------------------------------
      LOOP:  cpu time    1.1378: real time    1.1396

 eigenvalue-minimisations  :   404
 total energy-change (2. order) :-0.8963323E-04  (-0.5272223E-06)
 number of electron      18.0000005 magnetization 
 augmentation part       -0.5500361 magnetization 

 Broyden mixing:
  rms(total) = 0.24132E-03    rms(broyden)= 0.24131E-03
  rms(prec ) = 0.26787E-03
  weight for this iteration     100.00

 eigenvalues of (default mixing * dielectric matrix)
  average eigenvalue GAMMA=   2.1560
  6.8582  3.6570  2.6541  2.4115  1.7532  1.7532  0.6152  0.9098  1.0237  1.0403
  1.0403

 Free energy of the ion-electron system (eV)
  ---------------------------------------------------
  alpha Z        PSCENC =        10.89288288
  Ewald energy   TEWEN  =      5368.65661653
  -Hartree energ DENC   =     -6055.57962924
  -exchange      EXHF   =         0.00000000
  -V(xc)+E(xc)   XCENC  =       -35.20101997
  PAW double counting   =       472.21345981     -396.40462593
  entropy T*S    EENTRO =        -0.00000000
  eigenvalues    EBANDS =      -157.52956464
  atomic energy  EATOM  =       771.15511399
  Solvation  Ediel_sol  =         0.00000000
  ---------------------------------------------------
  free energy    TOTEN  =       -21.79676656 eV

  energy without entropy =      -21.79676656  energy(sigma->0) =      -21.79676656


--------------------------------------------------------------------------------------------------------




--------------------------------------- Iteration      1(  17)  ---------------------------------------


    POTLOK:  cpu time    0.1730: real time    0.1759
    SETDIJ:  cpu time    0.0050: real time    0.0045
     EDDAV:  cpu time    0.8899: real time    0.8904
       DOS:  cpu time    0.0000: real time    0.0005
    CHARGE:  cpu time    0.0840: real time    0.0840
    MIXING:  cpu time    0.0060: real time    0.0054
    --------------------------------------------
      LOOP:  cpu time    1.1578: real time    1.1606

 eigenvalue-minimisations  :   398
 total energy-change (2. order) :-0.3133776E-04  (-0.1115515E-06)
 number of electron      18.0000005 magnetization 
 augmentation part       -0.5499272 magnetization 

 Broyden mixing:
  rms(total) = 0.80346E-04    rms(broyden)= 0.80346E-04
  rms(prec ) = 0.10134E-03
  weight for this iteration     100.00

 eigenvalues of (default mixing * dielectric matrix)
  average eigenvalue GAMMA=   2.2333
  7.4875  4.3105  3.1156  2.5102  2.0351  1.6234  0.6152  1.2354  1.0407  1.0407
  0.9186  0.8675

 Free energy of the ion-electron system (eV)
  ---------------------------------------------------
  alpha Z        PSCENC =        10.89288288
  Ewald energy   TEWEN  =      5368.65661653
  -Hartree energ DENC   =     -6055.61152238
  -exchange      EXHF   =         0.00000000
  -V(xc)+E(xc)   XCENC  =       -35.20085867
  PAW double counting   =       472.19090311     -396.38176949
  entropy T*S    EENTRO =        -0.00000000
  eigenvalues    EBANDS =      -157.49816388
  atomic energy  EATOM  =       771.15511399
  Solvation  Ediel_sol  =         0.00000000
  ---------------------------------------------------
  free energy    TOTEN  =       -21.79679790 eV

  energy without entropy =      -21.79679790  energy(sigma->0) =      -21.79679790


--------------------------------------------------------------------------------------------------------




--------------------------------------- Iteration      1(  18)  ---------------------------------------


    POTLOK:  cpu time    0.1500: real time    0.1518
    SETDIJ:  cpu time    0.0040: real time    0.0042
     EDDAV:  cpu time    0.8459: real time    0.8456
       DOS:  cpu time    0.0010: real time    0.0004
    CHARGE:  cpu time    0.0820: real time    0.0836
    MIXING:  cpu time    0.0070: real time    0.0062
    --------------------------------------------
      LOOP:  cpu time    1.0898: real time    1.0918

 eigenvalue-minimisations  :   372
 total energy-change (2. order) :-0.9774485E-05  (-0.6671543E-07)
 number of electron      18.0000005 magnetization 
 augmentation part       -0.5499283 magnetization 

 Broyden mixing:
  rms(total) = 0.98615E-04    rms(broyden)= 0.98615E-04
  rms(prec ) = 0.10689E-03
  weight for this iteration     100.00

 eigenvalues of (default mixing * dielectric matrix)
  average eigenvalue GAMMA=   2.2736
  7.6518  5.1365  2.9192  2.7276  1.9628  1.9628  1.5715  0.6152  1.0995  1.0298
  1.0298  0.9249  0.9249

 Free energy of the ion-electron system (eV)
  ---------------------------------------------------
  alpha Z        PSCENC =        10.89288288
  Ewald energy   TEWEN  =      5368.65661653
  -Hartree energ DENC   =     -6055.62644859
  -exchange      EXHF   =         0.00000000
  -V(xc)+E(xc)   XCENC  =       -35.20088768
  PAW double counting   =       472.18269383     -396.37345307
  entropy T*S    EENTRO =        -0.00000000
  eigenvalues    EBANDS =      -157.48332557
  atomic energy  EATOM  =       771.15511399
  Solvation  Ediel_sol  =         0.00000000
  ---------------------------------------------------
  free energy    TOTEN  =       -21.79680767 eV

  energy without entropy =      -21.79680767  energy(sigma->0) =      -21.79680767


--------------------------------------------------------------------------------------------------------




--------------------------------------- Iteration      1(  19)  ---------------------------------------


    POTLOK:  cpu time    0.1680: real time    0.1707
    SETDIJ:  cpu time    0.0060: real time    0.0049
     EDDAV:  cpu time    0.8199: real time    0.8204
       DOS:  cpu time    0.0000: real time    0.0004
    CHARGE:  cpu time    0.0840: real time    0.0839
    MIXING:  cpu time    0.0060: real time    0.0064
    --------------------------------------------
      LOOP:  cpu time    1.0838: real time    1.0866

 eigenvalue-minimisations  :   372
 total energy-change (2. order) :-0.5884205E-05  (-0.2805438E-07)
 number of electron      18.0000005 magnetization 
 augmentation part       -0.5499883 magnetization 

 Broyden mixing:
  rms(total) = 0.40867E-04    rms(broyden)= 0.40867E-04
  rms(prec ) = 0.47086E-04
  weight for this iteration     100.00

 eigenvalues of (default mixing * dielectric matrix)
  average eigenvalue GAMMA=   2.2942
  7.7562  5.4078  2.9024  2.6692  2.6692  1.7726  1.7726  1.6010  0.6152  1.0635
  1.0126  1.0126  0.9321  0.9321

 Free energy of the ion-electron system (eV)
  ---------------------------------------------------
  alpha Z        PSCENC =        10.89288288
  Ewald energy   TEWEN  =      5368.65661653
  -Hartree energ DENC   =     -6055.62707641
  -exchange      EXHF   =         0.00000000
  -V(xc)+E(xc)   XCENC  =       -35.20102795
  PAW double counting   =       472.18396703     -396.37474393
  entropy T*S    EENTRO =        -0.00000000
  eigenvalues    EBANDS =      -157.48254570
  atomic energy  EATOM  =       771.15511399
  Solvation  Ediel_sol  =         0.00000000
  ---------------------------------------------------
  free energy    TOTEN  =       -21.79681356 eV

  energy without entropy =      -21.79681356  energy(sigma->0) =      -21.79681356


--------------------------------------------------------------------------------------------------------




--------------------------------------- Iteration      1(  20)  ---------------------------------------


    POTLOK:  cpu time    0.1740: real time    0.1757
    SETDIJ:  cpu time    0.0050: real time    0.0049
     EDDAV:  cpu time    0.8299: real time    0.8301
       DOS:  cpu time    0.0000: real time    0.0004
    CHARGE:  cpu time    0.0840: real time    0.0835
    MIXING:  cpu time    0.0060: real time    0.0062
    --------------------------------------------
      LOOP:  cpu time    1.0988: real time    1.1009

 eigenvalue-minimisations  :   362
 total energy-change (2. order) :-0.4328548E-05  (-0.2508026E-07)
 number of electron      18.0000005 magnetization 
 augmentation part       -0.5499725 magnetization 

 Broyden mixing:
  rms(total) = 0.29002E-04    rms(broyden)= 0.29002E-04
  rms(prec ) = 0.32165E-04
  weight for this iteration     100.00

 eigenvalues of (default mixing * dielectric matrix)
  average eigenvalue GAMMA=   2.3535
  7.8014  5.7672  3.7406  2.9778  2.4576  2.4576  1.7028  1.7028  0.6152  1.1297
  1.1297  0.9777  0.9777  0.9141  0.9508

 Free energy of the ion-electron system (eV)
  ---------------------------------------------------
  alpha Z        PSCENC =        10.89288288
  Ewald energy   TEWEN  =      5368.65661653
  -Hartree energ DENC   =     -6055.63152298
  -exchange      EXHF   =         0.00000000
  -V(xc)+E(xc)   XCENC  =       -35.20097436
  PAW double counting   =       472.18852672     -396.37943453
  entropy T*S    EENTRO =        -0.00000000
  eigenvalues    EBANDS =      -157.47802614
  atomic energy  EATOM  =       771.15511399
  Solvation  Ediel_sol  =         0.00000000
  ---------------------------------------------------
  free energy    TOTEN  =       -21.79681789 eV

  energy without entropy =      -21.79681789  energy(sigma->0) =      -21.79681789


--------------------------------------------------------------------------------------------------------




--------------------------------------- Iteration      1(  21)  ---------------------------------------


    POTLOK:  cpu time    0.1720: real time    0.1740
    SETDIJ:  cpu time    0.0050: real time    0.0046
     EDDAV:  cpu time    0.7689: real time    0.7680
       DOS:  cpu time    0.0000: real time    0.0004
    CHARGE:  cpu time    0.0830: real time    0.0831
    MIXING:  cpu time    0.0070: real time    0.0065
    --------------------------------------------
      LOOP:  cpu time    1.0358: real time    1.0366

 eigenvalue-minimisations  :   340
 total energy-change (2. order) :-0.1596280E-05  (-0.7610138E-08)
 number of electron      18.0000005 magnetization 
 augmentation part       -0.5499725 magnetization 

 Broyden mixing:
  rms(total) = 0.19712E-04    rms(broyden)= 0.19712E-04
  rms(prec ) = 0.20930E-04
  weight for this iteration     100.00

 eigenvalues of (default mixing * dielectric matrix)
  average eigenvalue GAMMA=   2.3198
  7.8389  6.1901  3.9138  2.9599  2.4060  2.4060  1.7025  1.7025  1.4698  0.6152
  1.1666  1.0072  1.0072  0.9238  0.9238  0.8842

 Free energy of the ion-electron system (eV)
  ---------------------------------------------------
  alpha Z        PSCENC =        10.89288288
  Ewald energy   TEWEN  =      5368.65661653
  -Hartree energ DENC   =     -6055.63770612
  -exchange      EXHF   =         0.00000000
  -V(xc)+E(xc)   XCENC  =       -35.20096289
  PAW double counting   =       472.18718556     -396.37804867
  entropy T*S    EENTRO =        -0.00000000
  eigenvalues    EBANDS =      -157.47190076
  atomic energy  EATOM  =       771.15511399
  Solvation  Ediel_sol  =         0.00000000
  ---------------------------------------------------
  free energy    TOTEN  =       -21.79681948 eV

  energy without entropy =      -21.79681948  energy(sigma->0) =      -21.79681948


--------------------------------------------------------------------------------------------------------




--------------------------------------- Iteration      1(  22)  ---------------------------------------


    POTLOK:  cpu time    0.1730: real time    0.1748
    SETDIJ:  cpu time    0.0050: real time    0.0048
     EDDAV:  cpu time    0.8539: real time    0.8544
       DOS:  cpu time    0.0000: real time    0.0004
    --------------------------------------------
      LOOP:  cpu time    1.0318: real time    1.0345

 eigenvalue-minimisations  :   376
 total energy-change (2. order) :-0.2901696E-06  (-0.1173221E-08)
 number of electron      18.0000005 magnetization 
 augmentation part       -0.5499725 magnetization 

 Free energy of the ion-electron system (eV)
  ---------------------------------------------------
  alpha Z        PSCENC =        10.89288288
  Ewald energy   TEWEN  =      5368.65661653
  -Hartree energ DENC   =     -6055.63825699
  -exchange      EXHF   =         0.00000000
  -V(xc)+E(xc)   XCENC  =       -35.20096327
  PAW double counting   =       472.18691379     -396.37778011
  entropy T*S    EENTRO =        -0.00000000
  eigenvalues    EBANDS =      -157.47134659
  atomic energy  EATOM  =       771.15511399
  Solvation  Ediel_sol  =         0.00000000
  ---------------------------------------------------
  free energy    TOTEN  =       -21.79681977 eV

  energy without entropy =      -21.79681977  energy(sigma->0) =      -21.79681977


--------------------------------------------------------------------------------------------------------




 average (electrostatic) potential at core
  the test charge radii are     1.2296  0.9698
  (the norm of the test charge is              1.0000)
       1 -47.1995       2 -95.0385       3 -95.0385
 
 
 
 E-fermi :  -2.9185     XC(G=0):  -2.4847     alpha+bet : -2.3217


 k-point     1 :       0.0000    0.0000    0.0000
  band No.  band energies     occupation 
      1     -17.7878      2.00000
      2     -16.5797      2.00000
      3      -9.3081      2.00000
      4      -6.3473      2.00000
      5      -6.3473      2.00000
      6      -5.4861      2.00000
      7      -5.2417      2.00000
      8      -5.2416      2.00000
      9      -3.7658      2.00000
     10      -0.9942      0.00000
     11      -0.9941      0.00000
     12      -0.7704      0.00000
     13      -0.7704      0.00000
     14       1.6579      0.00000

 k-point     2 :       0.1000   -0.0000    0.0000
  band No.  band energies     occupation 
      1     -17.6494      2.00000
      2     -16.5135      2.00000
      3      -9.1467      2.00000
      4      -6.6594      2.00000
      5      -6.1951      2.00000
      6      -6.1029      2.00000
      7      -5.4673      2.00000
      8      -4.8546      2.00000
      9      -3.8462      2.00000
     10      -1.1701      0.00000
     11      -1.1356      0.00000
     12      -0.9295      0.00000
     13      -0.7543      0.00000
     14       1.9105      0.00000

 k-point     3 :       0.2000    0.0000    0.0000
  band No.  band energies     occupation 
      1     -17.2636      2.00000
      2     -16.3301      2.00000
      3      -8.7883      2.00000
      4      -7.3004      2.00000
      5      -6.8812      2.00000
      6      -5.9575      2.00000
      7      -5.7854      2.00000
      8      -4.8878      2.00000
      9      -4.2095      2.00000
     10      -1.5639      0.00000
     11      -1.2665      0.00000
     12      -1.1128      0.00000
     13      -0.2583      0.00000
     14       2.4761      0.00000

 k-point     4 :       0.3000    0.0000    0.0000
  band No.  band energies     occupation 
      1     -16.7263      2.00000
      2     -16.0794      2.00000
      3      -8.7942      2.00000
      4      -7.6543      2.00000
      5      -7.6212      2.00000
      6      -6.4421      2.00000
      7      -5.2648      2.00000
      8      -5.2477      2.00000
      9      -4.6678      2.00000
     10      -1.5345      0.00000
     11      -1.5294      0.00000
     12      -0.5819      0.00000
     13       0.1719      0.00000
     14       3.2332      0.00000

 k-point     5 :       0.4000    0.0000    0.0000
  band No.  band energies     occupation 
      1     -16.2196      2.00000
      2     -15.8513      2.00000
      3      -9.2443      2.00000
      4      -8.2684      2.00000
      5      -7.7025      2.00000
      6      -6.7740      2.00000
      7      -5.5202      2.00000
      8      -4.8541      2.00000
      9      -4.6001      2.00000
     10      -1.6038      0.00000
     11      -1.2488      0.00000
     12      -0.0542      0.00000
     13       0.4139      0.00000
     14       3.0956      0.00000

 k-point     6 :       0.5000   -0.0000    0.0000
  band No.  band energies     occupation 
      1     -16.0014      2.00000
      2     -15.7567      2.00000
      3      -9.4674      2.00000
      4      -8.5072      2.00000
      5      -7.7964      2.00000
      6      -6.8903      2.00000
      7      -5.6082      2.00000
      8      -4.7082      2.00000
      9      -4.3864      2.00000
     10      -1.5811      0.00000
     11      -1.0651      0.00000
     12       0.1374      0.00000
     13       0.4864      0.00000
     14       2.4164      0.00000

 k-point     7 :       0.1000    0.1000    0.0000
  band No.  band energies     occupation 
      1     -17.3869      2.00000
      2     -16.3883      2.00000
      3      -8.8759      2.00000
      4      -7.1215      2.00000
      5      -6.5913      2.00000
      6      -6.0071      2.00000
      7      -5.9351      2.00000
      8      -4.6787      2.00000
      9      -4.0726      2.00000
     10      -1.5074      0.00000
     11      -1.3063      0.00000
     12      -1.1852      0.00000
     13      -0.3216      0.00000
     14       2.3114      0.00000

 k-point     8 :       0.2000    0.1000    0.0000
  band No.  band energies     occupation 
      1     -16.9224      2.00000
      2     -16.1684      2.00000
      3      -8.6499      2.00000
      4      -7.5471      2.00000
      5      -7.2625      2.00000
      6      -6.6183      2.00000
      7      -5.6142      2.00000
      8      -4.8356      2.00000
      9      -4.4947      2.00000
     10      -1.7577      0.00000
     11      -1.3503      0.00000
     12      -1.0788      0.00000
     13       0.1911      0.00000
     14       3.0008      0.00000

 k-point     9 :       0.3000    0.1000    0.0000
  band No.  band energies     occupation 
      1     -16.3902      2.00000
      2     -15.9212      2.00000
      3      -8.9464      2.00000
      4      -8.0506      2.00000
      5      -7.5767      2.00000
      6      -6.8540      2.00000
      7      -5.5168      2.00000
      8      -5.2445      2.00000
      9      -4.5278      2.00000
     10      -1.6652      0.00000
     11      -1.3020      0.00000
     12      -0.5285      0.00000
     13       0.4661      0.00000
     14       3.6819      0.00000

 k-point    10 :       0.4000    0.1000    0.0000
  band No.  band energies     occupation 
      1     -16.0120      2.00000
      2     -15.7505      2.00000
      3      -9.2750      2.00000
      4      -8.5475      2.00000
      5      -7.7154      2.00000
      6      -6.9022      2.00000
      7      -5.5508      2.00000
      8      -5.3998      2.00000
      9      -4.2395      2.00000
     10      -1.5576      0.00000
     11      -1.0617      0.00000
     12      -0.0295      0.00000
     13       0.4166      0.00000
     14       2.7682      0.00000

 k-point    11 :       0.2000    0.2000    0.0000
  band No.  band energies     occupation 
      1     -16.4554      2.00000
      2     -15.9454      2.00000
      3      -8.7493      2.00000
      4      -7.9103      2.00000
      5      -7.4509      2.00000
      6      -7.0359      2.00000
      7      -5.9727      2.00000
      8      -4.9867      2.00000
      9      -4.5216      2.00000
     10      -1.7508      0.00000
     11      -1.2683      0.00000
     12      -0.9078      0.00000
     13       0.5774      0.00000
     14       3.7715      0.00000

 k-point    12 :       0.3000    0.2000    0.0000
  band No.  band energies     occupation 
      1     -16.0288      2.00000
      2     -15.7405      2.00000
      3      -8.8960      2.00000
      4      -8.6059      2.00000
      5      -7.4562      2.00000
      6      -6.9499      2.00000
      7      -6.4011      2.00000
      8      -5.4132      2.00000
      9      -4.2525      2.00000
     10      -1.6006      0.00000
     11      -1.0129      0.00000
     12      -0.5989      0.00000
     13       0.7289      0.00000
     14       3.5428      0.00000

 k-point    13 :       0.4000    0.2000    0.0000
  band No.  band energies     occupation 
      1     -15.8509      2.00000
      2     -15.6547      2.00000
      3      -8.9215      2.00000
      4      -8.8747      2.00000
      5      -7.6494      2.00000
      6      -6.8237      2.00000
      7      -6.4592      2.00000
      8      -5.6732      2.00000
      9      -4.0038      2.00000
     10      -1.7698      0.00000
     11      -0.6490      0.00000
     12      -0.4608      0.00000
     13       0.7554      0.00000
     14       2.9561      0.00000

 k-point    14 :       0.3000    0.3000    0.0000
  band No.  band energies     occupation 
      1     -15.7920      2.00000
      2     -15.6142      2.00000
      3      -9.0219      2.00000
      4      -8.5306      2.00000
      5      -7.5381      2.00000
      6      -7.2173      2.00000
      7      -6.7151      2.00000
      8      -5.7811      2.00000
      9      -3.8819      2.00000
     10      -1.9769      0.00000
     11      -0.6966      0.00000
     12      -0.4218      0.00000
     13       0.9878      0.00000
     14       3.4266      0.00000


--------------------------------------------------------------------------------------------------------


 soft charge-density along one line, spin component           1
         0         1         2         3         4         5         6         7         8         9
 total charge-density along one line
 
 pseudopotential strength for first ion, spin component:           1
-10.073  -0.000  -0.000  -0.000  -0.000   0.111   0.000   0.000
 -0.000 -10.074   0.000  -0.000  -0.000   0.000   0.111  -0.000
 -0.000   0.000 -10.053  -0.000  -0.000   0.000  -0.000   0.109
 -0.000  -0.000  -0.000 -10.074  -0.000   0.000   0.000   0.000
 -0.000  -0.000  -0.000  -0.000 -10.073   0.000   0.000   0.000
  0.111   0.000   0.000   0.000   0.000   0.097  -0.000   0.000
  0.000   0.111  -0.000   0.000   0.000  -0.000   0.097   0.000
  0.000  -0.000   0.109   0.000   0.000   0.000   0.000   0.097
  0.000   0.000   0.000   0.111   0.000  -0.000  -0.000  -0.000
  0.000   0.000   0.000   0.000   0.111  -0.000  -0.000  -0.000
  0.000  -0.000  -0.005   0.000  -0.000  -0.000   0.000   0.000
 -0.000   0.000   0.001  -0.000   0.000   0.000  -0.000  -0.000
 -0.000  -0.000  -0.000  -0.000  -0.007   0.000  -0.000   0.000
 -0.000   0.000   0.000  -0.000   0.000  -0.000  -0.000   0.000
 -0.007  -0.000   0.000  -0.000  -0.000  -0.000  -0.000  -0.000
  0.000   0.000   0.000   0.000   0.004  -0.000   0.000  -0.000
  0.000  -0.000  -0.000   0.000  -0.000  -0.000   0.000   0.000
  0.004   0.000  -0.000   0.000   0.000   0.000  -0.000   0.000
 total augmentation occupancy for first ion, spin component:           1
  0.965   0.000  -0.000   0.000  -0.000   0.601   0.000  -0.000  -0.000  -0.000   0.000   0.000   0.000   0.000  -0.066  -0.000
  0.000   0.907   0.000   0.000   0.000   0.000   0.839   0.000   0.000   0.000   0.000   0.000   0.000   0.000   0.000   0.000
 -0.000   0.000   1.029   0.000   0.000  -0.000   0.000   0.502   0.000   0.000   0.111  -0.019  -0.000  -0.000   0.000   0.000
 -0.000   0.000   0.000   0.907   0.000   0.000   0.000  -0.000   0.839   0.000   0.000   0.000   0.000   0.000   0.000   0.000
 -0.000   0.000   0.000   0.000   0.965  -0.000   0.000   0.000   0.000   0.601   0.000  -0.000  -0.066   0.000  -0.000   0.007
  0.601   0.000  -0.000   0.000  -0.000   0.678  -0.000  -0.000   0.000  -0.000   0.000  -0.000   0.000  -0.000  -0.136  -0.000
 -0.000   0.839   0.000   0.000  -0.000   0.000   1.081   0.000   0.000   0.000   0.000   0.000   0.000   0.000   0.000  -0.000
 -0.000   0.000   0.502  -0.000   0.000  -0.000   0.000   0.476  -0.000   0.000   0.059  -0.021  -0.000   0.000   0.000   0.000
  0.000   0.000   0.000   0.839   0.000   0.000   0.000   0.000   1.081   0.000   0.000   0.000   0.000   0.000  -0.000   0.000
 -0.000   0.000   0.000   0.000   0.601  -0.000   0.000   0.000   0.000   0.678   0.000  -0.000  -0.136   0.000  -0.000   0.023
  0.000   0.000   0.111   0.000   0.000   0.000   0.000   0.059   0.000   0.000   1.207  -0.185   0.000   0.000   0.000   0.000
  0.000   0.000  -0.019   0.000  -0.000  -0.000   0.000  -0.021   0.000  -0.000  -0.185   0.042   0.000   0.000   0.000  -0.000
  0.000  -0.000  -0.000  -0.000  -0.066   0.000   0.000  -0.000   0.000  -0.136  -0.000   0.000   0.217   0.000   0.000  -0.032
  0.000   0.000  -0.000   0.000   0.000   0.000   0.000  -0.000   0.000   0.000   0.000   0.000   0.000   0.264   0.000   0.000
 -0.066  -0.000   0.000   0.000  -0.000  -0.136  -0.000   0.000   0.000  -0.000   0.000   0.000   0.000   0.000   0.217  -0.000
 -0.000   0.000   0.000   0.000   0.007  -0.000  -0.000   0.000   0.000   0.023   0.000   0.000  -0.032   0.000  -0.000   0.005
 -0.000   0.000   0.000   0.000   0.000  -0.000   0.000  -0.000  -0.000   0.000   0.000   0.000   0.000  -0.038  -0.000   0.000
  0.007   0.000  -0.000   0.000   0.000   0.023   0.000  -0.000   0.000   0.000  -0.000   0.000  -0.000   0.000  -0.032   0.000


------------------------ aborting loop because EDIFF is reached ----------------------------------------


    CHARGE:  cpu time    0.0830: real time    0.0839
    FORLOC:  cpu time    0.0130: real time    0.0117
    FORNL :  cpu time    0.0630: real time    0.0629
    STRESS:  cpu time    0.3579: real time    0.3577
    FORCOR:  cpu time    0.1830: real time    0.1825
    FORHAR:  cpu time    0.0450: real time    0.0453
    MIXING:  cpu time    0.0060: real time    0.0065
    OFIELD:  cpu time    0.0000: real time    0.0000

  DFT-D2 method for vdW energy calculation
  -------------------------------------------------------------------

  Parameters of vdW forcefield:
         C6(Jnm^6/mol)     R0(A)
   -----------------------------
   Mo      24.670          1.639
   S        5.570          1.683

  IVDW =   1
  VDW_RADIUS =    50.000 A
  VDW_S6 =     0.750
  VDW_SR =     1.000
  VDW_D =    20.000
  LVDW_EWALD = F

  Number of pair interactions contributing to vdW energy:   11979
  Edisp (eV):   -0.59080
    FORVDW:  cpu time    0.0140: real time    0.0179

  FORCE on cell =-STRESS in cart. coord.  units (eV):
  Direction    XX          YY          ZZ          XY          YZ          ZX
  --------------------------------------------------------------------------------------
  Alpha Z    10.89288    10.89288    10.89288
  Ewald    5935.52296  5935.52341 -6502.38985     0.00019     0.00000     0.00012
  Hartree  6017.36881  6017.36882 -5979.09731     0.00002    -0.00000    -0.00000
  E(xc)     -70.29680   -70.29681   -70.90192    -0.00000     0.00000    -0.00000
  Local  -12231.98890-12231.98917 12196.42627    -0.00016    -0.00000    -0.00006
  n-local   127.20803   125.74031   131.68156    -0.25962    -0.00000    -0.00001
  augment   -25.56511   -25.56510   -26.66715     0.00002     0.00000    -0.00000
  Kinetic   236.12876   238.45003   239.80640    -7.46495     0.00001     0.00002
  Fock        0.00000     0.00000     0.00000     0.00000     0.00000     0.00000
  vdW         0.16052     0.16052    -0.13380     0.00000     0.00000    -0.00000
  -------------------------------------------------------------------------------------
  Total      -0.14198    -0.14198    -0.38292     0.00000     0.00000     0.00000
  in kB      -0.83576    -0.83576    -2.25400     0.00000     0.00000     0.00000
  external pressure =       -1.31 kB  Pullay stress =        0.00 kB


 VOLUME and BASIS-vectors are now :
 -----------------------------------------------------------------------------
  energy-cutoff  :      450.00
  volume of cell :      272.18
      direct lattice vectors                 reciprocal lattice vectors
     3.190315730  0.000000000  0.000000000     0.313448600  0.180969634  0.000000000
    -1.595157865  2.762894468  0.000000000     0.000000000  0.361939267  0.000000000
     0.000000000  0.000000000 30.879004300     0.000000000  0.000000000  0.032384464

  length of vectors
     3.190315730  3.190315730 30.879004300     0.361939267  0.361939267  0.032384464


 FORCES acting on ions
    electron-ion (+dipol)            ewald-force                    non-local-force                 convergence-correction
 -----------------------------------------------------------------------------------------------
   -.942E-05 -.178E-05 0.121E-05   0.931E-04 -.108E-03 0.343E-06   0.451E-16 0.208E-16 0.212E-21   -.402E-10 -.139E-10 -.838E-08
[...]


    POTLOK:  cpu time    0.1680: real time    0.1704
    SETDIJ:  cpu time    0.0050: real time    0.0046
     EDDAV:  cpu time    0.7599: real time    0.7604
       DOS:  cpu time    0.0010: real time    0.0004
    --------------------------------------------
      LOOP:  cpu time    0.9339: real time    0.9359

 eigenvalue-minimisations  :   316
 total energy-change (2. order) :-0.2256309E-06  (-0.1421059E-06)
 number of electron      18.0000005 magnetization 
 augmentation part       -0.5496360 magnetization 

 Free energy of the ion-electron system (eV)
  ---------------------------------------------------
  alpha Z        PSCENC =        10.92610231
  Ewald energy   TEWEN  =      5354.53473861
  -Hartree energ DENC   =     -6041.38303993
  -exchange      EXHF   =         0.00000000
  -V(xc)+E(xc)   XCENC  =       -35.17117682
  PAW double counting   =       473.40103926     -397.60967979
  entropy T*S    EENTRO =        -0.00000000
  eigenvalues    EBANDS =      -157.65023697
  atomic energy  EATOM  =       771.15511399
  Solvation  Ediel_sol  =         0.00000000
  ---------------------------------------------------
  free energy    TOTEN  =       -21.79713934 eV

  energy without entropy =      -21.79713934  energy(sigma->0) =      -21.79713934


--------------------------------------------------------------------------------------------------------




 average (electrostatic) potential at core
  the test charge radii are     1.2296  0.9698
  (the norm of the test charge is              1.0000)
       1 -47.1900       2 -95.0377       3 -95.0377
 
 
 
 E-fermi :  -2.9205     XC(G=0):  -2.4853     alpha+bet : -2.3288


 k-point     1 :       0.0000    0.0000    0.0000
  band No.  band energies     occupation 
      1     -17.8066      2.00000
      2     -16.5781      2.00000
      3      -9.3244      2.00000
      4      -6.3796      2.00000
      5      -6.3796      2.00000
      6      -5.4684      2.00000
      7      -5.2642      2.00000
      8      -5.2642      2.00000
      9      -3.7428      2.00000
     10      -0.9861      0.00000
     11      -0.9860      0.00000
     12      -0.7480      0.00000
     13      -0.7480      0.00000
     14       1.6701      0.00000

 k-point     2 :       0.1000   -0.0000    0.0000
  band No.  band energies     occupation 
      1     -17.6680      2.00000
      2     -16.5126      2.00000
      3      -9.1636      2.00000
      4      -6.6900      2.00000
      5      -6.2268      2.00000
      6      -6.1079      2.00000
      7      -5.4901      2.00000
      8      -4.8523      2.00000
      9      -3.8259      2.00000
     10      -1.1610      0.00000
     11      -1.1126      0.00000
     12      -0.9085      0.00000
     13      -0.7437      0.00000
     14       1.9227      0.00000

 k-point     3 :       0.2000    0.0000    0.0000
  band No.  band energies     occupation 
      1     -17.2817      2.00000
      2     -16.3313      2.00000
      3      -8.8086      2.00000
      4      -7.3237      2.00000
      5      -6.8907      2.00000
      6      -5.9808      2.00000
      7      -5.8147      2.00000
      8      -4.8761      2.00000
      9      -4.1973      2.00000
     10      -1.5399      0.00000
     11      -1.2495      0.00000
     12      -1.1007      0.00000
     13      -0.2413      0.00000
     14       2.4876      0.00000

 k-point     4 :       0.3000    0.0000    0.0000
  band No.  band energies     occupation 
      1     -16.7440      2.00000
      2     -16.0837      2.00000
      3      -8.8198      2.00000
      4      -7.6632      2.00000
      5      -7.6320      2.00000
      6      -6.4661      2.00000
      7      -5.2895      2.00000
      8      -5.2321      2.00000
      9      -4.6642      2.00000
     10      -1.5238      0.00000
     11      -1.5080      0.00000
     12      -0.5646      0.00000
     13       0.1961      0.00000
     14       3.2422      0.00000

 k-point     5 :       0.4000    0.0000    0.0000
  band No.  band energies     occupation 
      1     -16.2376      2.00000
      2     -15.8586      2.00000
      3      -9.2633      2.00000
      4      -8.2743      2.00000
      5      -7.7138      2.00000
      6      -6.7983      2.00000
      7      -5.5041      2.00000
      8      -4.8725      2.00000
      9      -4.5993      2.00000
     10      -1.6005      0.00000
     11      -1.2354      0.00000
     12      -0.0332      0.00000
     13       0.4431      0.00000
     14       3.1045      0.00000

 k-point     6 :       0.5000   -0.0000    0.0000
  band No.  band energies     occupation 
      1     -16.0198      2.00000
      2     -15.7653      2.00000
      3      -9.4822      2.00000
      4      -8.5114      2.00000
      5      -7.8103      2.00000
      6      -6.9147      2.00000
      7      -5.5922      2.00000
      8      -4.7233      2.00000
      9      -4.3840      2.00000
     10      -1.5815      0.00000
     11      -1.0583      0.00000
     12       0.1590      0.00000
     13       0.5173      0.00000
     14       2.4273      0.00000

 k-point     7 :       0.1000    0.1000    0.0000
  band No.  band energies     occupation 
      1     -17.4052      2.00000
      2     -16.3889      2.00000
      3      -8.8947      2.00000
      4      -7.1480      2.00000
      5      -6.5995      2.00000
      6      -6.0282      2.00000
      7      -5.9649      2.00000
      8      -4.6715      2.00000
      9      -4.0580      2.00000
     10      -1.4834      0.00000
     11      -1.2964      0.00000
     12      -1.1671      0.00000
     13      -0.3055      0.00000
     14       2.3232      0.00000

 k-point     8 :       0.2000    0.1000    0.0000
  band No.  band energies     occupation 
      1     -16.9402      2.00000
      2     -16.1715      2.00000
      3      -8.6750      2.00000
      4      -7.5619      2.00000
      5      -7.2744      2.00000
      6      -6.6350      2.00000
      7      -5.6376      2.00000
      8      -4.8244      2.00000
      9      -4.4909      2.00000
     10      -1.7361      0.00000
     11      -1.3356      0.00000
     12      -1.0660      0.00000
     13       0.2153      0.00000
     14       3.0113      0.00000

 k-point     9 :       0.3000    0.1000    0.0000
  band No.  band energies     occupation 
      1     -16.4080      2.00000
      2     -15.9273      2.00000
      3      -8.9693      2.00000
      4      -8.0623      2.00000
      5      -7.5863      2.00000
      6      -6.8693      2.00000
      7      -5.5300      2.00000
      8      -5.2312      2.00000
      9      -4.5345      2.00000
     10      -1.6499      0.00000
     11      -1.2935      0.00000
     12      -0.5103      0.00000
     13       0.4953      0.00000
     14       3.6867      0.00000

 k-point    10 :       0.4000    0.1000    0.0000
  band No.  band energies     occupation 
      1     -16.0303      2.00000
      2     -15.7589      2.00000
      3      -9.2906      2.00000
      4      -8.5576      2.00000
      5      -7.7286      2.00000
      6      -6.9184      2.00000
      7      -5.5359      2.00000
      8      -5.4085      2.00000
      9      -4.2456      2.00000
     10      -1.5543      0.00000
     11      -1.0548      0.00000
     12      -0.0052      0.00000
     13       0.4438      0.00000
     14       2.7813      0.00000

 k-point    11 :       0.2000    0.2000    0.0000
  band No.  band energies     occupation 
      1     -16.4731      2.00000
      2     -15.9511      2.00000
      3      -8.7742      2.00000
      4      -7.9291      2.00000
      5      -7.4597      2.00000
      6      -7.0421      2.00000
      7      -5.9855      2.00000
      8      -4.9743      2.00000
      9      -4.5290      2.00000
     10      -1.7299      0.00000
     11      -1.2630      0.00000
     12      -0.8919      0.00000
     13       0.6076      0.00000
     14       3.7781      0.00000

 k-point    12 :       0.3000    0.2000    0.0000
  band No.  band energies     occupation 
      1     -16.0469      2.00000
      2     -15.7485      2.00000
      3      -8.9141      2.00000
      4      -8.6248      2.00000
      5      -7.4663      2.00000
      6      -6.9537      2.00000
      7      -6.4108      2.00000
      8      -5.3998      2.00000
      9      -4.2607      2.00000
     10      -1.5924      0.00000
     11      -1.0060      0.00000
     12      -0.5755      0.00000
     13       0.7570      0.00000
     14       3.5598      0.00000

 k-point    13 :       0.4000    0.2000    0.0000
  band No.  band energies     occupation 
      1     -15.8693      2.00000
      2     -15.6637      2.00000
      3      -8.9345      2.00000
      4      -8.8932      2.00000
      5      -7.6637      2.00000
      6      -6.8275      2.00000
      7      -6.4669      2.00000
      8      -5.6589      2.00000
      9      -4.0103      2.00000
     10      -1.7741      0.00000
     11      -0.6346      0.00000
     12      -0.4325      0.00000
     13       0.7798      0.00000
     14       2.9711      0.00000

 k-point    14 :       0.3000    0.3000    0.0000
  band No.  band energies     occupation 
      1     -15.8104      2.00000
      2     -15.6233      2.00000
      3      -9.0438      2.00000
      4      -8.5432      2.00000
      5      -7.5497      2.00000
      6      -7.2278      2.00000
      7      -6.7136      2.00000
      8      -5.7676      2.00000
      9      -3.8875      2.00000
     10      -1.9852      0.00000
     11      -0.6680      0.00000
     12      -0.4022      0.00000
     13       1.0134      0.00000
     14       3.4395      0.00000


--------------------------------------------------------------------------------------------------------


 soft charge-density along one line, spin component           1
         0         1         2         3         4         5         6         7         8         9
 total charge-density along one line
 
 pseudopotential strength for first ion, spin component:           1
-10.070  -0.000  -0.000  -0.000  -0.000   0.111   0.000   0.000
 -0.000 -10.070  -0.000  -0.000  -0.000   0.000   0.111   0.000
 -0.000  -0.000 -10.049  -0.000  -0.000   0.000   0.000   0.109
 -0.000  -0.000  -0.000 -10.070  -0.000   0.000   0.000   0.000
 -0.000  -0.000  -0.000  -0.000 -10.070   0.000   0.000   0.000
  0.111   0.000   0.000   0.000   0.000   0.097  -0.000   0.000
  0.000   0.111   0.000   0.000   0.000  -0.000   0.097  -0.000
  0.000   0.000   0.109   0.000   0.000   0.000  -0.000   0.097
  0.000   0.000   0.000   0.111   0.000  -0.000  -0.000  -0.000
  0.000   0.000   0.000   0.000   0.111  -0.000  -0.000  -0.000
  0.000   0.000  -0.005   0.000  -0.000  -0.000  -0.000   0.000
 -0.000  -0.000   0.001  -0.000   0.000   0.000   0.000  -0.000
 -0.000  -0.000  -0.000  -0.000  -0.007   0.000  -0.000   0.000
 -0.000   0.000   0.000  -0.000  -0.000  -0.000  -0.000   0.000
 -0.007  -0.000   0.000  -0.000  -0.000  -0.000  -0.000  -0.000
  0.000   0.000   0.000   0.000   0.004  -0.000  -0.000  -0.000
  0.000  -0.000  -0.000   0.000   0.000  -0.000   0.000   0.000
  0.004   0.000  -0.000   0.000   0.000   0.000  -0.000   0.000
 total augmentation occupancy for first ion, spin component:           1
  0.965  -0.000  -0.000   0.000   0.000   0.607  -0.000  -0.000   0.000   0.000  -0.000   0.000   0.000   0.000  -0.067  -0.000
 -0.000   0.909   0.000   0.000   0.000   0.000   0.846   0.000   0.000   0.000   0.000   0.000   0.000   0.000   0.000   0.000
 -0.000   0.000   1.030  -0.000   0.000  -0.000   0.000   0.504   0.000   0.000   0.114  -0.019  -0.000  -0.000   0.000   0.000
  0.000   0.000  -0.000   0.909   0.000  -0.000   0.000  -0.000   0.846  -0.000   0.000   0.000   0.000  -0.000  -0.000   0.000
 -0.000   0.000   0.000   0.000   0.965   0.000  -0.000   0.000  -0.000   0.607  -0.000   0.000  -0.067   0.000  -0.000   0.007
  0.607  -0.000  -0.000   0.000   0.000   0.689   0.000  -0.000   0.000  -0.000  -0.000   0.000   0.000   0.000  -0.138  -0.000
  0.000   0.846   0.000   0.000  -0.000  -0.000   1.095   0.000   0.000   0.000   0.000   0.000   0.000  -0.000   0.000  -0.000
 -0.000   0.000   0.504   0.000   0.000  -0.000   0.000   0.481   0.000   0.000   0.058  -0.021  -0.000   0.000   0.000   0.000
  0.000   0.000   0.000   0.846   0.000   0.000   0.000   0.000   1.095   0.000   0.000   0.000   0.000  -0.000   0.000   0.000
 -0.000   0.000   0.000   0.000   0.607  -0.000   0.000   0.000   0.000   0.689  -0.000   0.000  -0.138   0.000  -0.000   0.023
 -0.000   0.000   0.114   0.000  -0.000  -0.000   0.000   0.058   0.000  -0.000   1.213  -0.187   0.000   0.000  -0.000   0.000
  0.000   0.000  -0.019  -0.000   0.000   0.000   0.000  -0.021   0.000   0.000  -0.187   0.042  -0.000   0.000  -0.000   0.000
  0.000  -0.000  -0.000  -0.000  -0.067   0.000   0.000  -0.000   0.000  -0.138  -0.000   0.000   0.219   0.000   0.000  -0.033
  0.000   0.000  -0.000  -0.000   0.000   0.000   0.000  -0.000   0.000   0.000   0.000   0.000  -0.000   0.266   0.000   0.000
 -0.067   0.000   0.000   0.000  -0.000  -0.138   0.000   0.000   0.000  -0.000   0.000  -0.000   0.000   0.000   0.219  -0.000
 -0.000   0.000   0.000   0.000   0.007  -0.000  -0.000   0.000   0.000   0.023   0.000   0.000  -0.033   0.000  -0.000   0.005
  0.000   0.000   0.000   0.000   0.000   0.000   0.000  -0.000  -0.000   0.000  -0.000   0.000   0.000  -0.039   0.000   0.000
  0.007   0.000  -0.000   0.000   0.000   0.023   0.000  -0.000  -0.000   0.000   0.000   0.000  -0.000   0.000  -0.033   0.000


------------------------ aborting loop because EDIFF is reached ----------------------------------------


    CHARGE:  cpu time    0.0820: real time    0.0826
    FORLOC:  cpu time    0.0120: real time    0.0118
    FORNL :  cpu time    0.0620: real time    0.0622
    STRESS:  cpu time    0.3509: real time    0.3511
    FORCOR:  cpu time    0.1780: real time    0.1772
    FORHAR:  cpu time    0.0460: real time    0.0457
    MIXING:  cpu time    0.0100: real time    0.0114
    OFIELD:  cpu time    0.0000: real time    0.0000

  Number of pair interactions contributing to vdW energy:   12009
  Edisp (eV):   -0.59127
    FORVDW:  cpu time    0.0020: real time    0.0017

  FORCE on cell =-STRESS in cart. coord.  units (eV):
  Direction    XX          YY          ZZ          XY          YZ          ZX
  --------------------------------------------------------------------------------------
  Alpha Z    10.92610    10.92610    10.92610
  Ewald    5921.93836  5921.93880 -6489.34278     0.00019     0.00000     0.00013
  Hartree  6003.13786  6003.13786 -5964.87851     0.00002    -0.00000    -0.00000
  E(xc)     -70.35089   -70.35089   -70.96332    -0.00000     0.00000    -0.00000
  Local  -12204.20363-12204.20391 12169.00721    -0.00016    -0.00000    -0.00006
  n-local   127.33267   125.86804   131.81761    -0.24288    -0.00000    -0.00001
  augment   -25.56089   -25.56088   -26.67499     0.00001     0.00000    -0.00000
  Kinetic   236.22087   238.48307   240.22866    -7.46806     0.00001     0.00002
  Fock        0.00000     0.00000     0.00000     0.00000     0.00000     0.00000
  vdW         0.15762     0.15762    -0.13635     0.00000     0.00000    -0.00000
  -------------------------------------------------------------------------------------
  Total      -0.00305    -0.00305    -0.01636     0.00000     0.00000     0.00000
  in kB      -0.01804    -0.01804    -0.09660     0.00000     0.00000     0.00000
  external pressure =       -0.04 kB  Pullay stress =        0.00 kB


 VOLUME and BASIS-vectors are now :
 -----------------------------------------------------------------------------
  energy-cutoff  :      450.00
  volume of cell :      271.36
      direct lattice vectors                 reciprocal lattice vectors
     3.189856830 -0.000000000  0.000000000     0.313493694  0.180995668  0.000000000
    -1.594928415  2.762497050  0.000000000     0.000000000  0.361991337  0.000000000
    -0.000000000  0.000000000 30.793978868     0.000000000  0.000000000  0.032473881

  length of vectors
     3.189856830  3.189856830 30.793978868     0.361991337  0.361991337  0.032473881


 FORCES acting on ions
    electron-ion (+dipol)            ewald-force                    non-local-force                 convergence-correction
 -----------------------------------------------------------------------------------------------
   -.103E-04 -.137E-05 0.109E-05   0.942E-04 -.109E-03 0.348E-06   -.590E-16 0.694E-17 0.000E+00   0.346E-08 -.108E-07 -.337E-06
   -.853E-03 0.494E-03 0.596E+03   -.873E-04 0.544E-04 -.601E+03   -.520E-17 -.347E-17 0.472E+01   -.335E-07 0.224E-07 -.875E-03
   0.864E-03 0.494E-03 -.596E+03   -.692E-05 0.544E-04 0.601E+03   -.217E-16 0.347E-17 -.472E+01   0.164E-07 0.224E-07 0.874E-03
 -----------------------------------------------------------------------------------------------
   0.143E-05 0.986E-03 0.390E-04   0.592E-14 -.327E-14 -.114E-12   -.859E-16 0.694E-17 0.888E-15   -.136E-07 0.339E-07 -.895E-06
 
 
 POSITION                                       TOTAL-FORCE (eV/Angst)
 -----------------------------------------------------------------------------------
     -0.00000      1.84167      3.70951        -0.000000      0.000000      0.000000
      1.59493      0.92083      2.15067         0.000000     -0.000000     -0.001695
      1.59493      0.92083      5.26835         0.000000     -0.000000      0.001695
 -----------------------------------------------------------------------------------
    total drift:                                0.000001      0.000986      0.000038


--------------------------------------------------------------------------------------------------------



  FREE ENERGIE OF THE ION-ELECTRON SYSTEM (eV)
  ---------------------------------------------------
  free  energy   TOTEN  =       -22.38841376 eV

  energy  without entropy=      -22.38841376  energy(sigma->0) =      -22.38841376
 
 d Force = 0.2637287E-05[-0.422E-06, 0.570E-05]  d Energy = 0.5977491E-04-0.571E-04
 d Force =-0.1494181E+00[-0.149E+00,-0.149E+00]  d Ewald  =-0.1537276E+01 0.139E+01


--------------------------------------------------------------------------------------------------------


    POTLOK:  cpu time    0.1760: real time    0.1750


--------------------------------------------------------------------------------------------------------


 Quasi-Newton relaxation of ions (Broydens 2nd method)
  g(Force)  = 0.277E-06   g(Stress)= 0.460E-05

 retain information from N=  1 steps
 eigenvalues of (default step * inverse Hessian matrix)
  average eigenvalue of G=   0.3890
 eigenvalue spectrum of G is  0.3890


--------------------------------------------------------------------------------------------------------


  
 reached required accuracy - stopping structural energy minimisation
     LOOP+:  cpu time    5.4752: real time    5.5089
    4ORBIT:  cpu time    0.0000: real time    0.0000

 total amount of memory used by VASP MPI-rank0    73775. kBytes
=======================================================================

   base      :      30000. kBytes
   nonl-proj :      12297. kBytes
   fftplans  :      10208. kBytes
   grid      :      16473. kBytes
   one-center:         31. kBytes
   wavefun   :       4766. kBytes
 
  
  
 General timing and accounting informations for this job:
 ========================================================
  
                  Total CPU time used (sec):       59.649
                            User time (sec):       57.827
                          System time (sec):        1.822
                         Elapsed time (sec):       60.471
  
                   Maximum memory used (kb):       81824.
                   Average memory used (kb):           0.
  
                          Minor page faults:       163276
                          Major page faults:           14
                 Voluntary context switches:         3280
