<?xml version="1.0" encoding="ISO-8859-1"?>
<modeling>
 <generator>
  <i name="program" type="string">vasp </i>
  <i name="version" type="string">5.4.4.18Apr17-6-g9f103f2a35  </i>
  <i name="subversion" type="string">(build Jun 30 2017 11:15:00) complex            parallel </i>
  <i name="platform" type="string">STALLO_VASP_5.4.4 </i>
  <i name="date" type="string">2019 11 08 </i>
  <i name="time" type="string">14:33:12 </i>
 </generator>
 <incar>
  <i type="string" name="PREC">accurate  ! low/normal/accurate</i>
  <i type="string" name="ALGO"> Normal      ! Algorithm for electronic</i>
  <i type="int" name="ISPIN">     1</i>
  <i type="int" name="MAXMIX">    80</i>
  <i type="int" name="NELM">   200</i>
  <i type="int" name="NELMIN">     4</i>
  <i type="int" name="IBRION">     1</i>
  <i name="EDIFF">      0.00000100</i>
  <i name="EDIFFG">     -0.01000000</i>
  <i type="int" name="NSW">    50</i>
  <i type="int" name="ISIF">     3</i>
  <i name="ENCUT">    450.00000000</i>
  <i type="logical" name="LREAL"> F  </i>
  <i type="int" name="ISMEAR">     0</i>
  <i name="SIGMA">      0.20000000</i>
  <i type="logical" name="LWAVE"> F  </i>
  <v type="int" name="KPOINT_BSE">    -1     0     0     0</v>
  <i type="int" name="NELM">   200</i>
 </incar>
 <structure name="primitive_cell" >
  <crystal>
   <varray name="basis" >
    <v>       3.19031573       0.00000000       0.00000000 </v>
    <v>      -1.59515786       2.76289447       0.00000000 </v>
    <v>       0.00000000       0.00000000      30.87900430 </v>
   </varray>
   <i name="volume">    272.18315887 </i>
   <varray name="rec_basis" >
    <v>       0.31344860       0.18096963       0.00000000 </v>
    <v>       0.00000000       0.36193927       0.00000000 </v>
    <v>       0.00000000       0.00000000       0.03238446 </v>
   </varray>
  </crystal>
  <varray name="positions" >
   <v>       0.33333300      -0.33333300       0.12046214 </v>
   <v>      -0.33333400       0.33333300       0.17114009 </v>
   <v>      -0.33333300       0.33333300       0.06978420 </v>
  </varray>
 </structure>
 <varray name="primitive_index" >
  <v type="int" >        1 </v>
  <v type="int" >        3 </v>
  <v type="int" >        2 </v>
 </varray>
 <kpoints>
  <generation param="Gamma">
   <v type="int" name="divisions">      10       10        1 </v>
   <v name="usershift">      0.00000000       0.00000000       0.00000000 </v>
   <v name="genvec1">      0.10000000       0.00000000       0.00000000 </v>
   <v name="genvec2">      0.00000000       0.10000000       0.00000000 </v>
   <v name="genvec3">      0.00000000       0.00000000       1.00000000 </v>
   <v name="shift">      0.00000000       0.00000000       0.00000000 </v>
  </generation>
  <varray name="kpointlist" >
   <v>       0.00000000       0.00000000       0.00000000 </v>
   <v>       0.10000000      -0.00000000       0.00000000 </v>
   <v>       0.20000000       0.00000000       0.00000000 </v>
   <v>       0.30000000       0.00000000       0.00000000 </v>
   <v>       0.40000000       0.00000000       0.00000000 </v>
   <v>       0.50000000      -0.00000000       0.00000000 </v>
   <v>       0.10000000       0.10000000       0.00000000 </v>
   <v>       0.20000000       0.10000000       0.00000000 </v>
   <v>       0.30000000       0.10000000       0.00000000 </v>
   <v>       0.40000000       0.10000000       0.00000000 </v>
   <v>       0.20000000       0.20000000       0.00000000 </v>
   <v>       0.30000000       0.20000000       0.00000000 </v>
   <v>       0.40000000       0.20000000       0.00000000 </v>
   <v>       0.30000000       0.30000000       0.00000000 </v>
  </varray>
  <varray name="weights" >
   <v>       0.01000000 </v>
   <v>       0.06000000 </v>
   <v>       0.06000000 </v>
   <v>       0.06000000 </v>
   <v>       0.06000000 </v>
   <v>       0.03000000 </v>
   <v>       0.06000000 </v>
   <v>       0.12000000 </v>
   <v>       0.12000000 </v>
   <v>       0.12000000 </v>
   <v>       0.06000000 </v>
   <v>       0.12000000 </v>
   <v>       0.06000000 </v>
   <v>       0.06000000 </v>
  </varray>
 </kpoints>
 <parameters>
  <separator name="general" >
   <i type="string" name="SYSTEM">unknown system</i>
   <i type="logical" name="LCOMPAT"> F  </i>
  </separator>
  <separator name="electronic" >
   <i type="string" name="PREC">accura</i>
   <i name="ENMAX">    450.00000000</i>
   <i name="ENAUG">    345.27800000</i>
   <i name="EDIFF">      0.00000100</i>
   <i type="int" name="IALGO">    38</i>
   <i type="int" name="IWAVPR">    11</i>
   <i type="int" name="NBANDS">    14</i>
   <i name="NELECT">     18.00000000</i>
   <i type="int" name="TURBO">     0</i>
   <i type="int" name="IRESTART">     0</i>
   <i type="int" name="NREBOOT">     0</i>
   <i type="int" name="NMIN">     0</i>
   <i name="EREF">      0.00000000</i>
   <separator name="electronic smearing" >
    <i type="int" name="ISMEAR">     0</i>
    <i name="SIGMA">      0.20000000</i>
    <i name="KSPACING">      0.50000000</i>
    <i type="logical" name="KGAMMA"> T  </i>
   </separator>
   <separator name="electronic projectors" >
    <i type="logical" name="LREAL"> F  </i>
    <v name="ROPT">      0.00000000      0.00000000</v>
    <i type="int" name="LMAXPAW">  -100</i>
    <i type="int" name="LMAXMIX">     2</i>
    <i type="logical" name="NLSPLINE"> F  </i>
   </separator>
   <separator name="electronic startup" >
    <i type="int" name="ISTART">     0</i>
    <i type="int" name="ICHARG">     2</i>
    <i type="int" name="INIWAV">     1</i>
   </separator>
   <separator name="electronic spin" >
    <i type="int" name="ISPIN">     1</i>
    <i type="logical" name="LNONCOLLINEAR"> F  </i>
    <v name="MAGMOM">      1.00000000      1.00000000      1.00000000</v>
    <i name="NUPDOWN">     -1.00000000</i>
    <i type="logical" name="LSORBIT"> F  </i>
    <v name="SAXIS">      0.00000000      0.00000000      1.00000000</v>
    <i type="logical" name="LSPIRAL"> F  </i>
    <v name="QSPIRAL">      0.00000000      0.00000000      0.00000000</v>
    <i type="logical" name="LZEROZ"> F  </i>
   </separator>
   <separator name="electronic exchange-correlation" >
    <i type="logical" name="LASPH"> F  </i>
    <i type="logical" name="LMETAGGA"> F  </i>
   </separator>
   <separator name="electronic convergence" >
    <i type="int" name="NELM">   200</i>
    <i type="int" name="NELMDL">     0</i>
    <i type="int" name="NELMIN">     4</i>
    <i name="ENINI">    450.00000000</i>
    <separator name="electronic convergence detail" >
     <i type="logical" name="LDIAG"> T  </i>
     <i type="logical" name="LSUBROT"> F  </i>
     <i name="WEIMIN">      0.00100000</i>
     <i name="EBREAK">      0.00000002</i>
     <i name="DEPER">      0.30000000</i>
     <i type="int" name="NRMM">     4</i>
     <i name="TIME">      0.40000000</i>
    </separator>
   </separator>
   <separator name="electronic mixer" >
    <i name="AMIX">      0.40000000</i>
    <i name="BMIX">      1.00000000</i>
    <i name="AMIN">      0.10000000</i>
    <i name="AMIX_MAG">      1.60000000</i>
    <i name="BMIX_MAG">      1.00000000</i>
    <separator name="electronic mixer details" >
     <i type="int" name="IMIX">     4</i>
     <i type="logical" name="MIXFIRST"> F  </i>
     <i type="int" name="MAXMIX">    80</i>
     <i name="WC">    100.00000000</i>
     <i type="int" name="INIMIX">     1</i>
     <i type="int" name="MIXPRE">     1</i>
     <i type="int" name="MREMOVE">     5</i>
    </separator>
   </separator>
   <separator name="electronic dipolcorrection" >
    <i type="logical" name="LDIPOL"> F  </i>
    <i type="logical" name="LMONO"> F  </i>
    <i type="int" name="IDIPOL">     0</i>
    <i name="EPSILON">      1.00000000</i>
    <v name="DIPOL">   -100.00000000   -100.00000000   -100.00000000</v>
    <i name="EFIELD">      0.00000000</i>
   </separator>
  </separator>
  <separator name="grids" >
   <i type="int" name="NGX">    24</i>
   <i type="int" name="NGY">    24</i>
   <i type="int" name="NGZ">   216</i>
   <i type="int" name="NGXF">    48</i>
   <i type="int" name="NGYF">    48</i>
   <i type="int" name="NGZF">   432</i>
   <i type="logical" name="ADDGRID"> F  </i>
  </separator>
  <separator name="ionic" >
   <i type="int" name="NSW">    50</i>
   <i type="int" name="IBRION">     1</i>
   <i type="int" name="MDALGO">     0</i>
   <i type="int" name="ISIF">     3</i>
   <i name="PSTRESS">      0.00000000</i>
   <i name="EDIFFG">     -0.01000000</i>
   <i type="int" name="NFREE">     0</i>
   <i name="POTIM">      0.50000000</i>
   <i name="SMASS">     -3.00000000</i>
   <i name="SCALEE">      1.00000000</i>
  </separator>
  <separator name="ionic md" >
   <i name="TEBEG">      0.00010000</i>
   <i name="TEEND">      0.00010000</i>
   <i type="int" name="NBLOCK">     1</i>
   <i type="int" name="KBLOCK">    50</i>
   <i type="int" name="NPACO">   256</i>
   <i name="APACO">     16.00000000</i>
  </separator>
  <separator name="symmetry" >
   <i type="int" name="ISYM">     2</i>
   <i name="SYMPREC">      0.00001000</i>
  </separator>
  <separator name="dos" >
   <i type="int" name="LORBIT">     0</i>
   <v name="RWIGS">     -1.00000000     -1.00000000</v>
   <i type="int" name="NEDOS">   301</i>
   <i name="EMIN">     10.00000000</i>
   <i name="EMAX">    -10.00000000</i>
   <i name="EFERMI">      0.00000000</i>
  </separator>
  <separator name="writing" >
   <i type="int" name="NWRITE">     2</i>
   <i type="logical" name="LWAVE"> F  </i>
   <i type="logical" name="LDOWNSAMPLE"> F  </i>
   <i type="logical" name="LCHARG"> T  </i>
   <i type="logical" name="LPARD"> F  </i>
   <i type="logical" name="LVTOT"> F  </i>
   <i type="logical" name="LVHAR"> F  </i>
   <i type="logical" name="LELF"> F  </i>
   <i type="logical" name="LOPTICS"> F  </i>
   <v name="STM">      0.00000000      0.00000000      0.00000000      0.00000000      0.00000000      0.00000000      0.00000000</v>
  </separator>
  <separator name="performance" >
   <i type="int" name="NPAR">     2</i>
   <i type="int" name="NSIM">     4</i>
   <i type="int" name="NBLK">    -1</i>
   <i type="logical" name="LPLANE"> T  </i>
   <i type="logical" name="LSCALAPACK"> T  </i>
   <i type="logical" name="LSCAAWARE"> F  </i>
   <i type="logical" name="LSCALU"> F  </i>
   <i type="logical" name="LASYNC"> F  </i>
   <i type="logical" name="LORBITALREAL"> F  </i>
  </separator>
  <separator name="miscellaneous" >
   <i type="int" name="IDIOT">     3</i>
   <i type="int" name="ISPECIAL">     0</i>
   <i type="logical" name="LMUSIC"> F  </i>
   <v name="POMASS">     95.94000000     32.06600000</v>
   <v name="DARWINR">      0.00000000      0.00000000</v>
   <v name="DARWINV">      1.00000000      1.00000000</v>
   <i type="logical" name="LCORR"> T  </i>
  </separator>
  <i type="logical" name="GGA_COMPAT"> T  </i>
  <i type="logical" name="LBERRY"> F  </i>
  <i type="int" name="ICORELEVEL">     0</i>
  <i type="logical" name="LDAU"> F  </i>
  <i type="int" name="I_CONSTRAINED_M">     0</i>
  <separator name="electronic exchange-correlation" >
   <i type="string" name="GGA">--</i>
   <i type="int" name="VOSKOWN">     0</i>
   <i type="logical" name="LHFCALC"> F  </i>
   <i type="string" name="PRECFOCK"></i>
   <i type="logical" name="LSYMGRAD"> F  </i>
   <i type="logical" name="LHFONE"> F  </i>
   <i type="logical" name="LRHFCALC"> F  </i>
   <i type="logical" name="LTHOMAS"> F  </i>
   <i type="logical" name="LMODELHF"> F  </i>
   <i name="ENCUT4O">     -1.00000000</i>
   <i type="int" name="EXXOEP">     0</i>
   <i type="int" name="FOURORBIT">     0</i>
   <i name="AEXX">      0.00000000</i>
   <i name="HFALPHA">      0.00000000</i>
   <i name="MCALPHA">      0.00000000</i>
   <i name="ALDAX">      1.00000000</i>
   <i name="AGGAX">      1.00000000</i>
   <i name="ALDAC">      1.00000000</i>
   <i name="AGGAC">      1.00000000</i>
   <i type="int" name="NKREDX">     1</i>
   <i type="int" name="NKREDY">     1</i>
   <i type="int" name="NKREDZ">     1</i>
   <i type="logical" name="SHIFTRED"> F  </i>
   <i type="logical" name="ODDONLY"> F  </i>
   <i type="logical" name="EVENONLY"> F  </i>
   <i type="int" name="LMAXFOCK">     0</i>
   <i type="int" name="NMAXFOCKAE">     0</i>
   <i type="logical" name="LFOCKAEDFT"> F  </i>
   <i name="HFSCREEN">      0.00000000</i>
   <i name="HFSCREENC">      0.00000000</i>
   <i type="int" name="NBANDSGWLOW">     0</i>
  </separator>
  <separator name="vdW DFT" >
   <i type="logical" name="LUSE_VDW"> F  </i>
   <i name="Zab_VDW">     -0.84910000</i>
   <i name="PARAM1">      0.12340000</i>
   <i name="PARAM2">      1.00000000</i>
   <i name="PARAM3">      0.00000000</i>
  </separator>
  <separator name="model GW" >
   <i type="int" name="MODEL_GW">     0</i>
   <i name="MODEL_EPS0">     54.43663177</i>
   <i name="MODEL_ALPHA">      1.00000000</i>
  </separator>
  <separator name="linear response parameters" >
   <i type="logical" name="LEPSILON"> F  </i>
   <i type="logical" name="LRPA"> F  </i>
   <i type="logical" name="LNABLA"> F  </i>
   <i type="logical" name="LVEL"> F  </i>
   <i type="int" name="KINTER">     0</i>
   <i name="CSHIFT">      0.10000000</i>
   <i name="OMEGAMAX">     -1.00000000</i>
   <i name="DEG_THRESHOLD">      0.00200000</i>
   <i name="RTIME">     -0.10000000</i>
   <i name="WPLASMAI">      0.00000000</i>
   <v name="DFIELD">      0.00000000      0.00000000      0.00000000</v>
   <v name="WPLASMA">      0.00000000      0.00000000      0.00000000      0.00000000      0.00000000      0.00000000      0.00000000      0.00000000      0.00000000</v>
  </separator>
  <separator name="orbital magnetization" >
   <i type="logical" name="NUCIND"> F  </i>
   <v name="MAGPOS">      0.00000000      0.00000000      0.00000000</v>
   <i type="logical" name="LNICSALL"> T  </i>
   <i type="logical" name="ORBITALMAG"> F  </i>
   <i type="logical" name="LMAGBLOCH"> F  </i>
   <i type="logical" name="LCHIMAG"> F  </i>
   <i type="logical" name="LGAUGE"> T  </i>
   <i type="int" name="MAGATOM">     0</i>
   <v name="MAGDIPOL">      0.00000000      0.00000000      0.00000000</v>
   <v name="AVECCONST">      0.00000000      0.00000000      0.00000000</v>
  </separator>
  <separator name="response functions" >
   <i type="logical" name="LADDER"> F  </i>
   <i type="logical" name="LRPAFORCE"> F  </i>
   <i type="logical" name="LFXC"> F  </i>
   <i type="logical" name="LHARTREE"> T  </i>
   <i type="int" name="IBSE">     0</i>
   <v type="int" name="KPOINT">    -1     0     0     0</v>
   <i type="logical" name="LTCTE"> F  </i>
   <i type="logical" name="LTETE"> F  </i>
   <i type="logical" name="LTRIPLET"> F  </i>
   <i type="logical" name="LFXCEPS"> F  </i>
   <i type="logical" name="LFXHEG"> F  </i>
   <i type="int" name="NATURALO">     2</i>
   <i type="logical" name="L2ORDER"> F  </i>
   <i type="logical" name="LMP2LT"> F  </i>
   <i type="logical" name="LUSEW"> F  </i>
   <i name="ENCUTGW">     -2.00000000</i>
   <i name="ENCUTGWSOFT">     -2.00000000</i>
   <i name="ENCUTLF">     -1.00000000</i>
   <i type="int" name="LMAXMP2">    -1</i>
   <i name="SCISSOR">      0.00000000</i>
   <i type="int" name="NOMEGA">     0</i>
   <i type="int" name="NOMEGAR">     0</i>
   <i type="int" name="NBANDSGW">    -1</i>
   <i type="int" name="NBANDSO">    -1</i>
   <i type="int" name="NBANDSV">    -1</i>
   <i type="int" name="NELM">   200</i>
   <i type="int" name="NELMHF">     1</i>
   <i type="int" name="DIM">     3</i>
   <i type="int" name="ANTIRES">     0</i>
   <i name="OMEGAMAX">    -30.00000000</i>
   <i name="OMEGAMIN">    -30.00000000</i>
   <i name="OMEGATL">   -200.00000000</i>
   <i type="int" name="OMEGAGRID">   140</i>
   <i name="CSHIFT">     -0.10000000</i>
   <i type="logical" name="SELFENERGY"> F  </i>
   <i type="logical" name="LSPECTRAL"> F  </i>
   <i type="logical" name="LSPECTRALGW"> F  </i>
   <i type="logical" name="LSINGLES"> F  </i>
   <i type="logical" name="LFERMIGW"> F  </i>
   <i type="logical" name="ODDONLYGW"> F  </i>
   <i type="logical" name="EVENONLYGW"> F  </i>
   <i type="int" name="NKREDLFX">     1</i>
   <i type="int" name="NKREDLFY">     1</i>
   <i type="int" name="NKREDLFZ">     1</i>
   <i type="int" name="MAXMEM">  2800</i>
   <i type="int" name="TELESCOPE">     0</i>
   <i type="int" name="TAUPAR">     1</i>
   <i type="int" name="OMEGAPAR">    -1</i>
   <i name="LAMBDA">      1.00000000</i>
  </separator>
  <separator name="External order field" >
   <i name="OFIELD_KAPPA">      0.00000000</i>
   <v name="OFIELD_K">      0.00000000      0.00000000      0.00000000</v>
   <i name="OFIELD_Q6_NEAR">      0.00000000</i>
   <i name="OFIELD_Q6_FAR">      0.00000000</i>
   <i name="OFIELD_A">      0.00000000</i>
  </separator>
 </parameters>
 <atominfo>
  <atoms>       3 </atoms>
  <types>       2 </types>
  <array name="atoms" >
   <dimension dim="1">ion</dimension>
   <field type="string">element</field>
   <field type="int">atomtype</field>
   <set>
    <rc><c>Mo</c><c>   1</c></rc>
    <rc><c>S </c><c>   2</c></rc>
    <rc><c>S </c><c>   2</c></rc>
   </set>
  </array>
  <array name="atomtypes" >
   <dimension dim="1">type</dimension>
   <field type="int">atomspertype</field>
   <field type="string">element</field>
   <field>mass</field>
   <field>valence</field>
   <field type="string">pseudopotential</field>
   <set>
    <rc><c>   1</c><c>Mo</c><c>     95.94000000</c><c>      6.00000000</c><c> PAW_PBE Mo 08Apr2002                   </c></rc>
    <rc><c>   2</c><c>S </c><c>     32.06600000</c><c>      6.00000000</c><c>  PAW_PBE S 17Jan2003                   </c></rc>
   </set>
  </array>
 </atominfo>
 <structure name="initialpos" >
  <crystal>
   <varray name="basis" >
    <v>       3.19031573       0.00000000       0.00000000 </v>
    <v>      -1.59515786       2.76289447       0.00000000 </v>
    <v>       0.00000000       0.00000000      30.87900430 </v>
   </varray>
   <i name="volume">    272.18315887 </i>
   <varray name="rec_basis" >
    <v>       0.31344860       0.18096963       0.00000000 </v>
    <v>       0.00000000       0.36193927       0.00000000 </v>
    <v>       0.00000000       0.00000000       0.03238446 </v>
   </varray>
  </crystal>
  <varray name="positions" >
   <v>       0.33333300       0.66666700       0.12046214 </v>
   <v>       0.66666700       0.33333300       0.06978420 </v>
   <v>       0.66666600       0.33333300       0.17114009 </v>
  </varray>
 </structure>
 <calculation>
  <scstep>
   <time name="dav">    0.88    0.88</time>
   <time name="total">    1.05    1.07</time>
   <energy>
    <i name="alphaZ">     10.89288288 </i>
    <i name="ewald">   5368.65661653 </i>
    <i name="hartreedc">  -6042.21104469 </i>
    <i name="XCdc">    -36.31053628 </i>
    <i name="pawpsdc">    406.88651198 </i>
    <i name="pawaedc">   -329.34073203 </i>
    <i name="eentropy">     -0.04690563 </i>
    <i name="bandstr">    -11.06684353 </i>
    <i name="atom">    771.15511399 </i>
    <i name="e_fr_energy">    138.61506323 </i>
    <i name="e_wo_entrp">    138.66196885 </i>
    <i name="e_0_energy">    138.63851604 </i>
   </energy>
  </scstep>
  <scstep>
   <time name="dav">    1.32    1.32</time>
   <time name="total">    1.32    1.32</time>
   <energy>
    <i name="e_fr_energy">     -6.07441335 </i>
    <i name="e_wo_entrp">     -6.07441329 </i>
    <i name="e_0_energy">     -6.07441332 </i>
   </energy>
  </scstep>
  <scstep>
   <time name="dav">    1.10    1.10</time>
   <time name="total">    1.10    1.10</time>
   <energy>
    <i name="e_fr_energy">    -23.06680457 </i>
    <i name="e_wo_entrp">    -23.06680457 </i>
    <i name="e_0_energy">    -23.06680457 </i>
   </energy>
  </scstep>
  <scstep>
   <time name="dav">    1.02    1.02</time>
   <time name="total">    1.02    1.02</time>
   <energy>
    <i name="e_fr_energy">    -23.39908943 </i>
    <i name="e_wo_entrp">    -23.39908943 </i>
    <i name="e_0_energy">    -23.39908943 </i>
   </energy>
  </scstep>
  <scstep>
   <time name="dav">    1.07    1.08</time>
   <time name="total">    1.16    1.17</time>
   <energy>
    <i name="e_fr_energy">    -23.40763260 </i>
    <i name="e_wo_entrp">    -23.40763260 </i>
    <i name="e_0_energy">    -23.40763260 </i>
   </energy>
  </scstep>
  <scstep>
   <time name="dav">    1.00    1.00</time>
   <time name="total">    1.26    1.26</time>
   <energy>
    <i name="e_fr_energy">    -22.23081917 </i>
    <i name="e_wo_entrp">    -22.23081913 </i>
    <i name="e_0_energy">    -22.23081915 </i>
   </energy>
  </scstep>
  <scstep>
   <time name="dav">    0.97    0.97</time>
   <time name="total">    1.23    1.23</time>
   <energy>
    <i name="e_fr_energy">    -21.87531240 </i>
    <i name="e_wo_entrp">    -21.87531240 </i>
    <i name="e_0_energy">    -21.87531240 </i>
   </energy>
  </scstep>
  <scstep>
   <time name="dav">    1.07    1.07</time>
   <time name="total">    1.32    1.32</time>
   <energy>
    <i name="e_fr_energy">    -21.80069822 </i>
    <i name="e_wo_entrp">    -21.80069822 </i>
    <i name="e_0_energy">    -21.80069822 </i>
   </energy>
  </scstep>
  <scstep>
   <time name="dav">    1.12    1.12</time>
   <time name="total">    1.37    1.37</time>
   <energy>
    <i name="e_fr_energy">    -21.79831027 </i>
    <i name="e_wo_entrp">    -21.79831027 </i>
    <i name="e_0_energy">    -21.79831027 </i>
   </energy>
  </scstep>
  <scstep>
   <time name="dav">    0.93    0.93</time>
   <time name="total">    1.16    1.16</time>
   <energy>
    <i name="e_fr_energy">    -21.79658956 </i>
    <i name="e_wo_entrp">    -21.79658956 </i>
    <i name="e_0_energy">    -21.79658956 </i>
   </energy>
  </scstep>
  <scstep>
   <time name="dav">    1.10    1.10</time>
   <time name="total">    1.37    1.37</time>
   <energy>
    <i name="e_fr_energy">    -21.79647668 </i>
    <i name="e_wo_entrp">    -21.79647668 </i>
    <i name="e_0_energy">    -21.79647668 </i>
   </energy>
  </scstep>
  <scstep>
   <time name="dav">    1.00    1.00</time>
   <time name="total">    1.25    1.26</time>
   <energy>
    <i name="e_fr_energy">    -21.79620155 </i>
    <i name="e_wo_entrp">    -21.79620155 </i>
    <i name="e_0_energy">    -21.79620155 </i>
   </energy>
  </scstep>
  <scstep>
   <time name="dav">    0.91    0.91</time>
   <time name="total">    1.18    1.18</time>
   <energy>
    <i name="e_fr_energy">    -21.79640671 </i>
    <i name="e_wo_entrp">    -21.79640671 </i>
    <i name="e_0_energy">    -21.79640671 </i>
   </energy>
  </scstep>
  <scstep>
   <time name="dav">    0.92    0.92</time>
   <time name="total">    1.18    1.19</time>
   <energy>
    <i name="e_fr_energy">    -21.79660018 </i>
    <i name="e_wo_entrp">    -21.79660018 </i>
    <i name="e_0_energy">    -21.79660018 </i>
   </energy>
  </scstep>
  <scstep>
   <time name="dav">    1.04    1.04</time>
   <time name="total">    1.29    1.29</time>
   <energy>
    <i name="e_fr_energy">    -21.79667693 </i>
    <i name="e_wo_entrp">    -21.79667693 </i>
    <i name="e_0_energy">    -21.79667693 </i>
   </energy>
  </scstep>
  <scstep>
   <time name="dav">    0.87    0.87</time>
   <time name="total">    1.14    1.14</time>
   <energy>
    <i name="e_fr_energy">    -21.79676656 </i>
    <i name="e_wo_entrp">    -21.79676656 </i>
    <i name="e_0_energy">    -21.79676656 </i>
   </energy>
  </scstep>
  <scstep>
   <time name="dav">    0.89    0.89</time>
   <time name="total">    1.16    1.16</time>
   <energy>
    <i name="e_fr_energy">    -21.79679790 </i>
    <i name="e_wo_entrp">    -21.79679790 </i>
    <i name="e_0_energy">    -21.79679790 </i>
   </energy>
  </scstep>
  <scstep>
   <time name="dav">    0.85    0.85</time>
   <time name="total">    1.09    1.09</time>
   <energy>
    <i name="e_fr_energy">    -21.79680767 </i>
    <i name="e_wo_entrp">    -21.79680767 </i>
    <i name="e_0_energy">    -21.79680767 </i>
   </energy>
  </scstep>
  <scstep>
   <time name="dav">    0.82    0.82</time>
   <time name="total">    1.08    1.09</time>
   <energy>
    <i name="e_fr_energy">    -21.79681356 </i>
    <i name="e_wo_entrp">    -21.79681356 </i>
    <i name="e_0_energy">    -21.79681356 </i>
   </energy>
  </scstep>
  <scstep>
   <time name="dav">    0.83    0.83</time>
   <time name="total">    1.10    1.10</time>
   <energy>
    <i name="e_fr_energy">    -21.79681789 </i>
    <i name="e_wo_entrp">    -21.79681789 </i>
    <i name="e_0_energy">    -21.79681789 </i>
   </energy>
  </scstep>
  <scstep>
   <time name="dav">    0.77    0.77</time>
   <time name="total">    1.04    1.04</time>
   <energy>
    <i name="e_fr_energy">    -21.79681948 </i>
    <i name="e_wo_entrp">    -21.79681948 </i>
    <i name="e_0_energy">    -21.79681948 </i>
   </energy>
  </scstep>
  <scstep>
   <time name="dav">    0.85    0.85</time>
   <time name="total">    1.03    1.03</time>
   <energy>
    <i name="alphaZ">     10.89288288 </i>
    <i name="ewald">   5368.65661653 </i>
    <i name="hartreedc">  -6055.63825699 </i>
    <i name="XCdc">    -35.20096327 </i>
    <i name="pawpsdc">    472.18691379 </i>
    <i name="pawaedc">   -396.37778011 </i>
    <i name="eentropy">     -0.00000000 </i>
    <i name="bandstr">   -157.47134659 </i>
    <i name="atom">    771.15511399 </i>
    <i name="e_fr_energy">    -21.79681977 </i>
    <i name="e_wo_entrp">    -21.79681977 </i>
    <i name="e_0_energy">    -21.79681977 </i>
   </energy>
  </scstep>
  <structure>
   <crystal>
    <varray name="basis" >
     <v>       3.19031573       0.00000000       0.00000000 </v>
     <v>      -1.59515786       2.76289447       0.00000000 </v>
     <v>       0.00000000       0.00000000      30.87900430 </v>
    </varray>
    <i name="volume">    272.18315887 </i>
    <varray name="rec_basis" >
     <v>       0.31344860       0.18096963       0.00000000 </v>
     <v>       0.00000000       0.36193927       0.00000000 </v>
     <v>       0.00000000       0.00000000       0.03238446 </v>
    </varray>
   </crystal>
   <varray name="positions" >
    <v>       0.33333300       0.66666700       0.12046214 </v>
    <v>       0.66666700       0.33333300       0.06978420 </v>
    <v>       0.66666600       0.33333300       0.17114009 </v>
   </varray>
  </structure>
  <varray name="forces" >
   <v>      -0.00000000       0.00000000      -0.00000000 </v>
   <v>       0.00000000      -0.00000000       0.11511027 </v>
   <v>       0.00000000      -0.00000000      -0.11511027 </v>
  </varray>
  <varray name="stress" >
   <v>      -0.83575506      -0.00000000       0.00000000 </v>
   <v>       0.00000000      -0.83575506       0.00000000 </v>
   <v>      -0.00000000       0.00000000      -2.25399628 </v>
  </varray>
  <energy>
   <i name="e_fr_energy">    -22.38761799 </i>
   <i name="e_wo_entrp">    -22.38761799 </i>
   <i name="e_0_energy">     -0.00000000 </i>
  </energy>
  <time name="totalsc">   27.96   28.42</time>
 </calculation>
 <calculation>
  <scstep>
   <time name="dav">    1.01    1.01</time>
   <time name="total">    1.28    1.29</time>
   <energy>
    <i name="alphaZ">     11.01059371 </i>
    <i name="ewald">   5362.28849252 </i>
    <i name="hartreedc">  -6052.65166716 </i>
    <i name="XCdc">    -35.06293164 </i>
    <i name="pawpsdc">    472.18619014 </i>
    <i name="pawaedc">   -396.37704936 </i>
    <i name="eentropy">     -0.00000000 </i>
    <i name="bandstr">   -154.34914894 </i>
    <i name="atom">    771.15511399 </i>
    <i name="e_fr_energy">    -21.80040672 </i>
    <i name="e_wo_entrp">    -21.80040672 </i>
    <i name="e_0_energy">    -21.80040672 </i>
   </energy>
  </scstep>
  <scstep>
   <time name="dav">    0.96    0.96</time>
   <time name="total">    1.20    1.20</time>
   <energy>
    <i name="e_fr_energy">    -21.79513305 </i>
    <i name="e_wo_entrp">    -21.79513305 </i>
    <i name="e_0_energy">    -21.79513305 </i>
   </energy>
  </scstep>
  <scstep>
   <time name="dav">    0.92    0.92</time>
   <time name="total">    1.18    1.18</time>
   <energy>
    <i name="e_fr_energy">    -21.79401000 </i>
    <i name="e_wo_entrp">    -21.79401000 </i>
    <i name="e_0_energy">    -21.79401000 </i>
   </energy>
  </scstep>
  <scstep>
   <time name="dav">    0.92    0.92</time>
   <time name="total">    1.18    1.18</time>
   <energy>
    <i name="e_fr_energy">    -21.79407058 </i>
    <i name="e_wo_entrp">    -21.79407058 </i>
    <i name="e_0_energy">    -21.79407058 </i>
   </energy>
  </scstep>
  <scstep>
   <time name="dav">    0.99    0.99</time>
   <time name="total">    1.24    1.24</time>
   <energy>
    <i name="e_fr_energy">    -21.79412769 </i>
    <i name="e_wo_entrp">    -21.79412769 </i>
    <i name="e_0_energy">    -21.79412769 </i>
   </energy>
  </scstep>
  <scstep>
   <time name="dav">    1.09    1.09</time>
   <time name="total">    1.36    1.36</time>
   <energy>
    <i name="e_fr_energy">    -21.79414677 </i>
    <i name="e_wo_entrp">    -21.79414677 </i>
    <i name="e_0_energy">    -21.79414677 </i>
   </energy>
  </scstep>
  <scstep>
   <time name="dav">    0.89    0.89</time>
   <time name="total">    1.15    1.15</time>
   <energy>
    <i name="e_fr_energy">    -21.79416572 </i>
    <i name="e_wo_entrp">    -21.79416572 </i>
    <i name="e_0_energy">    -21.79416572 </i>
   </energy>
  </scstep>
  <scstep>
   <time name="dav">    0.88    0.88</time>
   <time name="total">    1.14    1.14</time>
   <energy>
    <i name="e_fr_energy">    -21.79416954 </i>
    <i name="e_wo_entrp">    -21.79416954 </i>
    <i name="e_0_energy">    -21.79416954 </i>
   </energy>
  </scstep>
  <scstep>
   <time name="dav">    0.77    0.77</time>
   <time name="total">    1.04    1.04</time>
   <energy>
    <i name="e_fr_energy">    -21.79417101 </i>
    <i name="e_wo_entrp">    -21.79417101 </i>
    <i name="e_0_energy">    -21.79417101 </i>
   </energy>
  </scstep>
  <scstep>
   <time name="dav">    0.74    0.74</time>
   <time name="total">    1.01    1.01</time>
   <energy>
    <i name="e_fr_energy">    -21.79417233 </i>
    <i name="e_wo_entrp">    -21.79417233 </i>
    <i name="e_0_energy">    -21.79417233 </i>
   </energy>
  </scstep>
  <scstep>
   <time name="dav">    0.75    0.75</time>
   <time name="total">    0.93    0.93</time>
   <energy>
    <i name="alphaZ">     11.01059371 </i>
    <i name="ewald">   5362.28849252 </i>
    <i name="hartreedc">  -6048.99900600 </i>
    <i name="XCdc">    -35.09607481 </i>
    <i name="pawpsdc">    476.27389867 </i>
    <i name="pawaedc">   -400.52518795 </i>
    <i name="eentropy">     -0.00000000 </i>
    <i name="bandstr">   -157.90200302 </i>
    <i name="atom">    771.15511399 </i>
    <i name="e_fr_energy">    -21.79417289 </i>
    <i name="e_wo_entrp">    -21.79417289 </i>
    <i name="e_0_energy">    -21.79417289 </i>
   </energy>
  </scstep>
  <structure>
   <crystal>
    <varray name="basis" >
     <v>       3.18303167      -0.00000000       0.00000000 </v>
     <v>      -1.59151584       2.75658629       0.00000000 </v>
     <v>      -0.00000000       0.00000000      30.68886272 </v>
    </varray>
    <i name="volume">    269.27333346 </i>
    <varray name="rec_basis" >
     <v>       0.31416590       0.18138377       0.00000000 </v>
     <v>       0.00000000       0.36276753       0.00000000 </v>
     <v>       0.00000000       0.00000000       0.03258511 </v>
    </varray>
   </crystal>
   <varray name="positions" >
    <v>       0.33333300       0.66666700       0.12046214 </v>
    <v>       0.66666700       0.33333300       0.06996404 </v>
    <v>       0.66666600       0.33333300       0.17096025 </v>
   </varray>
  </structure>
  <varray name="forces" >
   <v>      -0.00000000       0.00000000      -0.00000000 </v>
   <v>       0.00000000       0.00000000      -0.22139904 </v>
   <v>      -0.00000000      -0.00000000       0.22139904 </v>
  </varray>
  <varray name="stress" >
   <v>       2.54979566      -0.00000000       0.00000000 </v>
   <v>       0.00000000       2.54979566       0.00000000 </v>
   <v>      -0.00000000       0.00000000       3.94537201 </v>
  </varray>
  <energy>
   <i name="e_fr_energy">    -22.38560119 </i>
   <i name="e_wo_entrp">    -22.38560119 </i>
   <i name="e_0_energy">     -0.00000000 </i>
  </energy>
  <time name="totalsc">   13.73   13.77</time>
 </calculation>
 <calculation>
  <scstep>
   <time name="dav">    0.97    0.97</time>
   <time name="total">    1.24    1.26</time>
   <energy>
    <i name="alphaZ">     10.91248414 </i>
    <i name="ewald">   5352.99746259 </i>
    <i name="hartreedc">  -6037.41773221 </i>
    <i name="XCdc">    -35.20769890 </i>
    <i name="pawpsdc">    476.27401458 </i>
    <i name="pawaedc">   -400.52529961 </i>
    <i name="eentropy">     -0.00000000 </i>
    <i name="bandstr">   -159.98907561 </i>
    <i name="atom">    771.15511399 </i>
    <i name="e_fr_energy">    -21.80073102 </i>
    <i name="e_wo_entrp">    -21.80073102 </i>
    <i name="e_0_energy">    -21.80073102 </i>
   </energy>
  </scstep>
  <scstep>
   <time name="dav">    0.99    0.99</time>
   <time name="total">    1.25    1.25</time>
   <energy>
    <i name="e_fr_energy">    -21.79701634 </i>
    <i name="e_wo_entrp">    -21.79701634 </i>
    <i name="e_0_energy">    -21.79701634 </i>
   </energy>
  </scstep>
  <scstep>
   <time name="dav">    0.94    0.94</time>
   <time name="total">    1.21    1.21</time>
   <energy>
    <i name="e_fr_energy">    -21.79702921 </i>
    <i name="e_wo_entrp">    -21.79702921 </i>
    <i name="e_0_energy">    -21.79702921 </i>
   </energy>
  </scstep>
  <scstep>
   <time name="dav">    0.86    0.86</time>
   <time name="total">    1.13    1.13</time>
   <energy>
    <i name="e_fr_energy">    -21.79703042 </i>
    <i name="e_wo_entrp">    -21.79703042 </i>
    <i name="e_0_energy">    -21.79703042 </i>
   </energy>
  </scstep>
  <scstep>
   <time name="dav">    0.93    0.93</time>
   <time name="total">    1.20    1.20</time>
   <energy>
    <i name="e_fr_energy">    -21.79694945 </i>
    <i name="e_wo_entrp">    -21.79694945 </i>
    <i name="e_0_energy">    -21.79694945 </i>
   </energy>
  </scstep>
  <scstep>
   <time name="dav">    0.95    0.95</time>
   <time name="total">    1.22    1.22</time>
   <energy>
    <i name="e_fr_energy">    -21.79703351 </i>
    <i name="e_wo_entrp">    -21.79703351 </i>
    <i name="e_0_energy">    -21.79703351 </i>
   </energy>
  </scstep>
  <scstep>
   <time name="dav">    1.02    1.02</time>
   <time name="total">    1.28    1.28</time>
   <energy>
    <i name="e_fr_energy">    -21.79703539 </i>
    <i name="e_wo_entrp">    -21.79703539 </i>
    <i name="e_0_energy">    -21.79703539 </i>
   </energy>
  </scstep>
  <scstep>
   <time name="dav">    0.70    0.70</time>
   <time name="total">    0.88    0.89</time>
   <energy>
    <i name="alphaZ">     10.91248414 </i>
    <i name="ewald">   5352.99746259 </i>
    <i name="hartreedc">  -6039.84665998 </i>
    <i name="XCdc">    -35.18115262 </i>
    <i name="pawpsdc">    473.03585952 </i>
    <i name="pawaedc">   -397.23921531 </i>
    <i name="eentropy">     -0.00000000 </i>
    <i name="bandstr">   -157.63092779 </i>
    <i name="atom">    771.15511399 </i>
    <i name="e_fr_energy">    -21.79703546 </i>
    <i name="e_wo_entrp">    -21.79703546 </i>
    <i name="e_0_energy">    -21.79703546 </i>
   </energy>
  </scstep>
  <structure>
   <crystal>
    <varray name="basis" >
     <v>       3.19107547      -0.00000000       0.00000000 </v>
     <v>      -1.59553774       2.76355242       0.00000000 </v>
     <v>      -0.00000000       0.00000000      30.80886335 </v>
    </varray>
    <i name="volume">    271.69425718 </i>
    <varray name="rec_basis" >
     <v>       0.31337397       0.18092655       0.00000000 </v>
     <v>       0.00000000       0.36185310       0.00000000 </v>
     <v>       0.00000000       0.00000000       0.03245819 </v>
    </varray>
   </crystal>
   <varray name="positions" >
    <v>       0.33333300       0.66666700       0.12046214 </v>
    <v>       0.66666700       0.33333300       0.06983641 </v>
    <v>       0.66666600       0.33333300       0.17108788 </v>
   </varray>
  </structure>
  <varray name="forces" >
   <v>       0.00000000       0.00000000       0.00000000 </v>
   <v>      -0.00000000      -0.00000000       0.02288811 </v>
   <v>       0.00000000      -0.00000000      -0.02288811 </v>
  </varray>
  <varray name="stress" >
   <v>      -0.38604130      -0.00000000       0.00000000 </v>
   <v>      -0.00000000      -0.38604130       0.00000000 </v>
   <v>       0.00000000       0.00000000      -0.55172480 </v>
  </varray>
  <energy>
   <i name="e_fr_energy">    -22.38835399 </i>
   <i name="e_wo_entrp">    -22.38835399 </i>
   <i name="e_0_energy">     -0.00000000 </i>
  </energy>
  <time name="totalsc">   10.38   10.41</time>
 </calculation>
 <calculation>
  <scstep>
   <time name="dav">    0.99    0.99</time>
   <time name="total">    1.26    1.28</time>
   <energy>
    <i name="alphaZ">     10.92610231 </i>
    <i name="ewald">   5354.53473861 </i>
    <i name="hartreedc">  -6041.69703921 </i>
    <i name="XCdc">    -35.16749547 </i>
    <i name="pawpsdc">    473.03594856 </i>
    <i name="pawaedc">   -397.23935443 </i>
    <i name="eentropy">     -0.00000000 </i>
    <i name="bandstr">   -157.34522353 </i>
    <i name="atom">    771.15511399 </i>
    <i name="e_fr_energy">    -21.79720918 </i>
    <i name="e_wo_entrp">    -21.79720918 </i>
    <i name="e_0_energy">    -21.79720918 </i>
   </energy>
  </scstep>
  <scstep>
   <time name="dav">    0.95    0.95</time>
   <time name="total">    1.22    1.22</time>
   <energy>
    <i name="e_fr_energy">    -21.79713924 </i>
    <i name="e_wo_entrp">    -21.79713924 </i>
    <i name="e_0_energy">    -21.79713924 </i>
   </energy>
  </scstep>
  <scstep>
   <time name="dav">    0.86    0.86</time>
   <time name="total">    1.13    1.13</time>
   <energy>
    <i name="e_fr_energy">    -21.79713912 </i>
    <i name="e_wo_entrp">    -21.79713912 </i>
    <i name="e_0_energy">    -21.79713912 </i>
   </energy>
  </scstep>
  <scstep>
   <time name="dav">    0.76    0.76</time>
   <time name="total">    0.93    0.94</time>
   <energy>
    <i name="alphaZ">     10.92610231 </i>
    <i name="ewald">   5354.53473861 </i>
    <i name="hartreedc">  -6041.38303993 </i>
    <i name="XCdc">    -35.17117682 </i>
    <i name="pawpsdc">    473.40103926 </i>
    <i name="pawaedc">   -397.60967979 </i>
    <i name="eentropy">     -0.00000000 </i>
    <i name="bandstr">   -157.65023697 </i>
    <i name="atom">    771.15511399 </i>
    <i name="e_fr_energy">    -21.79713934 </i>
    <i name="e_wo_entrp">    -21.79713934 </i>
    <i name="e_0_energy">    -21.79713934 </i>
   </energy>
  </scstep>
  <structure>
   <crystal>
    <varray name="basis" >
     <v>       3.18985683      -0.00000000       0.00000000 </v>
     <v>      -1.59492842       2.76249705       0.00000000 </v>
     <v>      -0.00000000       0.00000000      30.79397887 </v>
    </varray>
    <i name="volume">    271.35562051 </i>
    <varray name="rec_basis" >
     <v>       0.31349369       0.18099567       0.00000000 </v>
     <v>       0.00000000       0.36199134       0.00000000 </v>
     <v>       0.00000000       0.00000000       0.03247388 </v>
    </varray>
   </crystal>
   <varray name="positions" >
    <v>       0.33333300       0.66666700       0.12046214 </v>
    <v>       0.66666700       0.33333300       0.06984045 </v>
    <v>       0.66666600       0.33333300       0.17108384 </v>
   </varray>
  </structure>
  <varray name="forces" >
   <v>      -0.00000000       0.00000000       0.00000000 </v>
   <v>       0.00000000      -0.00000000      -0.00169541 </v>
   <v>       0.00000000      -0.00000000       0.00169541 </v>
  </varray>
  <varray name="stress" >
   <v>      -0.01803748       0.00000000       0.00000000 </v>
   <v>       0.00000000      -0.01803748       0.00000000 </v>
   <v>      -0.00000000       0.00000000      -0.09660084 </v>
  </varray>
  <energy>
   <i name="e_fr_energy">    -22.38841376 </i>
   <i name="e_wo_entrp">    -22.38841376 </i>
   <i name="e_0_energy">     -0.00000000 </i>
  </energy>
  <time name="totalsc">    5.48    5.51</time>
  <eigenvalues>
   <array>
    <dimension dim="1">band</dimension>
    <dimension dim="2">kpoint</dimension>
    <dimension dim="3">spin</dimension>
    <field>eigene</field>
    <field>occ</field>
    <set>
     <set comment="spin 1">
      <set comment="kpoint 1">
       <r>  -17.8066    1.0000 </r>
       <r>  -16.5781    1.0000 </r>
       <r>   -9.3244    1.0000 </r>
       <r>   -6.3796    1.0000 </r>
       <r>   -6.3796    1.0000 </r>
       <r>   -5.4684    1.0000 </r>
       <r>   -5.2642    1.0000 </r>
       <r>   -5.2642    1.0000 </r>
       <r>   -3.7428    1.0000 </r>
       <r>   -0.9861    0.0000 </r>
       <r>   -0.9860    0.0000 </r>
       <r>   -0.7480    0.0000 </r>
       <r>   -0.7480    0.0000 </r>
       <r>    1.6701    0.0000 </r>
      </set>
      <set comment="kpoint 2">
       <r>  -17.6680    1.0000 </r>
       <r>  -16.5126    1.0000 </r>
       <r>   -9.1636    1.0000 </r>
       <r>   -6.6900    1.0000 </r>
       <r>   -6.2268    1.0000 </r>
       <r>   -6.1079    1.0000 </r>
       <r>   -5.4901    1.0000 </r>
       <r>   -4.8523    1.0000 </r>
       <r>   -3.8259    1.0000 </r>
       <r>   -1.1610    0.0000 </r>
       <r>   -1.1126    0.0000 </r>
       <r>   -0.9085    0.0000 </r>
       <r>   -0.7437    0.0000 </r>
       <r>    1.9227    0.0000 </r>
      </set>
      <set comment="kpoint 3">
       <r>  -17.2817    1.0000 </r>
       <r>  -16.3313    1.0000 </r>
       <r>   -8.8086    1.0000 </r>
       <r>   -7.3237    1.0000 </r>
       <r>   -6.8907    1.0000 </r>
       <r>   -5.9808    1.0000 </r>
       <r>   -5.8147    1.0000 </r>
       <r>   -4.8761    1.0000 </r>
       <r>   -4.1973    1.0000 </r>
       <r>   -1.5399    0.0000 </r>
       <r>   -1.2495    0.0000 </r>
       <r>   -1.1007    0.0000 </r>
       <r>   -0.2413    0.0000 </r>
       <r>    2.4876    0.0000 </r>
      </set>
      <set comment="kpoint 4">
       <r>  -16.7440    1.0000 </r>
       <r>  -16.0837    1.0000 </r>
       <r>   -8.8198    1.0000 </r>
       <r>   -7.6632    1.0000 </r>
       <r>   -7.6320    1.0000 </r>
       <r>   -6.4661    1.0000 </r>
       <r>   -5.2895    1.0000 </r>
       <r>   -5.2321    1.0000 </r>
       <r>   -4.6642    1.0000 </r>
       <r>   -1.5238    0.0000 </r>
       <r>   -1.5080    0.0000 </r>
       <r>   -0.5646    0.0000 </r>
       <r>    0.1961    0.0000 </r>
       <r>    3.2422    0.0000 </r>
      </set>
      <set comment="kpoint 5">
       <r>  -16.2376    1.0000 </r>
       <r>  -15.8586    1.0000 </r>
       <r>   -9.2633    1.0000 </r>
       <r>   -8.2743    1.0000 </r>
       <r>   -7.7138    1.0000 </r>
       <r>   -6.7983    1.0000 </r>
       <r>   -5.5041    1.0000 </r>
       <r>   -4.8725    1.0000 </r>
       <r>   -4.5993    1.0000 </r>
       <r>   -1.6005    0.0000 </r>
       <r>   -1.2354    0.0000 </r>
       <r>   -0.0332    0.0000 </r>
       <r>    0.4431    0.0000 </r>
       <r>    3.1045    0.0000 </r>
      </set>
      <set comment="kpoint 6">
       <r>  -16.0198    1.0000 </r>
       <r>  -15.7653    1.0000 </r>
       <r>   -9.4822    1.0000 </r>
       <r>   -8.5114    1.0000 </r>
       <r>   -7.8103    1.0000 </r>
       <r>   -6.9147    1.0000 </r>
       <r>   -5.5922    1.0000 </r>
       <r>   -4.7233    1.0000 </r>
       <r>   -4.3840    1.0000 </r>
       <r>   -1.5815    0.0000 </r>
       <r>   -1.0583    0.0000 </r>
       <r>    0.1590    0.0000 </r>
       <r>    0.5173    0.0000 </r>
       <r>    2.4273    0.0000 </r>
      </set>
      <set comment="kpoint 7">
       <r>  -17.4052    1.0000 </r>
       <r>  -16.3889    1.0000 </r>
       <r>   -8.8947    1.0000 </r>
       <r>   -7.1480    1.0000 </r>
       <r>   -6.5995    1.0000 </r>
       <r>   -6.0282    1.0000 </r>
       <r>   -5.9649    1.0000 </r>
       <r>   -4.6715    1.0000 </r>
       <r>   -4.0580    1.0000 </r>
       <r>   -1.4834    0.0000 </r>
       <r>   -1.2964    0.0000 </r>
       <r>   -1.1671    0.0000 </r>
       <r>   -0.3055    0.0000 </r>
       <r>    2.3232    0.0000 </r>
      </set>
      <set comment="kpoint 8">
       <r>  -16.9402    1.0000 </r>
       <r>  -16.1715    1.0000 </r>
       <r>   -8.6750    1.0000 </r>
       <r>   -7.5619    1.0000 </r>
       <r>   -7.2744    1.0000 </r>
       <r>   -6.6350    1.0000 </r>
       <r>   -5.6376    1.0000 </r>
       <r>   -4.8244    1.0000 </r>
       <r>   -4.4909    1.0000 </r>
       <r>   -1.7361    0.0000 </r>
       <r>   -1.3356    0.0000 </r>
       <r>   -1.0660    0.0000 </r>
       <r>    0.2153    0.0000 </r>
       <r>    3.0113    0.0000 </r>
      </set>
      <set comment="kpoint 9">
       <r>  -16.4080    1.0000 </r>
       <r>  -15.9273    1.0000 </r>
       <r>   -8.9693    1.0000 </r>
       <r>   -8.0623    1.0000 </r>
       <r>   -7.5863    1.0000 </r>
       <r>   -6.8693    1.0000 </r>
       <r>   -5.5300    1.0000 </r>
       <r>   -5.2312    1.0000 </r>
       <r>   -4.5345    1.0000 </r>
       <r>   -1.6499    0.0000 </r>
       <r>   -1.2935    0.0000 </r>
       <r>   -0.5103    0.0000 </r>
       <r>    0.4953    0.0000 </r>
       <r>    3.6867    0.0000 </r>
      </set>
      <set comment="kpoint 10">
       <r>  -16.0303    1.0000 </r>
       <r>  -15.7589    1.0000 </r>
       <r>   -9.2906    1.0000 </r>
       <r>   -8.5576    1.0000 </r>
       <r>   -7.7286    1.0000 </r>
       <r>   -6.9184    1.0000 </r>
       <r>   -5.5359    1.0000 </r>
       <r>   -5.4085    1.0000 </r>
       <r>   -4.2456    1.0000 </r>
       <r>   -1.5543    0.0000 </r>
       <r>   -1.0548    0.0000 </r>
       <r>   -0.0052    0.0000 </r>
       <r>    0.4438    0.0000 </r>
       <r>    2.7813    0.0000 </r>
      </set>
      <set comment="kpoint 11">
       <r>  -16.4731    1.0000 </r>
       <r>  -15.9511    1.0000 </r>
       <r>   -8.7742    1.0000 </r>
       <r>   -7.9291    1.0000 </r>
       <r>   -7.4597    1.0000 </r>
       <r>   -7.0421    1.0000 </r>
       <r>   -5.9855    1.0000 </r>
       <r>   -4.9743    1.0000 </r>
       <r>   -4.5290    1.0000 </r>
       <r>   -1.7299    0.0000 </r>
       <r>   -1.2630    0.0000 </r>
       <r>   -0.8919    0.0000 </r>
       <r>    0.6076    0.0000 </r>
       <r>    3.7781    0.0000 </r>
      </set>
      <set comment="kpoint 12">
       <r>  -16.0469    1.0000 </r>
       <r>  -15.7485    1.0000 </r>
       <r>   -8.9141    1.0000 </r>
       <r>   -8.6248    1.0000 </r>
       <r>   -7.4663    1.0000 </r>
       <r>   -6.9537    1.0000 </r>
       <r>   -6.4108    1.0000 </r>
       <r>   -5.3998    1.0000 </r>
       <r>   -4.2607    1.0000 </r>
       <r>   -1.5924    0.0000 </r>
       <r>   -1.0060    0.0000 </r>
       <r>   -0.5755    0.0000 </r>
       <r>    0.7570    0.0000 </r>
       <r>    3.5598    0.0000 </r>
      </set>
      <set comment="kpoint 13">
       <r>  -15.8693    1.0000 </r>
       <r>  -15.6637    1.0000 </r>
       <r>   -8.9345    1.0000 </r>
       <r>   -8.8932    1.0000 </r>
       <r>   -7.6637    1.0000 </r>
       <r>   -6.8275    1.0000 </r>
       <r>   -6.4669    1.0000 </r>
       <r>   -5.6589    1.0000 </r>
       <r>   -4.0103    1.0000 </r>
       <r>   -1.7741    0.0000 </r>
       <r>   -0.6346    0.0000 </r>
       <r>   -0.4325    0.0000 </r>
       <r>    0.7798    0.0000 </r>
       <r>    2.9711    0.0000 </r>
      </set>
      <set comment="kpoint 14">
       <r>  -15.8104    1.0000 </r>
       <r>  -15.6233    1.0000 </r>
       <r>   -9.0438    1.0000 </r>
       <r>   -8.5432    1.0000 </r>
       <r>   -7.5497    1.0000 </r>
       <r>   -7.2278    1.0000 </r>
       <r>   -6.7136    1.0000 </r>
       <r>   -5.7676    1.0000 </r>
       <r>   -3.8875    1.0000 </r>
       <r>   -1.9852    0.0000 </r>
       <r>   -0.6680    0.0000 </r>
       <r>   -0.4022    0.0000 </r>
       <r>    1.0134    0.0000 </r>
       <r>    3.4395    0.0000 </r>
      </set>
     </set>
    </set>
   </array>
  </eigenvalues>
  <separator name="orbital magnetization" >
   <v name="MAGDIPOLOUT">      0.00000000      0.00000000      0.00000000</v>
  </separator>
 </calculation>
 <structure name="finalpos" >
  <crystal>
   <varray name="basis" >
    <v>       3.18985683      -0.00000000       0.00000000 </v>
    <v>      -1.59492842       2.76249705       0.00000000 </v>
    <v>      -0.00000000       0.00000000      30.79397887 </v>
   </varray>
   <i name="volume">    271.35562051 </i>
   <varray name="rec_basis" >
    <v>       0.31349369       0.18099567       0.00000000 </v>
    <v>       0.00000000       0.36199134       0.00000000 </v>
    <v>       0.00000000       0.00000000       0.03247388 </v>
   </varray>
  </crystal>
  <varray name="positions" >
   <v>       0.33333300       0.66666700       0.12046214 </v>
   <v>       0.66666700       0.33333300       0.06984045 </v>
   <v>       0.66666600       0.33333300       0.17108384 </v>
  </varray>
 </structure>
</modeling>
