unknown system                          
           1
     3.190316    0.000000    0.000000
    -1.595158    2.762894    0.000000
     0.000000    0.000000   30.879004
   Mo   S 
   1   2
Direct configuration=     1
   0.33333300  0.66666700  0.12046214
   0.66666700  0.33333300  0.06978420
   0.66666600  0.33333300  0.17114009
unknown system                          
           1
     3.183032   -0.000000    0.000000
    -1.591516    2.756586    0.000000
    -0.000000    0.000000   30.688863
   Mo   S 
   1   2
Direct configuration=     2
   0.33333300  0.66666700  0.12046214
   0.66666700  0.33333300  0.06996404
   0.66666600  0.33333300  0.17096025
unknown system                          
           1
     3.191075   -0.000000    0.000000
    -1.595538    2.763552    0.000000
    -0.000000    0.000000   30.808863
   Mo   S 
   1   2
Direct configuration=     3
   0.33333300  0.66666700  0.12046214
   0.66666700  0.33333300  0.06983641
   0.66666600  0.33333300  0.17108788
unknown system                          
           1
     3.189857   -0.000000    0.000000
    -1.594928    2.762497    0.000000
    -0.000000    0.000000   30.793979
   Mo   S 
   1   2
Direct configuration=     4
   0.33333300  0.66666700  0.12046214
   0.66666700  0.33333300  0.06984045
   0.66666600  0.33333300  0.17108384
