    3    3    1    1
  0.7897505E+02  0.3190316E-09  0.3190316E-09  0.2687900E-08  0.5000000E-15
  1.000000000000000E-004
  CAR 
 unknown system                          
     18     10     14
 
  0.0000000E+00  0.0000000E+00  0.0000000E+00  0.1562500E-01
    1      -17.463477   1.000000
    2      -16.255417   1.000000
    3       -8.984364   1.000000
    4       -6.023585   1.000000
    5       -6.023579   1.000000
    6       -5.162242   1.000000
    7       -4.918040   1.000000
    8       -4.918008   1.000000
    9       -3.441870   1.000000
   10       -0.670360   0.000000
   11       -0.670330   0.000000
   12       -0.446609   0.000000
   13       -0.446595   0.000000
   14        1.992176   0.000000
 
  0.1250000E+00  0.0000000E+00  0.0000000E+00  0.9375000E-01
    1      -17.249328   1.000000
    2      -16.153030   1.000000
    3       -8.739832   1.000000
    4       -6.487004   1.000000
    5       -5.970329   1.000000
    6       -5.789162   1.000000
    7       -5.253769   1.000000
    8       -4.484761   1.000000
    9       -3.580292   1.000000
   10       -0.950377   0.000000
   11       -0.884582   0.000000
   12       -0.683199   0.000000
   13       -0.315551   0.000000
   14        2.361654   0.000000
 
  0.2500000E+00  0.0000000E+00  0.0000000E+00  0.9375000E-01
    1      -16.680591   1.000000
    2      -15.884268   1.000000
    3       -8.373740   1.000000
    4       -7.213560   1.000000
    5       -6.951176   1.000000
    6       -5.888796   1.000000
    7       -5.202078   1.000000
    8       -4.736344   1.000000
    9       -4.148251   1.000000
   10       -1.274495   0.000000
   11       -1.097930   0.000000
   12       -0.555827   0.000000
   13        0.301421   0.000000
   14        3.179887   0.000000
 
  0.3750000E+00  0.0000000E+00  0.0000000E+00  0.9375000E-01
    1      -16.005478   1.000000
    2      -15.575840   1.000000
    3       -8.810989   1.000000
    4       -7.818549   1.000000
    5       -7.346396   1.000000
    6       -6.386131   1.000000
    7       -5.145649   1.000000
    8       -4.611564   1.000000
    9       -4.343452   1.000000
   10       -1.279372   0.000000
   11       -1.000501   0.000000
   12        0.162691   0.000000
   13        0.694748   0.000000
   14        3.701323   0.000000
 
  0.5000000E+00  0.0000000E+00  0.0000000E+00  0.4687500E-01
    1      -15.677224   1.000000
    2      -15.432518   1.000000
    3       -9.143639   1.000000
    4       -8.183472   1.000000
    5       -7.472703   1.000000
    6       -6.566710   1.000000
    7       -5.284504   1.000000
    8       -4.384481   1.000000
    9       -4.062668   1.000000
   10       -1.257056   0.000000
   11       -0.741112   0.000000
   12        0.461279   0.000000
   13        0.810174   0.000000
   14        2.740565   0.000000
 
  0.1250000E+00  0.1250000E+00  0.0000000E+00  0.9375000E-01
    1      -16.856518   1.000000
    2      -15.966020   1.000000
    3       -8.392566   1.000000
    4       -7.050998   1.000000
    5       -6.532489   1.000000
    6       -6.067610   1.000000
    7       -5.449690   1.000000
    8       -4.350285   1.000000
    9       -3.952182   1.000000
   10       -1.349624   0.000000
   11       -0.971444   0.000000
   12       -0.959651   0.000000
   13        0.279299   0.000000
   14        2.989078   0.000000
 
  0.2500000E+00  0.1250000E+00  0.0000000E+00  0.1875000E+00
    1      -16.222930   1.000000
    2      -15.667485   1.000000
    3       -8.455317   1.000000
    4       -7.477712   1.000000
    5       -7.214572   1.000000
    6       -6.571911   1.000000
    7       -5.350248   1.000000
    8       -4.712501   1.000000
    9       -4.235817   1.000000
   10       -1.432969   0.000000
   11       -0.984490   0.000000
   12       -0.489678   0.000000
   13        0.787132   0.000000
   14        3.929710   0.000000
 
  0.3750000E+00  0.1250000E+00  0.0000000E+00  0.1875000E+00
    1      -15.692456   1.000000
    2      -15.423568   1.000000
    3       -8.856285   1.000000
    4       -8.240744   1.000000
    5       -7.344959   1.000000
    6       -6.588720   1.000000
    7       -5.335072   1.000000
    8       -5.194326   1.000000
    9       -3.908946   1.000000
   10       -1.238208   0.000000
   11       -0.727897   0.000000
   12        0.132005   0.000000
   13        0.820833   0.000000
   14        3.267407   0.000000
 
  0.2500000E+00  0.2500000E+00  0.0000000E+00  0.9375000E-01
    1      -15.707418   1.000000
    2      -15.414571   1.000000
    3       -8.495905   1.000000
    4       -8.291542   1.000000
    5       -7.017787   1.000000
    6       -6.637023   1.000000
    7       -6.317896   1.000000
    8       -5.060874   1.000000
    9       -3.937780   1.000000
   10       -1.289216   0.000000
   11       -0.678184   0.000000
   12       -0.366540   0.000000
   13        1.108886   0.000000
   14        4.099764   0.000000
 
  0.3750000E+00  0.2500000E+00  0.0000000E+00  0.9375000E-01
    1      -15.472533   1.000000
    2      -15.295415   1.000000
    3       -8.675970   1.000000
    4       -8.326883   1.000000
    5       -7.302144   1.000000
    6       -6.639543   1.000000
    7       -6.409376   1.000000
    8       -5.447164   1.000000
    9       -3.570349   1.000000
   10       -1.614867   0.000000
   11       -0.308177   0.000000
   12       -0.127579   0.000000
   13        1.254190   0.000000
   14        3.510345   0.000000
