       N       E                     dE             d eps       ncg     rms          rms(c)
DAV:   1     0.153813996329E+03    0.15381E+03   -0.71890E+03   280   0.123E+03
DAV:   2    -0.524061219244E+01   -0.15905E+03   -0.15178E+03   474   0.182E+02
DAV:   3    -0.229904150782E+02   -0.17750E+02   -0.17574E+02   382   0.778E+01
DAV:   4    -0.233996091905E+02   -0.40919E+00   -0.40659E+00   376   0.144E+01
DAV:   5    -0.234097450857E+02   -0.10136E-01   -0.10134E-01   346   0.220E+00    0.689E+00
RMM:   6    -0.222492977616E+02    0.11604E+01   -0.54418E+00   296   0.125E+01    0.261E+00
RMM:   7    -0.218642607768E+02    0.38504E+00   -0.55200E-01   294   0.341E+00    0.150E+00
RMM:   8    -0.218044373367E+02    0.59823E-01   -0.23262E-01   309   0.252E+00    0.356E-01
RMM:   9    -0.217996037162E+02    0.48336E-02   -0.88002E-03   335   0.613E-01    0.967E-02
RMM:  10    -0.217988545520E+02    0.74916E-03   -0.17025E-03   334   0.224E-01    0.442E-02
RMM:  11    -0.217987612648E+02    0.93287E-04   -0.17167E-03   314   0.196E-01    0.558E-02
RMM:  12    -0.217985652559E+02    0.19601E-03   -0.57011E-04   302   0.135E-01    0.181E-02
RMM:  13    -0.217988254920E+02   -0.26024E-03   -0.15912E-04   287   0.729E-02    0.201E-02
RMM:  14    -0.217988585485E+02   -0.33056E-04   -0.26117E-05   257   0.284E-02    0.508E-03
RMM:  15    -0.217989699640E+02   -0.11142E-03   -0.11628E-05   195   0.178E-02    0.279E-03
RMM:  16    -0.217990028161E+02   -0.32852E-04   -0.46671E-06   185   0.961E-03    0.177E-03
RMM:  17    -0.217990456638E+02   -0.42848E-04   -0.32472E-06   163   0.788E-03    0.136E-03
RMM:  18    -0.217990537011E+02   -0.80373E-05   -0.44659E-07    85   0.402E-03
   1 F= -.22389963E+02 E0= -.22389963E+02  d E =0.000000E+00
