 vasp.5.4.4.18Apr17-6-g9f103f2a35 (build Jun 30 2017 11:15:00) complex          
  
 executed on    STALLO_VASP_5.4.4 date 2019.11.08  11:59:21
 running on    4 total cores
 distrk:  each k-point on    4 cores,    1 groups
 distr:  one band on NCORES_PER_BAND=   2 cores,    2 groups


--------------------------------------------------------------------------------------------------------


 INCAR:
 POTCAR:   PAW_PBE Mo 08Apr2002                   
 POTCAR:    PAW_PBE S 17Jan2003                   
 POTCAR:   PAW_PBE Mo 08Apr2002                   
   VRHFIN =Mo: 4p5s4d                                                           
   LEXCH  = PE                                                                  
   EATOM  =   217.5180 eV,   15.9871 Ry                                         
                                                                                
   TITEL  = PAW_PBE Mo 08Apr2002                                                
   LULTRA =        F    use ultrasoft PP ?                                      
   IUNSCR =        1    unscreen: 0-lin 1-nonlin 2-no                           
   RPACOR =    2.200    partial core radius                                     
   POMASS =   95.940; ZVAL   =    6.000    mass and valenz                      
   RCORE  =    2.750    outmost cutoff radius                                   
   RWIGS  =    2.750; RWIGS  =    1.455    wigner-seitz radius (au A)           
   ENMAX  =  224.584; ENMIN  =  168.438 eV                                      
   RCLOC  =    2.111    cutoff for local pot                                    
   LCOR   =        T    correct aug charges                                     
   LPAW   =        T    paw PP                                                  
   EAUG   =  345.278                                                            
   DEXC   =    -.088                                                            
   RMAX   =    3.077    core radius for proj-oper                               
   RAUG   =    1.300    factor for augmentation sphere                          
   RDEP   =    2.815    radius for radial grids                                 
   QCUT   =   -4.063; QGAM   =    8.126    optimization parameters              
                                                                                
   Description                                                                  
     l     E      TYP  RCUT    TYP  RCUT                                        
     2   .000     23  2.500                                                     
     2   .000     23  2.500                                                     
     0   .000     23  2.600                                                     
     0  1.000     23  2.600                                                     
     1   .400     23  2.750                                                     
     1  2.000     23  2.750                                                     
     3   .000      7   .000                                                     
  local pseudopotential read in
  partial core-charges read in
  atomic valenz-charges read in
  non local Contribution for L=           2  read in
    real space projection operators read in
  non local Contribution for L=           2  read in
    real space projection operators read in
  non local Contribution for L=           0  read in
    real space projection operators read in
  non local Contribution for L=           0  read in
    real space projection operators read in
  non local Contribution for L=           1  read in
    real space projection operators read in
  non local Contribution for L=           1  read in
    real space projection operators read in
    PAW grid and wavefunctions read in
 
   number of l-projection  operators is LMAX  =           6
   number of lm-projection operators is LMMAX =          18
 
 POTCAR:    PAW_PBE S 17Jan2003                   
   VRHFIN =S : s2p4                                                             
   LEXCH  = PE                                                                  
   EATOM  =   276.8230 eV,   20.3459 Ry                                         
                                                                                
   TITEL  = PAW_PBE S 17Jan2003                                                 
   LULTRA =        F    use ultrasoft PP ?                                      
   IUNSCR =        1    unscreen: 0-lin 1-nonlin 2-no                           
   RPACOR =    1.500    partial core radius                                     
   POMASS =   32.066; ZVAL   =    6.000    mass and valenz                      
   RCORE  =    1.900    outmost cutoff radius                                   
   RWIGS  =    2.200; RWIGS  =    1.164    wigner-seitz radius (au A)           
   ENMAX  =  280.000; ENMIN  =  194.016 eV                                      
   ICORE  =        2    local potential                                         
   LCOR   =        T    correct aug charges                                     
   LPAW   =        T    paw PP                                                  
   EAUG   =  335.092                                                            
   DEXC   =     .000                                                            
   RMAX   =    2.867    core radius for proj-oper                               
   RAUG   =    1.300    factor for augmentation sphere                          
   RDEP   =    1.954    radius for radial grids                                 
   QCUT   =   -4.360; QGAM   =    8.721    optimization parameters              
                                                                                
   Description                                                                  
     l     E      TYP  RCUT    TYP  RCUT                                        
     0   .000     23  1.900                                                     
     0   .000     23  1.900                                                     
     1   .000     23  1.900                                                     
     1   .000     23  1.900                                                     
     2   .000     23  1.900                                                     
  local pseudopotential read in
  partial core-charges read in
  atomic valenz-charges read in
  non local Contribution for L=           0  read in
    real space projection operators read in
  non local Contribution for L=           0  read in
    real space projection operators read in
  non local Contribution for L=           1  read in
    real space projection operators read in
  non local Contribution for L=           1  read in
    real space projection operators read in
    PAW grid and wavefunctions read in
 
   number of l-projection  operators is LMAX  =           4
   number of lm-projection operators is LMMAX =           8
 
 WARNING: PSMAXN for non-local potential too small
          PSMAXN should be >   14.0303017386150       NTYP=           1
 PAW_PBE Mo 08Apr2002                   :
 energy of atom  1       EATOM= -217.5180
 kinetic energy error for atom=    0.0003 (will be added to EATOM!!)
  PAW_PBE S 17Jan2003                   :
 energy of atom  2       EATOM= -276.8230
 kinetic energy error for atom=    0.0006 (will be added to EATOM!!)
 
 
 POSCAR: MoS2_mp-2815_computed                   
  positions in cartesian coordinates
  velocities in cartesian coordinates
  No initial velocities read in
 exchange correlation table for  LEXCH =        8
   RHO(1)=    0.500       N(1)  =     2000
   RHO(2)=  100.500       N(2)  =     4000
 


--------------------------------------------------------------------------------------------------------


 ion  position               nearest neighbor table
   1  0.333  0.667  0.138-   3 2.42   2 2.42   2 2.42   3 2.42   3 2.42   2 2.42
   2  0.667  0.333  0.080-   1 2.42   1 2.42   1 2.42
   3  0.667  0.333  0.197-   1 2.42   1 2.42   1 2.42
 
  LATTYP: Found a hexagonal cell.
 ALAT       =     3.1903157300
 C/A-ratio  =     8.4251862746
  
  Lattice vectors:
  
 A1 = (   3.1903157300,   0.0000000000,   0.0000000000)
 A2 = (  -1.5951578650,   2.7628944683,   0.0000000000)
 A3 = (   0.0000000000,   0.0000000000,  26.8790043000)


Analysis of symmetry for initial positions (statically):
=====================================================================
 Subroutine PRICEL returns:
 Original cell was already a primitive cell.
 

 Routine SETGRP: Setting up the symmetry group for a 
 hexagonal supercell.


 Subroutine GETGRP returns: Found 12 space group operations
 (whereof  6 operations were pure point group operations)
 out of a pool of 24 trial point group operations.


The static configuration has the point symmetry C_3v.
 The point group associated with its full space group is D_3h.


Analysis of symmetry for dynamics (positions and initial velocities):
=====================================================================
 Subroutine PRICEL returns:
 Original cell was already a primitive cell.
 

 Routine SETGRP: Setting up the symmetry group for a 
 hexagonal supercell.


 Subroutine GETGRP returns: Found 12 space group operations
 (whereof  6 operations were pure point group operations)
 out of a pool of 24 trial point group operations.


The dynamic configuration has the point symmetry C_3v.
 The point group associated with its full space group is D_3h.


 Subroutine INISYM returns: Found 12 space group operations
 (whereof  6 operations are pure point group operations),
 and found     1 'primitive' translations

 
 
 KPOINTS: k-density: 4.0                          

Automatic generation of k-mesh.
Space group operators:
 irot       det(A)        alpha          n_x          n_y          n_z        tau_x        tau_y        tau_z
    1     1.000000     0.000001     1.000000     0.000000     0.000000     0.000000     0.000000     0.000000
    2     1.000000   120.000000     0.000000     0.000000    -1.000000     0.000000     0.000000     0.000000
    3     1.000000   120.000000     0.000000     0.000000     1.000000     0.000000     0.000000     0.000000
    4    -1.000000   179.999999     1.000000    -0.000000     0.000000     0.000000     0.000000     0.000000
    5    -1.000000   180.000000     0.500000    -0.866025     0.000000     0.000000     0.000000     0.000000
    6    -1.000000   180.000000    -0.500000    -0.866025     0.000000     0.000000     0.000000     0.000000
    7    -1.000000    60.000000     0.000000     0.000000    -1.000000    -0.000000     0.000000     0.276777
    8    -1.000000   180.000000     0.000000     0.000000     1.000000     0.000000     0.000000     0.276777
    9    -1.000000    60.000000     0.000000     0.000000     1.000000     0.000000     0.000001     0.276777
   10     1.000000   180.000000     0.866025    -0.500000     0.000000     0.000000     0.000000     0.276777
   11     1.000000   180.000000     0.000000     1.000000     0.000000     0.000000     0.000000     0.276777
   12     1.000000   179.999999     0.866025     0.500000     0.000000    -0.000000     0.000001     0.276777
 
 Subroutine IBZKPT returns following result:
 ===========================================
 
 Found     10 irreducible k-points:
 
 Following reciprocal coordinates:
            Coordinates               Weight
  0.000000  0.000000  0.000000      1.000000
  0.125000  0.000000  0.000000      6.000000
  0.250000  0.000000  0.000000      6.000000
  0.375000  0.000000  0.000000      6.000000
  0.500000  0.000000  0.000000      3.000000
  0.125000  0.125000  0.000000      6.000000
  0.250000  0.125000  0.000000     12.000000
  0.375000  0.125000  0.000000     12.000000
  0.250000  0.250000  0.000000      6.000000
  0.375000  0.250000  0.000000      6.000000
 
 Following cartesian coordinates:
            Coordinates               Weight
  0.000000  0.000000  0.000000      1.000000
  0.039181  0.022621  0.000000      6.000000
  0.078362  0.045242  0.000000      6.000000
  0.117543  0.067864  0.000000      6.000000
  0.156724  0.090485  0.000000      3.000000
  0.039181  0.067864  0.000000      6.000000
  0.078362  0.090485  0.000000     12.000000
  0.117543  0.113106  0.000000     12.000000
  0.078362  0.135727  0.000000      6.000000
  0.117543  0.158348  0.000000      6.000000
 
 TETIRR: Found     36 inequivalent tetrahedra from      384


--------------------------------------------------------------------------------------------------------




 Dimension of arrays:
   k-points           NKPTS =     10   k-points in BZ     NKDIM =     10   number of bands    NBANDS=     14
   number of dos      NEDOS =    301   number of ions     NIONS =      3
   non local maximal  LDIM  =      6   non local SUM 2l+1 LMDIM =     18
   total plane-waves  NPLWV = 103680
   max r-space proj   IRMAX =      1   max aug-charges    IRDMAX=  28292
   dimension x,y,z NGX =    24 NGY =   24 NGZ =  180
   dimension x,y,z NGXF=    48 NGYF=   48 NGZF=  360
   support grid    NGXF=    48 NGYF=   48 NGZF=  360
   ions per type =               1   2
   NGX,Y,Z   is equivalent  to a cutoff of  12.51, 12.51, 11.13 a.u.
   NGXF,Y,Z  is equivalent  to a cutoff of  25.01, 25.01, 22.27 a.u.

 SYSTEM =  unknown system                          
 POSCAR =  MoS2_mp-2815_computed                   

 Startparameter for this run:
   NWRITE =      2    write-flag & timer
   PREC   = normal    normal or accurate (medium, high low for compatibility)
   ISTART =      0    job   : 0-new  1-cont  2-samecut
   ICHARG =      2    charge: 1-file 2-atom 10-const
   ISPIN  =      1    spin polarized calculation?
   LNONCOLLINEAR =      F non collinear calculations
   LSORBIT =      F    spin-orbit coupling
   INIWAV =      1    electr: 0-lowe 1-rand  2-diag
   LASPH  =      F    aspherical Exc in radial PAW
   METAGGA=      F    non-selfconsistent MetaGGA calc.

 Electronic Relaxation 1
   ENCUT  =  750.0 eV  55.12 Ry    7.42 a.u.   7.12  7.12 60.02*2*pi/ulx,y,z
   ENINI  =  750.0     initial cutoff
   ENAUG  =  345.3 eV  augmentation charge cutoff
   NELM   =     60;   NELMIN=  4; NELMDL= -5     # of ELM steps 
   EDIFF  = 0.1E-04   stopping-criterion for ELM
   LREAL  =      F    real-space projection
   NLSPLINE    = F    spline interpolate recip. space projectors
   LCOMPAT=      F    compatible to vasp.4.4
   GGA_COMPAT  = T    GGA compatible to vasp.4.4-vasp.4.6
   LMAXPAW     = -100 max onsite density
   LMAXMIX     =    2 max onsite mixed and CHGCAR
   VOSKOWN=      0    Vosko Wilk Nusair interpolation
   ROPT   =    0.00000   0.00000
 Ionic relaxation
   EDIFFG = 0.1E-03   stopping-criterion for IOM
   NSW    =      0    number of steps for IOM
   NBLOCK =      1;   KBLOCK =      1    inner block; outer block 
   IBRION =     -1    ionic relax: 0-MD 1-quasi-New 2-CG
   NFREE  =      0    steps in history (QN), initial steepest desc. (CG)
   ISIF   =      2    stress and relaxation
   IWAVPR =     10    prediction:  0-non 1-charg 2-wave 3-comb
   ISYM   =      2    0-nonsym 1-usesym 2-fastsym
   LCORR  =      T    Harris-Foulkes like correction to forces

   POTIM  = 0.5000    time-step for ionic-motion
   TEIN   =    0.0    initial temperature
   TEBEG  =    0.0;   TEEND  =   0.0 temperature during run
   SMASS  =  -3.00    Nose mass-parameter (am)
   estimated Nose-frequenzy (Omega)   =  0.10E-29 period in steps =****** mass=  -0.233E-27a.u.
   SCALEE = 1.0000    scale energy and forces
   NPACO  =    256;   APACO  = 16.0  distance and # of slots for P.C.
   PSTRESS=    0.0 pullay stress

  Mass of Ions in am
   POMASS =  95.94 32.07
  Ionic Valenz
   ZVAL   =   6.00  6.00
  Atomic Wigner-Seitz radii
   RWIGS  =  -1.00 -1.00
  virtual crystal weights 
   VCA    =   1.00  1.00
   NELECT =      18.0000    total number of electrons
   NUPDOWN=      -1.0000    fix difference up-down

 DOS related values:
   EMIN   =  10.00;   EMAX   =-10.00  energy-range for DOS
   EFERMI =   0.00
   ISMEAR =    -5;   SIGMA  =   0.20  broadening in eV -4-tet -1-fermi 0-gaus

 Electronic relaxation 2 (details)
   IALGO  =     68    algorithm
   LDIAG  =      T    sub-space diagonalisation (order eigenvalues)
   LSUBROT=      F    optimize rotation matrix (better conditioning)
   TURBO    =      0    0=normal 1=particle mesh
   IRESTART =      0    0=no restart 2=restart with 2 vectors
   NREBOOT  =      0    no. of reboots
   NMIN     =      0    reboot dimension
   EREF     =   0.00    reference energy to select bands
   IMIX   =      4    mixing-type and parameters
     AMIX     =   0.40;   BMIX     =  1.00
     AMIX_MAG =   1.60;   BMIX_MAG =  1.00
     AMIN     =   0.10
     WC   =   100.;   INIMIX=   1;  MIXPRE=   1;  MAXMIX= -45

 Intra band minimization:
   WEIMIN = 0.0000     energy-eigenvalue tresh-hold
   EBREAK =  0.18E-06  absolut break condition
   DEPER  =   0.30     relativ break condition  

   TIME   =   0.40     timestep for ELM

  volume/ion in A,a.u.               =      78.98       532.95
  Fermi-wavevector in a.u.,A,eV,Ry     =   0.693365  1.310270  6.541070  0.480755
  Thomas-Fermi vector in A             =   1.775558
 
 Write flags
   LWAVE        =      F    write WAVECAR
   LDOWNSAMPLE  =      F    k-point downsampling of WAVECAR
   LCHARG       =      T    write CHGCAR
   LVTOT        =      F    write LOCPOT, total local potential
   LVHAR        =      F    write LOCPOT, Hartree potential only
   LELF         =      F    write electronic localiz. function (ELF)
   LORBIT       =      0    0 simple, 1 ext, 2 COOP (PROOUT), +10 PAW based schemes


 Dipole corrections
   LMONO  =      F    monopole corrections only (constant potential shift)
   LDIPOL =      F    correct potential (dipole corrections)
   IDIPOL =      0    1-x, 2-y, 3-z, 4-all directions 
   EPSILON=  1.0000000 bulk dielectric constant

 Exchange correlation treatment:
   GGA     =    --    GGA type
   LEXCH   =     8    internal setting for exchange type
   VOSKOWN=      0    Vosko Wilk Nusair interpolation
   LHFCALC =     F    Hartree Fock is set to
   LHFONE  =     F    Hartree Fock one center treatment
   AEXX    =    0.0000 exact exchange contribution

 Linear response parameters
   LEPSILON=     F    determine dielectric tensor
   LRPA    =     F    only Hartree local field effects (RPA)
   LNABLA  =     F    use nabla operator in PAW spheres
   LVEL    =     F    velocity operator in full k-point grid
   LINTERFAST=   F  fast interpolation
   KINTER  =     0    interpolate to denser k-point grid
   CSHIFT  =0.1000    complex shift for real part using Kramers Kronig
   OMEGAMAX=  -1.0    maximum frequency
   DEG_THRESHOLD= 0.2000000E-02 threshold for treating states as degnerate
   RTIME   =   -0.100 relaxation time in fs
  (WPLASMAI=    0.000 imaginary part of plasma frequency in eV, 0.658/RTIME)
   DFIELD  = 0.0000000 0.0000000 0.0000000 field for delta impulse in time
 
 Orbital magnetization related:
   ORBITALMAG=     F  switch on orbital magnetization
   LCHIMAG   =     F  perturbation theory with respect to B field
   DQ        =  0.001000  dq finite difference perturbation B field
   LLRAUG    =     F  two centre corrections for induced B field



--------------------------------------------------------------------------------------------------------


 Static calculation
 charge density and potential will be updated during run
 non-spin polarized calculation
 RMM-DIIS sequential band-by-band and
  variant of blocked Davidson during initial phase
 perform sub-space diagonalisation
    before iterative eigenvector-optimisation
 modified Broyden-mixing scheme, WC =      100.0
 initial mixing is a Kerker type mixing with AMIX =  0.4000 and BMIX =      1.0000
 Hartree-type preconditioning will be used
 using additional bands            5
 reciprocal scheme for non local part
 use partial core corrections
 calculate Harris-corrections to forces 
   (improved forces if not selfconsistent)
 use gradient corrections 
 use of overlap-Matrix (Vanderbilt PP)
 Fermi weights with tetrahedron method with Bloechl corrections


--------------------------------------------------------------------------------------------------------


  energy-cutoff  :      750.00
  volume of cell :      236.93
      direct lattice vectors                 reciprocal lattice vectors
     3.190315730  0.000000000  0.000000000     0.313448600  0.180969634  0.000000000
    -1.595157865  2.762894468  0.000000000     0.000000000  0.361939267  0.000000000
     0.000000000  0.000000000 26.879004300     0.000000000  0.000000000  0.037203759

  length of vectors
     3.190315730  3.190315730 26.879004300     0.361939267  0.361939267  0.037203759


 
 k-points in units of 2pi/SCALE and weight: k-density: 4.0                          
   0.00000000  0.00000000  0.00000000       0.016
   0.03918108  0.02262120  0.00000000       0.094
   0.07836215  0.04524241  0.00000000       0.094
   0.11754323  0.06786361  0.00000000       0.094
   0.15672430  0.09048482  0.00000000       0.047
   0.03918108  0.06786361  0.00000000       0.094
   0.07836215  0.09048482  0.00000000       0.188
   0.11754323  0.11310602  0.00000000       0.188
   0.07836215  0.13572723  0.00000000       0.094
   0.11754323  0.15834843  0.00000000       0.094
 
 k-points in reciprocal lattice and weights: k-density: 4.0                          
   0.00000000  0.00000000  0.00000000       0.016
   0.12500000  0.00000000  0.00000000       0.094
   0.25000000  0.00000000  0.00000000       0.094
   0.37500000  0.00000000  0.00000000       0.094
   0.50000000  0.00000000  0.00000000       0.047
   0.12500000  0.12500000  0.00000000       0.094
   0.25000000  0.12500000  0.00000000       0.188
   0.37500000  0.12500000  0.00000000       0.188
   0.25000000  0.25000000  0.00000000       0.094
   0.37500000  0.25000000  0.00000000       0.094
 
 position of ions in fractional coordinates (direct lattice) 
   0.33333300  0.66666700  0.13838872
   0.66666700  0.33333300  0.08016914
   0.66666600  0.33333300  0.19660830
 
 position of ions in cartesian coordinates  (Angst):
  -0.00000160  1.84193057  3.71975108
   1.59515946  0.92096390  2.15486668
   1.59515627  0.92096390  5.28463547
 


--------------------------------------------------------------------------------------------------------


 k-point  1 :   0.0000 0.0000 0.0000  plane waves:   11011
 k-point  2 :   0.1250 0.0000 0.0000  plane waves:   11009
 k-point  3 :   0.2500 0.0000 0.0000  plane waves:   11038
 k-point  4 :   0.3750 0.0000 0.0000  plane waves:   11038
 k-point  5 :   0.5000 0.0000 0.0000  plane waves:   11092
 k-point  6 :   0.1250 0.1250 0.0000  plane waves:   11013
 k-point  7 :   0.2500 0.1250 0.0000  plane waves:   11032
 k-point  8 :   0.3750 0.1250 0.0000  plane waves:   11066
 k-point  9 :   0.2500 0.2500 0.0000  plane waves:   11073
 k-point 10 :   0.3750 0.2500 0.0000  plane waves:   11105

 maximum and minimum number of plane-waves per node :      5553     5486

 maximum number of plane-waves:     11105
 maximum index in each direction: 
   IXMAX=    7   IYMAX=    7   IZMAX=   60
   IXMIN=   -7   IYMIN=   -7   IZMIN=  -60


 parallel 3D FFT for wavefunctions:
    minimum data exchange during FFTs selected (reduces bandwidth)
 parallel 3D FFT for charge:
    minimum data exchange during FFTs selected (reduces bandwidth)


 total amount of memory used by VASP MPI-rank0    74845. kBytes
=======================================================================

   base      :      30000. kBytes
   nonl-proj :      16262. kBytes
   fftplans  :       8567. kBytes
   grid      :      13736. kBytes
   one-center:         31. kBytes
   wavefun   :       6249. kBytes
 
     INWAV:  cpu time    0.0000: real time    0.0000
 Broyden mixing: mesh for mixing (old mesh)
   NGX = 15   NGY = 15   NGZ =121
  (NGX  = 48   NGY  = 48   NGZ  =360)
  gives a total of  27225 points

 initial charge density was supplied:
 charge density of overlapping atoms calculated
 number of electron      18.0000000 magnetization 
 keeping initial charge density in first step


--------------------------------------------------------------------------------------------------------


 Maximum index for augmentation-charges         6859 (set IRDMAX)


--------------------------------------------------------------------------------------------------------


 First call to EWALD:  gamma=   0.286
 Maximum number of real-space cells 6x 6x 1
 Maximum number of reciprocal cells 2x 2x10

    FEWALD:  cpu time    0.0020: real time    0.0015


--------------------------------------- Iteration      1(   1)  ---------------------------------------


    POTLOK:  cpu time    0.1290: real time    0.3195
    SETDIJ:  cpu time    0.0040: real time    0.0048
     EDDAV:  cpu time    0.5849: real time    0.5890
 BZINTS: Fermi energy:  7.483493; 18.000000 electrons
         Band energy:  10.359741;  BLOECHL correction: -0.179129
       DOS:  cpu time    0.0010: real time    0.0011
    --------------------------------------------
      LOOP:  cpu time    0.7189: real time    0.9144

 eigenvalue-minimisations  :   280
 total energy-change (2. order) : 0.1538140E+03  (-0.7188963E+03)
 number of electron      18.0000000 magnetization 
 augmentation part       18.0000000 magnetization 

 Free energy of the ion-electron system (eV)
  ---------------------------------------------------
  alpha Z        PSCENC =        12.51390764
  Ewald energy   TEWEN  =      4286.25630342
  -Hartree energ DENC   =     -4967.71356795
  -exchange      EXHF   =         0.00000000
  -V(xc)+E(xc)   XCENC  =       -36.31055783
  PAW double counting   =       406.88651198     -329.34073203
  entropy T*S    EENTRO =         0.00000000
  eigenvalues    EBANDS =        10.35974091
  atomic energy  EATOM  =       771.16239018
  Solvation  Ediel_sol  =         0.00000000
  ---------------------------------------------------
  free energy    TOTEN  =       153.81399633 eV

  energy without entropy =      153.81399633  energy(sigma->0) =      153.81399633


--------------------------------------------------------------------------------------------------------




--------------------------------------- Iteration      1(   2)  ---------------------------------------


     EDDAV:  cpu time    0.8679: real time    0.8719
 BZINTS: Fermi energy: -2.125060; 18.000000 electrons
         Band energy:-148.694868;  BLOECHL correction:  0.000000
       DOS:  cpu time    0.0000: real time    0.0002
    --------------------------------------------
      LOOP:  cpu time    0.8679: real time    0.8721

 eigenvalue-minimisations  :   474
 total energy-change (2. order) :-0.1590546E+03  (-0.1517780E+03)
 number of electron      18.0000000 magnetization 
 augmentation part       18.0000000 magnetization 

 Free energy of the ion-electron system (eV)
  ---------------------------------------------------
  alpha Z        PSCENC =        12.51390764
  Ewald energy   TEWEN  =      4286.25630342
  -Hartree energ DENC   =     -4967.71356795
  -exchange      EXHF   =         0.00000000
  -V(xc)+E(xc)   XCENC  =       -36.31055783
  PAW double counting   =       406.88651198     -329.34073203
  entropy T*S    EENTRO =         0.00000000
  eigenvalues    EBANDS =      -148.69486761
  atomic energy  EATOM  =       771.16239018
  Solvation  Ediel_sol  =         0.00000000
  ---------------------------------------------------
  free energy    TOTEN  =        -5.24061219 eV

  energy without entropy =       -5.24061219  energy(sigma->0) =       -5.24061219


--------------------------------------------------------------------------------------------------------




--------------------------------------- Iteration      1(   3)  ---------------------------------------


     EDDAV:  cpu time    0.7309: real time    0.7308
 BZINTS: Fermi energy: -3.323170; 18.000000 electrons
         Band energy:-166.444670;  BLOECHL correction:  0.000000
       DOS:  cpu time    0.0000: real time    0.0002
    --------------------------------------------
      LOOP:  cpu time    0.7309: real time    0.7310

 eigenvalue-minimisations  :   382
 total energy-change (2. order) :-0.1774980E+02  (-0.1757426E+02)
 number of electron      18.0000000 magnetization 
 augmentation part       18.0000000 magnetization 

 Free energy of the ion-electron system (eV)
  ---------------------------------------------------
  alpha Z        PSCENC =        12.51390764
  Ewald energy   TEWEN  =      4286.25630342
  -Hartree energ DENC   =     -4967.71356795
  -exchange      EXHF   =         0.00000000
  -V(xc)+E(xc)   XCENC  =       -36.31055783
  PAW double counting   =       406.88651198     -329.34073203
  entropy T*S    EENTRO =         0.00000000
  eigenvalues    EBANDS =      -166.44467050
  atomic energy  EATOM  =       771.16239018
  Solvation  Ediel_sol  =         0.00000000
  ---------------------------------------------------
  free energy    TOTEN  =       -22.99041508 eV

  energy without entropy =      -22.99041508  energy(sigma->0) =      -22.99041508


--------------------------------------------------------------------------------------------------------




--------------------------------------- Iteration      1(   4)  ---------------------------------------


     EDDAV:  cpu time    0.7209: real time    0.7239
 BZINTS: Fermi energy: -3.344694; 18.000000 electrons
         Band energy:-166.853865;  BLOECHL correction:  0.000000
       DOS:  cpu time    0.0000: real time    0.0002
    --------------------------------------------
      LOOP:  cpu time    0.7209: real time    0.7241

 eigenvalue-minimisations  :   376
 total energy-change (2. order) :-0.4091941E+00  (-0.4065885E+00)
 number of electron      18.0000000 magnetization 
 augmentation part       18.0000000 magnetization 

 Free energy of the ion-electron system (eV)
  ---------------------------------------------------
  alpha Z        PSCENC =        12.51390764
  Ewald energy   TEWEN  =      4286.25630342
  -Hartree energ DENC   =     -4967.71356795
  -exchange      EXHF   =         0.00000000
  -V(xc)+E(xc)   XCENC  =       -36.31055783
  PAW double counting   =       406.88651198     -329.34073203
  entropy T*S    EENTRO =         0.00000000
  eigenvalues    EBANDS =      -166.85386461
  atomic energy  EATOM  =       771.16239018
  Solvation  Ediel_sol  =         0.00000000
  ---------------------------------------------------
  free energy    TOTEN  =       -23.39960919 eV

  energy without entropy =      -23.39960919  energy(sigma->0) =      -23.39960919


--------------------------------------------------------------------------------------------------------




--------------------------------------- Iteration      1(   5)  ---------------------------------------


     EDDAV:  cpu time    0.6759: real time    0.6761
 BZINTS: Fermi energy: -3.372217; 18.000000 electrons
         Band energy:-166.864001;  BLOECHL correction:  0.000000
       DOS:  cpu time    0.0000: real time    0.0002
    CHARGE:  cpu time    0.0530: real time    0.0530
    MIXING:  cpu time    0.0040: real time    0.0038
    --------------------------------------------
      LOOP:  cpu time    0.7329: real time    0.7331

 eigenvalue-minimisations  :   346
 total energy-change (2. order) :-0.1013590E-01  (-0.1013404E-01)
 number of electron      18.0000002 magnetization 
 augmentation part       -0.9448372 magnetization 

 Broyden mixing:
  rms(total) = 0.68891E+00    rms(broyden)= 0.68891E+00
  rms(prec ) = 0.74617E+00
  weight for this iteration     100.00

 Free energy of the ion-electron system (eV)
  ---------------------------------------------------
  alpha Z        PSCENC =        12.51390764
  Ewald energy   TEWEN  =      4286.25630342
  -Hartree energ DENC   =     -4967.71356795
  -exchange      EXHF   =         0.00000000
  -V(xc)+E(xc)   XCENC  =       -36.31055783
  PAW double counting   =       406.88651198     -329.34073203
  entropy T*S    EENTRO =         0.00000000
  eigenvalues    EBANDS =      -166.86400050
  atomic energy  EATOM  =       771.16239018
  Solvation  Ediel_sol  =         0.00000000
  ---------------------------------------------------
  free energy    TOTEN  =       -23.40974509 eV

  energy without entropy =      -23.40974509  energy(sigma->0) =      -23.40974509


--------------------------------------------------------------------------------------------------------




--------------------------------------- Iteration      1(   6)  ---------------------------------------


    POTLOK:  cpu time    0.1190: real time    0.1232
    SETDIJ:  cpu time    0.0050: real time    0.0038
    EDDIAG:  cpu time    0.1100: real time    0.1107
  RMM-DIIS:  cpu time    0.5149: real time    0.5147
    ORTHCH:  cpu time    0.0090: real time    0.0089
 BZINTS: Fermi energy: -4.365448; 18.000000 electrons
         Band energy:-167.355920;  BLOECHL correction:  0.000000
       DOS:  cpu time    0.0000: real time    0.0002
    CHARGE:  cpu time    0.0530: real time    0.0529
    MIXING:  cpu time    0.0040: real time    0.0037
    --------------------------------------------
      LOOP:  cpu time    0.8149: real time    0.8181

 eigenvalue-minimisations  :   296
 total energy-change (2. order) : 0.1160447E+01  (-0.5441834E+00)
 number of electron      18.0000002 magnetization 
 augmentation part       -0.3983032 magnetization 

 Broyden mixing:
  rms(total) = 0.26129E+00    rms(broyden)= 0.26129E+00
  rms(prec ) = 0.30694E+00
  weight for this iteration     100.00

 eigenvalues of (default mixing * dielectric matrix)
  average eigenvalue GAMMA=   0.8341
  0.8341

 Free energy of the ion-electron system (eV)
  ---------------------------------------------------
  alpha Z        PSCENC =        12.51390764
  Ewald energy   TEWEN  =      4286.25630342
  -Hartree energ DENC   =     -4966.05853848
  -exchange      EXHF   =         0.00000000
  -V(xc)+E(xc)   XCENC  =       -35.42311186
  PAW double counting   =       423.88405894     -347.22838750
  entropy T*S    EENTRO =         0.00000000
  eigenvalues    EBANDS =      -167.35592010
  atomic energy  EATOM  =       771.16239018
  Solvation  Ediel_sol  =         0.00000000
  ---------------------------------------------------
  free energy    TOTEN  =       -22.24929776 eV

  energy without entropy =      -22.24929776  energy(sigma->0) =      -22.24929776


--------------------------------------------------------------------------------------------------------




--------------------------------------- Iteration      1(   7)  ---------------------------------------


    POTLOK:  cpu time    0.1080: real time    0.1083
    SETDIJ:  cpu time    0.0040: real time    0.0037
    EDDIAG:  cpu time    0.1090: real time    0.1095
  RMM-DIIS:  cpu time    0.4979: real time    0.4977
    ORTHCH:  cpu time    0.0090: real time    0.0090
 BZINTS: Fermi energy: -3.803124; 18.000000 electrons
         Band energy:-161.212185;  BLOECHL correction:  0.000000
       DOS:  cpu time    0.0000: real time    0.0002
    CHARGE:  cpu time    0.0530: real time    0.0528
    MIXING:  cpu time    0.0040: real time    0.0037
    --------------------------------------------
      LOOP:  cpu time    0.7849: real time    0.7850

 eigenvalue-minimisations  :   294
 total energy-change (2. order) : 0.3850370E+00  (-0.5520037E-01)
 number of electron      18.0000002 magnetization 
 augmentation part       -0.5981311 magnetization 

 Broyden mixing:
  rms(total) = 0.14977E+00    rms(broyden)= 0.14977E+00
  rms(prec ) = 0.15811E+00
  weight for this iteration     100.00

 eigenvalues of (default mixing * dielectric matrix)
  average eigenvalue GAMMA=   1.3610
  0.6663  2.0557

 Free energy of the ion-electron system (eV)
  ---------------------------------------------------
  alpha Z        PSCENC =        12.51390764
  Ewald energy   TEWEN  =      4286.25630342
  -Hartree energ DENC   =     -4971.44241343
  -exchange      EXHF   =         0.00000000
  -V(xc)+E(xc)   XCENC  =       -35.56622718
  PAW double counting   =       441.26790006     -364.84393627
  entropy T*S    EENTRO =         0.00000000
  eigenvalues    EBANDS =      -161.21218521
  atomic energy  EATOM  =       771.16239018
  Solvation  Ediel_sol  =         0.00000000
  ---------------------------------------------------
  free energy    TOTEN  =       -21.86426078 eV

  energy without entropy =      -21.86426078  energy(sigma->0) =      -21.86426078


--------------------------------------------------------------------------------------------------------




--------------------------------------- Iteration      1(   8)  ---------------------------------------


    POTLOK:  cpu time    0.1080: real time    0.1115
    SETDIJ:  cpu time    0.0040: real time    0.0038
    EDDIAG:  cpu time    0.1090: real time    0.1090
  RMM-DIIS:  cpu time    0.5259: real time    0.5264
    ORTHCH:  cpu time    0.0090: real time    0.0089
 BZINTS: Fermi energy: -3.707113; 18.000000 electrons
         Band energy:-157.003378;  BLOECHL correction:  0.000000
       DOS:  cpu time    0.0000: real time    0.0002
    CHARGE:  cpu time    0.0530: real time    0.0527
    MIXING:  cpu time    0.0040: real time    0.0045
    --------------------------------------------
      LOOP:  cpu time    0.8129: real time    0.8169

 eigenvalue-minimisations  :   309
 total energy-change (2. order) : 0.5982344E-01  (-0.2326152E-01)
 number of electron      18.0000002 magnetization 
 augmentation part       -0.5514022 magnetization 

 Broyden mixing:
  rms(total) = 0.35559E-01    rms(broyden)= 0.35559E-01
  rms(prec ) = 0.37906E-01
  weight for this iteration     100.00

 eigenvalues of (default mixing * dielectric matrix)
  average eigenvalue GAMMA=   1.5000
  1.9174  1.9174  0.6650

 Free energy of the ion-electron system (eV)
  ---------------------------------------------------
  alpha Z        PSCENC =        12.51390764
  Ewald energy   TEWEN  =      4286.25630342
  -Hartree energ DENC   =     -4975.34666399
  -exchange      EXHF   =         0.00000000
  -V(xc)+E(xc)   XCENC  =       -35.29518829
  PAW double counting   =       464.73503026     -388.82683821
  entropy T*S    EENTRO =         0.00000000
  eigenvalues    EBANDS =      -157.00337835
  atomic energy  EATOM  =       771.16239018
  Solvation  Ediel_sol  =         0.00000000
  ---------------------------------------------------
  free energy    TOTEN  =       -21.80443734 eV

  energy without entropy =      -21.80443734  energy(sigma->0) =      -21.80443734


--------------------------------------------------------------------------------------------------------




--------------------------------------- Iteration      1(   9)  ---------------------------------------


    POTLOK:  cpu time    0.1070: real time    0.1082
    SETDIJ:  cpu time    0.0050: real time    0.0037
    EDDIAG:  cpu time    0.1090: real time    0.1090
  RMM-DIIS:  cpu time    0.5799: real time    0.5801
    ORTHCH:  cpu time    0.0090: real time    0.0089
 BZINTS: Fermi energy: -3.634945; 18.000000 electrons
         Band energy:-155.681801;  BLOECHL correction:  0.000000
       DOS:  cpu time    0.0000: real time    0.0002
    CHARGE:  cpu time    0.0520: real time    0.0527
    MIXING:  cpu time    0.0050: real time    0.0041
    --------------------------------------------
      LOOP:  cpu time    0.8669: real time    0.8669

 eigenvalue-minimisations  :   335
 total energy-change (2. order) : 0.4833620E-02  (-0.8800184E-03)
 number of electron      18.0000002 magnetization 
 augmentation part       -0.5459687 magnetization 

 Broyden mixing:
  rms(total) = 0.96689E-02    rms(broyden)= 0.96689E-02
  rms(prec ) = 0.11929E-01
  weight for this iteration     100.00

 eigenvalues of (default mixing * dielectric matrix)
  average eigenvalue GAMMA=   1.5073
  0.6676  1.0467  2.4342  1.8806

 Free energy of the ion-electron system (eV)
  ---------------------------------------------------
  alpha Z        PSCENC =        12.51390764
  Ewald energy   TEWEN  =      4286.25630342
  -Hartree energ DENC   =     -4976.63718296
  -exchange      EXHF   =         0.00000000
  -V(xc)+E(xc)   XCENC  =       -35.24048265
  PAW double counting   =       470.15383065     -394.32656899
  entropy T*S    EENTRO =         0.00000000
  eigenvalues    EBANDS =      -155.68180102
  atomic energy  EATOM  =       771.16239018
  Solvation  Ediel_sol  =         0.00000000
  ---------------------------------------------------
  free energy    TOTEN  =       -21.79960372 eV

  energy without entropy =      -21.79960372  energy(sigma->0) =      -21.79960372


--------------------------------------------------------------------------------------------------------




--------------------------------------- Iteration      1(  10)  ---------------------------------------


    POTLOK:  cpu time    0.1080: real time    0.1113
    SETDIJ:  cpu time    0.0040: real time    0.0037
    EDDIAG:  cpu time    0.1090: real time    0.1087
  RMM-DIIS:  cpu time    0.5719: real time    0.5720
    ORTHCH:  cpu time    0.0080: real time    0.0089
 BZINTS: Fermi energy: -3.577545; 18.000000 electrons
         Band energy:-154.554944;  BLOECHL correction:  0.000000
       DOS:  cpu time    0.0000: real time    0.0002
    CHARGE:  cpu time    0.0530: real time    0.0526
    MIXING:  cpu time    0.0040: real time    0.0043
    --------------------------------------------
      LOOP:  cpu time    0.8579: real time    0.8618

 eigenvalue-minimisations  :   334
 total energy-change (2. order) : 0.7491642E-03  (-0.1702469E-03)
 number of electron      18.0000002 magnetization 
 augmentation part       -0.5506958 magnetization 

 Broyden mixing:
  rms(total) = 0.44228E-02    rms(broyden)= 0.44228E-02
  rms(prec ) = 0.60790E-02
  weight for this iteration     100.00

 eigenvalues of (default mixing * dielectric matrix)
  average eigenvalue GAMMA=   1.6693
  0.6682  1.0348  2.1695  2.2369  2.2369

 Free energy of the ion-electron system (eV)
  ---------------------------------------------------
  alpha Z        PSCENC =        12.51390764
  Ewald energy   TEWEN  =      4286.25630342
  -Hartree energ DENC   =     -4977.75431930
  -exchange      EXHF   =         0.00000000
  -V(xc)+E(xc)   XCENC  =       -35.21979400
  PAW double counting   =       472.37894810     -396.58134709
  entropy T*S    EENTRO =         0.00000000
  eigenvalues    EBANDS =      -154.55494350
  atomic energy  EATOM  =       771.16239018
  Solvation  Ediel_sol  =         0.00000000
  ---------------------------------------------------
  free energy    TOTEN  =       -21.79885455 eV

  energy without entropy =      -21.79885455  energy(sigma->0) =      -21.79885455


--------------------------------------------------------------------------------------------------------




--------------------------------------- Iteration      1(  11)  ---------------------------------------


    POTLOK:  cpu time    0.1070: real time    0.1066
    SETDIJ:  cpu time    0.0040: real time    0.0038
    EDDIAG:  cpu time    0.1080: real time    0.1084
  RMM-DIIS:  cpu time    0.5499: real time    0.5497
    ORTHCH:  cpu time    0.0080: real time    0.0089
 BZINTS: Fermi energy: -3.519666; 18.000000 electrons
         Band energy:-153.418696;  BLOECHL correction:  0.000000
       DOS:  cpu time    0.0000: real time    0.0002
    CHARGE:  cpu time    0.0530: real time    0.0528
    MIXING:  cpu time    0.0050: real time    0.0044
    --------------------------------------------
      LOOP:  cpu time    0.8349: real time    0.8347

 eigenvalue-minimisations  :   314
 total energy-change (2. order) : 0.9328724E-04  (-0.1716699E-03)
 number of electron      18.0000002 magnetization 
 augmentation part       -0.5468245 magnetization 

 Broyden mixing:
  rms(total) = 0.55838E-02    rms(broyden)= 0.55838E-02
  rms(prec ) = 0.64264E-02
  weight for this iteration     100.00

 eigenvalues of (default mixing * dielectric matrix)
  average eigenvalue GAMMA=   1.6741
  2.9310  2.6723  0.6689  0.9316  1.4203  1.4203

 Free energy of the ion-electron system (eV)
  ---------------------------------------------------
  alpha Z        PSCENC =        12.51390764
  Ewald energy   TEWEN  =      4286.25630342
  -Hartree energ DENC   =     -4978.91390151
  -exchange      EXHF   =         0.00000000
  -V(xc)+E(xc)   XCENC  =       -35.20569850
  PAW double counting   =       471.83561518     -396.02868171
  entropy T*S    EENTRO =         0.00000000
  eigenvalues    EBANDS =      -153.41869597
  atomic energy  EATOM  =       771.16239018
  Solvation  Ediel_sol  =         0.00000000
  ---------------------------------------------------
  free energy    TOTEN  =       -21.79876126 eV

  energy without entropy =      -21.79876126  energy(sigma->0) =      -21.79876126


--------------------------------------------------------------------------------------------------------




--------------------------------------- Iteration      1(  12)  ---------------------------------------


    POTLOK:  cpu time    0.1080: real time    0.1099
    SETDIJ:  cpu time    0.0040: real time    0.0037
    EDDIAG:  cpu time    0.1080: real time    0.1086
  RMM-DIIS:  cpu time    0.5239: real time    0.5236
    ORTHCH:  cpu time    0.0080: real time    0.0089
 BZINTS: Fermi energy: -3.484496; 18.000000 electrons
         Band energy:-152.763228;  BLOECHL correction:  0.000000
       DOS:  cpu time    0.0010: real time    0.0002
    CHARGE:  cpu time    0.0520: real time    0.0526
    MIXING:  cpu time    0.0050: real time    0.0046
    --------------------------------------------
      LOOP:  cpu time    0.8099: real time    0.8121

 eigenvalue-minimisations  :   302
 total energy-change (2. order) : 0.1960088E-03  (-0.5701071E-04)
 number of electron      18.0000002 magnetization 
 augmentation part       -0.5497183 magnetization 

 Broyden mixing:
  rms(total) = 0.18091E-02    rms(broyden)= 0.18091E-02
  rms(prec ) = 0.23915E-02
  weight for this iteration     100.00

 eigenvalues of (default mixing * dielectric matrix)
  average eigenvalue GAMMA=   1.9407
  3.8364  2.7145  2.7145  0.6689  0.9622  1.4493  1.2393

 Free energy of the ion-electron system (eV)
  ---------------------------------------------------
  alpha Z        PSCENC =        12.51390764
  Ewald energy   TEWEN  =      4286.25630342
  -Hartree energ DENC   =     -4979.57479686
  -exchange      EXHF   =         0.00000000
  -V(xc)+E(xc)   XCENC  =       -35.20269806
  PAW double counting   =       471.99670848     -396.18715223
  entropy T*S    EENTRO =         0.00000000
  eigenvalues    EBANDS =      -152.76322783
  atomic energy  EATOM  =       771.16239018
  Solvation  Ediel_sol  =         0.00000000
  ---------------------------------------------------
  free energy    TOTEN  =       -21.79856526 eV

  energy without entropy =      -21.79856526  energy(sigma->0) =      -21.79856526


--------------------------------------------------------------------------------------------------------




--------------------------------------- Iteration      1(  13)  ---------------------------------------


    POTLOK:  cpu time    0.1120: real time    0.1109
    SETDIJ:  cpu time    0.0030: real time    0.0037
    EDDIAG:  cpu time    0.1090: real time    0.1086
  RMM-DIIS:  cpu time    0.4869: real time    0.4872
    ORTHCH:  cpu time    0.0090: real time    0.0089
 BZINTS: Fermi energy: -3.446239; 18.000000 electrons
         Band energy:-152.056364;  BLOECHL correction:  0.000000
       DOS:  cpu time    0.0000: real time    0.0002
    CHARGE:  cpu time    0.0530: real time    0.0527
    MIXING:  cpu time    0.0050: real time    0.0049
    --------------------------------------------
      LOOP:  cpu time    0.7779: real time    0.7771

 eigenvalue-minimisations  :   287
 total energy-change (2. order) :-0.2602361E-03  (-0.1591152E-04)
 number of electron      18.0000002 magnetization 
 augmentation part       -0.5480539 magnetization 

 Broyden mixing:
  rms(total) = 0.20139E-02    rms(broyden)= 0.20139E-02
  rms(prec ) = 0.22695E-02
  weight for this iteration     100.00

 eigenvalues of (default mixing * dielectric matrix)
  average eigenvalue GAMMA=   1.9018
  4.7314  2.7082  2.3885  1.4199  1.4199  0.6690  0.9385  0.9385

 Free energy of the ion-electron system (eV)
  ---------------------------------------------------
  alpha Z        PSCENC =        12.51390764
  Ewald energy   TEWEN  =      4286.25630342
  -Hartree energ DENC   =     -4980.28371220
  -exchange      EXHF   =         0.00000000
  -V(xc)+E(xc)   XCENC  =       -35.19592138
  PAW double counting   =       471.93723730     -396.13266616
  entropy T*S    EENTRO =         0.00000000
  eigenvalues    EBANDS =      -152.05636430
  atomic energy  EATOM  =       771.16239018
  Solvation  Ediel_sol  =         0.00000000
  ---------------------------------------------------
  free energy    TOTEN  =       -21.79882549 eV

  energy without entropy =      -21.79882549  energy(sigma->0) =      -21.79882549


--------------------------------------------------------------------------------------------------------




--------------------------------------- Iteration      1(  14)  ---------------------------------------


    POTLOK:  cpu time    0.1120: real time    0.1152
    SETDIJ:  cpu time    0.0040: real time    0.0037
    EDDIAG:  cpu time    0.1080: real time    0.1085
  RMM-DIIS:  cpu time    0.4589: real time    0.4580
    ORTHCH:  cpu time    0.0080: real time    0.0089
 BZINTS: Fermi energy: -3.437362; 18.000000 electrons
         Band energy:-151.897710;  BLOECHL correction:  0.000000
       DOS:  cpu time    0.0010: real time    0.0002
    CHARGE:  cpu time    0.0520: real time    0.0526
    MIXING:  cpu time    0.0050: real time    0.0051
    --------------------------------------------
      LOOP:  cpu time    0.7489: real time    0.7523

 eigenvalue-minimisations  :   257
 total energy-change (2. order) :-0.3305647E-04  (-0.2611668E-05)
 number of electron      18.0000002 magnetization 
 augmentation part       -0.5492165 magnetization 

 Broyden mixing:
  rms(total) = 0.50786E-03    rms(broyden)= 0.50786E-03
  rms(prec ) = 0.69577E-03
  weight for this iteration     100.00

 eigenvalues of (default mixing * dielectric matrix)
  average eigenvalue GAMMA=   2.1591
  6.4237  2.9715  2.3885  2.3885  1.5178  0.6690  1.1741  0.9493  0.9493

 Free energy of the ion-electron system (eV)
  ---------------------------------------------------
  alpha Z        PSCENC =        12.51390764
  Ewald energy   TEWEN  =      4286.25630342
  -Hartree energ DENC   =     -4980.44473294
  -exchange      EXHF   =         0.00000000
  -V(xc)+E(xc)   XCENC  =       -35.19800369
  PAW double counting   =       471.76417304     -395.95518652
  entropy T*S    EENTRO =         0.00000000
  eigenvalues    EBANDS =      -151.89770968
  atomic energy  EATOM  =       771.16239018
  Solvation  Ediel_sol  =         0.00000000
  ---------------------------------------------------
  free energy    TOTEN  =       -21.79885855 eV

  energy without entropy =      -21.79885855  energy(sigma->0) =      -21.79885855


--------------------------------------------------------------------------------------------------------




--------------------------------------- Iteration      1(  15)  ---------------------------------------


    POTLOK:  cpu time    0.1150: real time    0.1144
    SETDIJ:  cpu time    0.0030: real time    0.0037
    EDDIAG:  cpu time    0.1090: real time    0.1084
  RMM-DIIS:  cpu time    0.3739: real time    0.3736
    ORTHCH:  cpu time    0.0080: real time    0.0089
 BZINTS: Fermi energy: -3.428048; 18.000000 electrons
         Band energy:-151.740023;  BLOECHL correction:  0.000000
       DOS:  cpu time    0.0000: real time    0.0002
    CHARGE:  cpu time    0.0530: real time    0.0524
    MIXING:  cpu time    0.0050: real time    0.0053
    --------------------------------------------
      LOOP:  cpu time    0.6669: real time    0.6669

 eigenvalue-minimisations  :   195
 total energy-change (2. order) :-0.1114155E-03  (-0.1162783E-05)
 number of electron      18.0000002 magnetization 
 augmentation part       -0.5490080 magnetization 

 Broyden mixing:
  rms(total) = 0.27910E-03    rms(broyden)= 0.27910E-03
  rms(prec ) = 0.37165E-03
  weight for this iteration     100.00

 eigenvalues of (default mixing * dielectric matrix)
  average eigenvalue GAMMA=   2.1427
  6.4857  3.5672  2.6178  1.7645  1.7645  1.5635  0.6690  1.0355  1.0240  0.9351

 Free energy of the ion-electron system (eV)
  ---------------------------------------------------
  alpha Z        PSCENC =        12.51390764
  Ewald energy   TEWEN  =      4286.25630342
  -Hartree energ DENC   =     -4980.60260657
  -exchange      EXHF   =         0.00000000
  -V(xc)+E(xc)   XCENC  =       -35.19786566
  PAW double counting   =       471.78897505     -395.98005135
  entropy T*S    EENTRO =         0.00000000
  eigenvalues    EBANDS =      -151.74002267
  atomic energy  EATOM  =       771.16239018
  Solvation  Ediel_sol  =         0.00000000
  ---------------------------------------------------
  free energy    TOTEN  =       -21.79896996 eV

  energy without entropy =      -21.79896996  energy(sigma->0) =      -21.79896996


--------------------------------------------------------------------------------------------------------




--------------------------------------- Iteration      1(  16)  ---------------------------------------


    POTLOK:  cpu time    0.1150: real time    0.1181
    SETDIJ:  cpu time    0.0040: real time    0.0038
    EDDIAG:  cpu time    0.1080: real time    0.1083
  RMM-DIIS:  cpu time    0.3619: real time    0.3615
    ORTHCH:  cpu time    0.0090: real time    0.0089
 BZINTS: Fermi energy: -3.424210; 18.000000 electrons
         Band energy:-151.679836;  BLOECHL correction:  0.000000
       DOS:  cpu time    0.0000: real time    0.0002
    CHARGE:  cpu time    0.0520: real time    0.0525
    MIXING:  cpu time    0.0060: real time    0.0055
    --------------------------------------------
      LOOP:  cpu time    0.6559: real time    0.6589

 eigenvalue-minimisations  :   185
 total energy-change (2. order) :-0.3285213E-04  (-0.4667124E-06)
 number of electron      18.0000002 magnetization 
 augmentation part       -0.5491410 magnetization 

 Broyden mixing:
  rms(total) = 0.17652E-03    rms(broyden)= 0.17652E-03
  rms(prec ) = 0.22194E-03
  weight for this iteration     100.00

 eigenvalues of (default mixing * dielectric matrix)
  average eigenvalue GAMMA=   2.2899
  7.2945  3.8439  2.9709  2.6292  2.1477  1.5605  0.6690  1.0924  1.0842  0.9777
  0.9195

 Free energy of the ion-electron system (eV)
  ---------------------------------------------------
  alpha Z        PSCENC =        12.51390764
  Ewald energy   TEWEN  =      4286.25630342
  -Hartree energ DENC   =     -4980.66189259
  -exchange      EXHF   =         0.00000000
  -V(xc)+E(xc)   XCENC  =       -35.19774733
  PAW double counting   =       471.84603060     -396.03815833
  entropy T*S    EENTRO =         0.00000000
  eigenvalues    EBANDS =      -151.67983640
  atomic energy  EATOM  =       771.16239018
  Solvation  Ediel_sol  =         0.00000000
  ---------------------------------------------------
  free energy    TOTEN  =       -21.79900282 eV

  energy without entropy =      -21.79900282  energy(sigma->0) =      -21.79900282


--------------------------------------------------------------------------------------------------------




--------------------------------------- Iteration      1(  17)  ---------------------------------------


    POTLOK:  cpu time    0.1130: real time    0.1130
    SETDIJ:  cpu time    0.0040: real time    0.0037
    EDDIAG:  cpu time    0.1080: real time    0.1085
  RMM-DIIS:  cpu time    0.3320: real time    0.3311
    ORTHCH:  cpu time    0.0080: real time    0.0089
 BZINTS: Fermi energy: -3.422424; 18.000000 electrons
         Band energy:-151.641601;  BLOECHL correction:  0.000000
       DOS:  cpu time    0.0000: real time    0.0002
    CHARGE:  cpu time    0.0530: real time    0.0524
    MIXING:  cpu time    0.0060: real time    0.0058
    --------------------------------------------
      LOOP:  cpu time    0.6239: real time    0.6236

 eigenvalue-minimisations  :   163
 total energy-change (2. order) :-0.4284773E-04  (-0.3247205E-06)
 number of electron      18.0000002 magnetization 
 augmentation part       -0.5491508 magnetization 

 Broyden mixing:
  rms(total) = 0.13561E-03    rms(broyden)= 0.13561E-03
  rms(prec ) = 0.15752E-03
  weight for this iteration     100.00

 eigenvalues of (default mixing * dielectric matrix)
  average eigenvalue GAMMA=   2.3185
  7.7226  4.9403  2.9219  2.4781  2.1294  1.5006  1.5006  0.6690  1.0484  1.0484
  0.9312  0.9312

 Free energy of the ion-electron system (eV)
  ---------------------------------------------------
  alpha Z        PSCENC =        12.51390764
  Ewald energy   TEWEN  =      4286.25630342
  -Hartree energ DENC   =     -4980.70102471
  -exchange      EXHF   =         0.00000000
  -V(xc)+E(xc)   XCENC  =       -35.19787543
  PAW double counting   =       471.80089241     -395.99203815
  entropy T*S    EENTRO =         0.00000000
  eigenvalues    EBANDS =      -151.64160104
  atomic energy  EATOM  =       771.16239018
  Solvation  Ediel_sol  =         0.00000000
  ---------------------------------------------------
  free energy    TOTEN  =       -21.79904566 eV

  energy without entropy =      -21.79904566  energy(sigma->0) =      -21.79904566


--------------------------------------------------------------------------------------------------------




--------------------------------------- Iteration      1(  18)  ---------------------------------------


    POTLOK:  cpu time    0.1110: real time    0.1145
    SETDIJ:  cpu time    0.0050: real time    0.0037
    EDDIAG:  cpu time    0.1080: real time    0.1084
  RMM-DIIS:  cpu time    0.2880: real time    0.2881
    ORTHCH:  cpu time    0.0090: real time    0.0088
 BZINTS: Fermi energy: -3.422543; 18.000000 electrons
         Band energy:-151.642203;  BLOECHL correction:  0.000000
       DOS:  cpu time    0.0000: real time    0.0002
    --------------------------------------------
      LOOP:  cpu time    0.5209: real time    0.5238

 eigenvalue-minimisations  :    85
 total energy-change (2. order) :-0.8037311E-05  (-0.4465858E-07)
 number of electron      18.0000002 magnetization 
 augmentation part       -0.5491508 magnetization 

 Free energy of the ion-electron system (eV)
  ---------------------------------------------------
  alpha Z        PSCENC =        12.51390764
  Ewald energy   TEWEN  =      4286.25630342
  -Hartree energ DENC   =     -4980.70024888
  -exchange      EXHF   =         0.00000000
  -V(xc)+E(xc)   XCENC  =       -35.19784973
  PAW double counting   =       471.80981613     -396.00116945
  entropy T*S    EENTRO =         0.00000000
  eigenvalues    EBANDS =      -151.64220302
  atomic energy  EATOM  =       771.16239018
  Solvation  Ediel_sol  =         0.00000000
  ---------------------------------------------------
  free energy    TOTEN  =       -21.79905370 eV

  energy without entropy =      -21.79905370  energy(sigma->0) =      -21.79905370


--------------------------------------------------------------------------------------------------------




 average (electrostatic) potential at core
  the test charge radii are     1.2296  0.9698
  (the norm of the test charge is              1.0000)
       1 -46.8732       2 -94.7153       3 -94.7153
 
 
 
 E-fermi :  -3.4225     XC(G=0):  -2.8704     alpha+bet : -2.6672


 k-point     1 :       0.0000    0.0000    0.0000
  band No.  band energies     occupation 
      1     -17.4635      2.00000
      2     -16.2554      2.00000
      3      -8.9844      2.00000
      4      -6.0236      2.00000
      5      -6.0236      2.00000
      6      -5.1622      2.00000
      7      -4.9180      2.00000
      8      -4.9180      2.00000
      9      -3.4419      2.00000
     10      -0.6704      0.00000
     11      -0.6703      0.00000
     12      -0.4466      0.00000
     13      -0.4466      0.00000
     14       1.9922      0.00000

 k-point     2 :       0.1250    0.0000    0.0000
  band No.  band energies     occupation 
      1     -17.2493      2.00000
      2     -16.1530      2.00000
      3      -8.7398      2.00000
      4      -6.4870      2.00000
      5      -5.9703      2.00000
      6      -5.7892      2.00000
      7      -5.2538      2.00000
      8      -4.4848      2.00000
      9      -3.5803      2.00000
     10      -0.9504      0.00000
     11      -0.8846      0.00000
     12      -0.6832      0.00000
     13      -0.3156      0.00000
     14       2.3617      0.00000

 k-point     3 :       0.2500    0.0000    0.0000
  band No.  band energies     occupation 
      1     -16.6806      2.00000
      2     -15.8843      2.00000
      3      -8.3737      2.00000
      4      -7.2136      2.00000
      5      -6.9512      2.00000
      6      -5.8888      2.00000
      7      -5.2021      2.00000
      8      -4.7363      2.00000
      9      -4.1483      2.00000
     10      -1.2745      0.00000
     11      -1.0979      0.00000
     12      -0.5558      0.00000
     13       0.3014      0.00000
     14       3.1799      0.00000

 k-point     4 :       0.3750    0.0000    0.0000
  band No.  band energies     occupation 
      1     -16.0055      2.00000
      2     -15.5758      2.00000
      3      -8.8110      2.00000
      4      -7.8185      2.00000
      5      -7.3464      2.00000
      6      -6.3861      2.00000
      7      -5.1456      2.00000
      8      -4.6116      2.00000
      9      -4.3435      2.00000
     10      -1.2794      0.00000
     11      -1.0005      0.00000
     12       0.1627      0.00000
     13       0.6947      0.00000
     14       3.7013      0.00000

 k-point     5 :       0.5000    0.0000    0.0000
  band No.  band energies     occupation 
      1     -15.6772      2.00000
      2     -15.4325      2.00000
      3      -9.1436      2.00000
      4      -8.1835      2.00000
      5      -7.4727      2.00000
      6      -6.5667      2.00000
      7      -5.2845      2.00000
      8      -4.3845      2.00000
      9      -4.0627      2.00000
     10      -1.2571      0.00000
     11      -0.7411      0.00000
     12       0.4613      0.00000
     13       0.8102      0.00000
     14       2.7406      0.00000

 k-point     6 :       0.1250    0.1250    0.0000
  band No.  band energies     occupation 
      1     -16.8565      2.00000
      2     -15.9660      2.00000
      3      -8.3926      2.00000
      4      -7.0510      2.00000
      5      -6.5325      2.00000
      6      -6.0676      2.00000
      7      -5.4497      2.00000
      8      -4.3503      2.00000
      9      -3.9522      2.00000
     10      -1.3496      0.00000
     11      -0.9714      0.00000
     12      -0.9597      0.00000
     13       0.2793      0.00000
     14       2.9891      0.00000

 k-point     7 :       0.2500    0.1250    0.0000
  band No.  band energies     occupation 
      1     -16.2229      2.00000
      2     -15.6675      2.00000
      3      -8.4553      2.00000
      4      -7.4777      2.00000
      5      -7.2146      2.00000
      6      -6.5719      2.00000
      7      -5.3502      2.00000
      8      -4.7125      2.00000
      9      -4.2358      2.00000
     10      -1.4330      0.00000
     11      -0.9845      0.00000
     12      -0.4897      0.00000
     13       0.7871      0.00000
     14       3.9297      0.00000

 k-point     8 :       0.3750    0.1250    0.0000
  band No.  band energies     occupation 
      1     -15.6925      2.00000
      2     -15.4236      2.00000
      3      -8.8563      2.00000
      4      -8.2407      2.00000
      5      -7.3450      2.00000
      6      -6.5887      2.00000
      7      -5.3351      2.00000
      8      -5.1943      2.00000
      9      -3.9089      2.00000
     10      -1.2382      0.00000
     11      -0.7279      0.00000
     12       0.1320      0.00000
     13       0.8208      0.00000
     14       3.2674      0.00000

 k-point     9 :       0.2500    0.2500    0.0000
  band No.  band energies     occupation 
      1     -15.7074      2.00000
      2     -15.4146      2.00000
      3      -8.4959      2.00000
      4      -8.2915      2.00000
      5      -7.0178      2.00000
      6      -6.6370      2.00000
      7      -6.3179      2.00000
      8      -5.0609      2.00000
      9      -3.9378      2.00000
     10      -1.2892      0.00000
     11      -0.6782      0.00000
     12      -0.3665      0.00000
     13       1.1089      0.00000
     14       4.0998      0.00000

 k-point    10 :       0.3750    0.2500    0.0000
  band No.  band energies     occupation 
      1     -15.4725      2.00000
      2     -15.2954      2.00000
      3      -8.6760      2.00000
      4      -8.3269      2.00000
      5      -7.3021      2.00000
      6      -6.6395      2.00000
      7      -6.4094      2.00000
      8      -5.4472      2.00000
      9      -3.5703      2.00000
     10      -1.6149      0.00000
     11      -0.3082      0.00000
     12      -0.1276      0.00000
     13       1.2542      0.00000
     14       3.5103      0.00000


--------------------------------------------------------------------------------------------------------


 soft charge-density along one line, spin component           1
         0         1         2         3         4         5         6         7         8         9
 total charge-density along one line
 
 pseudopotential strength for first ion, spin component:           1
 -9.986  -0.000   0.000  -0.000  -0.000   0.102   0.000  -0.000
 -0.000  -9.987  -0.000  -0.000  -0.000   0.000   0.102   0.000
  0.000  -0.000  -9.966  -0.000  -0.000  -0.000   0.000   0.101
 -0.000  -0.000  -0.000  -9.987  -0.000   0.000   0.000   0.000
 -0.000  -0.000  -0.000  -0.000  -9.986   0.000   0.000   0.000
  0.102   0.000  -0.000   0.000   0.000   0.098  -0.000   0.000
  0.000   0.102   0.000   0.000   0.000  -0.000   0.098  -0.000
 -0.000   0.000   0.101   0.000   0.000   0.000  -0.000   0.098
  0.000   0.000   0.000   0.102   0.000  -0.000  -0.000  -0.000
  0.000   0.000   0.000   0.000   0.102  -0.000  -0.000  -0.000
  0.000  -0.000  -0.005   0.000  -0.000  -0.000   0.000   0.000
 -0.000   0.000   0.001  -0.000   0.000   0.000  -0.000  -0.000
 -0.000  -0.000  -0.000  -0.000  -0.007   0.000  -0.000   0.000
 -0.000   0.000   0.000  -0.000  -0.000  -0.000  -0.000   0.000
 -0.007  -0.000   0.000  -0.000  -0.000  -0.000  -0.000  -0.000
  0.000   0.000   0.000   0.000   0.004  -0.000   0.000  -0.000
  0.000  -0.000  -0.000   0.000   0.000  -0.000   0.000   0.000
  0.004   0.000  -0.000   0.000   0.000   0.000  -0.000   0.000
 total augmentation occupancy for first ion, spin component:           1
  0.965  -0.000  -0.000  -0.000  -0.000   0.595   0.000  -0.000   0.000  -0.000  -0.000   0.000   0.000   0.000  -0.065  -0.000
  0.000   0.907   0.000   0.000   0.000   0.000   0.833   0.000   0.000   0.000   0.000   0.000   0.000   0.000   0.000  -0.000
 -0.000   0.000   1.029   0.000   0.000  -0.000  -0.000   0.495   0.000   0.000   0.111  -0.019  -0.000   0.000   0.000   0.000
  0.000   0.000   0.000   0.907   0.000   0.000   0.000  -0.000   0.833   0.000   0.000   0.000   0.000   0.000   0.000  -0.000
 -0.000  -0.000   0.000   0.000   0.965  -0.000  -0.000   0.000  -0.000   0.595   0.000  -0.000  -0.065   0.000  -0.000   0.007
  0.595   0.000  -0.000  -0.000  -0.000   0.670   0.000  -0.000   0.000  -0.000   0.000   0.000   0.000   0.000  -0.136  -0.000
  0.000   0.833   0.000   0.000   0.000   0.000   1.069   0.000   0.000   0.000   0.000   0.000   0.000   0.000  -0.000   0.000
 -0.000   0.000   0.495   0.000   0.000  -0.000  -0.000   0.470   0.000   0.000   0.058  -0.021  -0.000   0.000   0.000   0.000
  0.000   0.000  -0.000   0.833  -0.000   0.000   0.000   0.000   1.069   0.000   0.000   0.000   0.000  -0.000   0.000   0.000
 -0.000   0.000   0.000   0.000   0.595  -0.000   0.000   0.000   0.000   0.670   0.000  -0.000  -0.136   0.000  -0.000   0.023
 -0.000   0.000   0.111   0.000   0.000  -0.000   0.000   0.058   0.000   0.000   1.207  -0.186   0.000  -0.000   0.000   0.000
  0.000   0.000  -0.019  -0.000  -0.000   0.000   0.000  -0.021   0.000  -0.000  -0.186   0.042   0.000   0.000  -0.000   0.000
  0.000  -0.000  -0.000   0.000  -0.065   0.000   0.000  -0.000   0.000  -0.136   0.000   0.000   0.217  -0.000   0.000  -0.032
 -0.000   0.000   0.000  -0.000   0.000   0.000  -0.000   0.000  -0.000   0.000  -0.000   0.000  -0.000   0.264  -0.000   0.000
 -0.065   0.000   0.000   0.000  -0.000  -0.136   0.000   0.000   0.000  -0.000  -0.000  -0.000   0.000   0.000   0.217  -0.000
 -0.000   0.000   0.000   0.000   0.007  -0.000  -0.000   0.000   0.000   0.023   0.000   0.000  -0.032   0.000  -0.000   0.005
  0.000  -0.000  -0.000   0.000   0.000   0.000   0.000   0.000   0.000   0.000   0.000  -0.000   0.000  -0.038   0.000   0.000
  0.007   0.000  -0.000  -0.000   0.000   0.023   0.000  -0.000   0.000   0.000  -0.000   0.000  -0.000   0.000  -0.032   0.000


------------------------ aborting loop because EDIFF is reached ----------------------------------------


    CHARGE:  cpu time    0.0520: real time    0.0526
    FORLOC:  cpu time    0.0100: real time    0.0095
    FORNL :  cpu time    0.0810: real time    0.0810
    STRESS:  cpu time    0.4329: real time    0.4335
    FORCOR:  cpu time    0.1270: real time    0.1265
    FORHAR:  cpu time    0.0300: real time    0.0297
    MIXING:  cpu time    0.0060: real time    0.0061
    OFIELD:  cpu time    0.0000: real time    0.0000

  DFT-D2 method for vdW energy calculation
  -------------------------------------------------------------------

  Parameters of vdW forcefield:
         C6(Jnm^6/mol)     R0(A)
   -----------------------------
   Mo      24.670          1.639
   S        5.570          1.683

  IVDW =   1
  VDW_RADIUS =    50.000 A
  VDW_S6 =     0.750
  VDW_SR =     1.000
  VDW_D =    20.000
  LVDW_EWALD = F

  Number of pair interactions contributing to vdW energy:   12957
  Edisp (eV):   -0.59091
    FORVDW:  cpu time    0.0110: real time    0.0177

  FORCE on cell =-STRESS in cart. coord.  units (eV):
  Direction    XX          YY          ZZ          XY          YZ          ZX
  --------------------------------------------------------------------------------------
  Alpha Z    12.51391    12.51391    12.51391
  Ewald    4853.12264  4853.12308 -5419.98957     0.00019     0.00000     0.00012
  Hartree  4942.42682  4942.42682 -4904.15004     0.00002     0.00000    -0.00000
  E(xc)     -70.30235   -70.30236   -70.90736    -0.00000    -0.00000    -0.00000
  Local  -10076.21965-10076.21992 10037.50484    -0.00016    -0.00000    -0.00006
  n-local   127.16733   125.79068   131.68633    -0.25743    -0.00000    -0.00001
  augment   -25.56220   -25.56218   -26.66472     0.00001    -0.00000    -0.00000
  Kinetic   235.85756   238.65849   239.77594    -7.40900     0.00001     0.00002
  Fock        0.00000     0.00000     0.00000     0.00000     0.00000     0.00000
  vdW         0.16041     0.16041    -0.13425     0.00000     0.00000    -0.00000
  -------------------------------------------------------------------------------------
  Total      -0.12330    -0.12330    -0.36493     0.00000     0.00000     0.00000
  in kB      -0.83382    -0.83382    -2.46779     0.00000     0.00000     0.00000
  external pressure =       -1.38 kB  Pullay stress =        0.00 kB


 VOLUME and BASIS-vectors are now :
 -----------------------------------------------------------------------------
  energy-cutoff  :      750.00
  volume of cell :      236.93
      direct lattice vectors                 reciprocal lattice vectors
     3.190315730  0.000000000  0.000000000     0.313448600  0.180969634  0.000000000
    -1.595157865  2.762894468  0.000000000     0.000000000  0.361939267  0.000000000
     0.000000000  0.000000000 26.879004300     0.000000000  0.000000000  0.037203759

  length of vectors
     3.190315730  3.190315730 26.879004300     0.361939267  0.361939267  0.037203759


 FORCES acting on ions
    electron-ion (+dipol)            ewald-force                    non-local-force                 convergence-correction
 -----------------------------------------------------------------------------------------------
   -.114E-04 -.613E-06 0.114E-04   0.931E-04 -.108E-03 0.307E-06   0.104E-16 0.208E-16 0.847E-21   0.851E-09 -.173E-08 -.938E-07
   -.854E-03 0.495E-03 0.579E+03   -.864E-04 0.538E-04 -.584E+03   -.130E-16 0.347E-17 0.480E+01   -.142E-07 0.742E-08 0.228E-02
   0.865E-03 0.495E-03 -.579E+03   -.674E-05 0.538E-04 0.584E+03   -.243E-16 0.347E-17 -.480E+01   0.126E-07 0.742E-08 -.228E-02
 -----------------------------------------------------------------------------------------------
   -.812E-06 0.989E-03 0.691E-04   0.897E-14 0.972E-14 -.114E-12   -.269E-16 0.278E-16 0.000E+00   -.718E-09 0.131E-07 -.259E-06
 
 
 POSITION                                       TOTAL-FORCE (eV/Angst)
 -----------------------------------------------------------------------------------
     -0.00000      1.84193      3.71975        -0.000000      0.000000     -0.000000
      1.59516      0.92096      2.15487        -0.000000     -0.000000      0.114910
      1.59516      0.92096      5.28464         0.000000     -0.000000     -0.114910
 -----------------------------------------------------------------------------------
    total drift:                               -0.000001      0.000989      0.000069


--------------------------------------------------------------------------------------------------------



  FREE ENERGIE OF THE ION-ELECTRON SYSTEM (eV)
  ---------------------------------------------------
  free  energy   TOTEN  =       -22.38996276 eV

  energy  without entropy=      -22.38996276  energy(sigma->0) =      -22.38996276
 


--------------------------------------------------------------------------------------------------------


    POTLOK:  cpu time    0.1160: real time    0.1156


--------------------------------------------------------------------------------------------------------


     LOOP+:  cpu time   15.2457: real time   15.5648
    4ORBIT:  cpu time    0.0000: real time    0.0000
 BZINTS: Fermi energy: -3.422543; 18.000000 electrons
         Band energy:-151.642203;  BLOECHL correction:  0.000000

 total amount of memory used by VASP MPI-rank0    74845. kBytes
=======================================================================

   base      :      30000. kBytes
   nonl-proj :      16262. kBytes
   fftplans  :       8567. kBytes
   grid      :      13736. kBytes
   one-center:         31. kBytes
   wavefun   :       6249. kBytes
 
  
  
 General timing and accounting informations for this job:
 ========================================================
  
                  Total CPU time used (sec):       16.984
                            User time (sec):       16.436
                          System time (sec):        0.549
                         Elapsed time (sec):       17.585
  
                   Maximum memory used (kb):       76192.
                   Average memory used (kb):           0.
  
                          Minor page faults:        19478
                          Major page faults:          175
                 Voluntary context switches:         2811
