perl: warning: Setting locale failed.
perl: warning: Please check that your locale settings:
	LANGUAGE = (unset),
	LC_ALL = (unset),
	LC_CTYPE = "UTF-8",
	LANG = "en_US.iso885915"
    are supported and installed on your system.
perl: warning: Falling back to the standard locale ("C").
Starting job 28532696 ("jobname") on c15-26 at Fri Nov 8 11:59:21 CET 2019
 running on    4 total cores
 distrk:  each k-point on    4 cores,    1 groups
 distr:  one band on    2 cores,    2 groups
 using from now: INCAR     
 vasp.5.4.4.18Apr17-6-g9f103f2a35 (build Jun 30 2017 11:15:00) complex          
  
 POSCAR found type information on POSCAR  Mo S 
 POSCAR found :  2 types and       3 ions
 scaLAPACK will be used
 WARNING: PSMAXN for non-local potential too small
 LDA part: xc-table for Pade appr. of Perdew
 POSCAR, INCAR and KPOINTS ok, starting setup
 FFT: planning ...
 WAVECAR not read
 entering main loop
       N       E                     dE             d eps       ncg     rms          rms(c)
DAV:   1     0.153813996329E+03    0.15381E+03   -0.71890E+03   280   0.123E+03
DAV:   2    -0.524061219244E+01   -0.15905E+03   -0.15178E+03   474   0.182E+02
DAV:   3    -0.229904150782E+02   -0.17750E+02   -0.17574E+02   382   0.778E+01
DAV:   4    -0.233996091905E+02   -0.40919E+00   -0.40659E+00   376   0.144E+01
DAV:   5    -0.234097450857E+02   -0.10136E-01   -0.10134E-01   346   0.220E+00    0.689E+00
RMM:   6    -0.222492977616E+02    0.11604E+01   -0.54418E+00   296   0.125E+01    0.261E+00
RMM:   7    -0.218642607768E+02    0.38504E+00   -0.55200E-01   294   0.341E+00    0.150E+00
RMM:   8    -0.218044373367E+02    0.59823E-01   -0.23262E-01   309   0.252E+00    0.356E-01
RMM:   9    -0.217996037162E+02    0.48336E-02   -0.88002E-03   335   0.613E-01    0.967E-02
RMM:  10    -0.217988545520E+02    0.74916E-03   -0.17025E-03   334   0.224E-01    0.442E-02
RMM:  11    -0.217987612648E+02    0.93287E-04   -0.17167E-03   314   0.196E-01    0.558E-02
RMM:  12    -0.217985652559E+02    0.19601E-03   -0.57011E-04   302   0.135E-01    0.181E-02
RMM:  13    -0.217988254920E+02   -0.26024E-03   -0.15912E-04   287   0.729E-02    0.201E-02
RMM:  14    -0.217988585485E+02   -0.33056E-04   -0.26117E-05   257   0.284E-02    0.508E-03
RMM:  15    -0.217989699640E+02   -0.11142E-03   -0.11628E-05   195   0.178E-02    0.279E-03
RMM:  16    -0.217990028161E+02   -0.32852E-04   -0.46671E-06   185   0.961E-03    0.177E-03
RMM:  17    -0.217990456638E+02   -0.42848E-04   -0.32472E-06   163   0.788E-03    0.136E-03
RMM:  18    -0.217990537011E+02   -0.80373E-05   -0.44659E-07    85   0.402E-03
   1 F= -.22389963E+02 E0= -.22389963E+02  d E =0.000000E+00

Currently Loaded Modulefiles:
  1) Anaconda3/5.1.0       3) vesta/3.3.8           5) intel/2016.1
  2) gnuplot/5.0.4         4) imagemagick/6.7.9-0   6) vasp/5.4.1.Feb16

Job script resource usage:
       JobID  MaxVMSize     MaxRSS 
------------ ---------- ---------- 
28532696.ba+    216888K      2685K 

Job step resource usage:
       JobID    JobName  AllocCPUS  MaxVMSize     MaxRSS    Elapsed ExitCode 
------------ ---------- ---------- ---------- ---------- ---------- -------- 
28532696        jobname          4                         00:00:20      0:0 
28532696.0    pmi_proxy          1    279832K       540K   00:00:18      0:0 

Job 28532696 ("jobname") completed on c15-26 at Fri Nov 8 11:59:39 CET 2019
