    6    6    1    1
  0.3636991E+02  0.3183397E-09  0.3183397E-09  0.2486459E-08  0.5000000E-15
  1.000000000000000E-004
  CAR 
 unknown system                          
     36     14     24
 
  0.0000000E+00  0.0000000E+00  0.0000000E+00  0.1000000E-01
    1      -16.594698   1.000000
    2      -16.584212   1.000000
    3      -15.270198   1.000000
    4      -15.251397   1.000000
    5       -7.300080   1.000000
    6       -7.212337   1.000000
    7       -3.918509   1.000000
    8       -3.918502   1.000000
    9       -3.918165   1.000000
   10       -3.918160   1.000000
   11       -3.146081   1.000000
   12       -2.850239   1.000000
   13       -2.577022   1.000000
   14       -2.576983   1.000000
   15       -2.575823   1.000000
   16       -2.575796   1.000000
   17       -1.073285   1.000000
   18       -0.874739   1.000000
   19        2.601867   0.000000
   20        2.607598   0.000000
   21        2.654650   0.000000
   22        2.694707   0.000000
   23        2.824761   0.000000
   24        4.288972   0.000000
 
  0.1000000E+00 -0.6938894E-17  0.0000000E+00  0.6000000E-01
    1      -16.440875   1.000000
    2      -16.430504   1.000000
    3      -15.195075   1.000000
    4      -15.177143   1.000000
    5       -7.116590   1.000000
    6       -7.029421   1.000000
    7       -4.268767   1.000000
    8       -4.267944   1.000000
    9       -3.746760   1.000000
   10       -3.746170   1.000000
   11       -3.685275   1.000000
   12       -3.541188   1.000000
   13       -2.833796   1.000000
   14       -2.832367   1.000000
   15       -2.310618   1.000000
   16       -2.181202   1.000000
   17       -1.150056   1.000000
   18       -0.997136   1.000000
   19        2.415630   0.000000
   20        2.420083   0.000000
   21        2.445873   0.000000
   22        2.524916   0.000000
   23        2.681816   0.000000
   24        2.822975   0.000000
 
  0.2000000E+00  0.2775558E-16  0.0000000E+00  0.6000000E-01
    1      -16.011760   1.000000
    2      -16.001910   1.000000
    3      -14.986709   1.000000
    4      -14.971323   1.000000
    5       -6.702760   1.000000
    6       -6.623938   1.000000
    7       -5.000411   1.000000
    8       -4.992276   1.000000
    9       -4.510167   1.000000
   10       -4.432595   1.000000
   11       -3.396274   1.000000
   12       -3.394445   1.000000
   13       -3.285739   1.000000
   14       -3.284393   1.000000
   15       -2.390885   1.000000
   16       -2.263365   1.000000
   17       -1.516300   1.000000
   18       -1.459332   1.000000
   19        1.849210   0.000000
   20        2.012112   0.000000
   21        2.255973   0.000000
   22        2.295078   0.000000
   23        2.474076   0.000000
   24        2.853841   0.000000
 
  0.3000000E+00  0.0000000E+00  0.0000000E+00  0.6000000E-01
    1      -15.412334   1.000000
    2      -15.403826   1.000000
    3      -14.700672   1.000000
    4      -14.689164   1.000000
    5       -6.673779   1.000000
    6       -6.637519   1.000000
    7       -5.410821   1.000000
    8       -5.369004   1.000000
    9       -5.353700   1.000000
   10       -5.315238   1.000000
   11       -3.956565   1.000000
   12       -3.954445   1.000000
   13       -2.778820   1.000000
   14       -2.703512   1.000000
   15       -2.700591   1.000000
   16       -2.689200   1.000000
   17       -2.007995   1.000000
   18       -1.987423   1.000000
   19        1.875707   0.000000
   20        1.949664   0.000000
   21        1.957218   0.000000
   22        2.028495   0.000000
   23        3.000734   0.000000
   24        3.158463   0.000000
 
  0.4000000E+00  0.5551115E-16  0.0000000E+00  0.6000000E-01
    1      -14.844628   1.000000
    2      -14.838690   1.000000
    3      -14.438729   1.000000
    4      -14.431894   1.000000
    5       -7.171865   1.000000
    6       -7.155407   1.000000
    7       -6.058618   1.000000
    8       -6.038393   1.000000
    9       -5.492945   1.000000
   10       -5.447967   1.000000
   11       -4.341796   1.000000
   12       -4.339511   1.000000
   13       -3.064019   1.000000
   14       -3.017528   1.000000
   15       -2.245726   1.000000
   16       -2.240550   1.000000
   17       -1.958612   1.000000
   18       -1.934122   1.000000
   19        1.880244   0.000000
   20        1.884447   0.000000
   21        2.231125   0.000000
   22        2.309232   0.000000
   23        3.580250   0.000000
   24        3.949502   0.000000
 
  0.5000000E+00 -0.2775558E-16  0.0000000E+00  0.3000000E-01
    1      -14.598884   1.000000
    2      -14.595163   1.000000
    3      -14.329006   1.000000
    4      -14.325332   1.000000
    5       -7.424326   1.000000
    6       -7.410021   1.000000
    7       -6.329617   1.000000
    8       -6.315335   1.000000
    9       -5.594330   1.000000
   10       -5.553042   1.000000
   11       -4.477135   1.000000
   12       -4.474797   1.000000
   13       -3.144359   1.000000
   14       -3.136877   1.000000
   15       -2.082299   1.000000
   16       -2.075938   1.000000
   17       -1.729907   1.000000
   18       -1.726943   1.000000
   19        1.909642   0.000000
   20        1.911832   0.000000
   21        2.467647   0.000000
   22        2.498255   0.000000
   23        3.790995   0.000000
   24        3.962976   0.000000
 
  0.1000000E+00  0.1000000E+00  0.0000000E+00  0.6000000E-01
    1      -16.149004   1.000000
    2      -16.138964   1.000000
    3      -15.052906   1.000000
    4      -15.036683   1.000000
    5       -6.806541   1.000000
    6       -6.722845   1.000000
    7       -4.790994   1.000000
    8       -4.789238   1.000000
    9       -4.201717   1.000000
   10       -4.100250   1.000000
   11       -3.456380   1.000000
   12       -3.455045   1.000000
   13       -3.453620   1.000000
   14       -3.447554   1.000000
   15       -2.149790   1.000000
   16       -2.027634   1.000000
   17       -1.375837   1.000000
   18       -1.294946   1.000000
   19        1.929616   0.000000
   20        2.067053   0.000000
   21        2.261084   0.000000
   22        2.321869   0.000000
   23        2.355573   0.000000
   24        2.459622   0.000000
 
  0.2000000E+00  0.1000000E+00  0.0000000E+00  0.1200000E+00
    1      -15.631365   1.000000
    2      -15.622246   1.000000
    3      -14.802458   1.000000
    4      -14.789418   1.000000
    5       -6.526543   1.000000
    6       -6.469568   1.000000
    7       -5.298245   1.000000
    8       -5.274971   1.000000
    9       -4.919164   1.000000
   10       -4.873644   1.000000
   11       -4.177282   1.000000
   12       -4.150387   1.000000
   13       -3.097622   1.000000
   14       -3.096447   1.000000
   15       -2.318231   1.000000
   16       -2.237632   1.000000
   17       -1.812978   1.000000
   18       -1.795007   1.000000
   19        1.632965   0.000000
   20        1.765897   0.000000
   21        2.133951   0.000000
   22        2.192397   0.000000
   23        2.494273   0.000000
   24        2.672184   0.000000
 
  0.3000000E+00  0.1000000E+00  0.0000000E+00  0.1200000E+00
    1      -15.036213   1.000000
    2      -15.029092   1.000000
    3      -14.519586   1.000000
    4      -14.510802   1.000000
    5       -6.838412   1.000000
    6       -6.817213   1.000000
    7       -5.797199   1.000000
    8       -5.780469   1.000000
    9       -5.352150   1.000000
   10       -5.308188   1.000000
   11       -4.460414   1.000000
   12       -4.433319   1.000000
   13       -2.987551   1.000000
   14       -2.982229   1.000000
   15       -2.752694   1.000000
   16       -2.710516   1.000000
   17       -1.845630   1.000000
   18       -1.837930   1.000000
   19        1.747059   0.000000
   20        1.838882   0.000000
   21        2.199866   0.000000
   22        2.239653   0.000000
   23        3.075511   0.000000
   24        3.193228   0.000000
 
  0.4000000E+00  0.1000000E+00  0.0000000E+00  0.1200000E+00
    1      -14.611093   1.000000
    2      -14.606908   1.000000
    3      -14.322796   1.000000
    4      -14.318384   1.000000
    5       -7.208610   1.000000
    6       -7.194408   1.000000
    7       -6.359383   1.000000
    8       -6.351294   1.000000
    9       -5.502535   1.000000
   10       -5.462706   1.000000
   11       -4.516128   1.000000
   12       -4.501126   1.000000
   13       -3.084480   1.000000
   14       -3.065351   1.000000
   15       -2.868810   1.000000
   16       -2.861515   1.000000
   17       -1.522195   1.000000
   18       -1.512596   1.000000
   19        1.893785   0.000000
   20        1.917126   0.000000
   21        2.472294   0.000000
   22        2.513405   0.000000
   23        3.642676   0.000000
   24        3.741533   0.000000
 
  0.2000000E+00  0.2000000E+00  0.0000000E+00  0.6000000E-01
    1      -15.109296   1.000000
    2      -15.101770   1.000000
    3      -14.547821   1.000000
    4      -14.538287   1.000000
    5       -6.619866   1.000000
    6       -6.594043   1.000000
    7       -5.617502   1.000000
    8       -5.609341   1.000000
    9       -5.206849   1.000000
   10       -5.171398   1.000000
   11       -4.697952   1.000000
   12       -4.641003   1.000000
   13       -3.495983   1.000000
   14       -3.495036   1.000000
   15       -2.470151   1.000000
   16       -2.439828   1.000000
   17       -1.824225   1.000000
   18       -1.823062   1.000000
   19        1.616215   0.000000
   20        1.761273   0.000000
   21        2.250023   0.000000
   22        2.271922   0.000000
   23        2.673471   0.000000
   24        2.784458   0.000000
 
  0.3000000E+00  0.2000000E+00  0.0000000E+00  0.1200000E+00
    1      -14.630467   1.000000
    2      -14.625649   1.000000
    3      -14.312607   1.000000
    4      -14.307179   1.000000
    5       -6.785048   1.000000
    6       -6.770560   1.000000
    7       -6.404224   1.000000
    8       -6.400080   1.000000
    9       -5.208069   1.000000
   10       -5.180107   1.000000
   11       -4.609992   1.000000
   12       -4.567163   1.000000
   13       -3.985675   1.000000
   14       -3.973128   1.000000
   15       -2.931510   1.000000
   16       -2.921207   1.000000
   17       -1.495998   1.000000
   18       -1.489794   1.000000
   19        1.786339   0.000000
   20        1.850883   0.000000
   21        2.532688   0.000000
   22        2.573755   0.000000
   23        3.003385   0.000000
   24        3.099067   0.000000
 
  0.4000000E+00  0.2000000E+00  0.0000000E+00  0.6000000E-01
    1      -14.429712   1.000000
    2      -14.427190   1.000000
    3      -14.213375   1.000000
    4      -14.210830   1.000000
    5       -6.815449   1.000000
    6       -6.804201   1.000000
    7       -6.709303   1.000000
    8       -6.706234   1.000000
    9       -5.418955   1.000000
   10       -5.388398   1.000000
   11       -4.467330   1.000000
   12       -4.438615   1.000000
   13       -4.059668   1.000000
   14       -4.048274   1.000000
   15       -3.225092   1.000000
   16       -3.202681   1.000000
   17       -1.209315   1.000000
   18       -1.197741   1.000000
   19        1.625441   0.000000
   20        1.635265   0.000000
   21        2.943674   0.000000
   22        2.951730   0.000000
   23        3.150574   0.000000
   24        4.173251   0.000000
 
  0.3000000E+00  0.3000000E+00  0.0000000E+00  0.6000000E-01
    1      -14.363379   1.000000
    2      -14.361531   1.000000
    3      -14.167265   1.000000
    4      -14.165300   1.000000
    5       -6.870677   1.000000
    6       -6.864385   1.000000
    7       -6.383285   1.000000
    8       -6.374627   1.000000
    9       -5.254852   1.000000
   10       -5.248846   1.000000
   11       -4.933614   1.000000
   12       -4.914172   1.000000
   13       -4.358871   1.000000
   14       -4.329593   1.000000
   15       -3.344135   1.000000
   16       -3.327379   1.000000
   17       -1.047119   1.000000
   18       -1.037403   1.000000
   19        1.375685   0.000000
   20        1.383385   0.000000
   21        2.880890   0.000000
   22        2.982154   0.000000
   23        3.182622   0.000000
   24        3.219892   0.000000
