       N       E                     dE             d eps       ncg     rms          ort
DAV:   1     0.485165012292E+03    0.48517E+03   -0.14533E+04   336   0.149E+03
DAV:   2     0.193734230415E+03   -0.29143E+03   -0.27890E+03   336   0.363E+02
DAV:   3     0.900088217405E+02   -0.10373E+03   -0.99453E+02   336   0.200E+02
DAV:   4     0.456302251006E+02   -0.44379E+02   -0.43052E+02   336   0.147E+02
DAV:   5     0.236953131419E+02   -0.21935E+02   -0.21452E+02   336   0.910E+01
SDA:   6    -0.234480693251E+02   -0.47143E+02   -0.49793E+02   336   0.124E+03 0.000E+00
DMP:   7    -0.395283183827E+02   -0.16080E+02   -0.13032E+02   336   0.345E+02-0.507E+01
DMP:   8    -0.450751449891E+02   -0.55468E+01   -0.14229E+02   336   0.376E+02-0.529E+01
DMP:   9    -0.504319849395E+02   -0.53568E+01   -0.34363E+01   336   0.953E+01-0.246E+01
DMP:  10    -0.525331455771E+02   -0.21012E+01   -0.25324E+01   336   0.575E+01 0.152E+01
DMP:  11    -0.543455081035E+02   -0.18124E+01   -0.11443E+01   336   0.185E+01 0.264E+01
DMP:  12    -0.552314486090E+02   -0.88594E+00   -0.70453E+00   336   0.121E+01 0.145E+01
DMP:  13    -0.558429746595E+02   -0.61153E+00   -0.47221E+00   336   0.713E+00 0.122E+01
DMP:  14    -0.562459234075E+02   -0.40295E+00   -0.28589E+00   336   0.414E+00 0.788E+00
DMP:  15    -0.564998776463E+02   -0.25395E+00   -0.19105E+00   336   0.276E+00 0.527E+00
DMP:  16    -0.566714767027E+02   -0.17160E+00   -0.12349E+00   336   0.170E+00 0.363E+00
DMP:  17    -0.567823560331E+02   -0.11088E+00   -0.79238E-01   336   0.108E+00 0.235E+00
DMP:  18    -0.568539730356E+02   -0.71617E-01   -0.50781E-01   336   0.682E-01 0.154E+00
DMP:  19    -0.568997962123E+02   -0.45823E-01   -0.32202E-01   336   0.429E-01 0.984E-01
DMP:  20    -0.569288134225E+02   -0.29017E-01   -0.20140E-01   336   0.265E-01 0.624E-01
DMP:  21    -0.569469013080E+02   -0.18088E-01   -0.13469E-01   336   0.173E-01 0.429E-01
DMP:  22    -0.569579478235E+02   -0.11047E-01   -0.74406E-02   336   0.954E-02 0.237E-01
DMP:  23    -0.569645761637E+02   -0.66283E-02   -0.44102E-02   336   0.558E-02 0.143E-01
DMP:  24    -0.569684957205E+02   -0.39196E-02   -0.26085E-02   336   0.328E-02 0.848E-02
DMP:  25    -0.569708200973E+02   -0.23244E-02   -0.16068E-02   336   0.207E-02 0.510E-02
DMP:  26    -0.569722602801E+02   -0.14402E-02   -0.10592E-02   336   0.142E-02 0.323E-02
DMP:  27    -0.569732190978E+02   -0.95882E-03   -0.75521E-03   336   0.105E-02 0.219E-02
DMP:  28    -0.569739081292E+02   -0.68903E-03   -0.57991E-03   336   0.838E-03 0.160E-02
DMP:  29    -0.569744364515E+02   -0.52832E-03   -0.47108E-03   336   0.708E-03 0.123E-02
DMP:  30    -0.569748503365E+02   -0.41388E-03   -0.41826E-03   336   0.693E-03 0.924E-03
DMP:  31    -0.569751729665E+02   -0.32263E-03   -0.42973E-03   336   0.846E-03 0.598E-03
DMP:  32    -0.569754179126E+02   -0.24495E-03   -0.51103E-03   336   0.121E-02 0.178E-03
DMP:  33    -0.569755931809E+02   -0.17527E-03   -0.65819E-03   336   0.179E-02-0.370E-03
DMP:  34    -0.569757070893E+02   -0.11391E-03   -0.85882E-03   336   0.255E-02-0.105E-02
DMP:  35    -0.569757872161E+02   -0.80127E-04   -0.10112E-02   336   0.318E-02-0.169E-02
DMP:  36    -0.569758767691E+02   -0.89553E-04   -0.99248E-03   336   0.326E-02-0.204E-02
DMP:  37    -0.569760027304E+02   -0.12596E-03   -0.76732E-03   336   0.261E-02-0.180E-02
DMP:  38    -0.569761447396E+02   -0.14201E-03   -0.46247E-03   336   0.161E-02-0.118E-02
DMP:  39    -0.569762720954E+02   -0.12736E-03   -0.21071E-03   336   0.715E-03-0.494E-03
DMP:  40    -0.569763509612E+02   -0.78866E-04   -0.10671E-03   336   0.311E-03-0.117E-03
DMP:  41    -0.569763992762E+02   -0.48315E-04   -0.64304E-04   336   0.164E-03-0.885E-05
DMP:  42    -0.569764369120E+02   -0.37636E-04   -0.37831E-04   336   0.792E-04 0.402E-04
DMP:  43    -0.569764651462E+02   -0.28234E-04   -0.27087E-04   336   0.451E-04 0.592E-04
DMP:  44    -0.569764875465E+02   -0.22400E-04   -0.22724E-04   336   0.356E-04 0.554E-04
DMP:  45    -0.569765068400E+02   -0.19294E-04   -0.20075E-04   336   0.310E-04 0.502E-04
DMP:  46    -0.569765239725E+02   -0.17133E-04   -0.18493E-04   336   0.289E-04 0.454E-04
DMP:  47    -0.569765396396E+02   -0.15667E-04   -0.17220E-04   336   0.271E-04 0.417E-04
DMP:  48    -0.569765538965E+02   -0.14257E-04   -0.16357E-04   336   0.265E-04 0.377E-04
DMP:  49    -0.569765667171E+02   -0.12821E-04   -0.16272E-04   336   0.283E-04 0.324E-04
DMP:  50    -0.569765776203E+02   -0.10903E-04   -0.18538E-04   336   0.376E-04 0.228E-04
DMP:  51    -0.569765862623E+02   -0.86420E-05   -0.24714E-04   336   0.597E-04 0.539E-05
DMP:  52    -0.569765916837E+02   -0.54214E-05   -0.37368E-04   336   0.104E-03-0.264E-04
DMP:  53    -0.569765943563E+02   -0.26727E-05   -0.55802E-04   336   0.167E-03-0.725E-04
DMP:  54    -0.569765939109E+02    0.44541E-06   -0.78955E-04   336   0.249E-03-0.134E-03
DMP:  55    -0.569765931539E+02    0.75706E-06   -0.99273E-04   336   0.323E-03-0.195E-03
DMP:  56    -0.569765928424E+02    0.31143E-06   -0.11264E-03   336   0.374E-03-0.242E-03
DMP:  57    -0.569765932475E+02   -0.40509E-06   -0.12273E-03   336   0.412E-03-0.275E-03
DMP:  58    -0.569765947980E+02   -0.15505E-05   -0.12658E-03   336   0.428E-03-0.292E-03
DMP:  59    -0.569765961542E+02   -0.13562E-05   -0.12258E-03   336   0.423E-03-0.306E-03
DMP:  60    -0.569766053482E+02   -0.91939E-05   -0.91902E-04   336   0.327E-03-0.253E-03
DMP:  61    -0.569766142927E+02   -0.89445E-05   -0.62234E-04   336   0.225E-03-0.183E-03
DMP:  62    -0.569766231746E+02   -0.88819E-05   -0.35740E-04   336   0.130E-03-0.106E-03
DMP:  63    -0.569766284085E+02   -0.52339E-05   -0.20830E-04   336   0.753E-04-0.608E-04
DMP:  64    -0.569766321769E+02   -0.37684E-05   -0.10476E-04   336   0.372E-04-0.290E-04
DMP:  65    -0.569766343720E+02   -0.21951E-05   -0.54614E-05   336   0.185E-04-0.127E-04
DMP:  66    -0.569766357085E+02   -0.13365E-05   -0.26786E-05   336   0.808E-05-0.362E-05
DMP:  67    -0.569766364735E+02   -0.76503E-06   -0.16875E-05   336   0.430E-05-0.217E-06
DMP:  68    -0.569766369548E+02   -0.48130E-06   -0.11843E-05   336   0.258E-05 0.984E-06
DMP:  69    -0.569766373094E+02   -0.35461E-06   -0.89942E-06   336   0.173E-05 0.136E-05
   1 F= -.56976637E+02 E0= -.56976637E+02  d E =0.000000E+00
