 vasp.5.4.4.18Apr17-6-g9f103f2a35 (build Jun 30 2017 11:15:00) complex          
  
 executed on    STALLO_VASP_5.4.4 date 2019.11.03  20:39:30
 running on   16 total cores
 distrk:  each k-point on   16 cores,    1 groups
 distr:  one band on NCORES_PER_BAND=   4 cores,    4 groups


--------------------------------------------------------------------------------------------------------


 INCAR:
 POTCAR:   PAW_PBE Mo 08Apr2002                   
 POTCAR:    PAW_PBE S 17Jan2003                   
 POTCAR:   PAW_PBE Mo 08Apr2002                   
   VRHFIN =Mo: 4p5s4d                                                           
   LEXCH  = PE                                                                  
   EATOM  =   217.5180 eV,   15.9871 Ry                                         
                                                                                
   TITEL  = PAW_PBE Mo 08Apr2002                                                
   LULTRA =        F    use ultrasoft PP ?                                      
   IUNSCR =        1    unscreen: 0-lin 1-nonlin 2-no                           
   RPACOR =    2.200    partial core radius                                     
   POMASS =   95.940; ZVAL   =    6.000    mass and valenz                      
   RCORE  =    2.750    outmost cutoff radius                                   
   RWIGS  =    2.750; RWIGS  =    1.455    wigner-seitz radius (au A)           
   ENMAX  =  224.584; ENMIN  =  168.438 eV                                      
   RCLOC  =    2.111    cutoff for local pot                                    
   LCOR   =        T    correct aug charges                                     
   LPAW   =        T    paw PP                                                  
   EAUG   =  345.278                                                            
   DEXC   =    -.088                                                            
   RMAX   =    3.077    core radius for proj-oper                               
   RAUG   =    1.300    factor for augmentation sphere                          
   RDEP   =    2.815    radius for radial grids                                 
   QCUT   =   -4.063; QGAM   =    8.126    optimization parameters              
                                                                                
   Description                                                                  
     l     E      TYP  RCUT    TYP  RCUT                                        
     2   .000     23  2.500                                                     
     2   .000     23  2.500                                                     
     0   .000     23  2.600                                                     
     0  1.000     23  2.600                                                     
     1   .400     23  2.750                                                     
     1  2.000     23  2.750                                                     
     3   .000      7   .000                                                     
  local pseudopotential read in
  partial core-charges read in
  atomic valenz-charges read in
  non local Contribution for L=           2  read in
    real space projection operators read in
  non local Contribution for L=           2  read in
    real space projection operators read in
  non local Contribution for L=           0  read in
    real space projection operators read in
  non local Contribution for L=           0  read in
    real space projection operators read in
  non local Contribution for L=           1  read in
    real space projection operators read in
  non local Contribution for L=           1  read in
    real space projection operators read in
    PAW grid and wavefunctions read in
 
   number of l-projection  operators is LMAX  =           6
   number of lm-projection operators is LMMAX =          18
 
 POTCAR:    PAW_PBE S 17Jan2003                   
   VRHFIN =S : s2p4                                                             
   LEXCH  = PE                                                                  
   EATOM  =   276.8230 eV,   20.3459 Ry                                         
                                                                                
   TITEL  = PAW_PBE S 17Jan2003                                                 
   LULTRA =        F    use ultrasoft PP ?                                      
   IUNSCR =        1    unscreen: 0-lin 1-nonlin 2-no                           
   RPACOR =    1.500    partial core radius                                     
   POMASS =   32.066; ZVAL   =    6.000    mass and valenz                      
   RCORE  =    1.900    outmost cutoff radius                                   
   RWIGS  =    2.200; RWIGS  =    1.164    wigner-seitz radius (au A)           
   ENMAX  =  280.000; ENMIN  =  194.016 eV                                      
   ICORE  =        2    local potential                                         
   LCOR   =        T    correct aug charges                                     
   LPAW   =        T    paw PP                                                  
   EAUG   =  335.092                                                            
   DEXC   =     .000                                                            
   RMAX   =    2.867    core radius for proj-oper                               
   RAUG   =    1.300    factor for augmentation sphere                          
   RDEP   =    1.954    radius for radial grids                                 
   QCUT   =   -4.360; QGAM   =    8.721    optimization parameters              
                                                                                
   Description                                                                  
     l     E      TYP  RCUT    TYP  RCUT                                        
     0   .000     23  1.900                                                     
     0   .000     23  1.900                                                     
     1   .000     23  1.900                                                     
     1   .000     23  1.900                                                     
     2   .000     23  1.900                                                     
  local pseudopotential read in
  partial core-charges read in
  atomic valenz-charges read in
  non local Contribution for L=           0  read in
    real space projection operators read in
  non local Contribution for L=           0  read in
    real space projection operators read in
  non local Contribution for L=           1  read in
    real space projection operators read in
  non local Contribution for L=           1  read in
    real space projection operators read in
    PAW grid and wavefunctions read in
 
   number of l-projection  operators is LMAX  =           4
   number of lm-projection operators is LMMAX =           8
 
 PAW_PBE Mo 08Apr2002                   :
 energy of atom  1       EATOM= -217.5180
 kinetic energy error for atom=    0.0005 (will be added to EATOM!!)
  PAW_PBE S 17Jan2003                   :
 energy of atom  2       EATOM= -276.8230
 kinetic energy error for atom=    0.0008 (will be added to EATOM!!)
 
 
 POSCAR: MoS2_mp-2815_computed                   
  positions in direct lattice
  velocities in cartesian coordinates
 exchange correlation table for  LEXCH =        8
   RHO(1)=    0.500       N(1)  =     2000
   RHO(2)=  100.500       N(2)  =     4000
 


--------------------------------------------------------------------------------------------------------


 ion  position               nearest neighbor table
   1  0.333  0.667  0.150-   5 2.41   5 2.41   5 2.41   4 2.41   4 2.41   4 2.41
   2  0.667  0.333  0.850-   6 2.41   6 2.41   6 2.41   3 2.41   3 2.41   3 2.41
   3  0.333  0.667  0.913-   2 2.41   2 2.41   2 2.41
   4  0.667  0.333  0.087-   1 2.41   1 2.41   1 2.41
   5  0.667  0.333  0.212-   1 2.41   1 2.41   1 2.41
   6  0.333  0.667  0.788-   2 2.41   2 2.41   2 2.41
 
  LATTYP: Found a hexagonal cell.
 ALAT       =     3.1833971160
 C/A-ratio  =     7.8107082174
  
  Lattice vectors:
  
 A1 = (   3.1833971160,   0.0000000000,   0.0000000000)
 A2 = (  -1.5916985580,   2.7569027728,   0.0000000000)
 A3 = (   0.0000000000,   0.0000000000,  24.8645860136)


Analysis of symmetry for initial positions (statically):
=====================================================================
 Subroutine PRICEL returns:
 Original cell was already a primitive cell.
 

 Routine SETGRP: Setting up the symmetry group for a 
 hexagonal supercell.


 Subroutine GETGRP returns: Found 12 space group operations
 (whereof 12 operations were pure point group operations)
 out of a pool of 24 trial point group operations.


The static configuration has the point symmetry D_3d.


Analysis of symmetry for dynamics (positions and initial velocities):
=====================================================================
 Subroutine PRICEL returns:
 Original cell was already a primitive cell.
 

 Routine SETGRP: Setting up the symmetry group for a 
 hexagonal supercell.


 Subroutine GETGRP returns: Found 12 space group operations
 (whereof 12 operations were pure point group operations)
 out of a pool of 24 trial point group operations.


The dynamic configuration has the point symmetry D_3d.


 Subroutine INISYM returns: Found 12 space group operations
 (whereof 12 operations are pure point group operations),
 and found     1 'primitive' translations

 
 
 KPOINTS: k-density: 5.0                          

Automatic generation of k-mesh.
Space group operators:
 irot       det(A)        alpha          n_x          n_y          n_z        tau_x        tau_y        tau_z
    1     1.000000     0.000000     1.000000     0.000000     0.000000     0.000000     0.000000     0.000000
    2    -1.000000     0.000000     1.000000     0.000000     0.000000     0.000000     0.000000     0.000000
    3     1.000000   120.000000     0.000000     0.000000    -1.000000     0.000000     0.000000     0.000000
    4    -1.000000   120.000000     0.000000     0.000000    -1.000000     0.000000     0.000000     0.000000
    5     1.000000   120.000000     0.000000     0.000000     1.000000     0.000000     0.000000     0.000000
    6    -1.000000   120.000000     0.000000     0.000000     1.000000     0.000000     0.000000     0.000000
    7     1.000000   180.000000     1.000000    -0.000000     0.000000     0.000000     0.000000     0.000000
    8    -1.000000   180.000000     1.000000    -0.000000     0.000000     0.000000     0.000000     0.000000
    9     1.000000   180.000000     0.500000    -0.866025     0.000000     0.000000     0.000000     0.000000
   10    -1.000000   180.000000     0.500000    -0.866025     0.000000     0.000000     0.000000     0.000000
   11     1.000000   180.000000    -0.500000    -0.866025     0.000000     0.000000     0.000000     0.000000
   12    -1.000000   180.000000    -0.500000    -0.866025     0.000000     0.000000     0.000000     0.000000
 
 Subroutine IBZKPT returns following result:
 ===========================================
 
 Found     14 irreducible k-points:
 
 Following reciprocal coordinates:
            Coordinates               Weight
  0.000000  0.000000  0.000000      1.000000
  0.100000 -0.000000  0.000000      6.000000
  0.200000  0.000000  0.000000      6.000000
  0.300000  0.000000  0.000000      6.000000
  0.400000  0.000000  0.000000      6.000000
  0.500000 -0.000000  0.000000      3.000000
  0.100000  0.100000  0.000000      6.000000
  0.200000  0.100000  0.000000     12.000000
  0.300000  0.100000  0.000000     12.000000
  0.400000  0.100000  0.000000     12.000000
  0.200000  0.200000  0.000000      6.000000
  0.300000  0.200000  0.000000     12.000000
  0.400000  0.200000  0.000000      6.000000
  0.300000  0.300000  0.000000      6.000000
 
 Following cartesian coordinates:
            Coordinates               Weight
  0.000000  0.000000  0.000000      1.000000
  0.031413  0.018136  0.000000      6.000000
  0.062826  0.036273  0.000000      6.000000
  0.094239  0.054409  0.000000      6.000000
  0.125652  0.072545  0.000000      6.000000
  0.157065  0.090681  0.000000      3.000000
  0.031413  0.054409  0.000000      6.000000
  0.062826  0.072545  0.000000     12.000000
  0.094239  0.090681  0.000000     12.000000
  0.125652  0.108818  0.000000     12.000000
  0.062826  0.108818  0.000000      6.000000
  0.094239  0.126954  0.000000     12.000000
  0.125652  0.145090  0.000000      6.000000
  0.094239  0.163227  0.000000      6.000000
 
 TETIRR: Found     55 inequivalent tetrahedra from      600
 
 Subroutine IBZKPT_HF returns following result:
 ==============================================
 
 Found    100 k-points in 1st BZ
 the following    100 k-points will be used (e.g. in the exchange kernel)
 Following reciprocal coordinates:   # in IRBZ
  0.000000  0.000000  0.000000    0.01000000   1 t-inv F
  0.100000 -0.000000  0.000000    0.01000000   2 t-inv F
  0.200000  0.000000  0.000000    0.01000000   3 t-inv F
  0.300000  0.000000  0.000000    0.01000000   4 t-inv F
  0.400000  0.000000  0.000000    0.01000000   5 t-inv F
  0.500000 -0.000000  0.000000    0.01000000   6 t-inv F
  0.100000  0.100000  0.000000    0.01000000   7 t-inv F
  0.200000  0.100000  0.000000    0.01000000   8 t-inv F
  0.300000  0.100000  0.000000    0.01000000   9 t-inv F
  0.400000  0.100000  0.000000    0.01000000  10 t-inv F
  0.200000  0.200000  0.000000    0.01000000  11 t-inv F
  0.300000  0.200000  0.000000    0.01000000  12 t-inv F
  0.400000  0.200000  0.000000    0.01000000  13 t-inv F
  0.300000  0.300000  0.000000    0.01000000  14 t-inv F
 -0.100000  0.000000  0.000000    0.01000000   2 t-inv F
 -0.100000  0.100000  0.000000    0.01000000   2 t-inv F
  0.100000 -0.100000  0.000000    0.01000000   2 t-inv F
 -0.000000 -0.100000  0.000000    0.01000000   2 t-inv F
  0.000000  0.100000  0.000000    0.01000000   2 t-inv F
 -0.200000 -0.000000  0.000000    0.01000000   3 t-inv F
 -0.200000  0.200000  0.000000    0.01000000   3 t-inv F
  0.200000 -0.200000  0.000000    0.01000000   3 t-inv F
  0.000000 -0.200000  0.000000    0.01000000   3 t-inv F
 -0.000000  0.200000  0.000000    0.01000000   3 t-inv F
 -0.300000  0.000000  0.000000    0.01000000   4 t-inv F
 -0.300000  0.300000  0.000000    0.01000000   4 t-inv F
  0.300000 -0.300000  0.000000    0.01000000   4 t-inv F
  0.000000 -0.300000  0.000000    0.01000000   4 t-inv F
  0.000000  0.300000  0.000000    0.01000000   4 t-inv F
 -0.400000 -0.000000  0.000000    0.01000000   5 t-inv F
 -0.400000  0.400000  0.000000    0.01000000   5 t-inv F
  0.400000 -0.400000  0.000000    0.01000000   5 t-inv F
  0.000000 -0.400000  0.000000    0.01000000   5 t-inv F
 -0.000000  0.400000  0.000000    0.01000000   5 t-inv F
 -0.500000  0.500000  0.000000    0.01000000   6 t-inv F
 -0.000000 -0.500000  0.000000    0.01000000   6 t-inv F
 -0.100000 -0.100000  0.000000    0.01000000   7 t-inv F
 -0.200000  0.100000  0.000000    0.01000000   7 t-inv F
  0.200000 -0.100000  0.000000    0.01000000   7 t-inv F
  0.100000 -0.200000  0.000000    0.01000000   7 t-inv F
 -0.100000  0.200000  0.000000    0.01000000   7 t-inv F
 -0.200000 -0.100000  0.000000    0.01000000   8 t-inv F
 -0.300000  0.200000  0.000000    0.01000000   8 t-inv F
  0.300000 -0.200000  0.000000    0.01000000   8 t-inv F
  0.100000 -0.300000  0.000000    0.01000000   8 t-inv F
 -0.100000  0.300000  0.000000    0.01000000   8 t-inv F
  0.200000 -0.300000  0.000000    0.01000000   8 t-inv F
 -0.200000  0.300000  0.000000    0.01000000   8 t-inv F
 -0.300000  0.100000  0.000000    0.01000000   8 t-inv F
  0.300000 -0.100000  0.000000    0.01000000   8 t-inv F
  0.100000  0.200000  0.000000    0.01000000   8 t-inv F
 -0.100000 -0.200000  0.000000    0.01000000   8 t-inv F
 -0.300000 -0.100000  0.000000    0.01000000   9 t-inv F
 -0.400000  0.300000  0.000000    0.01000000   9 t-inv F
  0.400000 -0.300000  0.000000    0.01000000   9 t-inv F
  0.100000 -0.400000  0.000000    0.01000000   9 t-inv F
 -0.100000  0.400000  0.000000    0.01000000   9 t-inv F
  0.300000 -0.400000  0.000000    0.01000000   9 t-inv F
 -0.300000  0.400000  0.000000    0.01000000   9 t-inv F
 -0.400000  0.100000  0.000000    0.01000000   9 t-inv F
  0.400000 -0.100000  0.000000    0.01000000   9 t-inv F
  0.100000  0.300000  0.000000    0.01000000   9 t-inv F
 -0.100000 -0.300000  0.000000    0.01000000   9 t-inv F
 -0.400000 -0.100000  0.000000    0.01000000  10 t-inv F
 -0.500000  0.400000  0.000000    0.01000000  10 t-inv F
  0.500000 -0.400000  0.000000    0.01000000  10 t-inv F
  0.100000 -0.500000  0.000000    0.01000000  10 t-inv F
 -0.100000  0.500000  0.000000    0.01000000  10 t-inv F
  0.400000 -0.500000  0.000000    0.01000000  10 t-inv F
 -0.400000  0.500000  0.000000    0.01000000  10 t-inv F
 -0.500000  0.100000  0.000000    0.01000000  10 t-inv F
  0.500000 -0.100000  0.000000    0.01000000  10 t-inv F
  0.100000  0.400000  0.000000    0.01000000  10 t-inv F
 -0.100000 -0.400000  0.000000    0.01000000  10 t-inv F
 -0.200000 -0.200000  0.000000    0.01000000  11 t-inv F
 -0.400000  0.200000  0.000000    0.01000000  11 t-inv F
  0.400000 -0.200000  0.000000    0.01000000  11 t-inv F
  0.200000 -0.400000  0.000000    0.01000000  11 t-inv F
 -0.200000  0.400000  0.000000    0.01000000  11 t-inv F
 -0.300000 -0.200000  0.000000    0.01000000  12 t-inv F
 -0.500000  0.300000  0.000000    0.01000000  12 t-inv F
  0.500000 -0.300000  0.000000    0.01000000  12 t-inv F
  0.200000 -0.500000  0.000000    0.01000000  12 t-inv F
 -0.200000  0.500000  0.000000    0.01000000  12 t-inv F
  0.300000 -0.500000  0.000000    0.01000000  12 t-inv F
 -0.300000  0.500000  0.000000    0.01000000  12 t-inv F
 -0.500000  0.200000  0.000000    0.01000000  12 t-inv F
  0.500000 -0.200000  0.000000    0.01000000  12 t-inv F
  0.200000  0.300000  0.000000    0.01000000  12 t-inv F
 -0.200000 -0.300000  0.000000    0.01000000  12 t-inv F
 -0.400000 -0.200000  0.000000    0.01000000  13 t-inv F
 -0.600000  0.400000  0.000000    0.01000000  13 t-inv F
  0.600000 -0.400000  0.000000    0.01000000  13 t-inv F
  0.200000 -0.600000  0.000000    0.01000000  13 t-inv F
 -0.200000  0.600000  0.000000    0.01000000  13 t-inv F
 -0.300000 -0.300000  0.000000    0.01000000  14 t-inv F
 -0.600000  0.300000  0.000000    0.01000000  14 t-inv F
  0.600000 -0.300000  0.000000    0.01000000  14 t-inv F
  0.300000 -0.600000  0.000000    0.01000000  14 t-inv F
 -0.300000  0.600000  0.000000    0.01000000  14 t-inv F


--------------------------------------------------------------------------------------------------------




 Dimension of arrays:
   k-points           NKPTS =     14   k-points in BZ     NKDIM =    100   number of bands    NBANDS=     24
   number of dos      NEDOS =   2801   number of ions     NIONS =      6
   non local maximal  LDIM  =      6   non local SUM 2l+1 LMDIM =     18
   total plane-waves  NPLWV = 164640
   max r-space proj   IRMAX =      1   max aug-charges    IRDMAX=  48634
   dimension x,y,z NGX =    28 NGY =   28 NGZ =  210
   dimension x,y,z NGXF=    56 NGYF=   56 NGZF=  420
   support grid    NGXF=    56 NGYF=   56 NGZF=  420
   ions per type =               2   4
   NGX,Y,Z   is equivalent  to a cutoff of  14.62, 14.62, 14.04 a.u.
   NGXF,Y,Z  is equivalent  to a cutoff of  29.24, 29.24, 28.08 a.u.

 SYSTEM =  unknown system                          
 POSCAR =  MoS2_mp-2815_computed                   

 Startparameter for this run:
   NWRITE =      2    write-flag & timer
   PREC   = accura    normal or accurate (medium, high low for compatibility)
   ISTART =      0    job   : 0-new  1-cont  2-samecut
   ICHARG =      2    charge: 1-file 2-atom 10-const
   ISPIN  =      1    spin polarized calculation?
   LNONCOLLINEAR =      F non collinear calculations
   LSORBIT =      F    spin-orbit coupling
   INIWAV =      1    electr: 0-lowe 1-rand  2-diag
   LASPH  =      F    aspherical Exc in radial PAW
   METAGGA=      F    non-selfconsistent MetaGGA calc.

 Electronic Relaxation 1
   ENCUT  =  650.0 eV  47.77 Ry    6.91 a.u.   6.62  6.62 51.69*2*pi/ulx,y,z
   ENINI  =  650.0     initial cutoff
   ENAUG  =  345.3 eV  augmentation charge cutoff
   NELM   =    300;   NELMIN=  4; NELMDL=  0     # of ELM steps 
   EDIFF  = 0.1E-05   stopping-criterion for ELM
   LREAL  =      F    real-space projection
   NLSPLINE    = F    spline interpolate recip. space projectors
   LCOMPAT=      F    compatible to vasp.4.4
   GGA_COMPAT  = T    GGA compatible to vasp.4.4-vasp.4.6
   LMAXPAW     = -100 max onsite density
   LMAXMIX     =    2 max onsite mixed and CHGCAR
   VOSKOWN=      0    Vosko Wilk Nusair interpolation
   ROPT   =    0.00000   0.00000
 Ionic relaxation
   EDIFFG = 0.1E-04   stopping-criterion for IOM
   NSW    =      0    number of steps for IOM
   NBLOCK =      1;   KBLOCK =      1    inner block; outer block 
   IBRION =     -1    ionic relax: 0-MD 1-quasi-New 2-CG
   NFREE  =      0    steps in history (QN), initial steepest desc. (CG)
   ISIF   =      0    stress and relaxation
   IWAVPR =     10    prediction:  0-non 1-charg 2-wave 3-comb
   ISYM   =      3    0-nonsym 1-usesym 2-fastsym
   LCORR  =      T    Harris-Foulkes like correction to forces

   POTIM  = 0.5000    time-step for ionic-motion
   TEIN   =    0.0    initial temperature
   TEBEG  =    0.0;   TEEND  =   0.0 temperature during run
   SMASS  =  -3.00    Nose mass-parameter (am)
   estimated Nose-frequenzy (Omega)   =  0.10E-29 period in steps =****** mass=  -0.232E-27a.u.
   SCALEE = 1.0000    scale energy and forces
   NPACO  =    256;   APACO  = 16.0  distance and # of slots for P.C.
   PSTRESS=    0.0 pullay stress

  Mass of Ions in am
   POMASS =  95.94 32.07
  Ionic Valenz
   ZVAL   =   6.00  6.00
  Atomic Wigner-Seitz radii
   RWIGS  =  -1.00 -1.00
  virtual crystal weights 
   VCA    =   1.00  1.00
   NELECT =      36.0000    total number of electrons
   NUPDOWN=      -1.0000    fix difference up-down

 DOS related values:
   EMIN   =  -3.00;   EMAX   =  4.00  energy-range for DOS
   EFERMI =   0.00
   ISMEAR =    -5;   SIGMA  =   0.01  broadening in eV -4-tet -1-fermi 0-gaus

 Electronic relaxation 2 (details)
   IALGO  =     53    algorithm
   LDIAG  =      T    sub-space diagonalisation (order eigenvalues)
   LSUBROT=      F    optimize rotation matrix (better conditioning)
   TURBO    =      0    0=normal 1=particle mesh
   IRESTART =      0    0=no restart 2=restart with 2 vectors
   NREBOOT  =      0    no. of reboots
   NMIN     =      0    reboot dimension
   EREF     =   0.00    reference energy to select bands
   IMIX   =      4    mixing-type and parameters
     AMIX     =   0.40;   BMIX     =  1.00
     AMIX_MAG =   1.60;   BMIX_MAG =  1.00
     AMIN     =   0.10
     WC   =   100.;   INIMIX=   1;  MIXPRE=   1;  MAXMIX= -45

 Intra band minimization:
   WEIMIN = 0.0000     energy-eigenvalue tresh-hold
   EBREAK =  0.10E-07  absolut break condition
   DEPER  =   0.30     relativ break condition  

   TIME   =   0.40     timestep for ELM

  volume/ion in A,a.u.               =      36.37       245.44
  Fermi-wavevector in a.u.,A,eV,Ry     =   0.897865  1.696719 10.968500  0.806162
  Thomas-Fermi vector in A             =   2.020503
 
 Write flags
   LWAVE        =      F    write WAVECAR
   LDOWNSAMPLE  =      F    k-point downsampling of WAVECAR
   LCHARG       =      T    write CHGCAR
   LVTOT        =      F    write LOCPOT, total local potential
   LVHAR        =      F    write LOCPOT, Hartree potential only
   LELF         =      F    write electronic localiz. function (ELF)
   LORBIT       =     11    0 simple, 1 ext, 2 COOP (PROOUT), +10 PAW based schemes


 Dipole corrections
   LMONO  =      F    monopole corrections only (constant potential shift)
   LDIPOL =      F    correct potential (dipole corrections)
   IDIPOL =      0    1-x, 2-y, 3-z, 4-all directions 
   EPSILON=  1.0000000 bulk dielectric constant

 Exchange correlation treatment:
   GGA     =    --    GGA type
   LEXCH   =     8    internal setting for exchange type
   VOSKOWN=      0    Vosko Wilk Nusair interpolation
   EXXOEP  =     0    0=HF, 1=EXX-LHF (local Hartree Fock) 2=EXX OEP
   LHFCALC =     T    Hartree Fock is set to
   LSYMGRAD=     F    symmetrize gradient (conserves proper symmetry)
   PRECFOCK=normal    Normal, Fast or Accurate (Low or Medium for compatibility)
   LRHFCALC=     F    long range Hartree Fock
   LRSCOR  =     F    long range correlation only (use DFT for short range part)
   LTHOMAS =     F    Thomas Fermi screening in HF
   LMODELHF=     F    short range full HF, long range fraction AEXX
   ENCUT4O =  -1.0   cutoff for four orbital integrals eV
   LMAXFOCK=     4    L truncation for augmentation on plane wave grid
   LMAXFOCKAE=  -1    L truncation for all-electron charge restoration on plane wave grid
   NMAXFOCKAE=   1    number of basis functions for all-electron charge restoration
   LFOCKAEDFT=     F  apply the AE augmentation even for DFT
   NKREDX  =     1    reduce k-point grid by
   NKREDY  =     1    reduce k-point grid by
   NKREDZ  =     1    reduce k-point grid by
   SHIFTRED=     F    shift reduced grid of Gamma
   HFKIDENT=     F    idential grid for each k-point
   ODDONLY =     F    use only odd q-grid points
   EVENONLY=     F    use only even q-grid points
   HFALPHA =   -1.0000 decay constant for conv. correction
   MCALPHA =    0.0000 extent of test-charge in conv. correction in multipole expansion
   AEXX    =    0.2500 exact exchange contribution
   HFSCREEN=    0.2000 screening length (either q_TF or 0.3 A-1)
   HFSCREENC=   0.2000 screening length for correlation (either q_TF or 0.3 A-1)
   HFRCUT  =    0.0000 spherical cutoff for potential kernel
   ALDAX   =    0.7500 LDA exchange part
   AGGAX   =    0.7500 GGA exchange part
   ALDAC   =    1.0000 LDA correlation
   AGGAC   =    1.0000 GGA correlation
   ENCUTFOCK=  -1.0 apply spherical cutoff to Coloumb kernel
   NBANDSGWLOW=     1    first orbital included in HF term
   NBLOCK_FOCK=    64    blocking factor in FOCK_ACC
 Linear response parameters
   LEPSILON=     F    determine dielectric tensor
   LRPA    =     F    only Hartree local field effects (RPA)
   LNABLA  =     F    use nabla operator in PAW spheres
   LVEL    =     F    velocity operator in full k-point grid
   LINTERFAST=   F  fast interpolation
   KINTER  =     0    interpolate to denser k-point grid
   CSHIFT  =0.1000    complex shift for real part using Kramers Kronig
   OMEGAMAX=  -1.0    maximum frequency
   DEG_THRESHOLD= 0.2000000E-02 threshold for treating states as degnerate
   RTIME   =   -0.100 relaxation time in fs
  (WPLASMAI=    0.000 imaginary part of plasma frequency in eV, 0.658/RTIME)
   DFIELD  = 0.0000000 0.0000000 0.0000000 field for delta impulse in time
 
 Orbital magnetization related:
   ORBITALMAG=     F  switch on orbital magnetization
   LCHIMAG   =     F  perturbation theory with respect to B field
   DQ        =  0.001000  dq finite difference perturbation B field
   LLRAUG    =     F  two centre corrections for induced B field



--------------------------------------------------------------------------------------------------------


 Static calculation
 charge density and potential will be updated during run
 non-spin polarized calculation
 Conjugate gradient for all bands (Freysoldt, et al. PRB 79, 241103 (2009))
 perform sub-space diagonalisation
    before iterative eigenvector-optimisation
 modified Broyden-mixing scheme, WC =      100.0
 initial mixing is a Kerker type mixing with AMIX =  0.4000 and BMIX =      1.0000
 Hartree-type preconditioning will be used
 using additional bands            6
 reciprocal scheme for non local part
 use partial core corrections
 no Harris-corrections to forces 
 use gradient corrections 
 use of overlap-Matrix (Vanderbilt PP)
 Fermi weights with tetrahedron method with Bloechl corrections


--------------------------------------------------------------------------------------------------------


  energy-cutoff  :      650.00
  volume of cell :      218.22
      direct lattice vectors                 reciprocal lattice vectors
     3.183397116  0.000000000  0.000000000     0.314129832  0.181362943  0.000000000
    -1.591698558  2.756902773  0.000000000     0.000000000  0.362725886  0.000000000
     0.000000000  0.000000000 24.864586014     0.000000000  0.000000000  0.040217842

  length of vectors
     3.183397116  3.183397116 24.864586014     0.362725886  0.362725886  0.040217842


 
 k-points in units of 2pi/SCALE and weight: k-density: 5.0                          
   0.00000000  0.00000000  0.00000000       0.010
   0.03141298  0.01813629  0.00000000       0.060
   0.06282597  0.03627259  0.00000000       0.060
   0.09423895  0.05440888  0.00000000       0.060
   0.12565193  0.07254518  0.00000000       0.060
   0.15706492  0.09068147  0.00000000       0.030
   0.03141298  0.05440888  0.00000000       0.060
   0.06282597  0.07254518  0.00000000       0.120
   0.09423895  0.09068147  0.00000000       0.120
   0.12565193  0.10881777  0.00000000       0.120
   0.06282597  0.10881777  0.00000000       0.060
   0.09423895  0.12695406  0.00000000       0.120
   0.12565193  0.14509035  0.00000000       0.060
   0.09423895  0.16322665  0.00000000       0.060
 
 k-points in reciprocal lattice and weights: k-density: 5.0                          
   0.00000000  0.00000000  0.00000000       0.010
   0.10000000 -0.00000000  0.00000000       0.060
   0.20000000  0.00000000  0.00000000       0.060
   0.30000000  0.00000000  0.00000000       0.060
   0.40000000  0.00000000  0.00000000       0.060
   0.50000000 -0.00000000  0.00000000       0.030
   0.10000000  0.10000000  0.00000000       0.060
   0.20000000  0.10000000  0.00000000       0.120
   0.30000000  0.10000000  0.00000000       0.120
   0.40000000  0.10000000  0.00000000       0.120
   0.20000000  0.20000000  0.00000000       0.060
   0.30000000  0.20000000  0.00000000       0.120
   0.40000000  0.20000000  0.00000000       0.060
   0.30000000  0.30000000  0.00000000       0.060
 
 position of ions in fractional coordinates (direct lattice) 
   0.33333300  0.66666700  0.14951355
   0.66666700  0.33333300  0.85048645
   0.33333300  0.66666700  0.91337155
   0.66666700  0.33333300  0.08662845
   0.66666600  0.33333300  0.21239664
   0.33333400  0.66666700  0.78760336
 
 position of ions in cartesian coordinates  (Angst):
  -0.00000160  1.83793610  3.71759263
   1.59170015  0.91896667 21.14699340
  -0.00000160  1.83793610 22.71060540
   1.59170015  0.91896667  2.15398061
   1.59169697  0.91896667  5.28115462
   0.00000160  1.83793610 19.58343139
 


--------------------------------------------------------------------------------------------------------


 k-point  1 :   0.0000 0.0000 0.0000  plane waves:    8323
 k-point  2 :   0.1000-0.0000 0.0000  plane waves:    8287
 k-point  3 :   0.2000 0.0000 0.0000  plane waves:    8245
 k-point  4 :   0.3000 0.0000 0.0000  plane waves:    8212
 k-point  5 :   0.4000 0.0000 0.0000  plane waves:    8192
 k-point  6 :   0.5000-0.0000 0.0000  plane waves:    8174
 k-point  7 :   0.1000 0.1000 0.0000  plane waves:    8251
 k-point  8 :   0.2000 0.1000 0.0000  plane waves:    8203
 k-point  9 :   0.3000 0.1000 0.0000  plane waves:    8191
 k-point 10 :   0.4000 0.1000 0.0000  plane waves:    8184
 k-point 11 :   0.2000 0.2000 0.0000  plane waves:    8207
 k-point 12 :   0.3000 0.2000 0.0000  plane waves:    8215
 k-point 13 :   0.4000 0.2000 0.0000  plane waves:    8188
 k-point 14 :   0.3000 0.3000 0.0000  plane waves:    8189

 maximum and minimum number of plane-waves per node :      2091     2034

 maximum number of plane-waves:      8323
 maximum index in each direction: 
   IXMAX=    6   IYMAX=    6   IZMAX=   51
   IXMIN=   -7   IYMIN=   -6   IZMIN=  -51


 parallel 3D FFT for wavefunctions:
    minimum data exchange during FFTs selected (reduces bandwidth)
 parallel 3D FFT for charge:
    minimum data exchange during FFTs selected (reduces bandwidth)


 FFT grid for exact exchange (Hartree Fock) 
  NGX = 20; NGY = 20; NGZ =160

 
 Radii for the augmentation spheres in the non-local exchange
 for species   1 augmentation radius   1.490 (default was   1.230)
       energy cutoff for augmentation   2600.0
 for species   2 augmentation radius   1.034 (default was   0.970)
       energy cutoff for augmentation   2600.0

 real space projection operators:
  total allocation   :       1972.12 KBytes
  max/ min on nodes  :        495.95        491.02

 Maximum index for augmentation-charges in exchange         1018
  SETUP_FOCK is finished

 total amount of memory used by VASP MPI-rank0    60605. kBytes
=======================================================================

   base      :      30000. kBytes
   nonl-proj :       8668. kBytes
   fftplans  :       5224. kBytes
   grid      :       6935. kBytes
   one-center:         31. kBytes
   HF        :        129. kBytes
   nonlr-proj:       1038. kBytes
   wavefun   :       8580. kBytes
 
     INWAV:  cpu time    0.0000: real time    0.0000
 Broyden mixing: mesh for mixing (old mesh)
   NGX = 13   NGY = 13   NGZ =103
  (NGX  = 56   NGY  = 56   NGZ  =420)
  gives a total of  17407 points

 initial charge density was supplied:
 charge density of overlapping atoms calculated
 number of electron      36.0000000 magnetization 
 charge density for first step will be calculated from the start-wavefunctions


--------------------------------------------------------------------------------------------------------


 BZINTS: Fermi energy: 40.250468; 36.000000 electrons
         Band energy: 840.962721;  BLOECHL correction:-16.597834
 Maximum index for augmentation-charges         3508 (set IRDMAX)


--------------------------------------------------------------------------------------------------------


 First call to EWALD:  gamma=   0.294
 Maximum number of real-space cells 5x 5x 1
 Maximum number of reciprocal cells 2x 2x10

    FEWALD:  cpu time    0.0020: real time    0.0016

 ----------------------------------------------------------------------------- 
|                                                                             |
|           W    W    AA    RRRRR   N    N  II  N    N   GGGG   !!!           |
|           W    W   A  A   R    R  NN   N  II  NN   N  G    G  !!!           |
|           W    W  A    A  R    R  N N  N  II  N N  N  G       !!!           |
|           W WW W  AAAAAA  RRRRR   N  N N  II  N  N N  G  GGG   !            |
|           WW  WW  A    A  R   R   N   NN  II  N   NN  G    G                |
|           W    W  A    A  R    R  N    N  II  N    N   GGGG   !!!           |
|                                                                             |
|      ALGO=A and IALGO=5X tend to fail with the tetrahedron method           |
|      (e.g. Bloechls method ISMEAR=-5 is not variational)                    |
|      please switch to IMSEAR=0-n, except for DOS calculations               |
|      For DOS calculations use IALGO=53 after preconverging with ISMEAR>=0   |
|          I HOPE YOU KNOW, WHAT YOU ARE  DOING                               |
|                                                                             |
 ----------------------------------------------------------------------------- 



--------------------------------------- Iteration      1(   1)  ---------------------------------------


    POTLOK:  cpu time    0.3959: real time    0.3970
    SETDIJ:  cpu time    0.1340: real time    0.1342
 BZINTS: Fermi energy: 21.182844; 36.000000 electrons
         Band energy: 348.079726;  BLOECHL correction: -0.344536
    TRIAL :  cpu time    1.2008: real time    1.2718
 BZINTS: Fermi energy: 21.182844; 36.000000 electrons
         Band energy: 348.079726;  BLOECHL correction: -0.344536
    CORREC:  cpu time    0.3100: real time    0.3097
    --------------------------------------------
      LOOP:  cpu time    2.0437: real time    2.1163

 eigenvalue-minimisations  :   968
 total energy-change (2. order) : 0.4851650E+03  (-0.1453338E+04)
 number of electron      36.0000000 magnetization 
 augmentation part       36.0000000 magnetization 

 Free energy of the ion-electron system (eV)
  ---------------------------------------------------
  alpha Z        PSCENC =        54.34637412
  Ewald energy   TEWEN  =      4400.59424333
  -Hartree energ DENC   =     -5905.73352289
  -exchange      EXHF   =         0.00000000
  -V(xc)+E(xc)   XCENC  =       -60.31609395
  PAW double counting   =       797.20416991     -672.28979984
  entropy T*S    EENTRO =         0.00000000
  eigenvalues    EBANDS =       348.07972560
  atomic energy  EATOM  =      1523.27991600
  ---------------------------------------------------
  free energy    TOTEN  =       485.16501229 eV

  energy without entropy =      485.16501229  energy(sigma->0) =      485.16501229
  exchange ACFDT corr.  =         0.00000000  see jH, gK, PRB 81, 115126


--------------------------------------------------------------------------------------------------------




--------------------------------------- Iteration      1(   2)  ---------------------------------------


 BZINTS: Fermi energy: 10.515720; 36.000000 electrons
         Band energy:  56.648944;  BLOECHL correction: -0.151375
    TRIAL :  cpu time    1.2518: real time    1.2531
 BZINTS: Fermi energy: 10.515720; 36.000000 electrons
         Band energy:  56.648944;  BLOECHL correction: -0.151375
    CORREC:  cpu time    0.1210: real time    0.1203
    --------------------------------------------
      LOOP:  cpu time    1.3898: real time    1.4053

 eigenvalue-minimisations  :  1344
 total energy-change (2. order) :-0.2914308E+03  (-0.2788992E+03)
 number of electron      36.0000000 magnetization 
 augmentation part       36.0000000 magnetization 

 Free energy of the ion-electron system (eV)
  ---------------------------------------------------
  alpha Z        PSCENC =        54.34637412
  Ewald energy   TEWEN  =      4400.59424333
  -Hartree energ DENC   =     -5905.73352289
  -exchange      EXHF   =         0.00000000
  -V(xc)+E(xc)   XCENC  =       -60.31609395
  PAW double counting   =       797.20416991     -672.28979984
  entropy T*S    EENTRO =         0.00000000
  eigenvalues    EBANDS =        56.64894373
  atomic energy  EATOM  =      1523.27991600
  ---------------------------------------------------
  free energy    TOTEN  =       193.73423041 eV

  energy without entropy =      193.73423041  energy(sigma->0) =      193.73423041
  exchange ACFDT corr.  =         0.00000000  see jH, gK, PRB 81, 115126


--------------------------------------------------------------------------------------------------------




--------------------------------------- Iteration      1(   3)  ---------------------------------------


 BZINTS: Fermi energy:  7.402302; 36.000000 electrons
         Band energy: -47.076465;  BLOECHL correction: -0.149010
    TRIAL :  cpu time    1.1968: real time    1.1972
 BZINTS: Fermi energy:  7.402302; 36.000000 electrons
         Band energy: -47.076465;  BLOECHL correction: -0.149010
    CORREC:  cpu time    0.0650: real time    0.0646
    --------------------------------------------
      LOOP:  cpu time    1.2688: real time    1.2816

 eigenvalue-minimisations  :  1344
 total energy-change (2. order) :-0.1037254E+03  (-0.9945257E+02)
 number of electron      36.0000000 magnetization 
 augmentation part       36.0000000 magnetization 

 Free energy of the ion-electron system (eV)
  ---------------------------------------------------
  alpha Z        PSCENC =        54.34637412
  Ewald energy   TEWEN  =      4400.59424333
  -Hartree energ DENC   =     -5905.73352289
  -exchange      EXHF   =         0.00000000
  -V(xc)+E(xc)   XCENC  =       -60.31609395
  PAW double counting   =       797.20416991     -672.28979984
  entropy T*S    EENTRO =         0.00000000
  eigenvalues    EBANDS =       -47.07646495
  atomic energy  EATOM  =      1523.27991600
  ---------------------------------------------------
  free energy    TOTEN  =        90.00882174 eV

  energy without entropy =       90.00882174  energy(sigma->0) =       90.00882174
  exchange ACFDT corr.  =         0.00000000  see jH, gK, PRB 81, 115126


--------------------------------------------------------------------------------------------------------




--------------------------------------- Iteration      1(   4)  ---------------------------------------


 BZINTS: Fermi energy:  5.737658; 36.000000 electrons
         Band energy: -91.455062;  BLOECHL correction: -0.162730
    TRIAL :  cpu time    1.1678: real time    1.1820
 BZINTS: Fermi energy:  5.737658; 36.000000 electrons
         Band energy: -91.455062;  BLOECHL correction: -0.162730
    CORREC:  cpu time    0.0340: real time    0.0344
    --------------------------------------------
      LOOP:  cpu time    1.2058: real time    1.2305

 eigenvalue-minimisations  :  1344
 total energy-change (2. order) :-0.4437860E+02  (-0.4305196E+02)
 number of electron      36.0000000 magnetization 
 augmentation part       36.0000000 magnetization 

 Free energy of the ion-electron system (eV)
  ---------------------------------------------------
  alpha Z        PSCENC =        54.34637412
  Ewald energy   TEWEN  =      4400.59424333
  -Hartree energ DENC   =     -5905.73352289
  -exchange      EXHF   =         0.00000000
  -V(xc)+E(xc)   XCENC  =       -60.31609395
  PAW double counting   =       797.20416991     -672.28979984
  entropy T*S    EENTRO =         0.00000000
  eigenvalues    EBANDS =       -91.45506159
  atomic energy  EATOM  =      1523.27991600
  ---------------------------------------------------
  free energy    TOTEN  =        45.63022510 eV

  energy without entropy =       45.63022510  energy(sigma->0) =       45.63022510
  exchange ACFDT corr.  =         0.00000000  see jH, gK, PRB 81, 115126


--------------------------------------------------------------------------------------------------------




--------------------------------------- Iteration      1(   5)  ---------------------------------------


 BZINTS: Fermi energy:  4.670000; 36.000000 electrons
         Band energy:-113.389974;  BLOECHL correction:  0.000000
    TRIAL :  cpu time    1.1558: real time    1.1564
 BZINTS: Fermi energy:  4.670000; 36.000000 electrons
         Band energy:-113.389974;  BLOECHL correction:  0.000000
    CORREC:  cpu time    0.0130: real time    0.0134
    CHARGE:  cpu time    0.3349: real time    0.3348
    --------------------------------------------
      LOOP:  cpu time    1.5068: real time    1.5156

 eigenvalue-minimisations  :  1344
 total energy-change (2. order) :-0.2193491E+02  (-0.2145210E+02)
 number of electron      35.9999999 magnetization 
 augmentation part       -0.7031977 magnetization 

 Free energy of the ion-electron system (eV)
  ---------------------------------------------------
  alpha Z        PSCENC =        54.34637412
  Ewald energy   TEWEN  =      4400.59424333
  -Hartree energ DENC   =     -5905.73352289
  -exchange      EXHF   =         0.00000000
  -V(xc)+E(xc)   XCENC  =       -60.31609395
  PAW double counting   =       797.20416991     -672.28979984
  entropy T*S    EENTRO =         0.00000000
  eigenvalues    EBANDS =      -113.38997355
  atomic energy  EATOM  =      1523.27991600
  ---------------------------------------------------
  free energy    TOTEN  =        23.69531314 eV

  energy without entropy =       23.69531314  energy(sigma->0) =       23.69531314
  exchange ACFDT corr.  =         0.00000000  see jH, gK, PRB 81, 115126


--------------------------------------------------------------------------------------------------------




--------------------------------------- Iteration      1(   6)  ---------------------------------------


    POTLOK:  cpu time    0.3919: real time    0.3932
    SETDIJ:  cpu time    0.1360: real time    0.1346
    TRIAL :  cpu time  193.1296: real time  193.0878
 BZINTS: Fermi energy:  3.263089; 36.000000 electrons
         Band energy:-178.372541;  BLOECHL correction: -0.000576
    CORREC:  cpu time    0.0060: real time    0.0068
    CHARGE:  cpu time    0.3339: real time    0.3341
    --------------------------------------------
      LOOP:  cpu time  193.9995: real time  193.9655

 eigenvalue-minimisations  :     0
 total energy-change (2. order) :-0.4714338E+02  (-0.4979311E+02)
 number of electron      35.9999999 magnetization 
 augmentation part       -0.9250230 magnetization 

 Free energy of the ion-electron system (eV)
  ---------------------------------------------------
  alpha Z        PSCENC =        54.34637412
  Ewald energy   TEWEN  =      4400.59424333
  -Hartree energ DENC   =     -5596.77166094
  -exchange      EXHF   =        52.99163425
  -V(xc)+E(xc)   XCENC  =       -61.87345304
  PAW double counting   =       830.25405832     -707.85798412
  entropy T*S    EENTRO =         0.00000000
  eigenvalues    EBANDS =      -518.41119726
  atomic energy  EATOM  =      1523.27991600
  ---------------------------------------------------
  free energy    TOTEN  =       -23.44806933 eV

  energy without entropy =      -23.44806933  energy(sigma->0) =      -23.44806933
  exchange ACFDT corr.  =        -0.00000000  see jH, gK, PRB 81, 115126


--------------------------------------------------------------------------------------------------------




--------------------------------------- Iteration      1(   7)  ---------------------------------------


    POTLOK:  cpu time    0.3959: real time    0.3963
    SETDIJ:  cpu time    0.1350: real time    0.1340
    TRIAL :  cpu time  193.3726: real time  193.3440
 BZINTS: Fermi energy:  2.720000; 36.000000 electrons
         Band energy:-202.651730;  BLOECHL correction:  0.000000
    CORREC:  cpu time    0.0050: real time    0.0057
    CHARGE:  cpu time    0.3329: real time    0.3330
    --------------------------------------------
      LOOP:  cpu time  194.2435: real time  194.2205

 eigenvalue-minimisations  :     0
 total energy-change (2. order) :-0.1608025E+02  (-0.1303184E+02)
 number of electron      35.9999999 magnetization 
 augmentation part       -1.1805875 magnetization 

 Free energy of the ion-electron system (eV)
  ---------------------------------------------------
  alpha Z        PSCENC =        54.34637412
  Ewald energy   TEWEN  =      4400.59424333
  -Hartree energ DENC   =     -5961.92033599
  -exchange      EXHF   =        56.23775428
  -V(xc)+E(xc)   XCENC  =       -59.77277784
  PAW double counting   =       903.41106907     -781.52616848
  entropy T*S    EENTRO =         0.00000000
  eigenvalues    EBANDS =      -174.17839288
  atomic energy  EATOM  =      1523.27991600
  ---------------------------------------------------
  free energy    TOTEN  =       -39.52831838 eV

  energy without entropy =      -39.52831838  energy(sigma->0) =      -39.52831838
  exchange ACFDT corr.  =        -0.01921521  see jH, gK, PRB 81, 115126


--------------------------------------------------------------------------------------------------------




--------------------------------------- Iteration      1(   8)  ---------------------------------------


    POTLOK:  cpu time    0.3939: real time    0.3947
    SETDIJ:  cpu time    0.1340: real time    0.1340
    TRIAL :  cpu time  194.9644: real time  194.9365
 BZINTS: Fermi energy:  1.820000; 36.000000 electrons
         Band energy:-235.215631;  BLOECHL correction:  0.000000
    CORREC:  cpu time    0.0060: real time    0.0063
    CHARGE:  cpu time    0.3329: real time    0.3329
    --------------------------------------------
      LOOP:  cpu time  195.8332: real time  195.8162

 eigenvalue-minimisations  :     0
 total energy-change (2. order) :-0.5546827E+01  (-0.1422852E+02)
 number of electron      35.9999999 magnetization 
 augmentation part       -1.1829072 magnetization 

 Free energy of the ion-electron system (eV)
  ---------------------------------------------------
  alpha Z        PSCENC =        54.34637412
  Ewald energy   TEWEN  =      4400.59424333
  -Hartree energ DENC   =     -5796.39055949
  -exchange      EXHF   =        57.70446307
  -V(xc)+E(xc)   XCENC  =       -58.90769227
  PAW double counting   =       913.33442153     -791.46825445
  entropy T*S    EENTRO =         0.00000000
  eigenvalues    EBANDS =      -347.56805683
  atomic energy  EATOM  =      1523.27991600
  ---------------------------------------------------
  free energy    TOTEN  =       -45.07514499 eV

  energy without entropy =      -45.07514499  energy(sigma->0) =      -45.07514499
  exchange ACFDT corr.  =        -0.00315811  see jH, gK, PRB 81, 115126


--------------------------------------------------------------------------------------------------------




--------------------------------------- Iteration      1(   9)  ---------------------------------------


    POTLOK:  cpu time    0.3939: real time    0.3943
    SETDIJ:  cpu time    0.1350: real time    0.1341
    TRIAL :  cpu time  194.1015: real time  194.0742
 BZINTS: Fermi energy:  1.280000; 36.000000 electrons
         Band energy:-242.069822;  BLOECHL correction:  0.000000
    CORREC:  cpu time    0.0040: real time    0.0043
    CHARGE:  cpu time    0.3329: real time    0.3335
    --------------------------------------------
      LOOP:  cpu time  194.9694: real time  194.9530

 eigenvalue-minimisations  :     0
 total energy-change (2. order) :-0.5356840E+01  (-0.3436332E+01)
 number of electron      35.9999999 magnetization 
 augmentation part       -1.1152608 magnetization 

 Free energy of the ion-electron system (eV)
  ---------------------------------------------------
  alpha Z        PSCENC =        54.34637412
  Ewald energy   TEWEN  =      4400.59424333
  -Hartree energ DENC   =     -5950.49018666
  -exchange      EXHF   =        58.45809978
  -V(xc)+E(xc)   XCENC  =       -58.62113562
  PAW double counting   =       918.57168308     -796.89117711
  entropy T*S    EENTRO =         0.00000000
  eigenvalues    EBANDS =      -199.67980187
  atomic energy  EATOM  =      1523.27991600
  ---------------------------------------------------
  free energy    TOTEN  =       -50.43198494 eV

  energy without entropy =      -50.43198494  energy(sigma->0) =      -50.43198494
  exchange ACFDT corr.  =        -0.00041142  see jH, gK, PRB 81, 115126


--------------------------------------------------------------------------------------------------------




--------------------------------------- Iteration      1(  10)  ---------------------------------------


    POTLOK:  cpu time    0.3949: real time    0.3956
    SETDIJ:  cpu time    0.1350: real time    0.1341
    TRIAL :  cpu time  195.0064: real time  194.9776
 BZINTS: Fermi energy:  0.590000; 36.000000 electrons
         Band energy:-249.020052;  BLOECHL correction:  0.000000
    CORREC:  cpu time    0.0020: real time    0.0018
    CHARGE:  cpu time    0.3320: real time    0.3324
    --------------------------------------------
      LOOP:  cpu time  195.8712: real time  195.8509

 eigenvalue-minimisations  :     0
 total energy-change (2. order) :-0.2101161E+01  (-0.2532449E+01)
 number of electron      35.9999999 magnetization 
 augmentation part       -1.0898957 magnetization 

 Free energy of the ion-electron system (eV)
  ---------------------------------------------------
  alpha Z        PSCENC =        54.34637412
  Ewald energy   TEWEN  =      4400.59424333
  -Hartree energ DENC   =     -5883.33393564
  -exchange      EXHF   =        58.52604260
  -V(xc)+E(xc)   XCENC  =       -58.82897791
  PAW double counting   =       919.88885712     -798.37253686
  entropy T*S    EENTRO =         0.00000000
  eigenvalues    EBANDS =      -268.63312835
  atomic energy  EATOM  =      1523.27991600
  ---------------------------------------------------
  free energy    TOTEN  =       -52.53314558 eV

  energy without entropy =      -52.53314558  energy(sigma->0) =      -52.53314558
  exchange ACFDT corr.  =        -0.00000000  see jH, gK, PRB 81, 115126


--------------------------------------------------------------------------------------------------------




--------------------------------------- Iteration      1(  11)  ---------------------------------------


    POTLOK:  cpu time    0.3949: real time    0.3956
    SETDIJ:  cpu time    0.1350: real time    0.1341
    TRIAL :  cpu time  194.8404: real time  194.8120
 BZINTS: Fermi energy:  0.295005; 36.000000 electrons
         Band energy:-249.809470;  BLOECHL correction:  0.000000
    CORREC:  cpu time    0.0020: real time    0.0015
    CHARGE:  cpu time    0.3329: real time    0.3331
    --------------------------------------------
      LOOP:  cpu time  195.7062: real time  195.6914

 eigenvalue-minimisations  :     0
 total energy-change (2. order) :-0.1812363E+01  (-0.1144267E+01)
 number of electron      35.9999999 magnetization 
 augmentation part       -1.1135168 magnetization 

 Free energy of the ion-electron system (eV)
  ---------------------------------------------------
  alpha Z        PSCENC =        54.34637412
  Ewald energy   TEWEN  =      4400.59424333
  -Hartree energ DENC   =     -5917.06624870
  -exchange      EXHF   =        58.80961761
  -V(xc)+E(xc)   XCENC  =       -58.76086678
  PAW double counting   =       925.43549259     -804.01515812
  entropy T*S    EENTRO =         0.00000000
  eigenvalues    EBANDS =      -236.96887815
  atomic energy  EATOM  =      1523.27991600
  ---------------------------------------------------
  free energy    TOTEN  =       -54.34550810 eV

  energy without entropy =      -54.34550810  energy(sigma->0) =      -54.34550810
  exchange ACFDT corr.  =        -0.00000000  see jH, gK, PRB 81, 115126


--------------------------------------------------------------------------------------------------------




--------------------------------------- Iteration      1(  12)  ---------------------------------------


    POTLOK:  cpu time    0.3959: real time    0.3963
    SETDIJ:  cpu time    0.1350: real time    0.1341
    TRIAL :  cpu time  193.5856: real time  193.5578
 BZINTS: Fermi energy:  0.140000; 36.000000 electrons
         Band energy:-247.529115;  BLOECHL correction:  0.000000
    CORREC:  cpu time    0.0010: real time    0.0017
    CHARGE:  cpu time    0.3339: real time    0.3331
    --------------------------------------------
      LOOP:  cpu time  194.4524: real time  194.4356

 eigenvalue-minimisations  :     0
 total energy-change (2. order) :-0.8859405E+00  (-0.7045262E+00)
 number of electron      35.9999999 magnetization 
 augmentation part       -1.1307657 magnetization 

 Free energy of the ion-electron system (eV)
  ---------------------------------------------------
  alpha Z        PSCENC =        54.34637412
  Ewald energy   TEWEN  =      4400.59424333
  -Hartree energ DENC   =     -5921.86766171
  -exchange      EXHF   =        59.02300231
  -V(xc)+E(xc)   XCENC  =       -58.66891373
  PAW double counting   =       926.08426119     -804.64308973
  entropy T*S    EENTRO =         0.00000000
  eigenvalues    EBANDS =      -233.37958039
  atomic energy  EATOM  =      1523.27991600
  ---------------------------------------------------
  free energy    TOTEN  =       -55.23144861 eV

  energy without entropy =      -55.23144861  energy(sigma->0) =      -55.23144861
  exchange ACFDT corr.  =        -0.00000000  see jH, gK, PRB 81, 115126


--------------------------------------------------------------------------------------------------------




--------------------------------------- Iteration      1(  13)  ---------------------------------------


    POTLOK:  cpu time    0.3959: real time    0.3968
    SETDIJ:  cpu time    0.1350: real time    0.1341
    TRIAL :  cpu time  193.2426: real time  193.2150
 BZINTS: Fermi energy: -0.030000; 36.000000 electrons
         Band energy:-245.023760;  BLOECHL correction:  0.000000
    CORREC:  cpu time    0.0010: real time    0.0018
    CHARGE:  cpu time    0.3339: real time    0.3332
    --------------------------------------------
      LOOP:  cpu time  194.1095: real time  194.0922

 eigenvalue-minimisations  :     0
 total energy-change (2. order) :-0.6115261E+00  (-0.4722062E+00)
 number of electron      35.9999999 magnetization 
 augmentation part       -1.1274554 magnetization 

 Free energy of the ion-electron system (eV)
  ---------------------------------------------------
  alpha Z        PSCENC =        54.34637412
  Ewald energy   TEWEN  =      4400.59424333
  -Hartree energ DENC   =     -5918.98666307
  -exchange      EXHF   =        59.17376929
  -V(xc)+E(xc)   XCENC  =       -58.60250907
  PAW double counting   =       926.23877649     -804.77998582
  entropy T*S    EENTRO =         0.00000000
  eigenvalues    EBANDS =      -237.10689593
  atomic energy  EATOM  =      1523.27991600
  ---------------------------------------------------
  free energy    TOTEN  =       -55.84297466 eV

  energy without entropy =      -55.84297466  energy(sigma->0) =      -55.84297466
  exchange ACFDT corr.  =        -0.00000000  see jH, gK, PRB 81, 115126


--------------------------------------------------------------------------------------------------------




--------------------------------------- Iteration      1(  14)  ---------------------------------------


    POTLOK:  cpu time    0.3949: real time    0.3963
    SETDIJ:  cpu time    0.1350: real time    0.1341
    TRIAL :  cpu time  193.5156: real time  193.4878
 BZINTS: Fermi energy: -0.207500; 36.000000 electrons
         Band energy:-242.958196;  BLOECHL correction:  0.000000
    CORREC:  cpu time    0.0010: real time    0.0018
    CHARGE:  cpu time    0.3329: real time    0.3333
    --------------------------------------------
      LOOP:  cpu time  194.3805: real time  194.3656

 eigenvalue-minimisations  :     0
 total energy-change (2. order) :-0.4029487E+00  (-0.2858932E+00)
 number of electron      35.9999999 magnetization 
 augmentation part       -1.1208100 magnetization 

 Free energy of the ion-electron system (eV)
  ---------------------------------------------------
  alpha Z        PSCENC =        54.34637412
  Ewald energy   TEWEN  =      4400.59424333
  -Hartree energ DENC   =     -5918.60753246
  -exchange      EXHF   =        59.24404582
  -V(xc)+E(xc)   XCENC  =       -58.59530295
  PAW double counting   =       927.00164306     -805.55502680
  entropy T*S    EENTRO =         0.00000000
  eigenvalues    EBANDS =      -237.95428353
  atomic energy  EATOM  =      1523.27991600
  ---------------------------------------------------
  free energy    TOTEN  =       -56.24592341 eV

  energy without entropy =      -56.24592341  energy(sigma->0) =      -56.24592341
  exchange ACFDT corr.  =        -0.00000000  see jH, gK, PRB 81, 115126


--------------------------------------------------------------------------------------------------------




--------------------------------------- Iteration      1(  15)  ---------------------------------------


    POTLOK:  cpu time    0.3959: real time    0.3965
    SETDIJ:  cpu time    0.1350: real time    0.1341
    TRIAL :  cpu time  193.8035: real time  193.7755
 BZINTS: Fermi energy: -0.367499; 36.000000 electrons
         Band energy:-241.073078;  BLOECHL correction:  0.000000
    CORREC:  cpu time    0.0020: real time    0.0017
    CHARGE:  cpu time    0.3339: real time    0.3342
    --------------------------------------------
      LOOP:  cpu time  194.6724: real time  194.6537

 eigenvalue-minimisations  :     0
 total energy-change (2. order) :-0.2539542E+00  (-0.1910509E+00)
 number of electron      35.9999999 magnetization 
 augmentation part       -1.1209738 magnetization 

 Free energy of the ion-electron system (eV)
  ---------------------------------------------------
  alpha Z        PSCENC =        54.34637412
  Ewald energy   TEWEN  =      4400.59424333
  -Hartree energ DENC   =     -5920.80492247
  -exchange      EXHF   =        59.27560798
  -V(xc)+E(xc)   XCENC  =       -58.60775825
  PAW double counting   =       927.43815364     -806.00666140
  entropy T*S    EENTRO =         0.00000000
  eigenvalues    EBANDS =      -236.01483062
  atomic energy  EATOM  =      1523.27991600
  ---------------------------------------------------
  free energy    TOTEN  =       -56.49987765 eV

  energy without entropy =      -56.49987765  energy(sigma->0) =      -56.49987765
  exchange ACFDT corr.  =        -0.00000000  see jH, gK, PRB 81, 115126


--------------------------------------------------------------------------------------------------------




--------------------------------------- Iteration      1(  16)  ---------------------------------------


    POTLOK:  cpu time    0.3979: real time    0.3976
    SETDIJ:  cpu time    0.1340: real time    0.1342
    TRIAL :  cpu time  193.6926: real time  193.6639
 BZINTS: Fermi energy: -0.509995; 36.000000 electrons
         Band energy:-239.619833;  BLOECHL correction:  0.000000
    CORREC:  cpu time    0.0020: real time    0.0016
    CHARGE:  cpu time    0.3319: real time    0.3326
    --------------------------------------------
      LOOP:  cpu time  194.5594: real time  194.5404

 eigenvalue-minimisations  :     0
 total energy-change (2. order) :-0.1715991E+00  (-0.1234868E+00)
 number of electron      35.9999999 magnetization 
 augmentation part       -1.1234076 magnetization 

 Free energy of the ion-electron system (eV)
  ---------------------------------------------------
  alpha Z        PSCENC =        54.34637412
  Ewald energy   TEWEN  =      4400.59424333
  -Hartree energ DENC   =     -5920.59062330
  -exchange      EXHF   =        59.30664793
  -V(xc)+E(xc)   XCENC  =       -58.60520753
  PAW double counting   =       927.40038080     -805.97260481
  entropy T*S    EENTRO =         0.00000000
  eigenvalues    EBANDS =      -236.43060324
  atomic energy  EATOM  =      1523.27991600
  ---------------------------------------------------
  free energy    TOTEN  =       -56.67147670 eV

  energy without entropy =      -56.67147670  energy(sigma->0) =      -56.67147670
  exchange ACFDT corr.  =        -0.00000000  see jH, gK, PRB 81, 115126


--------------------------------------------------------------------------------------------------------




--------------------------------------- Iteration      1(  17)  ---------------------------------------


    POTLOK:  cpu time    0.3949: real time    0.3960
    SETDIJ:  cpu time    0.1350: real time    0.1341
    TRIAL :  cpu time  192.2538: real time  192.2257
 BZINTS: Fermi energy: -0.634980; 36.000000 electrons
         Band energy:-238.733236;  BLOECHL correction:  0.000000
    CORREC:  cpu time    0.0010: real time    0.0015
    CHARGE:  cpu time    0.3329: real time    0.3331
    --------------------------------------------
      LOOP:  cpu time  193.1206: real time  193.1042

 eigenvalue-minimisations  :     0
 total energy-change (2. order) :-0.1108793E+00  (-0.7923796E-01)
 number of electron      35.9999999 magnetization 
 augmentation part       -1.1239235 magnetization 

 Free energy of the ion-electron system (eV)
  ---------------------------------------------------
  alpha Z        PSCENC =        54.34637412
  Ewald energy   TEWEN  =      4400.59424333
  -Hartree energ DENC   =     -5919.66416300
  -exchange      EXHF   =        59.33751043
  -V(xc)+E(xc)   XCENC  =       -58.59391781
  PAW double counting   =       927.44717504     -806.02023789
  entropy T*S    EENTRO =         0.00000000
  eigenvalues    EBANDS =      -237.50925625
  atomic energy  EATOM  =      1523.27991600
  ---------------------------------------------------
  free energy    TOTEN  =       -56.78235603 eV

  energy without entropy =      -56.78235603  energy(sigma->0) =      -56.78235603
  exchange ACFDT corr.  =        -0.00000000  see jH, gK, PRB 81, 115126


--------------------------------------------------------------------------------------------------------




--------------------------------------- Iteration      1(  18)  ---------------------------------------


    POTLOK:  cpu time    0.3969: real time    0.3970
    SETDIJ:  cpu time    0.1350: real time    0.1343
    TRIAL :  cpu time  188.9173: real time  188.8891
 BZINTS: Fermi energy: -0.732422; 36.000000 electrons
         Band energy:-238.071670;  BLOECHL correction:  0.000000
    CORREC:  cpu time    0.0010: real time    0.0014
    CHARGE:  cpu time    0.3339: real time    0.3333
    --------------------------------------------
      LOOP:  cpu time  189.7851: real time  189.7731

 eigenvalue-minimisations  :     0
 total energy-change (2. order) :-0.7161700E-01  (-0.5078055E-01)
 number of electron      35.9999999 magnetization 
 augmentation part       -1.1236582 magnetization 

 Free energy of the ion-electron system (eV)
  ---------------------------------------------------
  alpha Z        PSCENC =        54.34637412
  Ewald energy   TEWEN  =      4400.59424333
  -Hartree energ DENC   =     -5920.58256954
  -exchange      EXHF   =        59.36024478
  -V(xc)+E(xc)   XCENC  =       -58.58573128
  PAW double counting   =       927.72660718     -806.30276436
  entropy T*S    EENTRO =         0.00000000
  eigenvalues    EBANDS =      -236.69029327
  atomic energy  EATOM  =      1523.27991600
  ---------------------------------------------------
  free energy    TOTEN  =       -56.85397304 eV

  energy without entropy =      -56.85397304  energy(sigma->0) =      -56.85397304
  exchange ACFDT corr.  =        -0.00000000  see jH, gK, PRB 81, 115126


--------------------------------------------------------------------------------------------------------




--------------------------------------- Iteration      1(  19)  ---------------------------------------


    POTLOK:  cpu time    0.3949: real time    0.3960
    SETDIJ:  cpu time    0.1350: real time    0.1344
    TRIAL :  cpu time  194.4204: real time  194.3934
 BZINTS: Fermi energy: -0.809375; 36.000000 electrons
         Band energy:-237.578523;  BLOECHL correction:  0.000000
    CORREC:  cpu time    0.0010: real time    0.0012
    CHARGE:  cpu time    0.3329: real time    0.3325
    --------------------------------------------
      LOOP:  cpu time  195.2863: real time  195.2764

 eigenvalue-minimisations  :     0
 total energy-change (2. order) :-0.4582318E-01  (-0.3220234E-01)
 number of electron      35.9999999 magnetization 
 augmentation part       -1.1237529 magnetization 

 Free energy of the ion-electron system (eV)
  ---------------------------------------------------
  alpha Z        PSCENC =        54.34637412
  Ewald energy   TEWEN  =      4400.59424333
  -Hartree energ DENC   =     -5920.77960471
  -exchange      EXHF   =        59.37307008
  -V(xc)+E(xc)   XCENC  =       -58.58268544
  PAW double counting   =       927.91088437     -806.48884926
  entropy T*S    EENTRO =         0.00000000
  eigenvalues    EBANDS =      -236.55314471
  atomic energy  EATOM  =      1523.27991600
  ---------------------------------------------------
  free energy    TOTEN  =       -56.89979621 eV

  energy without entropy =      -56.89979621  energy(sigma->0) =      -56.89979621
  exchange ACFDT corr.  =        -0.00000000  see jH, gK, PRB 81, 115126


--------------------------------------------------------------------------------------------------------




--------------------------------------- Iteration      1(  20)  ---------------------------------------


    POTLOK:  cpu time    0.3959: real time    0.3963
    SETDIJ:  cpu time    0.1340: real time    0.1343
    TRIAL :  cpu time  194.6304: real time  194.6030
 BZINTS: Fermi energy: -0.849844; 36.000000 electrons
         Band energy:-237.272004;  BLOECHL correction:  0.000000
    CORREC:  cpu time    0.0010: real time    0.0013
    CHARGE:  cpu time    0.3340: real time    0.3332
    --------------------------------------------
      LOOP:  cpu time  195.4973: real time  195.4846

 eigenvalue-minimisations  :     0
 total energy-change (2. order) :-0.2901721E-01  (-0.2013965E-01)
 number of electron      35.9999999 magnetization 
 augmentation part       -1.1238602 magnetization 

 Free energy of the ion-electron system (eV)
  ---------------------------------------------------
  alpha Z        PSCENC =        54.34637412
  Ewald energy   TEWEN  =      4400.59424333
  -Hartree energ DENC   =     -5920.54023122
  -exchange      EXHF   =        59.38029679
  -V(xc)+E(xc)   XCENC  =       -58.58139676
  PAW double counting   =       927.94934863     -806.52721833
  entropy T*S    EENTRO =         0.00000000
  eigenvalues    EBANDS =      -236.83014599
  atomic energy  EATOM  =      1523.27991600
  ---------------------------------------------------
  free energy    TOTEN  =       -56.92881342 eV

  energy without entropy =      -56.92881342  energy(sigma->0) =      -56.92881342
  exchange ACFDT corr.  =        -0.00000000  see jH, gK, PRB 81, 115126


--------------------------------------------------------------------------------------------------------




--------------------------------------- Iteration      1(  21)  ---------------------------------------


    POTLOK:  cpu time    0.3949: real time    0.3953
    SETDIJ:  cpu time    0.1350: real time    0.1343
    TRIAL :  cpu time  185.8837: real time  185.8563
 BZINTS: Fermi energy: -0.854998; 36.000000 electrons
         Band energy:-237.059783;  BLOECHL correction:  0.000000
    CORREC:  cpu time    0.0010: real time    0.0016
    CHARGE:  cpu time    0.3319: real time    0.3323
    --------------------------------------------
      LOOP:  cpu time  186.7486: real time  186.7379

 eigenvalue-minimisations  :     0
 total energy-change (2. order) :-0.1808789E-01  (-0.1346931E-01)
 number of electron      35.9999999 magnetization 
 augmentation part       -1.1239538 magnetization 

 Free energy of the ion-electron system (eV)
  ---------------------------------------------------
  alpha Z        PSCENC =        54.34637412
  Ewald energy   TEWEN  =      4400.59424333
  -Hartree energ DENC   =     -5920.72396368
  -exchange      EXHF   =        59.38592334
  -V(xc)+E(xc)   XCENC  =       -58.57975114
  PAW double counting   =       928.00641904     -806.58493153
  entropy T*S    EENTRO =         0.00000000
  eigenvalues    EBANDS =      -236.67113078
  atomic energy  EATOM  =      1523.27991600
  ---------------------------------------------------
  free energy    TOTEN  =       -56.94690131 eV

  energy without entropy =      -56.94690131  energy(sigma->0) =      -56.94690131
  exchange ACFDT corr.  =        -0.00000000  see jH, gK, PRB 81, 115126


--------------------------------------------------------------------------------------------------------




--------------------------------------- Iteration      1(  22)  ---------------------------------------


    POTLOK:  cpu time    0.3969: real time    0.3965
    SETDIJ:  cpu time    0.1350: real time    0.1344
    TRIAL :  cpu time  192.7867: real time  192.7590
 BZINTS: Fermi energy: -0.860000; 36.000000 electrons
         Band energy:-236.922463;  BLOECHL correction:  0.000000
    CORREC:  cpu time    0.0020: real time    0.0018
    CHARGE:  cpu time    0.3329: real time    0.3332
    --------------------------------------------
      LOOP:  cpu time  193.6556: real time  193.6430

 eigenvalue-minimisations  :     0
 total energy-change (2. order) :-0.1104652E-01  (-0.7440583E-02)
 number of electron      35.9999999 magnetization 
 augmentation part       -1.1241341 magnetization 

 Free energy of the ion-electron system (eV)
  ---------------------------------------------------
  alpha Z        PSCENC =        54.34637412
  Ewald energy   TEWEN  =      4400.59424333
  -Hartree energ DENC   =     -5920.70671964
  -exchange      EXHF   =        59.39022044
  -V(xc)+E(xc)   XCENC  =       -58.57813940
  PAW double counting   =       928.06504833     -806.64461479
  entropy T*S    EENTRO =         0.00000000
  eigenvalues    EBANDS =      -236.70427620
  atomic energy  EATOM  =      1523.27991600
  ---------------------------------------------------
  free energy    TOTEN  =       -56.95794782 eV

  energy without entropy =      -56.95794782  energy(sigma->0) =      -56.95794782
  exchange ACFDT corr.  =        -0.00000000  see jH, gK, PRB 81, 115126


--------------------------------------------------------------------------------------------------------




--------------------------------------- Iteration      1(  23)  ---------------------------------------


    POTLOK:  cpu time    0.3949: real time    0.3960
    SETDIJ:  cpu time    0.1350: real time    0.1343
    TRIAL :  cpu time  192.9277: real time  192.8992
 BZINTS: Fermi energy: -0.862500; 36.000000 electrons
         Band energy:-236.828963;  BLOECHL correction:  0.000000
    CORREC:  cpu time    0.0010: real time    0.0020
    CHARGE:  cpu time    0.3320: real time    0.3319
    --------------------------------------------
      LOOP:  cpu time  193.7925: real time  193.7793

 eigenvalue-minimisations  :     0
 total energy-change (2. order) :-0.6628340E-02  (-0.4410232E-02)
 number of electron      35.9999999 magnetization 
 augmentation part       -1.1242351 magnetization 

 Free energy of the ion-electron system (eV)
  ---------------------------------------------------
  alpha Z        PSCENC =        54.34637412
  Ewald energy   TEWEN  =      4400.59424333
  -Hartree energ DENC   =     -5920.75748463
  -exchange      EXHF   =        59.39295465
  -V(xc)+E(xc)   XCENC  =       -58.57700708
  PAW double counting   =       928.07738159     -806.65744209
  entropy T*S    EENTRO =         0.00000000
  eigenvalues    EBANDS =      -236.66351206
  atomic energy  EATOM  =      1523.27991600
  ---------------------------------------------------
  free energy    TOTEN  =       -56.96457616 eV

  energy without entropy =      -56.96457616  energy(sigma->0) =      -56.96457616
  exchange ACFDT corr.  =        -0.00000000  see jH, gK, PRB 81, 115126


--------------------------------------------------------------------------------------------------------




--------------------------------------- Iteration      1(  24)  ---------------------------------------


    POTLOK:  cpu time    0.3939: real time    0.3952
    SETDIJ:  cpu time    0.1350: real time    0.1343
    TRIAL :  cpu time  193.3046: real time  193.2774
 BZINTS: Fermi energy: -0.865000; 36.000000 electrons
         Band energy:-236.771305;  BLOECHL correction:  0.000000
    CORREC:  cpu time    0.0020: real time    0.0021
    CHARGE:  cpu time    0.3319: real time    0.3328
    --------------------------------------------
      LOOP:  cpu time  194.1705: real time  194.1526

 eigenvalue-minimisations  :     0
 total energy-change (2. order) :-0.3919557E-02  (-0.2608461E-02)
 number of electron      35.9999999 magnetization 
 augmentation part       -1.1243289 magnetization 

 Free energy of the ion-electron system (eV)
  ---------------------------------------------------
  alpha Z        PSCENC =        54.34637412
  Ewald energy   TEWEN  =      4400.59424333
  -Hartree energ DENC   =     -5920.73687187
  -exchange      EXHF   =        59.39492989
  -V(xc)+E(xc)   XCENC  =       -58.57610620
  PAW double counting   =       928.08608168     -806.66672336
  entropy T*S    EENTRO =         0.00000000
  eigenvalues    EBANDS =      -236.69033931
  atomic energy  EATOM  =      1523.27991600
  ---------------------------------------------------
  free energy    TOTEN  =       -56.96849572 eV

  energy without entropy =      -56.96849572  energy(sigma->0) =      -56.96849572
  exchange ACFDT corr.  =        -0.00000000  see jH, gK, PRB 81, 115126


--------------------------------------------------------------------------------------------------------




--------------------------------------- Iteration      1(  25)  ---------------------------------------


    POTLOK:  cpu time    0.3939: real time    0.3945
    SETDIJ:  cpu time    0.1350: real time    0.1341
    TRIAL :  cpu time  194.3475: real time  194.3211
 BZINTS: Fermi energy: -0.867500; 36.000000 electrons
         Band energy:-236.729437;  BLOECHL correction:  0.000000
    CORREC:  cpu time    0.0020: real time    0.0021
    CHARGE:  cpu time    0.3339: real time    0.3332
    --------------------------------------------
      LOOP:  cpu time  195.2143: real time  195.2001

 eigenvalue-minimisations  :     0
 total energy-change (2. order) :-0.2324377E-02  (-0.1606764E-02)
 number of electron      35.9999999 magnetization 
 augmentation part       -1.1244572 magnetization 

 Free energy of the ion-electron system (eV)
  ---------------------------------------------------
  alpha Z        PSCENC =        54.34637412
  Ewald energy   TEWEN  =      4400.59424333
  -Hartree energ DENC   =     -5920.78496041
  -exchange      EXHF   =        59.39649989
  -V(xc)+E(xc)   XCENC  =       -58.57527138
  PAW double counting   =       928.09314531     -806.67437775
  entropy T*S    EENTRO =         0.00000000
  eigenvalues    EBANDS =      -236.64638921
  atomic energy  EATOM  =      1523.27991600
  ---------------------------------------------------
  free energy    TOTEN  =       -56.97082010 eV

  energy without entropy =      -56.97082010  energy(sigma->0) =      -56.97082010
  exchange ACFDT corr.  =        -0.00000000  see jH, gK, PRB 81, 115126


--------------------------------------------------------------------------------------------------------




--------------------------------------- Iteration      1(  26)  ---------------------------------------


    POTLOK:  cpu time    0.3929: real time    0.3934
    SETDIJ:  cpu time    0.1350: real time    0.1340
    TRIAL :  cpu time  194.5074: real time  194.4816
 BZINTS: Fermi energy: -0.870000; 36.000000 electrons
         Band energy:-236.704757;  BLOECHL correction:  0.000000
    CORREC:  cpu time    0.0020: real time    0.0021
    CHARGE:  cpu time    0.3329: real time    0.3333
    --------------------------------------------
      LOOP:  cpu time  195.3723: real time  195.3629

 eigenvalue-minimisations  :     0
 total energy-change (2. order) :-0.1440183E-02  (-0.1059211E-02)
 number of electron      35.9999999 magnetization 
 augmentation part       -1.1245539 magnetization 

 Free energy of the ion-electron system (eV)
  ---------------------------------------------------
  alpha Z        PSCENC =        54.34637412
  Ewald energy   TEWEN  =      4400.59424333
  -Hartree energ DENC   =     -5920.75970690
  -exchange      EXHF   =        59.39771713
  -V(xc)+E(xc)   XCENC  =       -58.57454286
  PAW double counting   =       928.09107733     -806.67273714
  entropy T*S    EENTRO =         0.00000000
  eigenvalues    EBANDS =      -236.67460129
  atomic energy  EATOM  =      1523.27991600
  ---------------------------------------------------
  free energy    TOTEN  =       -56.97226028 eV

  energy without entropy =      -56.97226028  energy(sigma->0) =      -56.97226028
  exchange ACFDT corr.  =        -0.00000000  see jH, gK, PRB 81, 115126


--------------------------------------------------------------------------------------------------------




--------------------------------------- Iteration      1(  27)  ---------------------------------------


    POTLOK:  cpu time    0.3919: real time    0.3927
    SETDIJ:  cpu time    0.1350: real time    0.1341
    TRIAL :  cpu time  194.2665: real time  194.2403
 BZINTS: Fermi energy: -0.870000; 36.000000 electrons
         Band energy:-236.683720;  BLOECHL correction:  0.000000
    CORREC:  cpu time    0.0020: real time    0.0021
    CHARGE:  cpu time    0.3329: real time    0.3336
    --------------------------------------------
      LOOP:  cpu time  195.1303: real time  195.1289

 eigenvalue-minimisations  :     0
[...]
     12      -3.3944      2.00000
     13      -3.2857      2.00000
     14      -3.2844      2.00000
     15      -2.3909      2.00000
     16      -2.2634      2.00000
     17      -1.5163      2.00000
     18      -1.4593      2.00000
     19       1.8492      0.00000
     20       2.0121      0.00000
     21       2.2560      0.00000
     22       2.2951      0.00000
     23       2.4741      0.00000
     24       2.8538      0.00000

 k-point     4 :       0.3000    0.0000    0.0000
  band No.  band energies     occupation 
      1     -15.4123      2.00000
      2     -15.4038      2.00000
      3     -14.7007      2.00000
      4     -14.6892      2.00000
      5      -6.6738      2.00000
      6      -6.6375      2.00000
      7      -5.4108      2.00000
      8      -5.3690      2.00000
      9      -5.3537      2.00000
     10      -5.3152      2.00000
     11      -3.9566      2.00000
     12      -3.9544      2.00000
     13      -2.7788      2.00000
     14      -2.7035      2.00000
     15      -2.7006      2.00000
     16      -2.6892      2.00000
     17      -2.0080      2.00000
     18      -1.9874      2.00000
     19       1.8757      0.00000
     20       1.9497      0.00000
     21       1.9572      0.00000
     22       2.0285      0.00000
     23       3.0007      0.00000
     24       3.1585      0.00000

 k-point     5 :       0.4000    0.0000    0.0000
  band No.  band energies     occupation 
      1     -14.8446      2.00000
      2     -14.8387      2.00000
      3     -14.4387      2.00000
      4     -14.4319      2.00000
      5      -7.1719      2.00000
      6      -7.1554      2.00000
      7      -6.0586      2.00000
      8      -6.0384      2.00000
      9      -5.4929      2.00000
     10      -5.4480      2.00000
     11      -4.3418      2.00000
     12      -4.3395      2.00000
     13      -3.0640      2.00000
     14      -3.0175      2.00000
     15      -2.2457      2.00000
     16      -2.2405      2.00000
     17      -1.9586      2.00000
     18      -1.9341      2.00000
     19       1.8802      0.00000
     20       1.8844      0.00000
     21       2.2311      0.00000
     22       2.3092      0.00000
     23       3.5803      0.00000
     24       3.9495      0.00000

 k-point     6 :       0.5000   -0.0000    0.0000
  band No.  band energies     occupation 
      1     -14.5989      2.00000
      2     -14.5952      2.00000
      3     -14.3290      2.00000
      4     -14.3253      2.00000
      5      -7.4243      2.00000
      6      -7.4100      2.00000
      7      -6.3296      2.00000
      8      -6.3153      2.00000
      9      -5.5943      2.00000
     10      -5.5530      2.00000
     11      -4.4771      2.00000
     12      -4.4748      2.00000
     13      -3.1444      2.00000
     14      -3.1369      2.00000
     15      -2.0823      2.00000
     16      -2.0759      2.00000
     17      -1.7299      2.00000
     18      -1.7269      2.00000
     19       1.9096      0.00000
     20       1.9118      0.00000
     21       2.4676      0.00000
     22       2.4983      0.00000
     23       3.7910      0.00000
     24       3.9630      0.00000

 k-point     7 :       0.1000    0.1000    0.0000
  band No.  band energies     occupation 
      1     -16.1490      2.00000
      2     -16.1390      2.00000
      3     -15.0529      2.00000
      4     -15.0367      2.00000
      5      -6.8065      2.00000
      6      -6.7228      2.00000
      7      -4.7910      2.00000
      8      -4.7892      2.00000
      9      -4.2017      2.00000
     10      -4.1002      2.00000
     11      -3.4564      2.00000
     12      -3.4550      2.00000
     13      -3.4536      2.00000
     14      -3.4476      2.00000
     15      -2.1498      2.00000
     16      -2.0276      2.00000
     17      -1.3758      2.00000
     18      -1.2949      2.00000
     19       1.9296      0.00000
     20       2.0671      0.00000
     21       2.2611      0.00000
     22       2.3219      0.00000
     23       2.3556      0.00000
     24       2.4596      0.00000

 k-point     8 :       0.2000    0.1000    0.0000
  band No.  band energies     occupation 
      1     -15.6314      2.00000
      2     -15.6222      2.00000
      3     -14.8025      2.00000
      4     -14.7894      2.00000
      5      -6.5265      2.00000
      6      -6.4696      2.00000
      7      -5.2982      2.00000
      8      -5.2750      2.00000
      9      -4.9192      2.00000
     10      -4.8736      2.00000
     11      -4.1773      2.00000
     12      -4.1504      2.00000
     13      -3.0976      2.00000
     14      -3.0964      2.00000
     15      -2.3182      2.00000
     16      -2.2376      2.00000
     17      -1.8130      2.00000
     18      -1.7950      2.00000
     19       1.6330      0.00000
     20       1.7659      0.00000
     21       2.1340      0.00000
     22       2.1924      0.00000
     23       2.4943      0.00000
     24       2.6722      0.00000

 k-point     9 :       0.3000    0.1000    0.0000
  band No.  band energies     occupation 
      1     -15.0362      2.00000
      2     -15.0291      2.00000
      3     -14.5196      2.00000
      4     -14.5108      2.00000
      5      -6.8384      2.00000
      6      -6.8172      2.00000
      7      -5.7972      2.00000
      8      -5.7805      2.00000
      9      -5.3521      2.00000
     10      -5.3082      2.00000
     11      -4.4604      2.00000
     12      -4.4333      2.00000
     13      -2.9876      2.00000
     14      -2.9822      2.00000
     15      -2.7527      2.00000
     16      -2.7105      2.00000
     17      -1.8456      2.00000
     18      -1.8379      2.00000
     19       1.7471      0.00000
     20       1.8389      0.00000
     21       2.1999      0.00000
     22       2.2397      0.00000
     23       3.0755      0.00000
     24       3.1932      0.00000

 k-point    10 :       0.4000    0.1000    0.0000
  band No.  band energies     occupation 
      1     -14.6111      2.00000
      2     -14.6069      2.00000
      3     -14.3228      2.00000
      4     -14.3184      2.00000
      5      -7.2086      2.00000
      6      -7.1944      2.00000
      7      -6.3594      2.00000
      8      -6.3513      2.00000
      9      -5.5025      2.00000
     10      -5.4627      2.00000
     11      -4.5161      2.00000
     12      -4.5011      2.00000
     13      -3.0845      2.00000
     14      -3.0654      2.00000
     15      -2.8688      2.00000
     16      -2.8615      2.00000
     17      -1.5222      2.00000
     18      -1.5126      2.00000
     19       1.8938      0.00000
     20       1.9171      0.00000
     21       2.4723      0.00000
     22       2.5134      0.00000
     23       3.6427      0.00000
     24       3.7415      0.00000

 k-point    11 :       0.2000    0.2000    0.0000
  band No.  band energies     occupation 
      1     -15.1093      2.00000
      2     -15.1018      2.00000
      3     -14.5478      2.00000
      4     -14.5383      2.00000
      5      -6.6199      2.00000
      6      -6.5940      2.00000
      7      -5.6175      2.00000
      8      -5.6093      2.00000
      9      -5.2068      2.00000
     10      -5.1714      2.00000
     11      -4.6980      2.00000
     12      -4.6410      2.00000
     13      -3.4960      2.00000
     14      -3.4950      2.00000
     15      -2.4702      2.00000
     16      -2.4398      2.00000
     17      -1.8242      2.00000
     18      -1.8231      2.00000
     19       1.6162      0.00000
     20       1.7613      0.00000
     21       2.2500      0.00000
     22       2.2719      0.00000
     23       2.6735      0.00000
     24       2.7845      0.00000

 k-point    12 :       0.3000    0.2000    0.0000
  band No.  band energies     occupation 
      1     -14.6305      2.00000
      2     -14.6256      2.00000
      3     -14.3126      2.00000
      4     -14.3072      2.00000
      5      -6.7850      2.00000
      6      -6.7706      2.00000
      7      -6.4042      2.00000
      8      -6.4001      2.00000
      9      -5.2081      2.00000
     10      -5.1801      2.00000
     11      -4.6100      2.00000
     12      -4.5672      2.00000
     13      -3.9857      2.00000
     14      -3.9731      2.00000
     15      -2.9315      2.00000
     16      -2.9212      2.00000
     17      -1.4960      2.00000
     18      -1.4898      2.00000
     19       1.7863      0.00000
     20       1.8509      0.00000
     21       2.5327      0.00000
     22       2.5738      0.00000
     23       3.0034      0.00000
     24       3.0991      0.00000

 k-point    13 :       0.4000    0.2000    0.0000
  band No.  band energies     occupation 
      1     -14.4297      2.00000
      2     -14.4272      2.00000
      3     -14.2134      2.00000
      4     -14.2108      2.00000
      5      -6.8154      2.00000
      6      -6.8042      2.00000
      7      -6.7093      2.00000
      8      -6.7062      2.00000
      9      -5.4190      2.00000
     10      -5.3884      2.00000
     11      -4.4673      2.00000
     12      -4.4386      2.00000
     13      -4.0597      2.00000
     14      -4.0483      2.00000
     15      -3.2251      2.00000
     16      -3.2027      2.00000
     17      -1.2093      2.00000
     18      -1.1977      2.00000
     19       1.6254      0.00000
     20       1.6353      0.00000
     21       2.9437      0.00000
     22       2.9517      0.00000
     23       3.1506      0.00000
     24       4.1733      0.00000

 k-point    14 :       0.3000    0.3000    0.0000
  band No.  band energies     occupation 
      1     -14.3634      2.00000
      2     -14.3615      2.00000
      3     -14.1673      2.00000
      4     -14.1653      2.00000
      5      -6.8707      2.00000
      6      -6.8644      2.00000
      7      -6.3833      2.00000
      8      -6.3746      2.00000
      9      -5.2549      2.00000
     10      -5.2488      2.00000
     11      -4.9336      2.00000
     12      -4.9142      2.00000
     13      -4.3589      2.00000
     14      -4.3296      2.00000
     15      -3.3441      2.00000
     16      -3.3274      2.00000
     17      -1.0471      2.00000
     18      -1.0374      2.00000
     19       1.3757      0.00000
     20       1.3834      0.00000
     21       2.8809      0.00000
     22       2.9822      0.00000
     23       3.1826      0.00000
     24       3.2199      0.00000


--------------------------------------------------------------------------------------------------------


 soft charge-density along one line, spin component           1
         0         1         2         3         4         5         6         7         8         9
 total charge-density along one line
 
 pseudopotential strength for first ion, spin component:           1
 -9.380   0.000  -0.000   0.000   0.000  -0.031  -0.000   0.000
  0.000  -9.380  -0.000  -0.000   0.000  -0.000  -0.031   0.000
 -0.000  -0.000  -9.342   0.000   0.000   0.000   0.000  -0.034
  0.000  -0.000   0.000  -9.380   0.000  -0.000   0.000  -0.000
  0.000   0.000   0.000   0.000  -9.380  -0.000  -0.000  -0.000
 -0.031  -0.000   0.000  -0.000  -0.000   0.110   0.000  -0.000
 -0.000  -0.031   0.000   0.000  -0.000   0.000   0.110  -0.000
  0.000   0.000  -0.034  -0.000  -0.000  -0.000  -0.000   0.110
 -0.000   0.000  -0.000  -0.031  -0.000   0.000  -0.000   0.000
 -0.000  -0.000  -0.000  -0.000  -0.031   0.000   0.000   0.000
 -0.000   0.000  -0.009  -0.000   0.000   0.000  -0.000   0.000
  0.000  -0.000   0.002   0.000  -0.000  -0.000   0.000  -0.000
 -0.000  -0.000  -0.000  -0.000  -0.005  -0.000  -0.000   0.000
 -0.000   0.000  -0.000  -0.000   0.000  -0.000  -0.000  -0.000
 -0.005  -0.000   0.000  -0.000   0.000  -0.000  -0.000  -0.000
  0.000   0.000   0.000   0.000   0.004  -0.000  -0.000  -0.000
  0.000  -0.000   0.000   0.000  -0.000   0.000   0.000  -0.000
  0.004   0.000  -0.000   0.000  -0.000  -0.000   0.000   0.000
 total augmentation occupancy for first ion, spin component:           1
  0.944  -0.000  -0.000   0.000   0.000   0.635   0.000  -0.000  -0.000  -0.000  -0.000   0.000  -0.000   0.000  -0.071   0.000
 -0.000   0.881  -0.000  -0.000   0.000  -0.000   0.882  -0.000  -0.000  -0.000  -0.000  -0.000   0.000   0.000   0.000  -0.000
 -0.000  -0.000   1.038   0.000   0.000   0.000   0.000   0.526  -0.000  -0.000   0.121  -0.031   0.000   0.000  -0.000  -0.000
  0.000  -0.000   0.000   0.881   0.000  -0.000   0.000   0.000   0.882   0.000   0.000  -0.000  -0.000   0.000   0.000   0.000
  0.000   0.000   0.000   0.000   0.944   0.000  -0.000   0.000  -0.000   0.635   0.000  -0.000  -0.071   0.000   0.000   0.006
  0.635  -0.000   0.000  -0.000   0.000   0.729   0.000   0.000  -0.000  -0.000   0.000  -0.000   0.000  -0.000  -0.143  -0.000
  0.000   0.882   0.000   0.000  -0.000   0.000   1.172   0.000   0.000  -0.000   0.000  -0.000   0.000   0.000  -0.000  -0.000
 -0.000  -0.000   0.526   0.000   0.000   0.000   0.000   0.502  -0.000  -0.000   0.060  -0.025   0.000   0.000  -0.000  -0.000
 -0.000  -0.000  -0.000   0.882  -0.000  -0.000   0.000  -0.000   1.172  -0.000  -0.000  -0.000   0.000  -0.000   0.000  -0.000
 -0.000  -0.000  -0.000   0.000   0.635  -0.000  -0.000  -0.000  -0.000   0.729  -0.000   0.000  -0.143  -0.000  -0.000   0.024
 -0.000  -0.000   0.121   0.000   0.000   0.000   0.000   0.060  -0.000  -0.000   1.174  -0.273   0.000   0.000  -0.000  -0.000
  0.000  -0.000  -0.031  -0.000  -0.000  -0.000  -0.000  -0.025  -0.000   0.000  -0.273   0.075  -0.000  -0.000   0.000   0.000
 -0.000   0.000   0.000  -0.000  -0.071   0.000   0.000   0.000   0.000  -0.143   0.000  -0.000   0.227   0.000  -0.000  -0.036
  0.000   0.000   0.000   0.000   0.000  -0.000   0.000   0.000  -0.000  -0.000   0.000  -0.000   0.000   0.278   0.000  -0.000
 -0.071   0.000  -0.000   0.000   0.000  -0.143  -0.000  -0.000   0.000  -0.000  -0.000   0.000  -0.000   0.000   0.227  -0.000
  0.000  -0.000  -0.000   0.000   0.006  -0.000  -0.000  -0.000  -0.000   0.024  -0.000   0.000  -0.036  -0.000  -0.000   0.006
 -0.000   0.000  -0.000  -0.000  -0.000   0.000   0.000  -0.000   0.000   0.000  -0.000   0.000  -0.000  -0.042  -0.000   0.000
  0.006  -0.000   0.000  -0.000  -0.000   0.024   0.000   0.000  -0.000   0.000   0.000  -0.000   0.000  -0.000  -0.036  -0.000


------------------------ aborting loop because EDIFF is reached ----------------------------------------


 


 total charge     
 
# of ion       s       p       d       tot
------------------------------------------
    1        0.425   0.627   4.334   5.386
    2        0.425   0.627   4.334   5.386
    3        1.359   2.340   0.000   3.699
    4        1.359   2.340   0.000   3.699
    5        1.359   2.340   0.000   3.699
    6        1.359   2.340   0.000   3.699
--------------------------------------------------
tot          6.285  10.615   8.668  25.568
 
    FORLOC:  cpu time    0.0100: real time    0.0093
    FORHF :  cpu time  206.3126: real time  206.2818
    FORNL :  cpu time    0.0710: real time    0.0701
    FORCOR:  cpu time    0.5229: real time    0.5239
    OFIELD:  cpu time    0.0000: real time    0.0005

 VOLUME and BASIS-vectors are now :
 -----------------------------------------------------------------------------
  energy-cutoff  :      650.00
  volume of cell :      218.22
      direct lattice vectors                 reciprocal lattice vectors
     3.183397116  0.000000000  0.000000000     0.314129832  0.181362943  0.000000000
    -1.591698558  2.756902773  0.000000000     0.000000000  0.362725886  0.000000000
     0.000000000  0.000000000 24.864586014     0.000000000  0.000000000  0.040217842

  length of vectors
     3.183397116  3.183397116 24.864586014     0.362725886  0.362725886  0.040217842


 FORCES acting on ions:
    Electron-Ion                     Ewald-Force                    Non-Local-Force
 -----------------------------------------------------------------------------------------------
   -.340E-04 -.628E-06 -.448E+03   0.932E-04 -.108E-03 0.448E+03   -.694E-17 0.139E-16 -.675E-03
   0.231E-04 0.875E-05 0.448E+03   -.929E-04 0.108E-03 -.448E+03   0.278E-16 -.139E-16 0.675E-03
   0.761E-03 -.401E-03 0.162E+02   0.867E-04 -.539E-04 -.114E+02   -.278E-16 0.416E-16 -.472E+01
   -.914E-03 0.467E-03 -.162E+02   -.867E-04 0.539E-04 0.114E+02   0.278E-16 -.416E-16 0.472E+01
   0.887E-03 0.462E-03 -.879E+03   -.670E-05 0.538E-04 0.884E+03   0.000E+00 0.139E-16 -.472E+01
   -.744E-03 -.526E-03 0.879E+03   0.643E-05 -.538E-04 -.884E+03   0.139E-16 -.139E-16 0.472E+01
 -----------------------------------------------------------------------------------------------
   -.227E-04 0.110E-04 0.155E-03   -.135E-14 0.478E-13 0.000E+00   0.347E-16 0.000E+00 0.000E+00
 
 
 POSITION                                       TOTAL-FORCE (eV/Angst)
 -----------------------------------------------------------------------------------
     -0.00000      1.83794      3.71759        -0.000000      0.000000      0.000227
      1.59170      0.91897     21.14699        -0.000000     -0.000000     -0.000227
     -0.00000      1.83794     22.71061         0.000000      0.000000     -0.434588
      1.59170      0.91897      2.15398        -0.000000     -0.000000      0.434588
      1.59170      0.91897      5.28115         0.000000      0.000000     -0.437009
      0.00000      1.83794     19.58343         0.000000      0.000000      0.437009
 -----------------------------------------------------------------------------------
    total drift:                               -0.000023      0.000011      0.000155


--------------------------------------------------------------------------------------------------------



  FREE ENERGIE OF THE ION-ELECTRON SYSTEM (eV)
  ---------------------------------------------------
  free  energy   TOTEN  =       -56.97663731 eV

  energy  without entropy=      -56.97663731  energy(sigma->0) =      -56.97663731
 


--------------------------------------------------------------------------------------------------------


    POTLOK:  cpu time    0.5249: real time    0.5237


--------------------------------------------------------------------------------------------------------


     LOOP+:  cpu time12798.2714: real time12798.0003
    4ORBIT:  cpu time    0.0000: real time    0.0000
 


 total charge     
 
# of ion       s       p       d       tot
------------------------------------------
    1        0.425   0.627   4.334   5.386
    2        0.425   0.627   4.334   5.386
    3        1.359   2.340   0.000   3.699
    4        1.359   2.340   0.000   3.699
    5        1.359   2.340   0.000   3.699
    6        1.359   2.340   0.000   3.699
--------------------------------------------------
tot          6.285  10.615   8.668  25.568
 
 BZINTS: Fermi energy: -0.872500; 36.000000 electrons
         Band energy:-236.619293;  BLOECHL correction:  0.000000

 total amount of memory used by VASP MPI-rank0    61892. kBytes
=======================================================================

   base      :      30000. kBytes
   nonl-proj :       8668. kBytes
   fftplans  :       5224. kBytes
   grid      :       6935. kBytes
   one-center:         31. kBytes
   HF        :        129. kBytes
   nonlr-proj:       2325. kBytes
   wavefun   :       8580. kBytes
 
  
  
 General timing and accounting informations for this job:
 ========================================================
  
                  Total CPU time used (sec):    12822.042
                            User time (sec):    12801.428
                          System time (sec):       20.614
                         Elapsed time (sec):    12822.557
  
                   Maximum memory used (kb):      187764.
                   Average memory used (kb):           0.
  
                          Minor page faults:        47281
                          Major page faults:          119
                 Voluntary context switches:         3814
