PROCAR lm decomposed
# of k-points:   14         # of bands:   24         # of ions:    6

 k-point     1 :    0.00000000 0.00000000 0.00000000     weight = 0.01000000

band     1 # energy  -16.59469784 # occ.  2.00000000
 
ion      s     py     pz     px    dxy    dyz    dz2    dxz  x2-y2    tot
    1  0.067  0.000  0.000  0.000  0.000  0.000  0.000  0.000  0.000  0.067
    2  0.067  0.000  0.000  0.000  0.000  0.000  0.000  0.000  0.000  0.068
    3  0.139  0.000  0.002  0.000  0.000  0.000  0.000  0.000  0.000  0.142
    4  0.139  0.000  0.002  0.000  0.000  0.000  0.000  0.000  0.000  0.141
    5  0.136  0.000  0.002  0.000  0.000  0.000  0.000  0.000  0.000  0.138
    6  0.136  0.000  0.002  0.000  0.000  0.000  0.000  0.000  0.000  0.139
tot    0.685  0.000  0.010  0.000  0.000  0.000  0.000  0.000  0.000  0.695
 
band     2 # energy  -16.58421230 # occ.  2.00000000
 
ion      s     py     pz     px    dxy    dyz    dz2    dxz  x2-y2    tot
    1  0.068  0.000  0.000  0.000  0.000  0.000  0.000  0.000  0.000  0.068
    2  0.067  0.000  0.000  0.000  0.000  0.000  0.000  0.000  0.000  0.068
    3  0.136  0.000  0.002  0.000  0.000  0.000  0.000  0.000  0.000  0.139
    4  0.137  0.000  0.002  0.000  0.000  0.000  0.000  0.000  0.000  0.139
    5  0.139  0.000  0.002  0.000  0.000  0.000  0.000  0.000  0.000  0.142
    6  0.139  0.000  0.002  0.000  0.000  0.000  0.000  0.000  0.000  0.141
tot    0.686  0.000  0.010  0.000  0.000  0.000  0.000  0.000  0.000  0.696
 
band     3 # energy  -15.27019813 # occ.  2.00000000
 
ion      s     py     pz     px    dxy    dyz    dz2    dxz  x2-y2    tot
    1  0.000  0.000  0.030  0.000  0.000  0.000  0.000  0.000  0.000  0.030
    2  0.000  0.000  0.030  0.000  0.000  0.000  0.000  0.000  0.000  0.030
    3  0.155  0.000  0.000  0.000  0.000  0.000  0.000  0.000  0.000  0.156
    4  0.155  0.000  0.000  0.000  0.000  0.000  0.000  0.000  0.000  0.155
    5  0.158  0.000  0.000  0.000  0.000  0.000  0.000  0.000  0.000  0.159
    6  0.159  0.000  0.000  0.000  0.000  0.000  0.000  0.000  0.000  0.159
tot    0.628  0.000  0.062  0.000  0.000  0.000  0.000  0.000  0.000  0.689
 
band     4 # energy  -15.25139687 # occ.  2.00000000
 
ion      s     py     pz     px    dxy    dyz    dz2    dxz  x2-y2    tot
    1  0.000  0.000  0.031  0.000  0.000  0.000  0.000  0.000  0.000  0.031
    2  0.000  0.000  0.031  0.000  0.000  0.000  0.000  0.000  0.000  0.031
    3  0.159  0.000  0.000  0.000  0.000  0.000  0.000  0.000  0.000  0.159
    4  0.159  0.000  0.000  0.000  0.000  0.000  0.000  0.000  0.000  0.159
    5  0.156  0.000  0.000  0.000  0.000  0.000  0.000  0.000  0.000  0.156
    6  0.156  0.000  0.000  0.000  0.000  0.000  0.000  0.000  0.000  0.156
tot    0.630  0.000  0.062  0.000  0.000  0.000  0.000  0.000  0.000  0.692
 
band     5 # energy   -7.30007977 # occ.  2.00000000
 
ion      s     py     pz     px    dxy    dyz    dz2    dxz  x2-y2    tot
    1  0.067  0.000  0.000  0.000  0.000  0.000  0.098  0.000  0.000  0.165
    2  0.067  0.000  0.000  0.000  0.000  0.000  0.098  0.000  0.000  0.165
    3  0.008  0.000  0.066  0.000  0.000  0.000  0.000  0.000  0.000  0.074
    4  0.008  0.000  0.066  0.000  0.000  0.000  0.000  0.000  0.000  0.074
    5  0.009  0.000  0.061  0.000  0.000  0.000  0.000  0.000  0.000  0.070
    6  0.009  0.000  0.061  0.000  0.000  0.000  0.000  0.000  0.000  0.070
tot    0.169  0.000  0.254  0.000  0.000  0.000  0.196  0.000  0.000  0.620
 
band     6 # energy   -7.21233695 # occ.  2.00000000
 
ion      s     py     pz     px    dxy    dyz    dz2    dxz  x2-y2    tot
    1  0.067  0.000  0.000  0.000  0.000  0.000  0.103  0.000  0.000  0.171
    2  0.067  0.000  0.000  0.000  0.000  0.000  0.103  0.000  0.000  0.171
    3  0.010  0.000  0.061  0.000  0.000  0.000  0.000  0.000  0.000  0.071
    4  0.010  0.000  0.061  0.000  0.000  0.000  0.000  0.000  0.000  0.071
    5  0.009  0.000  0.065  0.000  0.000  0.000  0.000  0.000  0.000  0.074
    6  0.009  0.000  0.065  0.000  0.000  0.000  0.000  0.000  0.000  0.074
tot    0.172  0.000  0.253  0.000  0.000  0.000  0.206  0.000  0.000  0.631
 
band     7 # energy   -3.91850867 # occ.  2.00000000
 
ion      s     py     pz     px    dxy    dyz    dz2    dxz  x2-y2    tot
    1  0.000  0.000  0.000  0.003  0.270  0.000  0.000  0.000  0.009  0.282
    2  0.000  0.000  0.000  0.004  0.300  0.000  0.000  0.000  0.010  0.313
    3  0.000  0.002  0.000  0.060  0.000  0.000  0.000  0.000  0.000  0.062
    4  0.000  0.002  0.000  0.054  0.000  0.000  0.000  0.000  0.000  0.055
    5  0.000  0.002  0.000  0.054  0.000  0.000  0.000  0.000  0.000  0.055
    6  0.000  0.002  0.000  0.060  0.000  0.000  0.000  0.000  0.000  0.062
tot    0.000  0.007  0.000  0.234  0.569  0.000  0.000  0.000  0.018  0.829
 
band     8 # energy   -3.91850222 # occ.  2.00000000
 
ion      s     py     pz     px    dxy    dyz    dz2    dxz  x2-y2    tot
    1  0.000  0.003  0.000  0.000  0.009  0.000  0.000  0.000  0.270  0.282
    2  0.000  0.004  0.000  0.000  0.010  0.000  0.000  0.000  0.299  0.313
    3  0.000  0.060  0.000  0.002  0.000  0.000  0.000  0.000  0.000  0.062
    4  0.000  0.054  0.000  0.002  0.000  0.000  0.000  0.000  0.000  0.056
    5  0.000  0.054  0.000  0.002  0.000  0.000  0.000  0.000  0.000  0.055
    6  0.000  0.060  0.000  0.002  0.000  0.000  0.000  0.000  0.000  0.062
tot    0.000  0.234  0.000  0.007  0.018  0.000  0.000  0.000  0.569  0.829
 
band     9 # energy   -3.91816517 # occ.  2.00000000
 
ion      s     py     pz     px    dxy    dyz    dz2    dxz  x2-y2    tot
    1  0.000  0.000  0.000  0.004  0.304  0.000  0.000  0.000  0.005  0.313
    2  0.000  0.000  0.000  0.003  0.273  0.000  0.000  0.000  0.005  0.282
    3  0.000  0.001  0.000  0.054  0.000  0.000  0.000  0.000  0.000  0.055
    4  0.000  0.001  0.000  0.060  0.000  0.000  0.000  0.000  0.000  0.062
    5  0.000  0.001  0.000  0.061  0.000  0.000  0.000  0.000  0.000  0.062
    6  0.000  0.001  0.000  0.054  0.000  0.000  0.000  0.000  0.000  0.055
tot    0.000  0.004  0.000  0.237  0.577  0.000  0.000  0.000  0.010  0.829
 
band    10 # energy   -3.91816028 # occ.  2.00000000
 
ion      s     py     pz     px    dxy    dyz    dz2    dxz  x2-y2    tot
    1  0.000  0.004  0.000  0.000  0.005  0.000  0.000  0.000  0.304  0.313
    2  0.000  0.003  0.000  0.000  0.005  0.000  0.000  0.000  0.274  0.282
    3  0.000  0.054  0.000  0.001  0.000  0.000  0.000  0.000  0.000  0.055
    4  0.000  0.060  0.000  0.001  0.000  0.000  0.000  0.000  0.000  0.061
    5  0.000  0.060  0.000  0.001  0.000  0.000  0.000  0.000  0.000  0.062
    6  0.000  0.055  0.000  0.001  0.000  0.000  0.000  0.000  0.000  0.056
tot    0.000  0.237  0.000  0.004  0.010  0.000  0.000  0.000  0.577  0.829
 
band    11 # energy   -3.14608094 # occ.  2.00000000
 
ion      s     py     pz     px    dxy    dyz    dz2    dxz  x2-y2    tot
    1  0.000  0.000  0.030  0.000  0.000  0.000  0.001  0.000  0.000  0.031
    2  0.000  0.000  0.030  0.000  0.000  0.000  0.001  0.000  0.000  0.031
    3  0.000  0.000  0.120  0.000  0.000  0.000  0.000  0.000  0.000  0.121
    4  0.000  0.000  0.120  0.000  0.000  0.000  0.000  0.000  0.000  0.121
    5  0.000  0.000  0.118  0.000  0.000  0.000  0.000  0.000  0.000  0.118
    6  0.000  0.000  0.118  0.000  0.000  0.000  0.000  0.000  0.000  0.118
tot    0.001  0.000  0.536  0.000  0.000  0.000  0.002  0.000  0.000  0.539
 
band    12 # energy   -2.85023881 # occ.  2.00000000
 
ion      s     py     pz     px    dxy    dyz    dz2    dxz  x2-y2    tot
    1  0.000  0.000  0.031  0.000  0.000  0.000  0.001  0.000  0.000  0.032
    2  0.000  0.000  0.031  0.000  0.000  0.000  0.001  0.000  0.000  0.032
    3  0.000  0.000  0.125  0.000  0.000  0.000  0.000  0.000  0.000  0.125
    4  0.000  0.000  0.125  0.000  0.000  0.000  0.000  0.000  0.000  0.125
    5  0.000  0.000  0.130  0.000  0.000  0.000  0.000  0.000  0.000  0.130
    6  0.000  0.000  0.130  0.000  0.000  0.000  0.000  0.000  0.000  0.130
tot    0.000  0.000  0.570  0.000  0.000  0.000  0.003  0.000  0.000  0.573
 
band    13 # energy   -2.57702198 # occ.  2.00000000
 
ion      s     py     pz     px    dxy    dyz    dz2    dxz  x2-y2    tot
    1  0.000  0.000  0.000  0.000  0.000  0.238  0.000  0.022  0.000  0.260
    2  0.000  0.000  0.000  0.000  0.000  0.244  0.000  0.023  0.000  0.266
    3  0.000  0.073  0.000  0.007  0.000  0.000  0.000  0.000  0.000  0.080
    4  0.000  0.071  0.000  0.007  0.000  0.000  0.000  0.000  0.000  0.078
    5  0.000  0.071  0.000  0.007  0.000  0.000  0.000  0.000  0.000  0.078
    6  0.000  0.073  0.000  0.007  0.000  0.000  0.000  0.000  0.000  0.080
tot    0.000  0.289  0.000  0.027  0.000  0.481  0.000  0.045  0.000  0.842
 
band    14 # energy   -2.57698309 # occ.  2.00000000
 
ion      s     py     pz     px    dxy    dyz    dz2    dxz  x2-y2    tot
    1  0.000  0.000  0.000  0.000  0.000  0.021  0.000  0.237  0.000  0.258
    2  0.000  0.000  0.000  0.000  0.000  0.024  0.000  0.244  0.000  0.268
    3  0.000  0.007  0.000  0.074  0.000  0.000  0.000  0.000  0.000  0.081
    4  0.000  0.006  0.000  0.071  0.000  0.000  0.000  0.000  0.000  0.078
    5  0.000  0.006  0.000  0.071  0.000  0.000  0.000  0.000  0.000  0.077
    6  0.000  0.007  0.000  0.073  0.000  0.000  0.000  0.000  0.000  0.080
tot    0.000  0.027  0.000  0.289  0.000  0.045  0.000  0.481  0.000  0.842
 
band    15 # energy   -2.57582347 # occ.  2.00000000
 
ion      s     py     pz     px    dxy    dyz    dz2    dxz  x2-y2    tot
    1  0.000  0.000  0.000  0.000  0.000  0.243  0.000  0.023  0.000  0.267
    2  0.000  0.000  0.000  0.000  0.000  0.235  0.000  0.025  0.000  0.260
    3  0.000  0.071  0.000  0.007  0.000  0.000  0.000  0.000  0.000  0.078
    4  0.000  0.073  0.000  0.007  0.000  0.000  0.000  0.000  0.000  0.080
    5  0.000  0.073  0.000  0.007  0.000  0.000  0.000  0.000  0.000  0.080
    6  0.000  0.070  0.000  0.007  0.000  0.000  0.000  0.000  0.000  0.078
tot    0.000  0.287  0.000  0.029  0.000  0.479  0.000  0.048  0.000  0.842
 
band    16 # energy   -2.57579553 # occ.  2.00000000
 
ion      s     py     pz     px    dxy    dyz    dz2    dxz  x2-y2    tot
    1  0.000  0.000  0.000  0.000  0.000  0.024  0.000  0.244  0.000  0.268
    2  0.000  0.000  0.000  0.000  0.000  0.024  0.000  0.234  0.000  0.258
    3  0.000  0.007  0.000  0.070  0.000  0.000  0.000  0.000  0.000  0.077
    4  0.000  0.007  0.000  0.073  0.000  0.000  0.000  0.000  0.000  0.080
    5  0.000  0.007  0.000  0.073  0.000  0.000  0.000  0.000  0.000  0.081
    6  0.000  0.007  0.000  0.071  0.000  0.000  0.000  0.000  0.000  0.078
tot    0.000  0.029  0.000  0.287  0.000  0.048  0.000  0.478  0.000  0.842
 
band    17 # energy   -1.07328450 # occ.  2.00000000
 
ion      s     py     pz     px    dxy    dyz    dz2    dxz  x2-y2    tot
    1  0.006  0.000  0.000  0.000  0.000  0.000  0.301  0.000  0.000  0.308
    2  0.006  0.000  0.000  0.000  0.000  0.000  0.301  0.000  0.000  0.308
    3  0.001  0.000  0.024  0.000  0.000  0.000  0.000  0.000  0.000  0.025
    4  0.001  0.000  0.024  0.000  0.000  0.000  0.000  0.000  0.000  0.025
    5  0.001  0.000  0.042  0.000  0.000  0.000  0.000  0.000  0.000  0.043
    6  0.001  0.000  0.042  0.000  0.000  0.000  0.000  0.000  0.000  0.043
tot    0.016  0.000  0.132  0.000  0.000  0.000  0.602  0.000  0.000  0.750
 
band    18 # energy   -0.87473871 # occ.  2.00000000
 
ion      s     py     pz     px    dxy    dyz    dz2    dxz  x2-y2    tot
    1  0.009  0.000  0.000  0.000  0.000  0.000  0.304  0.000  0.000  0.313
    2  0.009  0.000  0.000  0.000  0.000  0.000  0.304  0.000  0.000  0.313
    3  0.002  0.000  0.049  0.000  0.000  0.000  0.000  0.000  0.000  0.051
    4  0.002  0.000  0.049  0.000  0.000  0.000  0.000  0.000  0.000  0.051
    5  0.001  0.000  0.027  0.000  0.000  0.000  0.000  0.000  0.000  0.028
    6  0.001  0.000  0.027  0.000  0.000  0.000  0.000  0.000  0.000  0.028
tot    0.024  0.000  0.153  0.000  0.000  0.000  0.609  0.000  0.000  0.785
 
band    19 # energy    2.60186693 # occ.  0.00000000
 
ion      s     py     pz     px    dxy    dyz    dz2    dxz  x2-y2    tot
    1  0.000  0.000  0.000  0.000  0.000  0.114  0.000  0.038  0.000  0.152
    2  0.000  0.000  0.000  0.000  0.000  0.132  0.000  0.090  0.000  0.221
    3  0.000  0.063  0.000  0.043  0.000  0.000  0.000  0.000  0.000  0.106
    4  0.000  0.055  0.000  0.018  0.000  0.000  0.000  0.000  0.000  0.073
    5  0.000  0.054  0.000  0.018  0.000  0.000  0.000  0.000  0.000  0.071
    6  0.000  0.062  0.000  0.042  0.000  0.000  0.000  0.000  0.000  0.104
tot    0.000  0.233  0.000  0.122  0.000  0.245  0.000  0.128  0.000  0.728
 
band    20 # energy    2.60759844 # occ.  0.00000000
 
ion      s     py     pz     px    dxy    dyz    dz2    dxz  x2-y2    tot
    1  0.000  0.000  0.000  0.000  0.000  0.023  0.000  0.075  0.002  0.100
    2  0.000  0.000  0.000  0.000  0.000  0.062  0.000  0.205  0.003  0.272
    3  0.000  0.049  0.000  0.105  0.000  0.000  0.000  0.000  0.000  0.154
    4  0.000  0.022  0.000  0.036  0.000  0.000  0.000  0.000  0.000  0.057
    5  0.000  0.004  0.000  0.036  0.000  0.000  0.000  0.000  0.000  0.039
    6  0.000  0.015  0.000  0.091  0.000  0.000  0.000  0.000  0.000  0.106
tot    0.000  0.090  0.000  0.268  0.001  0.085  0.000  0.280  0.006  0.729
 
band    21 # energy    2.65465026 # occ.  0.00000000
 
ion      s     py     pz     px    dxy    dyz    dz2    dxz  x2-y2    tot
    1  0.000  0.001  0.000  0.002  0.032  0.155  0.000  0.063  0.017  0.270
    2  0.000  0.000  0.000  0.001  0.018  0.047  0.000  0.019  0.007  0.092
    3  0.000  0.019  0.000  0.031  0.000  0.000  0.000  0.000  0.000  0.050
    4  0.000  0.032  0.000  0.106  0.000  0.000  0.000  0.000  0.000  0.138
    5  0.000  0.140  0.000  0.000  0.000  0.000  0.000  0.000  0.000  0.140
    6  0.000  0.036  0.000  0.013  0.000  0.000  0.000  0.000  0.000  0.048
tot    0.000  0.228  0.000  0.154  0.051  0.202  0.000  0.082  0.023  0.739
 
band    22 # energy    2.69470697 # occ.  0.00000000
 
ion      s     py     pz     px    dxy    dyz    dz2    dxz  x2-y2    tot
    1  0.000  0.001  0.000  0.004  0.063  0.019  0.000  0.102  0.019  0.208
    2  0.000  0.001  0.000  0.002  0.036  0.068  0.000  0.028  0.012  0.147
    3  0.000  0.048  0.000  0.002  0.000  0.000  0.000  0.000  0.000  0.050
    4  0.000  0.044  0.000  0.012  0.000  0.000  0.000  0.000  0.000  0.056
    5  0.000  0.001  0.000  0.176  0.000  0.000  0.000  0.000  0.000  0.177
    6  0.000  0.033  0.000  0.077  0.000  0.000  0.000  0.000  0.000  0.110
tot    0.000  0.129  0.000  0.272  0.098  0.087  0.000  0.130  0.030  0.748
 
band    23 # energy    2.82476131 # occ.  0.00000000
 
ion      s     py     pz     px    dxy    dyz    dz2    dxz  x2-y2    tot
    1  0.000  0.005  0.000  0.001  0.019  0.000  0.000  0.000  0.083  0.108
    2  0.000  0.006  0.000  0.008  0.119  0.000  0.000  0.000  0.089  0.221
    3  0.000  0.064  0.000  0.085  0.000  0.000  0.000  0.000  0.000  0.150
    4  0.000  0.060  0.000  0.014  0.000  0.000  0.000  0.000  0.000  0.073
    5  0.000  0.060  0.000  0.014  0.000  0.000  0.000  0.000  0.000  0.074
    6  0.000  0.064  0.000  0.086  0.000  0.000  0.000  0.000  0.000  0.150
tot    0.000  0.259  0.000  0.208  0.138  0.000  0.000  0.000  0.172  0.777
 
band    24 # energy    4.28897203 # occ.  0.00000000
 
ion      s     py     pz     px    dxy    dyz    dz2    dxz  x2-y2    tot
    1  0.001  0.002  0.000  0.002  0.025  0.004  0.001  0.006  0.026  0.067
    2  0.005  0.003  0.000  0.000  0.000  0.006  0.005  0.004  0.039  0.062
    3  0.002  0.031  0.000  0.002  0.000  0.000  0.000  0.000  0.000  0.035
    4  0.000  0.024  0.000  0.035  0.000  0.000  0.000  0.000  0.000  0.059
    5  0.001  0.018  0.002  0.007  0.000  0.000  0.000  0.000  0.000  0.029
    6  0.007  0.031  0.007  0.002  0.000  0.000  0.000  0.000  0.000  0.047
tot    0.016  0.109  0.010  0.048  0.025  0.010  0.006  0.010  0.064  0.298
 

 k-point     2 :    0.10000000-0.00000000 0.00000000     weight = 0.06000000

band     1 # energy  -16.44087467 # occ.  2.00000000
 
ion      s     py     pz     px    dxy    dyz    dz2    dxz  x2-y2    tot
    1  0.063  0.001  0.000  0.002  0.001  0.000  0.000  0.000  0.000  0.066
    2  0.063  0.001  0.000  0.002  0.001  0.000  0.000  0.000  0.000  0.067
    3  0.141  0.000  0.002  0.000  0.000  0.000  0.000  0.000  0.000  0.143
    4  0.140  0.000  0.002  0.000  0.000  0.000  0.000  0.000  0.000  0.143
    5  0.137  0.000  0.002  0.000  0.000  0.000  0.000  0.000  0.000  0.140
    6  0.137  0.000  0.002  0.000  0.000  0.000  0.000  0.000  0.000  0.140
tot    0.682  0.001  0.010  0.004  0.001  0.000  0.000  0.000  0.000  0.699
 
band     2 # energy  -16.43050420 # occ.  2.00000000
 
ion      s     py     pz     px    dxy    dyz    dz2    dxz  x2-y2    tot
    1  0.064  0.001  0.000  0.002  0.001  0.000  0.000  0.000  0.000  0.067
    2  0.063  0.001  0.000  0.002  0.001  0.000  0.000  0.000  0.000  0.067
    3  0.137  0.000  0.002  0.000  0.000  0.000  0.000  0.000  0.000  0.140
    4  0.138  0.000  0.002  0.000  0.000  0.000  0.000  0.000  0.000  0.140
    5  0.141  0.000  0.002  0.000  0.000  0.000  0.000  0.000  0.000  0.143
    6  0.140  0.000  0.002  0.000  0.000  0.000  0.000  0.000  0.000  0.143
tot    0.683  0.001  0.010  0.004  0.001  0.000  0.000  0.000  0.000  0.700
 
band     3 # energy  -15.19507486 # occ.  2.00000000
 
ion      s     py     pz     px    dxy    dyz    dz2    dxz  x2-y2    tot
    1  0.000  0.000  0.029  0.000  0.000  0.001  0.000  0.003  0.000  0.033
    2  0.000  0.000  0.029  0.000  0.000  0.001  0.000  0.003  0.000  0.033
    3  0.156  0.000  0.000  0.000  0.000  0.000  0.000  0.000  0.000  0.156
    4  0.155  0.000  0.000  0.000  0.000  0.000  0.000  0.000  0.000  0.156
    5  0.159  0.000  0.000  0.000  0.000  0.000  0.000  0.000  0.000  0.159
    6  0.159  0.000  0.000  0.000  0.000  0.000  0.000  0.000  0.000  0.160
tot    0.629  0.000  0.058  0.000  0.000  0.002  0.000  0.006  0.000  0.696
 
band     4 # energy  -15.17714320 # occ.  2.00000000
 
ion      s     py     pz     px    dxy    dyz    dz2    dxz  x2-y2    tot
    1  0.000  0.000  0.029  0.000  0.000  0.001  0.000  0.003  0.000  0.033
    2  0.000  0.000  0.029  0.000  0.000  0.001  0.000  0.003  0.000  0.033
    3  0.159  0.000  0.000  0.000  0.000  0.000  0.000  0.000  0.000  0.160
    4  0.160  0.000  0.000  0.000  0.000  0.000  0.000  0.000  0.000  0.160
    5  0.156  0.000  0.000  0.000  0.000  0.000  0.000  0.000  0.000  0.157
    6  0.156  0.000  0.000  0.000  0.000  0.000  0.000  0.000  0.000  0.156
tot    0.631  0.000  0.058  0.000  0.000  0.002  0.000  0.006  0.000  0.698
 
band     5 # energy   -7.11658975 # occ.  2.00000000
 
ion      s     py     pz     px    dxy    dyz    dz2    dxz  x2-y2    tot
    1  0.061  0.001  0.000  0.003  0.004  0.000  0.094  0.000  0.001  0.163
    2  0.061  0.001  0.000  0.003  0.004  0.000  0.094  0.000  0.001  0.163
    3  0.008  0.000  0.068  0.000  0.000  0.000  0.000  0.000  0.000  0.076
    4  0.008  0.000  0.068  0.000  0.000  0.000  0.000  0.000  0.000  0.076
    5  0.008  0.000  0.063  0.000  0.000  0.000  0.000  0.000  0.000  0.072
    6  0.008  0.000  0.063  0.000  0.000  0.000  0.000  0.000  0.000  0.072
tot    0.153  0.003  0.261  0.008  0.007  0.000  0.187  0.000  0.002  0.621
 
band     6 # energy   -7.02942103 # occ.  2.00000000
 
ion      s     py     pz     px    dxy    dyz    dz2    dxz  x2-y2    tot
    1  0.060  0.001  0.000  0.003  0.004  0.000  0.099  0.000  0.001  0.168
    2  0.060  0.001  0.000  0.003  0.004  0.000  0.099  0.000  0.001  0.168
    3  0.009  0.000  0.063  0.000  0.000  0.000  0.000  0.000  0.000  0.072
    4  0.009  0.000  0.063  0.000  0.000  0.000  0.000  0.000  0.000  0.072
    5  0.008  0.000  0.067  0.000  0.000  0.000  0.000  0.000  0.000  0.076
    6  0.008  0.000  0.067  0.000  0.000  0.000  0.000  0.000  0.000  0.076
tot    0.155  0.003  0.260  0.008  0.007  0.000  0.197  0.000  0.002  0.633
 
band     7 # energy   -4.26876690 # occ.  2.00000000
 
ion      s     py     pz     px    dxy    dyz    dz2    dxz  x2-y2    tot
    1  0.010  0.001  0.000  0.003  0.191  0.000  0.000  0.000  0.064  0.269
    2  0.011  0.001  0.000  0.003  0.200  0.000  0.000  0.000  0.067  0.282
    3  0.003  0.015  0.000  0.045  0.000  0.000  0.000  0.000  0.000  0.063
    4  0.002  0.014  0.000  0.043  0.000  0.000  0.000  0.000  0.000  0.060
    5  0.002  0.014  0.000  0.043  0.000  0.000  0.000  0.000  0.000  0.060
    6  0.003  0.015  0.000  0.045  0.000  0.000  0.000  0.000  0.000  0.063
tot    0.031  0.061  0.001  0.184  0.390  0.000  0.001  0.000  0.130  0.798
 
band     8 # energy   -4.26794423 # occ.  2.00000000
 
ion      s     py     pz     px    dxy    dyz    dz2    dxz  x2-y2    tot
    1  0.011  0.001  0.000  0.003  0.200  0.000  0.000  0.000  0.067  0.282
    2  0.010  0.001  0.000  0.003  0.191  0.000  0.000  0.000  0.064  0.269
    3  0.002  0.014  0.000  0.043  0.000  0.000  0.000  0.000  0.000  0.060
    4  0.003  0.015  0.000  0.045  0.000  0.000  0.000  0.000  0.000  0.063
    5  0.003  0.015  0.000  0.045  0.000  0.000  0.000  0.000  0.000  0.063
    6  0.002  0.014  0.000  0.043  0.000  0.000  0.000  0.000  0.000  0.061
tot    0.031  0.061  0.001  0.184  0.390  0.000  0.001  0.000  0.130  0.798
 
band     9 # energy   -3.74675960 # occ.  2.00000000
 
ion      s     py     pz     px    dxy    dyz    dz2    dxz  x2-y2    tot
    1  0.000  0.005  0.000  0.002  0.068  0.000  0.000  0.000  0.204  0.278
    2  0.000  0.005  0.000  0.002  0.072  0.000  0.000  0.000  0.217  0.295
    3  0.000  0.048  0.000  0.016  0.000  0.000  0.000  0.000  0.000  0.064
    4  0.000  0.045  0.000  0.015  0.000  0.000  0.000  0.000  0.000  0.061
    5  0.000  0.045  0.000  0.015  0.000  0.000  0.000  0.000  0.000  0.060
    6  0.000  0.048  0.000  0.016  0.000  0.000  0.000  0.000  0.000  0.064
tot    0.000  0.197  0.000  0.066  0.140  0.000  0.000  0.000  0.421  0.823
 
band    10 # energy   -3.74616972 # occ.  2.00000000
 
ion      s     py     pz     px    dxy    dyz    dz2    dxz  x2-y2    tot
    1  0.000  0.005  0.000  0.002  0.072  0.000  0.000  0.000  0.217  0.295
    2  0.000  0.005  0.000  0.002  0.068  0.000  0.000  0.000  0.204  0.279
    3  0.000  0.045  0.000  0.015  0.000  0.000  0.000  0.000  0.000  0.060
    4  0.000  0.048  0.000  0.016  0.000  0.000  0.000  0.000  0.000  0.064
    5  0.000  0.048  0.000  0.016  0.000  0.000  0.000  0.000  0.000  0.064
    6  0.000  0.045  0.000  0.015  0.000  0.000  0.000  0.000  0.000  0.061
tot    0.000  0.197  0.000  0.066  0.140  0.000  0.000  0.000  0.421  0.823
 
band    11 # energy   -3.68527527 # occ.  2.00000000
 
ion      s     py     pz     px    dxy    dyz    dz2    dxz  x2-y2    tot
    1  0.000  0.000  0.007  0.000  0.000  0.033  0.000  0.099  0.000  0.140
    2  0.000  0.000  0.007  0.000  0.000  0.033  0.000  0.099  0.000  0.140
    3  0.000  0.007  0.069  0.021  0.000  0.000  0.000  0.000  0.000  0.096
    4  0.000  0.007  0.068  0.021  0.000  0.000  0.000  0.000  0.000  0.096
    5  0.000  0.007  0.070  0.020  0.000  0.000  0.000  0.000  0.000  0.098
    6  0.000  0.007  0.070  0.020  0.000  0.000  0.000  0.000  0.000  0.098
tot    0.001  0.027  0.291  0.082  0.000  0.066  0.001  0.199  0.000  0.667
 
band    12 # energy   -3.54118835 # occ.  2.00000000
 
ion      s     py     pz     px    dxy    dyz    dz2    dxz  x2-y2    tot
    1  0.000  0.000  0.004  0.000  0.000  0.039  0.000  0.118  0.000  0.162
    2  0.000  0.000  0.004  0.000  0.000  0.039  0.000  0.118  0.000  0.162
    3  0.000  0.009  0.061  0.027  0.000  0.000  0.000  0.000  0.000  0.097
    4  0.000  0.009  0.061  0.027  0.000  0.000  0.000  0.000  0.000  0.097
    5  0.000  0.009  0.060  0.027  0.000  0.000  0.000  0.000  0.000  0.096
    6  0.000  0.009  0.060  0.027  0.000  0.000  0.000  0.000  0.000  0.096
tot    0.001  0.036  0.251  0.107  0.000  0.078  0.001  0.235  0.000  0.708
 
band    13 # energy   -2.83379586 # occ.  2.00000000
 
ion      s     py     pz     px    dxy    dyz    dz2    dxz  x2-y2    tot
    1  0.000  0.000  0.000  0.000  0.000  0.191  0.000  0.064  0.000  0.255
    2  0.000  0.000  0.000  0.000  0.000  0.194  0.000  0.065  0.000  0.259
    3  0.000  0.060  0.000  0.020  0.000  0.000  0.000  0.000  0.000  0.080
    4  0.000  0.059  0.000  0.020  0.000  0.000  0.000  0.000  0.000  0.079
    5  0.000  0.059  0.000  0.020  0.000  0.000  0.000  0.000  0.000  0.079
    6  0.000  0.060  0.000  0.020  0.000  0.000  0.000  0.000  0.000  0.080
tot    0.000  0.239  0.000  0.080  0.000  0.385  0.000  0.128  0.000  0.833
 
band    14 # energy   -2.83236748 # occ.  2.00000000
 
ion      s     py     pz     px    dxy    dyz    dz2    dxz  x2-y2    tot
    1  0.000  0.000  0.000  0.000  0.000  0.194  0.000  0.065  0.000  0.258
    2  0.000  0.000  0.000  0.000  0.000  0.191  0.000  0.064  0.000  0.255
    3  0.000  0.059  0.000  0.020  0.000  0.000  0.000  0.000  0.000  0.079
    4  0.000  0.060  0.000  0.020  0.000  0.000  0.000  0.000  0.000  0.080
    5  0.000  0.060  0.000  0.020  0.000  0.000  0.000  0.000  0.000  0.080
    6  0.000  0.059  0.000  0.020  0.000  0.000  0.000  0.000  0.000  0.079
tot    0.000  0.239  0.000  0.080  0.000  0.385  0.000  0.128  0.000  0.833
 
band    15 # energy   -2.31061767 # occ.  2.00000000
 
ion      s     py     pz     px    dxy    dyz    dz2    dxz  x2-y2    tot
    1  0.000  0.000  0.027  0.000  0.000  0.023  0.001  0.070  0.000  0.122
    2  0.000  0.000  0.027  0.000  0.000  0.023  0.001  0.070  0.000  0.122
    3  0.000  0.016  0.052  0.047  0.000  0.000  0.000  0.000  0.000  0.114
    4  0.000  0.016  0.052  0.047  0.000  0.000  0.000  0.000  0.000  0.114
    5  0.000  0.015  0.047  0.046  0.000  0.000  0.000  0.000  0.000  0.108
    6  0.000  0.015  0.047  0.046  0.000  0.000  0.000  0.000  0.000  0.108
tot    0.001  0.062  0.252  0.185  0.000  0.047  0.002  0.140  0.000  0.689
 
band    16 # energy   -2.18120231 # occ.  2.00000000
 
ion      s     py     pz     px    dxy    dyz    dz2    dxz  x2-y2    tot
    1  0.000  0.000  0.030  0.000  0.000  0.017  0.001  0.052  0.000  0.101
    2  0.000  0.000  0.030  0.000  0.000  0.017  0.001  0.052  0.000  0.101
    3  0.000  0.013  0.062  0.040  0.000  0.000  0.000  0.000  0.000  0.116
    4  0.000  0.013  0.062  0.040  0.000  0.000  0.000  0.000  0.000  0.116
    5  0.000  0.014  0.069  0.041  0.000  0.000  0.000  0.000  0.000  0.124
    6  0.000  0.014  0.069  0.041  0.000  0.000  0.000  0.000  0.000  0.124
tot    0.001  0.054  0.323  0.162  0.000  0.034  0.003  0.103  0.000  0.681
 
band    17 # energy   -1.15005562 # occ.  2.00000000
 
ion      s     py     pz     px    dxy    dyz    dz2    dxz  x2-y2    tot
    1  0.007  0.000  0.000  0.000  0.008  0.000  0.293  0.000  0.003  0.311
    2  0.007  0.000  0.000  0.000  0.008  0.000  0.293  0.000  0.003  0.312
    3  0.001  0.001  0.022  0.002  0.000  0.000  0.000  0.000  0.000  0.026
    4  0.001  0.001  0.022  0.002  0.000  0.000  0.000  0.000  0.000  0.026
    5  0.002  0.001  0.039  0.004  0.000  0.000  0.000  0.000  0.000  0.046
    6  0.002  0.001  0.039  0.004  0.000  0.000  0.000  0.000  0.000  0.046
tot    0.021  0.004  0.123  0.012  0.017  0.000  0.585  0.000  0.006  0.767
 
band    18 # energy   -0.99713631 # occ.  2.00000000
 
ion      s     py     pz     px    dxy    dyz    dz2    dxz  x2-y2    tot
    1  0.009  0.000  0.000  0.000  0.010  0.000  0.291  0.000  0.003  0.314
    2  0.009  0.000  0.000  0.000  0.010  0.000  0.291  0.000  0.003  0.314
    3  0.003  0.002  0.045  0.005  0.000  0.000  0.000  0.000  0.000  0.054
    4  0.003  0.002  0.045  0.005  0.000  0.000  0.000  0.000  0.000  0.054
    5  0.002  0.001  0.024  0.002  0.000  0.000  0.000  0.000  0.000  0.030
    6  0.002  0.001  0.024  0.002  0.000  0.000  0.000  0.000  0.000  0.030
tot    0.029  0.005  0.139  0.015  0.020  0.000  0.581  0.000  0.007  0.795
 
band    19 # energy    2.41562974 # occ.  0.00000000
 
ion      s     py     pz     px    dxy    dyz    dz2    dxz  x2-y2    tot
    1  0.000  0.000  0.000  0.000  0.002  0.027  0.000  0.066  0.001  0.098
    2  0.000  0.000  0.001  0.001  0.019  0.076  0.002  0.227  0.005  0.330
    3  0.006  0.009  0.001  0.025  0.000  0.000  0.000  0.000  0.000  0.041
    4  0.003  0.005  0.000  0.012  0.000  0.000  0.000  0.000  0.000  0.020
    5  0.004  0.012  0.001  0.030  0.000  0.000  0.000  0.000  0.000  0.047
    6  0.014  0.039  0.004  0.129  0.000  0.000  0.000  0.000  0.000  0.186
tot    0.026  0.066  0.007  0.197  0.021  0.103  0.003  0.293  0.006  0.722
 
band    20 # energy    2.42008300 # occ.  0.00000000
 
ion      s     py     pz     px    dxy    dyz    dz2    dxz  x2-y2    tot
    1  0.001  0.001  0.000  0.003  0.070  0.046  0.007  0.190  0.015  0.333
    2  0.000  0.000  0.000  0.000  0.008  0.013  0.001  0.058  0.000  0.080
    3  0.001  0.002  0.000  0.005  0.000  0.000  0.000  0.000  0.000  0.009
    4  0.002  0.003  0.000  0.006  0.000  0.000  0.000  0.000  0.000  0.011
    5  0.017  0.041  0.005  0.181  0.000  0.000  0.000  0.000  0.000  0.244
    6  0.003  0.005  0.001  0.037  0.000  0.000  0.000  0.000  0.000  0.047
tot    0.024  0.053  0.007  0.233  0.077  0.059  0.008  0.248  0.016  0.724
 
band    21 # energy    2.44587327 # occ.  0.00000000
 
ion      s     py     pz     px    dxy    dyz    dz2    dxz  x2-y2    tot
    1  0.000  0.002  0.000  0.002  0.039  0.011  0.008  0.029  0.039  0.131
    2  0.001  0.001  0.000  0.009  0.157  0.012  0.016  0.029  0.024  0.248
    3  0.008  0.025  0.004  0.140  0.000  0.000  0.000  0.000  0.000  0.178
    4  0.005  0.046  0.003  0.052  0.000  0.000  0.000  0.000  0.000  0.107
    5  0.000  0.008  0.000  0.005  0.000  0.000  0.000  0.000  0.000  0.012