perl: warning: Setting locale failed.
perl: warning: Please check that your locale settings:
	LANGUAGE = (unset),
	LC_ALL = (unset),
	LC_CTYPE = "UTF-8",
	LANG = "en_US.iso885915"
    are supported and installed on your system.
perl: warning: Falling back to the standard locale ("C").
Starting job 28490988 ("jobname") on c1-33 at Sun Nov 3 15:41:07 CET 2019
 running on   16 total cores
 distrk:  each k-point on   16 cores,    1 groups
 distr:  one band on    4 cores,    4 groups
 using from now: INCAR     
 vasp.5.4.4.18Apr17-6-g9f103f2a35 (build Jun 30 2017 11:15:00) complex          
  
 POSCAR found type information on POSCAR  Mo S 
 POSCAR found :  2 types and       6 ions
 scaLAPACK will be used
 LDA part: xc-table for Pade appr. of Perdew
 POSCAR, INCAR and KPOINTS ok, starting setup
 FFT: planning ...
 WAVECAR not read
 WARNING: random wavefunctions but no delay for mixing, default for NELMDL
 entering main loop
       N       E                     dE             d eps       ncg     rms          ort
DAV:   1     0.485196983423E+03    0.48520E+03   -0.14597E+04   336   0.149E+03
DAV:   2     0.193749671638E+03   -0.29145E+03   -0.27898E+03   336   0.363E+02
DAV:   3     0.900067240749E+02   -0.10374E+03   -0.99527E+02   336   0.200E+02
DAV:   4     0.456838055233E+02   -0.44323E+02   -0.43194E+02   336   0.147E+02
DAV:   5     0.236953131417E+02   -0.21988E+02   -0.21074E+02   336   0.905E+01
 gam= 0.000 g(H,U,f)=  0.117E+03 0.710E+01 0.464E-22 ort(H,U,f) = 0.000E+00 0.000E+00 0.000E+00
SDA:   6    -0.234480693250E+02   -0.47143E+02   -0.49793E+02   336   0.124E+03 0.000E+00
 gam= 0.382 g(H,U,f)=  0.308E+02 0.389E+01 0.171E-03 ort(H,U,f) =-0.238E+01-0.262E+01-0.154E-03
DMP:   7    -0.394854334701E+02   -0.16037E+02   -0.13095E+02   336   0.347E+02-0.501E+01
 gam= 0.382 g(H,U,f)=  0.351E+02 0.317E+01 0.492E-09 ort(H,U,f) =-0.440E+01-0.119E+01 0.413E-09
DMP:   8    -0.450304885385E+02   -0.55451E+01   -0.14461E+02   336   0.383E+02-0.559E+01
 gam= 0.382 g(H,U,f)=  0.757E+01 0.214E+01 0.185-164 ort(H,U,f) =-0.254E+01-0.166E+00-0.736-164
DMP:   9    -0.504076453821E+02   -0.53772E+01   -0.34701E+01   336   0.971E+01-0.271E+01
 gam= 0.382 g(H,U,f)=  0.518E+01 0.663E+00 0.323E-22 ort(H,U,f) = 0.562E+00 0.923E+00 0.466E-22
DMP:  10    -0.525180792433E+02   -0.21104E+01   -0.25654E+01   336   0.585E+01 0.149E+01
 gam= 0.382 g(H,U,f)=  0.140E+01 0.459E+00-0.375E-23 ort(H,U,f) = 0.184E+01 0.798E+00-0.118E-22
DMP:  11    -0.543446437886E+02   -0.18266E+01   -0.11450E+01   336   0.185E+01 0.264E+01
 gam= 0.382 g(H,U,f)=  0.918E+00 0.295E+00 0.358E-26 ort(H,U,f) = 0.840E+00 0.605E+00 0.114E-25
DMP:  12    -0.552290109430E+02   -0.88437E+00   -0.70597E+00   336   0.121E+01 0.144E+01
 gam= 0.382 g(H,U,f)=  0.524E+00 0.192E+00 0.000E+00 ort(H,U,f) = 0.806E+00 0.419E+00 0.000E+00
DMP:  13    -0.558415189102E+02   -0.61251E+00   -0.47331E+00   336   0.715E+00 0.122E+01
 gam= 0.382 g(H,U,f)=  0.293E+00 0.121E+00 0.213E-11 ort(H,U,f) = 0.509E+00 0.279E+00 0.325E-11
DMP:  14    -0.562448366613E+02   -0.40332E+00   -0.28593E+00   336   0.414E+00 0.788E+00
 gam= 0.382 g(H,U,f)=  0.201E+00 0.759E-01 0.000E+00 ort(H,U,f) = 0.346E+00 0.182E+00 0.000E+00
DMP:  15    -0.564987969180E+02   -0.25396E+00   -0.19131E+00   336   0.277E+00 0.527E+00
 gam= 0.382 g(H,U,f)=  0.122E+00 0.486E-01 0.000E+00 ort(H,U,f) = 0.246E+00 0.118E+00 0.000E+00
DMP:  16    -0.566706035740E+02   -0.17181E+00   -0.12371E+00   336   0.170E+00 0.364E+00
 gam= 0.382 g(H,U,f)=  0.774E-01 0.311E-01 0.695E-11 ort(H,U,f) = 0.160E+00 0.756E-01 0.139E-10
DMP:  17    -0.567816626279E+02   -0.11106E+00   -0.79420E-01   336   0.109E+00 0.236E+00
 gam= 0.382 g(H,U,f)=  0.488E-01 0.197E-01-0.188-238 ort(H,U,f) = 0.106E+00 0.484E-01-0.473-238
DMP:  18    -0.568534493026E+02   -0.71787E-01   -0.50936E-01   336   0.685E-01 0.154E+00
 gam= 0.382 g(H,U,f)=  0.307E-01 0.124E-01-0.268E-94 ort(H,U,f) = 0.680E-01 0.307E-01-0.713E-94
DMP:  19    -0.568994142358E+02   -0.45965E-01   -0.32325E-01   336   0.431E-01 0.987E-01
 gam= 0.382 g(H,U,f)=  0.188E-01 0.785E-02-0.102E-32 ort(H,U,f) = 0.432E-01 0.194E-01-0.164E-32
DMP:  20    -0.569285439227E+02   -0.29130E-01   -0.20233E-01   336   0.266E-01 0.627E-01
 gam= 0.382 g(H,U,f)=  0.112E-01 0.490E-02 0.705E-15 ort(H,U,f) = 0.268E-01 0.122E-01 0.223E-14
DMP:  21    -0.569467174240E+02   -0.18174E-01   -0.12413E-01   336   0.161E-01 0.391E-01
 gam= 0.382 g(H,U,f)=  0.658E-02 0.303E-02 0.613E-42 ort(H,U,f) = 0.162E-01 0.762E-02 0.191E-41
DMP:  22    -0.569578260984E+02   -0.11109E-01   -0.74879E-02   336   0.961E-02 0.239E-01
 gam= 0.382 g(H,U,f)=  0.378E-02 0.185E-02 0.125E-59 ort(H,U,f) = 0.965E-02 0.470E-02 0.410E-59
DMP:  23    -0.569644978120E+02   -0.66717E-02   -0.44417E-02   336   0.562E-02 0.143E-01
 gam= 0.382 g(H,U,f)=  0.219E-02 0.111E-02 0.109E-81 ort(H,U,f) = 0.568E-02 0.287E-02 0.356E-81
DMP:  24    -0.569684459542E+02   -0.39481E-02   -0.26279E-02   336   0.331E-02 0.854E-02
 gam= 0.382 g(H,U,f)=  0.142E-02 0.665E-03 0.446E-99 ort(H,U,f) = 0.341E-02 0.173E-02 0.157E-98
DMP:  25    -0.569707878177E+02   -0.23419E-02   -0.16185E-02   336   0.208E-02 0.514E-02
 gam= 0.382 g(H,U,f)=  0.103E-02 0.400E-03 0.306E-15 ort(H,U,f) = 0.221E-02 0.104E-02 0.795E-15
DMP:  26    -0.569722384682E+02   -0.14507E-02   -0.10662E-02   336   0.142E-02 0.325E-02
 gam= 0.382 g(H,U,f)=  0.812E-03 0.244E-03 0.490-107 ort(H,U,f) = 0.158E-02 0.626E-03 0.187-106
DMP:  27    -0.569732036060E+02   -0.96514E-03   -0.75944E-03   336   0.106E-02 0.221E-02
 gam= 0.382 g(H,U,f)=  0.687E-03 0.154E-03 0.779-113 ort(H,U,f) = 0.123E-02 0.384E-03 0.251-112
DMP:  28    -0.569738966372E+02   -0.69303E-03   -0.58249E-03   336   0.841E-03 0.161E-02
 gam= 0.382 g(H,U,f)=  0.606E-03 0.102E-03 0.279-117 ort(H,U,f) = 0.994E-03 0.243E-03 0.142-116
DMP:  29    -0.569744277831E+02   -0.53115E-03   -0.47236E-03   336   0.709E-03 0.124E-02
 gam= 0.382 g(H,U,f)=  0.620E-03 0.708E-04 0.133-119 ort(H,U,f) = 0.772E-03 0.159E-03 0.273-119
DMP:  30    -0.569748438304E+02   -0.41605E-03   -0.41874E-03   336   0.691E-03 0.932E-03
 gam= 0.382 g(H,U,f)=  0.794E-03 0.555E-04-0.163-122 ort(H,U,f) = 0.495E-03 0.108E-03 0.133-121
DMP:  31    -0.569751677033E+02   -0.32387E-03   -0.43175E-03   336   0.849E-03 0.603E-03
 gam= 0.382 g(H,U,f)=  0.117E-02 0.474E-04 0.206-122 ort(H,U,f) = 0.103E-03 0.709E-04 0.736-123
DMP:  32    -0.569754128215E+02   -0.24512E-03   -0.51553E-03   336   0.122E-02 0.174E-03
 gam= 0.382 g(H,U,f)=  0.171E-02 0.603E-04-0.137-124 ort(H,U,f) =-0.413E-03 0.429E-04 0.149-124
DMP:  33    -0.569755902235E+02   -0.17740E-03   -0.65277E-03   336   0.177E-02-0.371E-03
 gam= 0.382 g(H,U,f)=  0.236E-02 0.795E-04 0.348-123 ort(H,U,f) =-0.100E-02 0.812E-05-0.117-123
DMP:  34    -0.569757118708E+02   -0.12165E-03   -0.82376E-03   336   0.244E-02-0.994E-03
 gam= 0.382 g(H,U,f)=  0.287E-02 0.124E-03 0.852-126 ort(H,U,f) =-0.155E-02-0.227E-04-0.639-126
DMP:  35    -0.569757999776E+02   -0.88107E-04   -0.95876E-03   336   0.300E-02-0.157E-02
 gam= 0.382 g(H,U,f)=  0.301E-02 0.150E-03 0.347-123 ort(H,U,f) =-0.187E-02-0.611E-04-0.200-123
DMP:  36    -0.569758857923E+02   -0.85815E-04   -0.96799E-03   336   0.316E-02-0.193E-02
 gam= 0.382 g(H,U,f)=  0.248E-02 0.164E-03 0.313-126 ort(H,U,f) =-0.172E-02-0.758E-04-0.249-126
DMP:  37    -0.569760014992E+02   -0.11571E-03   -0.78329E-03   336   0.264E-02-0.179E-02
 gam= 0.382 g(H,U,f)=  0.159E-02 0.131E-03 0.116-123 ort(H,U,f) =-0.118E-02-0.732E-04-0.864-124
DMP:  38    -0.569761373079E+02   -0.13581E-03   -0.49514E-03   336   0.172E-02-0.126E-02
 gam= 0.382 g(H,U,f)=  0.716E-03 0.905E-04 0.217-126 ort(H,U,f) =-0.524E-03-0.463E-04-0.201-126
DMP:  39    -0.569762655981E+02   -0.12829E-03   -0.23533E-03   336   0.806E-03-0.571E-03
 gam= 0.382 g(H,U,f)=  0.317E-03 0.446E-04 0.627-125 ort(H,U,f) =-0.143E-03-0.202E-04-0.572-125
DMP:  40    -0.569763475833E+02   -0.81985E-04   -0.11971E-03   336   0.361E-03-0.163E-03
 gam= 0.382 g(H,U,f)=  0.167E-03 0.222E-04 0.123-126 ort(H,U,f) =-0.298E-04-0.194E-05-0.132-126
DMP:  41    -0.569763977536E+02   -0.50170E-04   -0.70819E-04   336   0.189E-03-0.318E-04
 gam= 0.382 g(H,U,f)=  0.808E-04 0.836E-05 0.192-126 ort(H,U,f) = 0.250E-04 0.480E-05-0.205-126
DMP:  42    -0.569764365485E+02   -0.38795E-04   -0.40204E-04   336   0.891E-04 0.298E-04
 gam= 0.382 g(H,U,f)=  0.436E-04 0.444E-05 0.130-127 ort(H,U,f) = 0.500E-04 0.619E-05-0.185-127
DMP:  43    -0.569764653256E+02   -0.28777E-04   -0.27802E-04   336   0.480E-04 0.562E-04
 gam= 0.382 g(H,U,f)=  0.344E-04 0.251E-05 0.350-128 ort(H,U,f) = 0.488E-04 0.506E-05-0.344-128
DMP:  44    -0.569764877290E+02   -0.22403E-04   -0.22989E-04   336   0.369E-04 0.539E-04
 gam= 0.382 g(H,U,f)=  0.295E-04 0.182E-05-0.715-131 ort(H,U,f) = 0.457E-04 0.382E-05-0.218-129
DMP:  45    -0.569765069640E+02   -0.19235E-04   -0.20108E-04   336   0.314E-04 0.495E-04
 gam= 0.382 g(H,U,f)=  0.276E-04 0.138E-05-0.109-130 ort(H,U,f) = 0.422E-04 0.285E-05-0.155-130
DMP:  46    -0.569765239901E+02   -0.17026E-04   -0.18470E-04   336   0.290E-04 0.450E-04
 gam= 0.382 g(H,U,f)=  0.259E-04 0.109E-05 0.982-130 ort(H,U,f) = 0.392E-04 0.218E-05 0.838-130
DMP:  47    -0.569765395624E+02   -0.15572E-04   -0.17103E-04   336   0.270E-04 0.414E-04
 gam= 0.382 g(H,U,f)=  0.250E-04 0.917E-06-0.364-130 ort(H,U,f) = 0.360E-04 0.174E-05-0.175-129
DMP:  48    -0.569765537762E+02   -0.14214E-04   -0.16113E-04   336   0.259E-04 0.377E-04
 gam= 0.382 g(H,U,f)=  0.253E-04 0.767E-06 0.189-129 ort(H,U,f) = 0.319E-04 0.143E-05 0.110-129
DMP:  49    -0.569765666643E+02   -0.12888E-04   -0.15518E-04   336   0.261E-04 0.333E-04
 gam= 0.382 g(H,U,f)=  0.306E-04 0.711E-06 0.740-130 ort(H,U,f) = 0.247E-04 0.122E-05-0.390-129
DMP:  50    -0.569765778303E+02   -0.11166E-04   -0.16489E-04   336   0.313E-04 0.259E-04
 gam= 0.382 g(H,U,f)=  0.438E-04 0.628E-06 0.807-129 ort(H,U,f) = 0.128E-04 0.998E-06 0.106-129
DMP:  51    -0.569765871406E+02   -0.93102E-05   -0.19896E-04   336   0.445E-04 0.138E-04
 gam= 0.382 g(H,U,f)=  0.737E-04 0.792E-06 0.120-128 ort(H,U,f) =-0.972E-05 0.835E-06-0.127-128
DMP:  52    -0.569765936648E+02   -0.65242E-05   -0.28422E-04   336   0.744E-04-0.888E-05
 gam= 0.382 g(H,U,f)=  0.121E-03 0.106E-05 0.589-128 ort(H,U,f) =-0.438E-04 0.415E-06-0.138-128
DMP:  53    -0.569765976967E+02   -0.40319E-05   -0.42055E-04   336   0.122E-03-0.433E-04
 gam= 0.382 g(H,U,f)=  0.188E-03 0.245E-05 0.923-128 ort(H,U,f) =-0.935E-04-0.195E-06-0.566-128
DMP:  54    -0.569765984431E+02   -0.74636E-06   -0.61948E-04   336   0.191E-03-0.937E-04
 gam= 0.382 g(H,U,f)=  0.269E-03 0.517E-05 0.538-127 ort(H,U,f) =-0.151E-03-0.207E-05-0.224-127
DMP:  55    -0.569765975380E+02    0.90511E-06   -0.86129E-04   336   0.274E-03-0.153E-03
 gam= 0.382 g(H,U,f)=  0.369E-03 0.115E-04 0.323-127 ort(H,U,f) =-0.223E-03-0.539E-05-0.185-127
DMP:  56    -0.569765935027E+02    0.40353E-05   -0.11728E-03   336   0.380E-03-0.228E-03
 gam= 0.382 g(H,U,f)=  0.489E-03 0.215E-04 0.419-126 ort(H,U,f) =-0.308E-03-0.120E-04-0.220-126
DMP:  57    -0.569765872499E+02    0.62528E-05   -0.15536E-03   336   0.511E-03-0.320E-03
 gam= 0.382 g(H,U,f)=  0.599E-03 0.344E-04 0.426-127 ort(H,U,f) =-0.394E-03-0.207E-04-0.273-127
DMP:  58    -0.569765804122E+02    0.68377E-05   -0.18988E-03   336   0.633E-03-0.415E-03
 gam= 0.382 g(H,U,f)=  0.655E-03 0.459E-04 0.154-125 ort(H,U,f) =-0.466E-03-0.300E-04-0.974-126
DMP:  59    -0.569765756632E+02    0.47489E-05   -0.20472E-03   336   0.701E-03-0.496E-03
 gam= 0.382 g(H,U,f)=  0.554E-03 0.480E-04 0.321-127 ort(H,U,f) =-0.426E-03-0.348E-04-0.243-127
DMP:  60    -0.569765843890E+02   -0.87258E-05   -0.17031E-03   336   0.602E-03-0.461E-03
 gam= 0.382 g(H,U,f)=  0.400E-03 0.419E-04 0.110-125 ort(H,U,f) =-0.327E-03-0.321E-04-0.829-126
DMP:  61    -0.569765973267E+02   -0.12938E-04   -0.12192E-03   336   0.442E-03-0.359E-03
 gam= 0.382 g(H,U,f)=  0.234E-03 0.290E-04 0.234-127 ort(H,U,f) =-0.197E-03-0.244E-04-0.204-127
DMP:  62    -0.569766127705E+02   -0.15444E-04   -0.71337E-04   336   0.263E-03-0.222E-03
 gam= 0.382 g(H,U,f)=  0.123E-03 0.160E-04 0.179-126 ort(H,U,f) =-0.109E-03-0.144E-04-0.160-126
DMP:  63    -0.569766232315E+02   -0.10461E-04   -0.36731E-04   336   0.139E-03-0.124E-03
 gam= 0.382 g(H,U,f)=  0.499E-04 0.763E-05 0.122-127 ort(H,U,f) =-0.422E-04-0.707E-05-0.118-127
DMP:  64    -0.569766308556E+02   -0.76241E-05   -0.15469E-04   336   0.575E-04-0.493E-04
 gam= 0.382 g(H,U,f)=  0.259E-04 0.266E-05 0.146-127 ort(H,U,f) =-0.188E-04-0.278E-05-0.154-127
DMP:  65    -0.569766337756E+02   -0.29200E-05   -0.81135E-05   336   0.285E-04-0.216E-04
 gam= 0.382 g(H,U,f)=  0.120E-04 0.871E-06 0.240-128 ort(H,U,f) =-0.728E-05-0.806E-06-0.258-128
DMP:  66    -0.569766355389E+02   -0.17633E-05   -0.39152E-05   336   0.129E-04-0.809E-05
 gam= 0.382 g(H,U,f)=  0.654E-05 0.150E-06 0.474-129 ort(H,U,f) =-0.242E-05-0.141E-06-0.697-129
DMP:  67    -0.569766364618E+02   -0.92291E-06   -0.22840E-05   336   0.669E-05-0.256E-05
 gam= 0.382 g(H,U,f)=  0.322E-05 0.412E-07 0.651-130 ort(H,U,f) = 0.458E-07 0.292E-07-0.881-130
DMP:  68    -0.569766370696E+02   -0.60775E-06   -0.13163E-05   336   0.326E-05 0.749E-07
 gam= 0.382 g(H,U,f)=  0.180E-05 0.240E-07 0.135-131 ort(H,U,f) = 0.110E-05 0.433E-07 0.830-131
DMP:  69    -0.569766374517E+02   -0.38213E-06   -0.90365E-06   336   0.182E-05 0.114E-05
 final diagonalization
   1 F= -.56976637E+02 E0= -.56976637E+02  d E =-.106680E-12

Currently Loaded Modulefiles:
  1) Anaconda3/5.1.0       3) vesta/3.3.8           5) intel/2016.1
  2) gnuplot/5.0.4         4) imagemagick/6.7.9-0   6) vasp/5.4.1.Feb16

Job script resource usage:
       JobID  MaxVMSize     MaxRSS 
------------ ---------- ---------- 
28490988.ba+    499284K      6440K 

Job step resource usage:
       JobID    JobName  AllocCPUS  MaxVMSize     MaxRSS    Elapsed ExitCode 
------------ ---------- ---------- ---------- ---------- ---------- -------- 
28490988        jobname         16                         03:33:52      0:0 
28490988.0    pmi_proxy          1   8997312K   2570442K   03:33:48      0:0 

Job 28490988 ("jobname") completed on c1-33 at Sun Nov 3 19:14:56 CET 2019
