perl: warning: Setting locale failed.
perl: warning: Please check that your locale settings:
	LANGUAGE = (unset),
	LC_ALL = (unset),
	LC_CTYPE = "UTF-8",
	LANG = "en_US.iso885915"
    are supported and installed on your system.
perl: warning: Falling back to the standard locale ("C").
Starting job 28495439 ("jobname") on c4-11 at Sun Nov 3 20:39:29 CET 2019
 running on   16 total cores
 distrk:  each k-point on   16 cores,    1 groups
 distr:  one band on    4 cores,    4 groups
 using from now: INCAR     
 vasp.5.4.4.18Apr17-6-g9f103f2a35 (build Jun 30 2017 11:15:00) complex          
  
 POSCAR found type information on POSCAR  Mo S 
 POSCAR found :  2 types and       6 ions
 scaLAPACK will be used
 LDA part: xc-table for Pade appr. of Perdew
 POSCAR, INCAR and KPOINTS ok, starting setup
 FFT: planning ...
 WAVECAR not read
 WARNING: random wavefunctions but no delay for mixing, default for NELMDL
 entering main loop

 ----------------------------------------------------------------------------- 
|                                                                             |
|           W    W    AA    RRRRR   N    N  II  N    N   GGGG   !!!           |
|           W    W   A  A   R    R  NN   N  II  NN   N  G    G  !!!           |
|           W    W  A    A  R    R  N N  N  II  N N  N  G       !!!           |
|           W WW W  AAAAAA  RRRRR   N  N N  II  N  N N  G  GGG   !            |
|           WW  WW  A    A  R   R   N   NN  II  N   NN  G    G                |
|           W    W  A    A  R    R  N    N  II  N    N   GGGG   !!!           |
|                                                                             |
|      ALGO=A and IALGO=5X tend to fail with the tetrahedron method           |
|      (e.g. Bloechls method ISMEAR=-5 is not variational)                    |
|      please switch to IMSEAR=0-n, except for DOS calculations               |
|      For DOS calculations use IALGO=53 after preconverging with ISMEAR>=0   |
|          I HOPE YOU KNOW, WHAT YOU ARE  DOING                               |
|                                                                             |
 ----------------------------------------------------------------------------- 

       N       E                     dE             d eps       ncg     rms          ort
DAV:   1     0.485165012292E+03    0.48517E+03   -0.14533E+04   336   0.149E+03
DAV:   2     0.193734230415E+03   -0.29143E+03   -0.27890E+03   336   0.363E+02
DAV:   3     0.900088217405E+02   -0.10373E+03   -0.99453E+02   336   0.200E+02
DAV:   4     0.456302251006E+02   -0.44379E+02   -0.43052E+02   336   0.147E+02
DAV:   5     0.236953131419E+02   -0.21935E+02   -0.21452E+02   336   0.910E+01
 gam= 0.000 g(H,U,f)=  0.117E+03 0.710E+01 0.143E-14 ort(H,U,f) = 0.000E+00 0.000E+00 0.000E+00
SDA:   6    -0.234480693251E+02   -0.47143E+02   -0.49793E+02   336   0.124E+03 0.000E+00
 gam= 0.382 g(H,U,f)=  0.306E+02 0.385E+01 0.314E-01 ort(H,U,f) =-0.242E+01-0.262E+01-0.284E-01
DMP:   7    -0.395283183827E+02   -0.16080E+02   -0.13032E+02   336   0.345E+02-0.507E+01
 gam= 0.382 g(H,U,f)=  0.345E+02 0.309E+01-0.170E-68 ort(H,U,f) =-0.414E+01-0.115E+01-0.111E-68
DMP:   8    -0.450751449891E+02   -0.55468E+01   -0.14229E+02   336   0.376E+02-0.529E+01
 gam= 0.382 g(H,U,f)=  0.744E+01 0.209E+01 0.294-244 ort(H,U,f) =-0.234E+01-0.123E+00-0.117-243
DMP:   9    -0.504319849395E+02   -0.53568E+01   -0.34363E+01   336   0.953E+01-0.246E+01
 gam= 0.382 g(H,U,f)=  0.509E+01 0.663E+00 0.000E+00 ort(H,U,f) = 0.591E+00 0.927E+00 0.000E+00
DMP:  10    -0.525331455771E+02   -0.21012E+01   -0.25324E+01   336   0.575E+01 0.152E+01
 gam= 0.382 g(H,U,f)=  0.139E+01 0.458E+00-0.734E-16 ort(H,U,f) = 0.184E+01 0.799E+00-0.230E-15
DMP:  11    -0.543455081035E+02   -0.18124E+01   -0.11443E+01   336   0.185E+01 0.264E+01
 gam= 0.382 g(H,U,f)=  0.911E+00 0.295E+00 0.207-249 ort(H,U,f) = 0.848E+00 0.605E+00 0.606-249
DMP:  12    -0.552314486090E+02   -0.88594E+00   -0.70453E+00   336   0.121E+01 0.145E+01
 gam= 0.382 g(H,U,f)=  0.522E+00 0.192E+00 0.000E+00 ort(H,U,f) = 0.804E+00 0.418E+00 0.000E+00
DMP:  13    -0.558429746595E+02   -0.61153E+00   -0.47221E+00   336   0.713E+00 0.122E+01
 gam= 0.382 g(H,U,f)=  0.293E+00 0.121E+00-0.210E-15 ort(H,U,f) = 0.509E+00 0.279E+00-0.322E-15
DMP:  14    -0.562459234075E+02   -0.40295E+00   -0.28589E+00   336   0.414E+00 0.788E+00
 gam= 0.382 g(H,U,f)=  0.200E+00 0.760E-01 0.000E+00 ort(H,U,f) = 0.346E+00 0.182E+00 0.000E+00
DMP:  15    -0.564998776463E+02   -0.25395E+00   -0.19105E+00   336   0.276E+00 0.527E+00
 gam= 0.382 g(H,U,f)=  0.121E+00 0.486E-01-0.146E-15 ort(H,U,f) = 0.245E+00 0.118E+00-0.295E-15
DMP:  16    -0.566714767027E+02   -0.17160E+00   -0.12349E+00   336   0.170E+00 0.363E+00
 gam= 0.382 g(H,U,f)=  0.771E-01 0.311E-01 0.000E+00 ort(H,U,f) = 0.160E+00 0.756E-01 0.000E+00
DMP:  17    -0.567823560331E+02   -0.11088E+00   -0.79238E-01   336   0.108E+00 0.235E+00
 gam= 0.382 g(H,U,f)=  0.485E-01 0.197E-01-0.538-155 ort(H,U,f) = 0.105E+00 0.484E-01-0.137-154
DMP:  18    -0.568539730356E+02   -0.71617E-01   -0.50781E-01   336   0.682E-01 0.154E+00
 gam= 0.382 g(H,U,f)=  0.305E-01 0.124E-01-0.530E-48 ort(H,U,f) = 0.677E-01 0.307E-01-0.140E-47
DMP:  19    -0.568997962123E+02   -0.45823E-01   -0.32202E-01   336   0.429E-01 0.984E-01
 gam= 0.382 g(H,U,f)=  0.187E-01 0.783E-02 0.108E-06 ort(H,U,f) = 0.430E-01 0.194E-01 0.320E-06
DMP:  20    -0.569288134225E+02   -0.29017E-01   -0.20140E-01   336   0.265E-01 0.624E-01
 gam= 0.382 g(H,U,f)=  0.111E-01 0.489E-02 0.127E-02 ort(H,U,f) = 0.267E-01 0.122E-01 0.402E-02
DMP:  21    -0.569469013080E+02   -0.18088E-01   -0.13469E-01   336   0.173E-01 0.429E-01
 gam= 0.382 g(H,U,f)=  0.652E-02 0.302E-02 0.281E-13 ort(H,U,f) = 0.161E-01 0.760E-02 0.929E-13
DMP:  22    -0.569579478235E+02   -0.11047E-01   -0.74406E-02   336   0.954E-02 0.237E-01
 gam= 0.382 g(H,U,f)=  0.374E-02 0.184E-02 0.115E-26 ort(H,U,f) = 0.957E-02 0.468E-02 0.378E-26
DMP:  23    -0.569645761637E+02   -0.66283E-02   -0.44102E-02   336   0.558E-02 0.143E-01
 gam= 0.382 g(H,U,f)=  0.217E-02 0.111E-02 0.105E-39 ort(H,U,f) = 0.563E-02 0.285E-02 0.342E-39
DMP:  24    -0.569684957205E+02   -0.39196E-02   -0.26085E-02   336   0.328E-02 0.848E-02
 gam= 0.382 g(H,U,f)=  0.141E-02 0.661E-03 0.112E-49 ort(H,U,f) = 0.338E-02 0.172E-02 0.396E-49
DMP:  25    -0.569708200973E+02   -0.23244E-02   -0.16068E-02   336   0.207E-02 0.510E-02
 gam= 0.382 g(H,U,f)=  0.102E-02 0.397E-03 0.324E-56 ort(H,U,f) = 0.219E-02 0.103E-02 0.109E-55
DMP:  26    -0.569722602801E+02   -0.14402E-02   -0.10592E-02   336   0.142E-02 0.323E-02
 gam= 0.382 g(H,U,f)=  0.808E-03 0.243E-03 0.282E-60 ort(H,U,f) = 0.157E-02 0.623E-03 0.109E-59
DMP:  27    -0.569732190978E+02   -0.95882E-03   -0.75521E-03   336   0.105E-02 0.219E-02
 gam= 0.382 g(H,U,f)=  0.685E-03 0.153E-03 0.128E-64 ort(H,U,f) = 0.122E-02 0.382E-03 0.406E-64
DMP:  28    -0.569739081292E+02   -0.68903E-03   -0.57991E-03   336   0.838E-03 0.160E-02
 gam= 0.382 g(H,U,f)=  0.606E-03 0.102E-03 0.406E-68 ort(H,U,f) = 0.988E-03 0.242E-03 0.220E-67
DMP:  29    -0.569744364515E+02   -0.52832E-03   -0.47108E-03   336   0.708E-03 0.123E-02
 gam= 0.382 g(H,U,f)=  0.622E-03 0.709E-04 0.876E-70 ort(H,U,f) = 0.766E-03 0.158E-03 0.168E-69
DMP:  30    -0.569748503365E+02   -0.41388E-03   -0.41826E-03   336   0.693E-03 0.924E-03
 gam= 0.382 g(H,U,f)=  0.789E-03 0.568E-04-0.192E-69 ort(H,U,f) = 0.491E-03 0.106E-03 0.114E-68
DMP:  31    -0.569751729665E+02   -0.32263E-03   -0.42973E-03   336   0.846E-03 0.598E-03
 gam= 0.382 g(H,U,f)=  0.116E-02 0.502E-04 0.305E-69 ort(H,U,f) = 0.110E-03 0.687E-04 0.841E-70
DMP:  32    -0.569754179126E+02   -0.24495E-03   -0.51103E-03   336   0.121E-02 0.178E-03
 gam= 0.382 g(H,U,f)=  0.172E-02 0.663E-04-0.426E-71 ort(H,U,f) =-0.409E-03 0.392E-04 0.443E-71
DMP:  33    -0.569755931809E+02   -0.17527E-03   -0.65819E-03   336   0.179E-02-0.370E-03
 gam= 0.382 g(H,U,f)=  0.246E-02 0.881E-04 0.870E-70 ort(H,U,f) =-0.105E-02 0.217E-05-0.315E-70
DMP:  34    -0.569757070893E+02   -0.11391E-03   -0.85882E-03   336   0.255E-02-0.105E-02
 gam= 0.382 g(H,U,f)=  0.304E-02 0.135E-03 0.712E-72 ort(H,U,f) =-0.166E-02-0.300E-04-0.536E-72
DMP:  35    -0.569757872161E+02   -0.80127E-04   -0.10112E-02   336   0.318E-02-0.169E-02
 gam= 0.382 g(H,U,f)=  0.310E-02 0.158E-03 0.866E-70 ort(H,U,f) =-0.197E-02-0.675E-04-0.510E-70
DMP:  36    -0.569758767691E+02   -0.89553E-04   -0.99248E-03   336   0.326E-02-0.204E-02
 gam= 0.382 g(H,U,f)=  0.244E-02 0.167E-03 0.398E-72 ort(H,U,f) =-0.172E-02-0.776E-04-0.320E-72
DMP:  37    -0.569760027304E+02   -0.12596E-03   -0.76732E-03   336   0.261E-02-0.180E-02
 gam= 0.382 g(H,U,f)=  0.148E-02 0.127E-03 0.298E-70 ort(H,U,f) =-0.111E-02-0.702E-04-0.226E-70
DMP:  38    -0.569761447396E+02   -0.14201E-03   -0.46247E-03   336   0.161E-02-0.118E-02
 gam= 0.382 g(H,U,f)=  0.631E-03 0.842E-04 0.263E-72 ort(H,U,f) =-0.453E-03-0.405E-04-0.248E-72
DMP:  39    -0.569762720954E+02   -0.12736E-03   -0.21071E-03   336   0.715E-03-0.494E-03
 gam= 0.382 g(H,U,f)=  0.272E-03 0.397E-04 0.210E-71 ort(H,U,f) =-0.102E-03-0.150E-04-0.196E-71
DMP:  40    -0.569763509612E+02   -0.78866E-04   -0.10671E-03   336   0.311E-03-0.117E-03
 gam= 0.382 g(H,U,f)=  0.145E-03 0.193E-04 0.995E-73 ort(H,U,f) =-0.996E-05 0.112E-05-0.110E-72
DMP:  41    -0.569763992762E+02   -0.48315E-04   -0.64304E-04   336   0.164E-03-0.885E-05
 gam= 0.382 g(H,U,f)=  0.719E-04 0.737E-05 0.807E-73 ort(H,U,f) = 0.340E-04 0.613E-05-0.879E-73
DMP:  42    -0.569764369120E+02   -0.37636E-04   -0.37831E-04   336   0.792E-04 0.402E-04
 gam= 0.382 g(H,U,f)=  0.410E-04 0.409E-05 0.676E-74 ort(H,U,f) = 0.527E-04 0.657E-05-0.103E-73
DMP:  43    -0.569764651462E+02   -0.28234E-04   -0.27087E-04   336   0.451E-04 0.592E-04
 gam= 0.382 g(H,U,f)=  0.332E-04 0.246E-05 0.141E-74 ort(H,U,f) = 0.503E-04 0.513E-05-0.129E-74
DMP:  44    -0.569764875465E+02   -0.22400E-04   -0.22724E-04   336   0.356E-04 0.554E-04
 gam= 0.382 g(H,U,f)=  0.292E-04 0.180E-05-0.541E-77 ort(H,U,f) = 0.464E-04 0.380E-05-0.197E-76
DMP:  45    -0.569765068400E+02   -0.19294E-04   -0.20075E-04   336   0.310E-04 0.502E-04
 gam= 0.382 g(H,U,f)=  0.275E-04 0.138E-05-0.263E-76 ort(H,U,f) = 0.426E-04 0.283E-05-0.771E-76
DMP:  46    -0.569765239725E+02   -0.17133E-04   -0.18493E-04   336   0.289E-04 0.454E-04
 gam= 0.382 g(H,U,f)=  0.260E-04 0.109E-05 0.160E-75 ort(H,U,f) = 0.396E-04 0.216E-05 0.935E-76
DMP:  47    -0.569765396396E+02   -0.15667E-04   -0.17220E-04   336   0.271E-04 0.417E-04
 gam= 0.382 g(H,U,f)=  0.256E-04 0.926E-06 0.135E-76 ort(H,U,f) = 0.360E-04 0.173E-05-0.276E-75
DMP:  48    -0.569765538965E+02   -0.14257E-04   -0.16357E-04   336   0.265E-04 0.377E-04
 gam= 0.382 g(H,U,f)=  0.275E-04 0.781E-06 0.456E-75 ort(H,U,f) = 0.310E-04 0.141E-05 0.120E-75
DMP:  49    -0.569765667171E+02   -0.12821E-04   -0.16272E-04   336   0.283E-04 0.324E-04
 gam= 0.382 g(H,U,f)=  0.368E-04 0.784E-06 0.496E-75 ort(H,U,f) = 0.216E-04 0.119E-05-0.798E-75
DMP:  50    -0.569765776203E+02   -0.10903E-04   -0.18538E-04   336   0.376E-04 0.228E-04
 gam= 0.382 g(H,U,f)=  0.589E-04 0.788E-06 0.255E-74 ort(H,U,f) = 0.448E-05 0.904E-06-0.314E-75
DMP:  51    -0.569765862623E+02   -0.86420E-05   -0.24714E-04   336   0.597E-04 0.539E-05
 gam= 0.382 g(H,U,f)=  0.102E-03 0.129E-05 0.419E-74 ort(H,U,f) =-0.270E-04 0.613E-06-0.320E-74
DMP:  52    -0.569765916837E+02   -0.54214E-05   -0.37368E-04   336   0.104E-03-0.264E-04
 gam= 0.382 g(H,U,f)=  0.165E-03 0.222E-05 0.176E-73 ort(H,U,f) =-0.723E-04-0.216E-06-0.625E-74
DMP:  53    -0.569765943563E+02   -0.26727E-05   -0.55802E-04   336   0.167E-03-0.725E-04
 gam= 0.382 g(H,U,f)=  0.244E-03 0.496E-05 0.207E-73 ort(H,U,f) =-0.132E-03-0.157E-05-0.126E-73
DMP:  54    -0.569765939109E+02    0.44541E-06   -0.78955E-04   336   0.249E-03-0.134E-03
 gam= 0.382 g(H,U,f)=  0.313E-03 0.964E-05 0.110E-72 ort(H,U,f) =-0.190E-03-0.472E-05-0.527E-73
DMP:  55    -0.569765931539E+02    0.75706E-06   -0.99273E-04   336   0.323E-03-0.195E-03
 gam= 0.382 g(H,U,f)=  0.356E-03 0.177E-04 0.507E-73 ort(H,U,f) =-0.233E-03-0.953E-05-0.313E-73
DMP:  56    -0.569765928424E+02    0.31143E-06   -0.11264E-03   336   0.374E-03-0.242E-03
 gam= 0.382 g(H,U,f)=  0.384E-03 0.279E-04 0.481E-72 ort(H,U,f) =-0.258E-03-0.168E-04-0.276E-72
DMP:  57    -0.569765932475E+02   -0.40509E-06   -0.12273E-03   336   0.412E-03-0.275E-03
 gam= 0.382 g(H,U,f)=  0.390E-03 0.376E-04 0.307E-70 ort(H,U,f) =-0.267E-03-0.243E-04-0.209E-70
DMP:  58    -0.569765947980E+02   -0.15505E-05   -0.12658E-03   336   0.428E-03-0.292E-03
 gam= 0.382 g(H,U,f)=  0.380E-03 0.440E-04 0.955E-72 ort(H,U,f) =-0.276E-03-0.301E-04-0.637E-72
DMP:  59    -0.569765961542E+02   -0.13562E-05   -0.12258E-03   336   0.423E-03-0.306E-03
 gam= 0.382 g(H,U,f)=  0.285E-03 0.415E-04 0.257E-70 ort(H,U,f) =-0.222E-03-0.311E-04-0.201E-70
DMP:  60    -0.569766053482E+02   -0.91939E-05   -0.91902E-04   336   0.327E-03-0.253E-03
 gam= 0.382 g(H,U,f)=  0.193E-03 0.327E-04 0.515E-72 ort(H,U,f) =-0.157E-03-0.258E-04-0.403E-72
DMP:  61    -0.569766142927E+02   -0.89445E-05   -0.62234E-04   336   0.225E-03-0.183E-03
 gam= 0.382 g(H,U,f)=  0.108E-03 0.215E-04 0.169E-70 ort(H,U,f) =-0.875E-04-0.181E-04-0.150E-70
DMP:  62    -0.569766231746E+02   -0.88819E-05   -0.35740E-04   336   0.130E-03-0.106E-03
 gam= 0.382 g(H,U,f)=  0.642E-04 0.112E-04 0.948E-73 ort(H,U,f) =-0.506E-04-0.102E-04-0.866E-73
DMP:  63    -0.569766284085E+02   -0.52339E-05   -0.20830E-04   336   0.753E-04-0.608E-04
 gam= 0.382 g(H,U,f)=  0.318E-04 0.544E-05 0.140E-73 ort(H,U,f) =-0.241E-04-0.484E-05-0.133E-73
DMP:  64    -0.569766321769E+02   -0.37684E-05   -0.10476E-04   336   0.372E-04-0.290E-04
 gam= 0.382 g(H,U,f)=  0.165E-04 0.197E-05 0.109E-73 ort(H,U,f) =-0.107E-04-0.200E-05-0.113E-73
DMP:  65    -0.569766343720E+02   -0.21951E-05   -0.54614E-05   336   0.185E-04-0.127E-04
 gam= 0.382 g(H,U,f)=  0.735E-05 0.725E-06 0.256E-74 ort(H,U,f) =-0.302E-05-0.601E-06-0.266E-74
DMP:  66    -0.569766357085E+02   -0.13365E-05   -0.26786E-05   336   0.808E-05-0.362E-05
 gam= 0.382 g(H,U,f)=  0.413E-05 0.173E-06 0.685E-75 ort(H,U,f) =-0.793E-07-0.138E-06-0.839E-75
DMP:  67    -0.569766364735E+02   -0.76503E-06   -0.16875E-05   336   0.430E-05-0.217E-06
 gam= 0.382 g(H,U,f)=  0.252E-05 0.609E-07 0.155E-75 ort(H,U,f) = 0.968E-06 0.160E-07-0.189E-75
DMP:  68    -0.569766369548E+02   -0.48130E-06   -0.11843E-05   336   0.258E-05 0.984E-06
 gam= 0.382 g(H,U,f)=  0.170E-05 0.252E-07 0.945E-77 ort(H,U,f) = 0.132E-05 0.377E-07-0.140E-76
DMP:  69    -0.569766373094E+02   -0.35461E-06   -0.89942E-06   336   0.173E-05 0.136E-05
 final diagonalization
   1 F= -.56976637E+02 E0= -.56976637E+02  d E =0.000000E+00

Currently Loaded Modulefiles:
  1) Anaconda3/5.1.0       3) vesta/3.3.8           5) intel/2016.1
  2) gnuplot/5.0.4         4) imagemagick/6.7.9-0   6) vasp/5.4.1.Feb16

Job script resource usage:
       JobID  MaxVMSize     MaxRSS 
------------ ---------- ---------- 
28495439.ba+    499280K      6439K 

Job step resource usage:
       JobID    JobName  AllocCPUS  MaxVMSize     MaxRSS    Elapsed ExitCode 
------------ ---------- ---------- ---------- ---------- ---------- -------- 
28495439        jobname         16                         03:33:47      0:0 
28495439.0    pmi_proxy          1   8997260K   2571570K   03:33:44      0:0 

Job 28495439 ("jobname") completed on c4-11 at Mon Nov 4 00:13:13 CET 2019
